 vasp.6.1.2 22Jul20 (build Aug  2 2021 21:04:21) gamma-only                      
 executed on             LinuxPGI date 2021.12.25  06:37:51
 running on   16 total cores
 distrk:  each k-point on   16 cores,    1 groups
 distr:  one band on NCORE=   8 cores,    2 groups


--------------------------------------------------------------------------------------------------------


 INCAR:
 POTCAR:    PAW_PBE Cu 22Jun2005                  
 -----------------------------------------------------------------------------
|                                                                             |
|           W    W    AA    RRRRR   N    N  II  N    N   GGGG   !!!           |
|           W    W   A  A   R    R  NN   N  II  NN   N  G    G  !!!           |
|           W    W  A    A  R    R  N N  N  II  N N  N  G       !!!           |
|           W WW W  AAAAAA  RRRRR   N  N N  II  N  N N  G  GGG   !            |
|           WW  WW  A    A  R   R   N   NN  II  N   NN  G    G                |
|           W    W  A    A  R    R  N    N  II  N    N   GGGG   !!!           |
|                                                                             |
|     You use a magnetic or noncollinear calculation, but did not specify     |
|     the initial magnetic moment with the MAGMOM tag. Note that a            |
|     default of 1 will be used for all atoms. This ferromagnetic setup       |
|     may break the symmetry of the crystal, in particular it may rule        |
|     out finding an antiferromagnetic solution. Thence, we recommend         |
|     setting the initial magnetic moment manually or verifying carefully     |
|     that this magnetic setup is desired.                                    |
|                                                                             |
 -----------------------------------------------------------------------------

 POTCAR:    PAW_PBE Cu 22Jun2005                  
   SHA256 =  0e71e558f37a4e8407882b4609ceaae59938afaad9ced71dfe8490308a0ab630 Cu/POTCAR             
   COPYR  = (c) Copyright 22Jun2005 Georg Kresse                                                    
   COPYR  = This file is part of the software VASP. Any use, copying, and all other rights are regul
   COPYR  = If you do not have a valid VASP license, you may not use, copy or distribute this file. 
   VRHFIN =Cu: d10 p1                                                                               
   LEXCH  = PE                                                                                      
   EATOM  =  1390.9808 eV,  102.2342 Ry                                                             
                                                                                                    
   TITEL  = PAW_PBE Cu 22Jun2005                                                                    
   LULTRA =        F    use ultrasoft PP ?                                                          
   IUNSCR =        1    unscreen: 0-lin 1-nonlin 2-no                                               
   RPACOR =    2.000    partial core radius                                                         
   POMASS =   63.546; ZVAL   =   11.000    mass and valenz                                          
   RCORE  =    2.300    outmost cutoff radius                                                       
   RWIGS  =    2.200; RWIGS  =    1.164    wigner-seitz radius (au A)                               
   ENMAX  =  295.446; ENMIN  =  221.585 eV                                                          
   ICORE  =        3    local potential                                                             
   LCOR   =        T    correct aug charges                                                         
   LPAW   =        T    paw PP                                                                      
   EAUG   =  586.980                                                                                
   DEXC   =    0.000                                                                                
   RMAX   =    2.344    core radius for proj-oper                                                   
   RAUG   =    1.300    factor for augmentation sphere                                              
   RDEP   =    2.302    radius for radial grids                                                     
   RDEPT  =    1.771    core radius for aug-charge                                                  
                                                                                                    
   Atomic configuration                                                                             
    9 entries                                                                                       
     n  l   j            E        occ.                                                              
     1  0  0.50     -8850.2468   2.0000                                                             
     2  0  0.50     -1062.3498   2.0000                                                             
     2  1  1.50      -916.8226   6.0000                                                             
     3  0  0.50      -114.6929   2.0000                                                             
     3  1  1.50       -72.1325   6.0000                                                             
     3  2  2.50        -5.0394  10.0000                                                             
     4  0  0.50        -4.6097   1.0000                                                             
     4  1  0.50        -4.0817   0.0000                                                             
     4  3  2.50        -1.3606   0.0000                                                             
   Description                                                                                      
     l       E           TYP  RCUT    TYP  RCUT                                                     
     2     -5.0393973     23  2.200                                                                 
     2     10.8846608     23  2.200                                                                 
     0     -4.6097109     23  2.200                                                                 
     0      8.2520465     23  2.200                                                                 
     1     -2.7211652     23  2.200                                                                 
     1     21.7055443     23  2.200                                                                 
     3      2.7211652     23  2.300                                                                 
  local pseudopotential read in
  partial core-charges read in
  partial kinetic energy density read in
  atomic valenz-charges read in
  non local Contribution for L=            2  read in
    real space projection operators read in
  non local Contribution for L=            2  read in
    real space projection operators read in
  non local Contribution for L=            0  read in
    real space projection operators read in
  non local Contribution for L=            0  read in
    real space projection operators read in
  non local Contribution for L=            1  read in
    real space projection operators read in
  non local Contribution for L=            1  read in
    real space projection operators read in
    PAW grid and wavefunctions read in
 
   number of l-projection  operators is LMAX  =            6
   number of lm-projection operators is LMMAX =           18
 
  PAW_PBE Cu 22Jun2005                  :
 energy of atom  1       EATOM=-1390.9808
 kinetic energy error for atom=    0.0232 (will be added to EATOM!!)
 
 
 POSCAR: Cu
  positions in cartesian coordinates
  No initial velocities read in
 exchange correlation table for  LEXCH =        8
   RHO(1)=    0.500       N(1)  =     2000
   RHO(2)=  100.500       N(2)  =     4000
 


--------------------------------------------------------------------------------------------------------


 ion  position               nearest neighbor table
   1  0.508  0.593  0.416-  11 2.37   6 2.42   3 2.42   4 2.56   2 2.64
   2  0.464  0.506  0.472-   6 2.37   3 2.42   9 2.43   7 2.47   5 2.48  11 2.55  12 2.61   1 2.64

   3  0.539  0.491  0.413-   4 2.37   5 2.41   8 2.42   2 2.42   1 2.42  11 2.58
   4  0.605  0.565  0.419-   3 2.37  11 2.44   8 2.47   1 2.56
   5  0.524  0.421  0.487-  13 2.38   3 2.41  10 2.43   9 2.47   2 2.48   8 2.53
   6  0.452  0.608  0.495-   2 2.37   1 2.42  12 2.43   7 2.48  11 2.69
   7  0.396  0.532  0.541-  12 2.39   2 2.47   6 2.48   9 2.50
   8  0.609  0.477  0.480-  10 2.38   3 2.42   4 2.47  11 2.47   5 2.53  13 2.54
   9  0.457  0.446  0.556-  12 2.39   2 2.43   5 2.47   7 2.50  13 2.55
  10  0.602  0.390  0.535-   8 2.38  13 2.41   5 2.43
  11  0.548  0.559  0.499-   1 2.37  12 2.40   4 2.44   8 2.47  13 2.49   2 2.55   3 2.58   6 2.69

  12  0.484  0.547  0.571-   7 2.39   9 2.39  13 2.40  11 2.40   6 2.43   2 2.61
  13  0.552  0.475  0.566-   5 2.38  12 2.40  10 2.41  11 2.49   8 2.54   9 2.55
 

IMPORTANT INFORMATION: All symmetrisations will be switched off!
NOSYMM: (Re-)initialisation of all symmetry stuff for point group C_1.


----------------------------------------------------------------------------------------

                                     Primitive cell                                     

  volume of cell :   13870.6895

  direct lattice vectors                    reciprocal lattice vectors
    25.715344608  0.000000000  0.000000000     0.038887288  0.000000000  0.000000000
     0.000000000 22.393162374  0.000000000     0.000000000  0.044656489  0.000000000
     0.000000000  0.000000000 24.087419260     0.000000000  0.000000000  0.041515448

  length of vectors
    25.715344608 22.393162374 24.087419260     0.038887288  0.044656489  0.041515448

  position of ions in fractional coordinates (direct lattice)
     0.508321587  0.593207970  0.415829292
     0.463923105  0.505868333  0.472020560
     0.539280071  0.490957079  0.413327576
     0.604763785  0.565151558  0.418614828
     0.523888547  0.420521836  0.486999384
     0.452018041  0.608006131  0.494912377
     0.396420747  0.532263692  0.540619927
     0.608793746  0.477001578  0.479772809
     0.456860701  0.446491483  0.556070964
     0.602040998  0.389621181  0.535465480
     0.547578694  0.559353254  0.499172350
     0.483754093  0.547204306  0.571022519
     0.552365760  0.474846881  0.566296460

  ion indices of the primitive-cell ions
   primitive index   ion index
                 1           1
                 2           2
                 3           3
                 4           4
                 5           5
                 6           6
                 7           7
                 8           8
                 9           9
                10          10
                11          11
                12          12
                13          13

----------------------------------------------------------------------------------------

 
 
 KPOINTS: KPOINTS created by Atomic Simulation Env

Automatic generation of k-mesh.
Space group operators:
 irot       det(A)        alpha          n_x          n_y          n_z        tau_x        tau_y        tau_z
    1     1.000000     0.000000     1.000000     0.000000     0.000000     0.000000     0.000000     0.000000
 
 Subroutine IBZKPT returns following result:
 ===========================================
 
 Found      1 irreducible k-points:
 
 Following reciprocal coordinates:
            Coordinates               Weight
  0.000000  0.000000  0.000000      1.000000
 
 Following cartesian coordinates:
            Coordinates               Weight
  0.000000  0.000000  0.000000      1.000000
 


--------------------------------------------------------------------------------------------------------




 Dimension of arrays:
   k-points           NKPTS =      1   k-points in BZ     NKDIM =      1   number of bands    NBANDS=     92
   number of dos      NEDOS =    301   number of ions     NIONS =     13
   non local maximal  LDIM  =      6   non local SUM 2l+1 LMDIM =     18
   total plane-waves  NPLWV = ******
   max r-space proj   IRMAX =      1   max aug-charges    IRDMAX=   3735
   dimension x,y,z NGX =   126 NGY =  112 NGZ =  120
   dimension x,y,z NGXF=   252 NGYF=  224 NGZF=  240
   support grid    NGXF=   252 NGYF=  224 NGZF=  240
   ions per type =              13
   NGX,Y,Z   is equivalent  to a cutoff of   8.15,  8.31,  8.28 a.u.
   NGXF,Y,Z  is equivalent  to a cutoff of  16.29, 16.63, 16.56 a.u.

 SYSTEM =  unknown system                          
 POSCAR =  Cu                                      

 Startparameter for this run:
   NWRITE =      2    write-flag & timer
   PREC   = normal    normal or accurate (medium, high low for compatibility)
   ISTART =      0    job   : 0-new  1-cont  2-samecut
   ICHARG =      2    charge: 1-file 2-atom 10-const
   ISPIN  =      2    spin polarized calculation?
   LNONCOLLINEAR =      F non collinear calculations
   LSORBIT =      F    spin-orbit coupling
   INIWAV =      1    electr: 0-lowe 1-rand  2-diag
   LASPH  =      F    aspherical Exc in radial PAW
   METAGGA=      F    non-selfconsistent MetaGGA calc.

 Electronic Relaxation 1
   ENCUT  =  400.0 eV  29.40 Ry    5.42 a.u.  41.94 36.52 39.28*2*pi/ulx,y,z
   ENINI  =  400.0     initial cutoff
   ENAUG  =  587.0 eV  augmentation charge cutoff
   NELM   =     60;   NELMIN=  2; NELMDL=  0     # of ELM steps 
   EDIFF  = 0.1E-03   stopping-criterion for ELM
   LREAL  =      F    real-space projection
   NLSPLINE    = F    spline interpolate recip. space projectors
   LCOMPAT=      F    compatible to vasp.4.4
   GGA_COMPAT  = T    GGA compatible to vasp.4.4-vasp.4.6
   LMAXPAW     = -100 max onsite density
   LMAXMIX     =    2 max onsite mixed and CHGCAR
   VOSKOWN=      0    Vosko Wilk Nusair interpolation
   ROPT   =    0.00000
 Ionic relaxation
   EDIFFG = 0.1E-02   stopping-criterion for IOM
   NSW    =   1000    number of steps for IOM
   NBLOCK =      1;   KBLOCK =   1000    inner block; outer block 
   IBRION =      2    ionic relax: 0-MD 1-quasi-New 2-CG
   NFREE  =      1    steps in history (QN), initial steepest desc. (CG)
   ISIF   =      0    stress and relaxation
   IWAVPR =     11    prediction:  0-non 1-charg 2-wave 3-comb
   ISYM   =      0    0-nonsym 1-usesym 2-fastsym
   LCORR  =      T    Harris-Foulkes like correction to forces

   POTIM  = 0.5000    time-step for ionic-motion
   TEIN   =    0.0    initial temperature
   TEBEG  =    0.0;   TEEND  =   0.0 temperature during run
   SMASS  =  -3.00    Nose mass-parameter (am)
   estimated Nose-frequenzy (Omega)   =  0.10E-29 period in steps = 0.13E+47 mass=  -0.151E-25a.u.
   SCALEE = 1.0000    scale energy and forces
   NPACO  =    256;   APACO  = 16.0  distance and # of slots for P.C.
   PSTRESS=    0.0 pullay stress

  Mass of Ions in am
   POMASS =  63.55
  Ionic Valenz
   ZVAL   =  11.00
  Atomic Wigner-Seitz radii
   RWIGS  =  -1.00
  virtual crystal weights 
   VCA    =   1.00
   NELECT =     143.0000    total number of electrons
   NUPDOWN=      -1.0000    fix difference up-down

 DOS related values:
   EMIN   =  10.00;   EMAX   =-10.00  energy-range for DOS
   EFERMI =   0.00
   ISMEAR =     1;   SIGMA  =   0.20  broadening in eV -4-tet -1-fermi 0-gaus

 Electronic relaxation 2 (details)
   IALGO  =     38    algorithm
   LDIAG  =      T    sub-space diagonalisation (order eigenvalues)
   LSUBROT=      F    optimize rotation matrix (better conditioning)
   TURBO    =      0    0=normal 1=particle mesh
   IRESTART =      0    0=no restart 2=restart with 2 vectors
   NREBOOT  =      0    no. of reboots
   NMIN     =      0    reboot dimension
   EREF     =   0.00    reference energy to select bands
   IMIX   =      4    mixing-type and parameters
     AMIX     =   0.40;   BMIX     =  1.00
     AMIX_MAG =   1.60;   BMIX_MAG =  1.00
     AMIN     =   0.10
     WC   =   100.;   INIMIX=   1;  MIXPRE=   1;  MAXMIX= -45

 Intra band minimization:
   WEIMIN = 0.0010     energy-eigenvalue tresh-hold
   EBREAK =  0.27E-06  absolut break condition
   DEPER  =   0.30     relativ break condition  

   TIME   =   0.40     timestep for ELM

  volume/ion in A,a.u.               =    1066.98      7200.31
  Fermi-wavevector in a.u.,A,eV,Ry     =   0.356304  0.673317  1.727295  0.126953
  Thomas-Fermi vector in A             =   1.272812
 
 Write flags
   LWAVE        =      F    write WAVECAR
   LDOWNSAMPLE  =      F    k-point downsampling of WAVECAR
   LCHARG       =      F    write CHGCAR
   LVTOT        =      F    write LOCPOT, total local potential
   LVHAR        =      F    write LOCPOT, Hartree potential only
   LELF         =      F    write electronic localiz. function (ELF)
   LORBIT       =      0    0 simple, 1 ext, 2 COOP (PROOUT), +10 PAW based schemes


 Dipole corrections
   LMONO  =      F    monopole corrections only (constant potential shift)
   LDIPOL =      F    correct potential (dipole corrections)
   IDIPOL =      0    1-x, 2-y, 3-z, 4-all directions 
   EPSILON=  1.0000000 bulk dielectric constant

 Exchange correlation treatment:
   GGA     =    PE    GGA type
   LEXCH   =     8    internal setting for exchange type
   VOSKOWN=      0    Vosko Wilk Nusair interpolation
   LHFCALC =     F    Hartree Fock is set to
   LHFONE  =     F    Hartree Fock one center treatment
   AEXX    =    0.0000 exact exchange contribution

 Linear response parameters
   LEPSILON=     F    determine dielectric tensor
   LRPA    =     F    only Hartree local field effects (RPA)
   LNABLA  =     F    use nabla operator in PAW spheres
   LVEL    =     F    velocity operator in full k-point grid
   LINTERFAST=   F  fast interpolation
   KINTER  =     0    interpolate to denser k-point grid
   CSHIFT  =0.1000    complex shift for real part using Kramers Kronig
   OMEGAMAX=  -1.0    maximum frequency
   DEG_THRESHOLD= 0.2000000E-02 threshold for treating states as degnerate
   RTIME   =   -0.100 relaxation time in fs
  (WPLASMAI=    0.000 imaginary part of plasma frequency in eV, 0.658/RTIME)
   DFIELD  = 0.0000000 0.0000000 0.0000000 field for delta impulse in time
 
 Orbital magnetization related:
   ORBITALMAG=     F  switch on orbital magnetization
   LCHIMAG   =     F  perturbation theory with respect to B field
   DQ        =  0.001000  dq finite difference perturbation B field
   LLRAUG    =     F  two centre corrections for induced B field



--------------------------------------------------------------------------------------------------------


 conjugate gradient relaxation of ions
 charge density and potential will be updated during run
 spin polarized calculation
 Variant of blocked Davidson
 Davidson routine will perform the subspace rotation
 perform sub-space diagonalisation
    after iterative eigenvector-optimisation
 modified Broyden-mixing scheme, WC =      100.0
 initial mixing is a Kerker type mixing with AMIX =  0.4000 and BMIX =      1.0000
 Hartree-type preconditioning will be used
 using additional bands            20
 reciprocal scheme for non local part
 use partial core corrections
 calculate Harris-corrections to forces 
   (improved forces if not selfconsistent)
 use gradient corrections 
 use of overlap-Matrix (Vanderbilt PP)
 Methfessel and Paxton  Order N= 1 SIGMA  =   0.20


--------------------------------------------------------------------------------------------------------


  energy-cutoff  :      400.00
  volume of cell :    13870.69
      direct lattice vectors                 reciprocal lattice vectors
    25.715344608  0.000000000  0.000000000     0.038887288  0.000000000  0.000000000
     0.000000000 22.393162374  0.000000000     0.000000000  0.044656489  0.000000000
     0.000000000  0.000000000 24.087419260     0.000000000  0.000000000  0.041515448

  length of vectors
    25.715344608 22.393162374 24.087419260     0.038887288  0.044656489  0.041515448


 
 k-points in units of 2pi/SCALE and weight: KPOINTS created by Atomic Simulation Env
   0.00000000  0.00000000  0.00000000       1.000
 
 k-points in reciprocal lattice and weights: KPOINTS created by Atomic Simulation Env
   0.00000000  0.00000000  0.00000000       1.000
 
 position of ions in fractional coordinates (direct lattice) 
   0.50832159  0.59320797  0.41582929
   0.46392311  0.50586833  0.47202056
   0.53928007  0.49095708  0.41332758
   0.60476379  0.56515156  0.41861483
   0.52388855  0.42052184  0.48699938
   0.45201804  0.60800613  0.49491238
   0.39642075  0.53226369  0.54061993
   0.60879375  0.47700158  0.47977281
   0.45686070  0.44649148  0.55607096
   0.60204100  0.38962118  0.53546548
   0.54757869  0.55935325  0.49917235
   0.48375409  0.54720431  0.57102252
   0.55236576  0.47484688  0.56629646
 
 position of ions in cartesian coordinates  (Angst):
  13.07166477 13.28380238 10.01625451
  11.92994252 11.32799173 11.36975714
  13.86777286 10.99408160  9.95599461
  15.55170914 12.65553060 10.08335087
  13.47197452  9.41681375 11.73055834
  11.62379969 13.61518002 11.92116193
  10.19409611 11.91906728 13.02213884
  15.65534099 10.68157378 11.55648881
  11.74833037  9.99835627 13.39431444
  15.48169173  8.72485036 12.89798152
  14.08117481 12.52568825 12.02377367
  12.43990321 12.25363488 13.75445882
  14.20427588 10.63332330 13.64062026
 


--------------------------------------------------------------------------------------------------------


 use parallel FFT for orbitals z direction half grid
 k-point   1 :   0.0000 0.0000 0.0000  plane waves:  126021

 maximum and minimum number of plane-waves per node :     15761    15740

 maximum number of plane-waves:    126021
 maximum index in each direction: 
   IXMAX=   41   IYMAX=   36   IZMAX=   39
   IXMIN=  -41   IYMIN=  -36   IZMIN=    0


 parallel 3D FFT for wavefunctions:
    minimum data exchange during FFTs selected (reduces bandwidth)
 parallel 3D FFT for charge:
    minimum data exchange during FFTs selected (reduces bandwidth)


 total amount of memory used by VASP MPI-rank0   171959. kBytes
=======================================================================

   base      :      30000. kBytes
   nonl-proj :       5545. kBytes
   fftplans  :      33574. kBytes
   grid      :      79593. kBytes
   one-center:         31. kBytes
   wavefun   :      23216. kBytes
 
     INWAV:  cpu time    0.0000: real time    0.0000
 Broyden mixing: mesh for mixing (old mesh)
   NGX = 83   NGY = 73   NGZ = 79
  (NGX  =252   NGY  =224   NGZ  =240)
  gives a total of 478661 points

 initial charge density was supplied:
 charge density of overlapping atoms calculated
 number of electron     143.0000000 magnetization      13.0000000
 keeping initial charge density in first step


--------------------------------------------------------------------------------------------------------


 Maximum index for augmentation-charges           280 (set IRDMAX)


--------------------------------------------------------------------------------------------------------


 First call to EWALD:  gamma=   0.074
 Maximum number of real-space cells 3x 3x 3
 Maximum number of reciprocal cells 3x 3x 3

    FEWALD:  cpu time    0.0020: real time    0.0020


--------------------------------------- Iteration      1(   1)  ---------------------------------------


    POTLOK:  cpu time    2.6966: real time    2.7290
    SETDIJ:  cpu time    0.0239: real time    0.0239
     EDDAV:  cpu time   11.6576: real time   11.6709
       DOS:  cpu time    0.0012: real time    0.0012
    --------------------------------------------
      LOOP:  cpu time   14.3793: real time   14.4250

 eigenvalue-minimisations  :   368
 total energy-change (2. order) : 0.9819651E+03  (-0.2447069E+04)
 number of electron     143.0000000 magnetization      13.0000000
 augmentation part      143.0000000 magnetization      13.0000000

 Free energy of the ion-electron system (eV)
  ---------------------------------------------------
  alpha Z        PSCENC =         8.91047545
  Ewald energy   TEWEN  =     25225.36477849
  -Hartree energ DENC   =    -41680.39700268
  -exchange      EXHF   =         0.00000000
  -V(xc)+E(xc)   XCENC  =       584.85984692
  PAW double counting   =     15965.26744864   -17340.97210982
  entropy T*S    EENTRO =         0.02698402
  eigenvalues    EBANDS =       136.45534521
  atomic energy  EATOM  =     18082.44932260
  Solvation  Ediel_sol  =         0.00000000
  ---------------------------------------------------
  free energy    TOTEN  =       981.96508883 eV

  energy without entropy =      981.93810480  energy(sigma->0) =      981.95609415


--------------------------------------------------------------------------------------------------------




--------------------------------------- Iteration      1(   2)  ---------------------------------------


     EDDAV:  cpu time   11.7254: real time   11.7405
       DOS:  cpu time    0.0014: real time    0.0014
    --------------------------------------------
      LOOP:  cpu time   11.7268: real time   11.7419

 eigenvalue-minimisations  :   368
 total energy-change (2. order) :-0.6865795E+03  (-0.6177149E+03)
 number of electron     143.0000000 magnetization      13.0000000
 augmentation part      143.0000000 magnetization      13.0000000

 Free energy of the ion-electron system (eV)
  ---------------------------------------------------
  alpha Z        PSCENC =         8.91047545
  Ewald energy   TEWEN  =     25225.36477849
  -Hartree energ DENC   =    -41680.39700268
  -exchange      EXHF   =         0.00000000
  -V(xc)+E(xc)   XCENC  =       584.85984692
  PAW double counting   =     15965.26744864   -17340.97210982
  entropy T*S    EENTRO =        -0.02635800
  eigenvalues    EBANDS =      -550.07080941
  atomic energy  EATOM  =     18082.44932260
  Solvation  Ediel_sol  =         0.00000000
  ---------------------------------------------------
  free energy    TOTEN  =       295.38559218 eV

  energy without entropy =      295.41195019  energy(sigma->0) =      295.39437818


--------------------------------------------------------------------------------------------------------




--------------------------------------- Iteration      1(   3)  ---------------------------------------


     EDDAV:  cpu time   14.2745: real time   14.2950
       DOS:  cpu time    0.0009: real time    0.0009
    --------------------------------------------
      LOOP:  cpu time   14.2754: real time   14.2959

 eigenvalue-minimisations  :   480
 total energy-change (2. order) :-0.2769472E+03  (-0.2657210E+03)
 number of electron     143.0000000 magnetization      13.0000000
 augmentation part      143.0000000 magnetization      13.0000000

 Free energy of the ion-electron system (eV)
  ---------------------------------------------------
  alpha Z        PSCENC =         8.91047545
  Ewald energy   TEWEN  =     25225.36477849
  -Hartree energ DENC   =    -41680.39700268
  -exchange      EXHF   =         0.00000000
  -V(xc)+E(xc)   XCENC  =       584.85984692
  PAW double counting   =     15965.26744864   -17340.97210982
  entropy T*S    EENTRO =         0.02404517
  eigenvalues    EBANDS =      -827.06839197
  atomic energy  EATOM  =     18082.44932260
  Solvation  Ediel_sol  =         0.00000000
  ---------------------------------------------------
  free energy    TOTEN  =        18.43841280 eV

  energy without entropy =       18.41436762  energy(sigma->0) =       18.43039774


--------------------------------------------------------------------------------------------------------




--------------------------------------- Iteration      1(   4)  ---------------------------------------


     EDDAV:  cpu time   13.5662: real time   13.5856
       DOS:  cpu time    0.0011: real time    0.0011
    --------------------------------------------
      LOOP:  cpu time   13.5672: real time   13.5867

 eigenvalue-minimisations  :   448
 total energy-change (2. order) :-0.5270474E+02  (-0.4924876E+02)
 number of electron     143.0000000 magnetization      13.0000000
 augmentation part      143.0000000 magnetization      13.0000000

 Free energy of the ion-electron system (eV)
  ---------------------------------------------------
  alpha Z        PSCENC =         8.91047545
  Ewald energy   TEWEN  =     25225.36477849
  -Hartree energ DENC   =    -41680.39700268
  -exchange      EXHF   =         0.00000000
  -V(xc)+E(xc)   XCENC  =       584.85984692
  PAW double counting   =     15965.26744864   -17340.97210982
  entropy T*S    EENTRO =         0.03044117
  eigenvalues    EBANDS =      -879.77953072
  atomic energy  EATOM  =     18082.44932260
  Solvation  Ediel_sol  =         0.00000000
  ---------------------------------------------------
  free energy    TOTEN  =       -34.26632996 eV

  energy without entropy =      -34.29677113  energy(sigma->0) =      -34.27647702


--------------------------------------------------------------------------------------------------------




--------------------------------------- Iteration      1(   5)  ---------------------------------------


     EDDAV:  cpu time   14.8072: real time   14.8245
       DOS:  cpu time    0.0011: real time    0.0011
    CHARGE:  cpu time    0.9647: real time    0.9656
    MIXING:  cpu time    0.0463: real time    0.0463
    --------------------------------------------
      LOOP:  cpu time   15.8193: real time   15.8375

 eigenvalue-minimisations  :   504
 total energy-change (2. order) :-0.3148631E+01  (-0.3087968E+01)
 number of electron     143.0000617 magnetization      11.9136972
 augmentation part       87.4599156 magnetization      12.2661487

 Broyden mixing:
  rms(total) = 0.28778E+01    rms(broyden)= 0.28776E+01
  rms(prec ) = 0.29406E+01
  weight for this iteration     100.00

 Free energy of the ion-electron system (eV)
  ---------------------------------------------------
  alpha Z        PSCENC =         8.91047545
  Ewald energy   TEWEN  =     25225.36477849
  -Hartree energ DENC   =    -41680.39700268
  -exchange      EXHF   =         0.00000000
  -V(xc)+E(xc)   XCENC  =       584.85984692
  PAW double counting   =     15965.26744864   -17340.97210982
  entropy T*S    EENTRO =         0.08971905
  eigenvalues    EBANDS =      -882.98743953
  atomic energy  EATOM  =     18082.44932260
  Solvation  Ediel_sol  =         0.00000000
  ---------------------------------------------------
  free energy    TOTEN  =       -37.41496088 eV

  energy without entropy =      -37.50467993  energy(sigma->0) =      -37.44486723


--------------------------------------------------------------------------------------------------------




--------------------------------------- Iteration      1(   6)  ---------------------------------------


    POTLOK:  cpu time    2.7328: real time    2.7356
    SETDIJ:  cpu time    0.0246: real time    0.0246
     EDDAV:  cpu time   12.0688: real time   12.0849
       DOS:  cpu time    0.0010: real time    0.0010
    CHARGE:  cpu time    0.9790: real time    0.9799
    MIXING:  cpu time    0.0486: real time    0.0487
    --------------------------------------------
      LOOP:  cpu time   15.8548: real time   15.8745

 eigenvalue-minimisations  :   388
 total energy-change (2. order) : 0.2291500E+02  (-0.1380157E+02)
 number of electron     143.0000662 magnetization      11.2210858
 augmentation part       94.7929783 magnetization       8.3226155

 Broyden mixing:
  rms(total) = 0.12368E+01    rms(broyden)= 0.12365E+01
  rms(prec ) = 0.12985E+01
  weight for this iteration     100.00

 eigenvalues of (default mixing * dielectric matrix)
  average eigenvalue GAMMA=   0.8294
  0.8294

 Free energy of the ion-electron system (eV)
  ---------------------------------------------------
  alpha Z        PSCENC =         8.91047545
  Ewald energy   TEWEN  =     25225.36477849
  -Hartree energ DENC   =    -41468.88401931
  -exchange      EXHF   =         0.00000000
  -V(xc)+E(xc)   XCENC  =       587.47462254
  PAW double counting   =     16155.97797866   -17487.51319838
  entropy T*S    EENTRO =        -0.02755238
  eigenvalues    EBANDS =     -1118.25236418
  atomic energy  EATOM  =     18082.44932260
  Solvation  Ediel_sol  =         0.00000000
  ---------------------------------------------------
  free energy    TOTEN  =       -14.49995651 eV

  energy without entropy =      -14.47240413  energy(sigma->0) =      -14.49077238


--------------------------------------------------------------------------------------------------------




--------------------------------------- Iteration      1(   7)  ---------------------------------------


    POTLOK:  cpu time    2.7072: real time    2.7110
    SETDIJ:  cpu time    0.0243: real time    0.0243
     EDDAV:  cpu time   13.2312: real time   13.2564
       DOS:  cpu time    0.0014: real time    0.0014
    CHARGE:  cpu time    0.9823: real time    0.9834
    MIXING:  cpu time    0.0574: real time    0.0574
    --------------------------------------------
      LOOP:  cpu time   17.0038: real time   17.0340

 eigenvalue-minimisations  :   440
 total energy-change (2. order) : 0.6058415E+01  (-0.3249144E+01)
 number of electron     143.0000656 magnetization      10.3567828
 augmentation part       91.9976338 magnetization       7.0300804

 Broyden mixing:
  rms(total) = 0.51949E+00    rms(broyden)= 0.51938E+00
  rms(prec ) = 0.53940E+00
  weight for this iteration     100.00

 eigenvalues of (default mixing * dielectric matrix)
  average eigenvalue GAMMA=   0.8692
  1.0772  0.6612

 Free energy of the ion-electron system (eV)
  ---------------------------------------------------
  alpha Z        PSCENC =         8.91047545
  Ewald energy   TEWEN  =     25225.36477849
  -Hartree energ DENC   =    -41629.50685707
  -exchange      EXHF   =         0.00000000
  -V(xc)+E(xc)   XCENC  =       595.90133063
  PAW double counting   =     16478.32367044   -17863.16898788
  entropy T*S    EENTRO =        -0.04914324
  eigenvalues    EBANDS =      -906.66613131
  atomic energy  EATOM  =     18082.44932260
  Solvation  Ediel_sol  =         0.00000000
  ---------------------------------------------------
  free energy    TOTEN  =        -8.44154189 eV

  energy without entropy =       -8.39239865  energy(sigma->0) =       -8.42516081


--------------------------------------------------------------------------------------------------------




--------------------------------------- Iteration      1(   8)  ---------------------------------------


    POTLOK:  cpu time    2.7027: real time    2.7106
    SETDIJ:  cpu time    0.0241: real time    0.0241
     EDDAV:  cpu time   13.6374: real time   13.6549
       DOS:  cpu time    0.0010: real time    0.0010
    CHARGE:  cpu time    0.9907: real time    0.9960
    MIXING:  cpu time    0.0610: real time    0.0611
    --------------------------------------------
      LOOP:  cpu time   17.4170: real time   17.4476

 eigenvalue-minimisations  :   456
 total energy-change (2. order) :-0.2507245E+00  (-0.6365164E+00)
 number of electron     143.0000639 magnetization       9.8245707
 augmentation part       91.3938555 magnetization       5.9710288

 Broyden mixing:
  rms(total) = 0.47313E+00    rms(broyden)= 0.47305E+00
  rms(prec ) = 0.49173E+00
  weight for this iteration     100.00

 eigenvalues of (default mixing * dielectric matrix)
  average eigenvalue GAMMA=   0.7809
  1.1584  0.6229  0.5613

 Free energy of the ion-electron system (eV)
  ---------------------------------------------------
  alpha Z        PSCENC =         8.91047545
  Ewald energy   TEWEN  =     25225.36477849
  -Hartree energ DENC   =    -41667.65120429
  -exchange      EXHF   =         0.00000000
  -V(xc)+E(xc)   XCENC  =       595.77173344
  PAW double counting   =     16697.44086553   -18094.01326623
  entropy T*S    EENTRO =        -0.07151778
  eigenvalues    EBANDS =      -856.89345364
  atomic energy  EATOM  =     18082.44932260
  Solvation  Ediel_sol  =         0.00000000
  ---------------------------------------------------
  free energy    TOTEN  =        -8.69226643 eV

  energy without entropy =       -8.62074865  energy(sigma->0) =       -8.66842717


--------------------------------------------------------------------------------------------------------




--------------------------------------- Iteration      1(   9)  ---------------------------------------


    POTLOK:  cpu time    2.6938: real time    2.6974
    SETDIJ:  cpu time    0.0240: real time    0.0240
     EDDAV:  cpu time   14.4314: real time   14.4498
       DOS:  cpu time    0.0016: real time    0.0016
    CHARGE:  cpu time    0.9845: real time    0.9855
    MIXING:  cpu time    0.0611: real time    0.0612
    --------------------------------------------
      LOOP:  cpu time   18.1964: real time   18.2195

 eigenvalue-minimisations  :   488
 total energy-change (2. order) :-0.1975738E+01  (-0.1622329E+00)
 number of electron     143.0000645 magnetization       8.7685094
 augmentation part       91.4837275 magnetization       5.6283556

 Broyden mixing:
  rms(total) = 0.31488E+00    rms(broyden)= 0.31482E+00
  rms(prec ) = 0.32207E+00
  weight for this iteration     100.00

 eigenvalues of (default mixing * dielectric matrix)
  average eigenvalue GAMMA=   0.8723
  1.2661  0.8866  0.8866  0.4500

 Free energy of the ion-electron system (eV)
  ---------------------------------------------------
  alpha Z        PSCENC =         8.91047545
  Ewald energy   TEWEN  =     25225.36477849
  -Hartree energ DENC   =    -41668.55585422
  -exchange      EXHF   =         0.00000000
  -V(xc)+E(xc)   XCENC  =       593.53719093
  PAW double counting   =     16773.19886932   -18170.23040084
  entropy T*S    EENTRO =        -0.04020808
  eigenvalues    EBANDS =      -855.30217806
  atomic energy  EATOM  =     18082.44932260
  Solvation  Ediel_sol  =         0.00000000
  ---------------------------------------------------
  free energy    TOTEN  =       -10.66800440 eV

  energy without entropy =      -10.62779632  energy(sigma->0) =      -10.65460171


--------------------------------------------------------------------------------------------------------




--------------------------------------- Iteration      1(  10)  ---------------------------------------


    POTLOK:  cpu time    2.7096: real time    2.7129
    SETDIJ:  cpu time    0.0248: real time    0.0248
     EDDAV:  cpu time   14.8322: real time   14.8516
       DOS:  cpu time    0.0016: real time    0.0016
    CHARGE:  cpu time    0.9430: real time    0.9461
    MIXING:  cpu time    0.0681: real time    0.0681
    --------------------------------------------
      LOOP:  cpu time   18.5792: real time   18.6051

 eigenvalue-minimisations  :   504
 total energy-change (2. order) :-0.3161304E+01  (-0.1861791E+00)
 number of electron     143.0000649 magnetization       7.8193032
 augmentation part       91.7897333 magnetization       5.5990172

 Broyden mixing:
  rms(total) = 0.24629E+00    rms(broyden)= 0.24621E+00
  rms(prec ) = 0.25205E+00
  weight for this iteration     100.00

 eigenvalues of (default mixing * dielectric matrix)
  average eigenvalue GAMMA=   0.9697
  1.7567  1.3062  0.6441  0.6441  0.4975

 Free energy of the ion-electron system (eV)
  ---------------------------------------------------
  alpha Z        PSCENC =         8.91047545
  Ewald energy   TEWEN  =     25225.36477849
  -Hartree energ DENC   =    -41670.89976421
  -exchange      EXHF   =         0.00000000
  -V(xc)+E(xc)   XCENC  =       590.49831154
  PAW double counting   =     16849.93054790   -18245.26796828
  entropy T*S    EENTRO =         0.02317178
  eigenvalues    EBANDS =      -854.83818360
  atomic energy  EATOM  =     18082.44932260
  Solvation  Ediel_sol  =         0.00000000
  ---------------------------------------------------
  free energy    TOTEN  =       -13.82930832 eV

  energy without entropy =      -13.85248010  energy(sigma->0) =      -13.83703225


--------------------------------------------------------------------------------------------------------




--------------------------------------- Iteration      1(  11)  ---------------------------------------


    POTLOK:  cpu time    2.6926: real time    2.6982
    SETDIJ:  cpu time    0.0237: real time    0.0237
     EDDAV:  cpu time   14.2885: real time   14.3085
       DOS:  cpu time    0.0009: real time    0.0009
    CHARGE:  cpu time    0.9995: real time    1.0004
    MIXING:  cpu time    0.0735: real time    0.0735
    --------------------------------------------
      LOOP:  cpu time   18.0787: real time   18.1054

 eigenvalue-minimisations  :   480
 total energy-change (2. order) :-0.3408422E+01  (-0.1501224E+00)
 number of electron     143.0000648 magnetization       6.5923699
 augmentation part       91.8551784 magnetization       4.6819204

 Broyden mixing:
  rms(total) = 0.19387E+00    rms(broyden)= 0.19384E+00
  rms(prec ) = 0.19721E+00
  weight for this iteration     100.00

 eigenvalues of (default mixing * dielectric matrix)
  average eigenvalue GAMMA=   1.0615
  2.1824  1.7320  0.7387  0.7387  0.4887  0.4887

 Free energy of the ion-electron system (eV)
  ---------------------------------------------------
  alpha Z        PSCENC =         8.91047545
  Ewald energy   TEWEN  =     25225.36477849
  -Hartree energ DENC   =    -41679.15942346
  -exchange      EXHF   =         0.00000000
  -V(xc)+E(xc)   XCENC  =       587.90336561
  PAW double counting   =     16888.03211163   -18283.28626417
  entropy T*S    EENTRO =         0.02923750
  eigenvalues    EBANDS =      -847.48133363
  atomic energy  EATOM  =     18082.44932260
  Solvation  Ediel_sol  =         0.00000000
  ---------------------------------------------------
  free energy    TOTEN  =       -17.23772997 eV

  energy without entropy =      -17.26696747  energy(sigma->0) =      -17.24747581


--------------------------------------------------------------------------------------------------------




--------------------------------------- Iteration      1(  12)  ---------------------------------------


    POTLOK:  cpu time    2.6929: real time    2.7040
    SETDIJ:  cpu time    0.0242: real time    0.0242
     EDDAV:  cpu time   15.1887: real time   15.2063
       DOS:  cpu time    0.0014: real time    0.0014
    CHARGE:  cpu time    0.9739: real time    0.9747
    MIXING:  cpu time    0.0776: real time    0.0777
    --------------------------------------------
      LOOP:  cpu time   18.9587: real time   18.9882

 eigenvalue-minimisations  :   520
 total energy-change (2. order) :-0.5199062E+01  (-0.3021106E+00)
 number of electron     143.0000646 magnetization       5.7769396
 augmentation part       91.7531885 magnetization       4.1483705

 Broyden mixing:
  rms(total) = 0.14521E+00    rms(broyden)= 0.14520E+00
  rms(prec ) = 0.14766E+00
  weight for this iteration     100.00

 eigenvalues of (default mixing * dielectric matrix)
  average eigenvalue GAMMA=   1.1255
  2.3664  2.3664  0.7751  0.7751  0.5636  0.5636  0.4683

 Free energy of the ion-electron system (eV)
  ---------------------------------------------------
  alpha Z        PSCENC =         8.91047545
  Ewald energy   TEWEN  =     25225.36477849
  -Hartree energ DENC   =    -41688.96489907
  -exchange      EXHF   =         0.00000000
  -V(xc)+E(xc)   XCENC  =       584.25965153
  PAW double counting   =     16878.70924490   -18274.08251830
  entropy T*S    EENTRO =         0.02059380
  eigenvalues    EBANDS =      -839.10344172
  atomic energy  EATOM  =     18082.44932260
  Solvation  Ediel_sol  =         0.00000000
  ---------------------------------------------------
  free energy    TOTEN  =       -22.43679233 eV

  energy without entropy =      -22.45738613  energy(sigma->0) =      -22.44365693


--------------------------------------------------------------------------------------------------------




--------------------------------------- Iteration      1(  13)  ---------------------------------------


    POTLOK:  cpu time    2.6994: real time    2.7045
    SETDIJ:  cpu time    0.0242: real time    0.0243
     EDDAV:  cpu time   14.3595: real time   14.3732
       DOS:  cpu time    0.0011: real time    0.0011
    CHARGE:  cpu time    0.9562: real time    0.9592
    MIXING:  cpu time    0.0843: real time    0.0845
    --------------------------------------------
      LOOP:  cpu time   18.1247: real time   18.1467

 eigenvalue-minimisations  :   488
 total energy-change (2. order) :-0.3316899E+01  (-0.1398323E+00)
 number of electron     143.0000646 magnetization       5.2048884
 augmentation part       91.7272391 magnetization       3.9428999

 Broyden mixing:
  rms(total) = 0.11408E+00    rms(broyden)= 0.11407E+00
  rms(prec ) = 0.11702E+00
  weight for this iteration     100.00

 eigenvalues of (default mixing * dielectric matrix)
  average eigenvalue GAMMA=   1.1507
  2.6434  2.6434  0.8409  0.8409  0.6297  0.6297  0.4889  0.4889

 Free energy of the ion-electron system (eV)
  ---------------------------------------------------
  alpha Z        PSCENC =         8.91047545
  Ewald energy   TEWEN  =     25225.36477849
  -Hartree energ DENC   =    -41685.28423791
  -exchange      EXHF   =         0.00000000
  -V(xc)+E(xc)   XCENC  =       581.70639913
  PAW double counting   =     16835.33428077   -18229.30414926
  entropy T*S    EENTRO =         0.01814191
  eigenvalues    EBANDS =      -844.94870266
  atomic energy  EATOM  =     18082.44932260
  Solvation  Ediel_sol  =         0.00000000
  ---------------------------------------------------
  free energy    TOTEN  =       -25.75369148 eV

  energy without entropy =      -25.77183339  energy(sigma->0) =      -25.75973878


--------------------------------------------------------------------------------------------------------




--------------------------------------- Iteration      1(  14)  ---------------------------------------


    POTLOK:  cpu time    2.7063: real time    2.7098
    SETDIJ:  cpu time    0.0261: real time    0.0261
     EDDAV:  cpu time   15.1410: real time   15.1603
       DOS:  cpu time    0.0017: real time    0.0017
    CHARGE:  cpu time    0.9823: real time    0.9833
    MIXING:  cpu time    0.0927: real time    0.0928
    --------------------------------------------
      LOOP:  cpu time   18.9502: real time   18.9741

 eigenvalue-minimisations  :   520
 total energy-change (2. order) :-0.1809207E+01  (-0.4481533E-01)
 number of electron     143.0000647 magnetization       4.0646465
 augmentation part       91.7524081 magnetization       2.9384585

 Broyden mixing:
  rms(total) = 0.88696E-01    rms(broyden)= 0.88686E-01
  rms(prec ) = 0.90669E-01
  weight for this iteration     100.00

 eigenvalues of (default mixing * dielectric matrix)
  average eigenvalue GAMMA=   1.2427
  3.1173  3.1173  1.1256  0.7935  0.7935  0.7099  0.5696  0.4788  0.4788

 Free energy of the ion-electron system (eV)
  ---------------------------------------------------
  alpha Z        PSCENC =         8.91047545
  Ewald energy   TEWEN  =     25225.36477849
  -Hartree energ DENC   =    -41678.72211539
  -exchange      EXHF   =         0.00000000
  -V(xc)+E(xc)   XCENC  =       580.14585433
  PAW double counting   =     16806.88967371   -18200.30497067
  entropy T*S    EENTRO =         0.02112452
  eigenvalues    EBANDS =      -852.31704188
  atomic energy  EATOM  =     18082.44932260
  Solvation  Ediel_sol  =         0.00000000
  ---------------------------------------------------
  free energy    TOTEN  =       -27.56289883 eV

  energy without entropy =      -27.58402335  energy(sigma->0) =      -27.56994034


--------------------------------------------------------------------------------------------------------




--------------------------------------- Iteration      1(  15)  ---------------------------------------


    POTLOK:  cpu time    2.6935: real time    2.6983
    SETDIJ:  cpu time    0.0238: real time    0.0238
     EDDAV:  cpu time   14.5373: real time   14.5537
       DOS:  cpu time    0.0011: real time    0.0011
    CHARGE:  cpu time    0.9598: real time    0.9628
    MIXING:  cpu time    0.1062: real time    0.1063
    --------------------------------------------
      LOOP:  cpu time   18.3217: real time   18.3460

 eigenvalue-minimisations  :   488
 total energy-change (2. order) :-0.2587707E+01  (-0.7927668E-01)
 number of electron     143.0000648 magnetization       3.3426873
 augmentation part       91.8013678 magnetization       2.3079335

 Broyden mixing:
  rms(total) = 0.62954E-01    rms(broyden)= 0.62944E-01
  rms(prec ) = 0.64579E-01
  weight for this iteration     100.00

 eigenvalues of (default mixing * dielectric matrix)
  average eigenvalue GAMMA=   1.3211
  3.5594  3.5594  1.5828  0.8972  0.7781  0.7781  0.5610  0.5610  0.4469  0.4874

 Free energy of the ion-electron system (eV)
  ---------------------------------------------------
  alpha Z        PSCENC =         8.91047545
  Ewald energy   TEWEN  =     25225.36477849
  -Hartree energ DENC   =    -41665.68768280
  -exchange      EXHF   =         0.00000000
  -V(xc)+E(xc)   XCENC  =       577.75693981
  PAW double counting   =     16759.88134861   -18153.35649868
  entropy T*S    EENTRO =         0.02260296
  eigenvalues    EBANDS =      -865.49189224
  atomic energy  EATOM  =     18082.44932260
  Solvation  Ediel_sol  =         0.00000000
  ---------------------------------------------------
  free energy    TOTEN  =       -30.15060580 eV

  energy without entropy =      -30.17320877  energy(sigma->0) =      -30.15814012


--------------------------------------------------------------------------------------------------------




--------------------------------------- Iteration      1(  16)  ---------------------------------------


    POTLOK:  cpu time    2.7135: real time    2.7246
    SETDIJ:  cpu time    0.0238: real time    0.0238
     EDDAV:  cpu time   14.3382: real time   14.3561
       DOS:  cpu time    0.0071: real time    0.0071
    CHARGE:  cpu time    0.9751: real time    0.9759
    MIXING:  cpu time    0.1073: real time    0.1074
    --------------------------------------------
      LOOP:  cpu time   18.1650: real time   18.1949

 eigenvalue-minimisations  :   480
 total energy-change (2. order) :-0.9827875E+00  (-0.2028047E-01)
 number of electron     143.0000648 magnetization       2.8098599
 augmentation part       91.7793347 magnetization       1.8981057

 Broyden mixing:
  rms(total) = 0.46070E-01    rms(broyden)= 0.46062E-01
  rms(prec ) = 0.47660E-01
  weight for this iteration     100.00

 eigenvalues of (default mixing * dielectric matrix)
  average eigenvalue GAMMA=   1.3878
  5.0713  2.8091  2.1468  0.8733  0.8733  0.7819  0.6306  0.6306  0.5045  0.5045
  0.4400

 Free energy of the ion-electron system (eV)
  ---------------------------------------------------
  alpha Z        PSCENC =         8.91047545
  Ewald energy   TEWEN  =     25225.36477849
  -Hartree energ DENC   =    -41659.32503231
  -exchange      EXHF   =         0.00000000
  -V(xc)+E(xc)   XCENC  =       576.85562075
  PAW double counting   =     16746.43166672   -18140.72688341
  entropy T*S    EENTRO =         0.01083449
  eigenvalues    EBANDS =      -871.10417610
  atomic energy  EATOM  =     18082.44932260
  Solvation  Ediel_sol  =         0.00000000
  ---------------------------------------------------
  free energy    TOTEN  =       -31.13339332 eV

  energy without entropy =      -31.14422781  energy(sigma->0) =      -31.13700481


--------------------------------------------------------------------------------------------------------




--------------------------------------- Iteration      1(  17)  ---------------------------------------


    POTLOK:  cpu time    2.7160: real time    2.7212
    SETDIJ:  cpu time    0.0241: real time    0.0241
     EDDAV:  cpu time   14.4205: real time   14.4369
       DOS:  cpu time    0.0068: real time    0.0068
    CHARGE:  cpu time    0.9029: real time    0.9037
    MIXING:  cpu time    0.1164: real time    0.1188
    --------------------------------------------
      LOOP:  cpu time   18.1867: real time   18.2115

 eigenvalue-minimisations  :   488
 total energy-change (2. order) :-0.4677755E+00  (-0.5438574E-02)
 number of electron     143.0000647 magnetization       2.2015586
 augmentation part       91.7613798 magnetization       1.3687963

 Broyden mixing:
  rms(total) = 0.36209E-01    rms(broyden)= 0.36202E-01
  rms(prec ) = 0.37657E-01
  weight for this iteration     100.00

 eigenvalues of (default mixing * dielectric matrix)
  average eigenvalue GAMMA=   1.4252
  6.0220  2.5058  2.5058  0.9984  0.9984  0.7019  0.7019  0.7076  0.5299  0.5299
  0.4506  0.4506

 Free energy of the ion-electron system (eV)
  ---------------------------------------------------
  alpha Z        PSCENC =         8.91047545
  Ewald energy   TEWEN  =     25225.36477849
  -Hartree energ DENC   =    -41655.47020570
  -exchange      EXHF   =         0.00000000
  -V(xc)+E(xc)   XCENC  =       576.39295380
  PAW double counting   =     16747.25837915   -18142.29357644
  entropy T*S    EENTRO =         0.00215690
  eigenvalues    EBANDS =      -874.21545303
  atomic energy  EATOM  =     18082.44932260
  Solvation  Ediel_sol  =         0.00000000
  ---------------------------------------------------
  free energy    TOTEN  =       -31.60116878 eV

  energy without entropy =      -31.60332569  energy(sigma->0) =      -31.60188775


--------------------------------------------------------------------------------------------------------




--------------------------------------- Iteration      1(  18)  ---------------------------------------


    POTLOK:  cpu time    2.6928: real time    2.7047
    SETDIJ:  cpu time    0.0255: real time    0.0255
     EDDAV:  cpu time   15.3572: real time   15.3784
       DOS:  cpu time    0.0070: real time    0.0070
    CHARGE:  cpu time    0.9643: real time    0.9652
    MIXING:  cpu time    0.1277: real time    0.1279
    --------------------------------------------
      LOOP:  cpu time   19.1746: real time   19.2086

 eigenvalue-minimisations  :   528
 total energy-change (2. order) :-0.4617265E+00  (-0.3168701E-02)
 number of electron     143.0000647 magnetization       1.5513999
 augmentation part       91.7543085 magnetization       0.8108874

 Broyden mixing:
  rms(total) = 0.26196E-01    rms(broyden)= 0.26185E-01
  rms(prec ) = 0.27553E-01
  weight for this iteration     100.00

 eigenvalues of (default mixing * dielectric matrix)
  average eigenvalue GAMMA=   1.5478
  7.3180  2.7611  2.7611  1.2035  1.0218  0.9248  0.7897  0.7897  0.5717  0.5717
  0.5014  0.4632  0.4439

 Free energy of the ion-electron system (eV)
  ---------------------------------------------------
  alpha Z        PSCENC =         8.91047545
  Ewald energy   TEWEN  =     25225.36477849
  -Hartree energ DENC   =    -41651.17817400
  -exchange      EXHF   =         0.00000000
  -V(xc)+E(xc)   XCENC  =       575.89301210
  PAW double counting   =     16753.38551913   -18148.91946922
  entropy T*S    EENTRO =        -0.00836523
  eigenvalues    EBANDS =      -877.95999464
  atomic energy  EATOM  =     18082.44932260
  Solvation  Ediel_sol  =         0.00000000
  ---------------------------------------------------
  free energy    TOTEN  =       -32.06289531 eV

  energy without entropy =      -32.05453008  energy(sigma->0) =      -32.06010690


--------------------------------------------------------------------------------------------------------




--------------------------------------- Iteration      1(  19)  ---------------------------------------


    POTLOK:  cpu time    2.7135: real time    2.7183
    SETDIJ:  cpu time    0.0241: real time    0.0241
     EDDAV:  cpu time   15.2529: real time   15.2721
       DOS:  cpu time    0.0067: real time    0.0067
    CHARGE:  cpu time    0.9854: real time    0.9864
    MIXING:  cpu time    0.1443: real time    0.1446
    --------------------------------------------
      LOOP:  cpu time   19.1269: real time   19.1521

 eigenvalue-minimisations  :   524
 total energy-change (2. order) :-0.4915652E+00  (-0.2192763E-02)
 number of electron     143.0000648 magnetization       1.3023202
 augmentation part       91.7787107 magnetization       0.6658869

 Broyden mixing:
  rms(total) = 0.16668E-01    rms(broyden)= 0.16643E-01
  rms(prec ) = 0.17771E-01
  weight for this iteration     100.00

 eigenvalues of (default mixing * dielectric matrix)
  average eigenvalue GAMMA=   1.6468
  8.3678  3.0386  3.0386  1.6764  1.1110  1.1110  0.7661  0.7661  0.6505  0.5685
  0.5685  0.4761  0.4761  0.4399

 Free energy of the ion-electron system (eV)
  ---------------------------------------------------
  alpha Z        PSCENC =         8.91047545
  Ewald energy   TEWEN  =     25225.36477849
  -Hartree energ DENC   =    -41645.63797543
  -exchange      EXHF   =         0.00000000
  -V(xc)+E(xc)   XCENC  =       575.30204881
  PAW double counting   =     16762.41963120   -18157.83645044
  entropy T*S    EENTRO =        -0.01942351
  eigenvalues    EBANDS =      -883.50686772
  atomic energy  EATOM  =     18082.44932260
  Solvation  Ediel_sol  =         0.00000000
  ---------------------------------------------------
  free energy    TOTEN  =       -32.55446056 eV

  energy without entropy =      -32.53503705  energy(sigma->0) =      -32.54798606


--------------------------------------------------------------------------------------------------------




--------------------------------------- Iteration      1(  20)  ---------------------------------------


    POTLOK:  cpu time    2.6932: real time    2.7100
    SETDIJ:  cpu time    0.0240: real time    0.0240
     EDDAV:  cpu time   15.6406: real time   15.6782
       DOS:  cpu time    0.0069: real time    0.0069
    CHARGE:  cpu time    0.9795: real time    0.9804
    MIXING:  cpu time    0.1501: real time    0.1503
    --------------------------------------------
      LOOP:  cpu time   19.4943: real time   19.5498

 eigenvalue-minimisations  :   544
 total energy-change (2. order) :-0.2354850E+00  (-0.5811209E-03)
 number of electron     143.0000648 magnetization       1.0860342
 augmentation part       91.7856393 magnetization       0.4933795

 Broyden mixing:
  rms(total) = 0.12241E-01    rms(broyden)= 0.12227E-01
  rms(prec ) = 0.13140E-01
  weight for this iteration     100.00

 eigenvalues of (default mixing * dielectric matrix)
  average eigenvalue GAMMA=   1.6901
  9.3274  3.1172  3.1172  2.1345  1.1188  1.1188  0.7903  0.7903  0.6276  0.6276
  0.6146  0.5670  0.4975  0.4610  0.4421

 Free energy of the ion-electron system (eV)
  ---------------------------------------------------
  alpha Z        PSCENC =         8.91047545
  Ewald energy   TEWEN  =     25225.36477849
  -Hartree energ DENC   =    -41642.56391541
  -exchange      EXHF   =         0.00000000
  -V(xc)+E(xc)   XCENC  =       575.04385961
  PAW double counting   =     16762.83167584   -18157.95269330
  entropy T*S    EENTRO =        -0.02427107
  eigenvalues    EBANDS =      -886.84917774
  atomic energy  EATOM  =     18082.44932260
  Solvation  Ediel_sol  =         0.00000000
  ---------------------------------------------------
  free energy    TOTEN  =       -32.78994553 eV

  energy without entropy =      -32.76567446  energy(sigma->0) =      -32.78185517


--------------------------------------------------------------------------------------------------------




--------------------------------------- Iteration      1(  21)  ---------------------------------------


    POTLOK:  cpu time    2.6995: real time    2.7046
    SETDIJ:  cpu time    0.0239: real time    0.0239
     EDDAV:  cpu time   15.3773: real time   15.3961
       DOS:  cpu time    0.0020: real time    0.0021
    CHARGE:  cpu time    0.9993: real time    1.0003
    MIXING:  cpu time    0.1567: real time    0.1568
    --------------------------------------------
      LOOP:  cpu time   19.2588: real time   19.2838

 eigenvalue-minimisations  :   528
 total energy-change (2. order) :-0.1584485E+00  (-0.3625116E-03)
 number of electron     143.0000648 magnetization       0.9030671
 augmentation part       91.7795260 magnetization       0.3559980

 Broyden mixing:
  rms(total) = 0.84645E-02    rms(broyden)= 0.84513E-02
  rms(prec ) = 0.90729E-02
  weight for this iteration     100.00

 eigenvalues of (default mixing * dielectric matrix)
  average eigenvalue GAMMA=   1.7342
 10.1199  3.2504  3.2504  2.3466  1.5023  1.0159  1.0159  0.7452  0.7452  0.6815
  0.5826  0.5826  0.5004  0.5004  0.4426  0.4649

 Free energy of the ion-electron system (eV)
  ---------------------------------------------------
  alpha Z        PSCENC =         8.91047545
  Ewald energy   TEWEN  =     25225.36477849
  -Hartree energ DENC   =    -41640.57465350
  -exchange      EXHF   =         0.00000000
  -V(xc)+E(xc)   XCENC  =       574.89474874
  PAW double counting   =     16761.19729370   -18156.19887377
  entropy T*S    EENTRO =        -0.02831833
  eigenvalues    EBANDS =      -888.96316737
  atomic energy  EATOM  =     18082.44932260
  Solvation  Ediel_sol  =         0.00000000
  ---------------------------------------------------
  free energy    TOTEN  =       -32.94839399 eV

  energy without entropy =      -32.92007566  energy(sigma->0) =      -32.93895454


--------------------------------------------------------------------------------------------------------




--------------------------------------- Iteration      1(  22)  ---------------------------------------


    POTLOK:  cpu time    2.6961: real time    2.7012
    SETDIJ:  cpu time    0.0244: real time    0.0244
     EDDAV:  cpu time   14.5153: real time   14.6057
       DOS:  cpu time    0.0011: real time    0.0011
    CHARGE:  cpu time    0.9885: real time    0.9899
    MIXING:  cpu time    0.1708: real time    0.1711
    --------------------------------------------
      LOOP:  cpu time   18.3962: real time   18.4934

 eigenvalue-minimisations  :   496
 total energy-change (2. order) :-0.7083439E-01  (-0.2135625E-03)
 number of electron     143.0000647 magnetization       0.7501281
 augmentation part       91.7681768 magnetization       0.2477217

 Broyden mixing:
  rms(total) = 0.75792E-02    rms(broyden)= 0.75676E-02
  rms(prec ) = 0.80597E-02
  weight for this iteration     100.00

 eigenvalues of (default mixing * dielectric matrix)
  average eigenvalue GAMMA=   1.7382
 10.6798  3.5100  3.5100  1.8982  1.8982  1.0216  1.0216  0.7911  0.7911  0.7432
  0.6295  0.6295  0.5276  0.5276  0.4394  0.4659  0.4659

 Free energy of the ion-electron system (eV)
  ---------------------------------------------------
  alpha Z        PSCENC =         8.91047545
  Ewald energy   TEWEN  =     25225.36477849
  -Hartree energ DENC   =    -41639.67630098
  -exchange      EXHF   =         0.00000000
  -V(xc)+E(xc)   XCENC  =       574.83936136
  PAW double counting   =     16760.76228579   -18155.82744331
  entropy T*S    EENTRO =        -0.03169737
  eigenvalues    EBANDS =      -889.81001041
  atomic energy  EATOM  =     18082.44932260
  Solvation  Ediel_sol  =         0.00000000
  ---------------------------------------------------
  free energy    TOTEN  =       -33.01922838 eV

  energy without entropy =      -32.98753101  energy(sigma->0) =      -33.00866259


--------------------------------------------------------------------------------------------------------




--------------------------------------- Iteration      1(  23)  ---------------------------------------


    POTLOK:  cpu time    2.7002: real time    2.7029
    SETDIJ:  cpu time    0.0243: real time    0.0243
     EDDAV:  cpu time   12.3092: real time   12.3261
       DOS:  cpu time    0.0011: real time    0.0011
    CHARGE:  cpu time    0.9951: real time    0.9986
    MIXING:  cpu time    0.1850: real time    0.1853
    --------------------------------------------
      LOOP:  cpu time   16.2149: real time   16.2382

 eigenvalue-minimisations  :   400
 total energy-change (2. order) :-0.4137542E-01  (-0.8350197E-04)
 number of electron     143.0000648 magnetization       0.6683864
 augmentation part       91.7729485 magnetization       0.2061053

 Broyden mixing:
  rms(total) = 0.43596E-02    rms(broyden)= 0.43413E-02
  rms(prec ) = 0.47739E-02
  weight for this iteration     100.00

 eigenvalues of (default mixing * dielectric matrix)
  average eigenvalue GAMMA=   1.7813
 11.3337  3.7330  3.7330  2.0949  2.0949  1.1239  1.1239  0.7990  0.7990  0.7446
  0.7234  0.7234  0.5668  0.5668  0.5188  0.4406  0.4717  0.4717

 Free energy of the ion-electron system (eV)
  ---------------------------------------------------
  alpha Z        PSCENC =         8.91047545
  Ewald energy   TEWEN  =     25225.36477849
  -Hartree energ DENC   =    -41638.83446875
  -exchange      EXHF   =         0.00000000
  -V(xc)+E(xc)   XCENC  =       574.78092960
  PAW double counting   =     16762.13282540   -18157.15876889
  entropy T*S    EENTRO =        -0.03474949
  eigenvalues    EBANDS =      -890.67094821
  atomic energy  EATOM  =     18082.44932260
  Solvation  Ediel_sol  =         0.00000000
  ---------------------------------------------------
  free energy    TOTEN  =       -33.06060380 eV

  energy without entropy =      -33.02585431  energy(sigma->0) =      -33.04902064


--------------------------------------------------------------------------------------------------------




--------------------------------------- Iteration      1(  24)  ---------------------------------------


    POTLOK:  cpu time    2.7087: real time    2.7197
    SETDIJ:  cpu time    0.0235: real time    0.0235
     EDDAV:  cpu time   10.7734: real time   10.7961
       DOS:  cpu time    0.0011: real time    0.0011
    CHARGE:  cpu time    0.9915: real time    0.9927
    MIXING:  cpu time    0.1933: real time    0.1939
    --------------------------------------------
      LOOP:  cpu time   14.6915: real time   14.7270

 eigenvalue-minimisations  :   328
 total energy-change (2. order) :-0.2586762E-01  (-0.4227328E-04)
 number of electron     143.0000648 magnetization       0.6020329
 augmentation part       91.7761087 magnetization       0.1635290

 Broyden mixing:
  rms(total) = 0.32707E-02    rms(broyden)= 0.32578E-02
  rms(prec ) = 0.36211E-02
  weight for this iteration     100.00

 eigenvalues of (default mixing * dielectric matrix)
  average eigenvalue GAMMA=   1.7857
 11.7602  3.8994  3.8994  2.2439  2.2439  1.1935  1.1935  0.8643  0.7872  0.7872
  0.7726  0.7726  0.5669  0.5669  0.5253  0.4952  0.4371  0.4598  0.4598

 Free energy of the ion-electron system (eV)
  ---------------------------------------------------
  alpha Z        PSCENC =         8.91047545
  Ewald energy   TEWEN  =     25225.36477849
  -Hartree energ DENC   =    -41638.08364029
  -exchange      EXHF   =         0.00000000
  -V(xc)+E(xc)   XCENC  =       574.74637611
  PAW double counting   =     16762.05499048   -18157.05915825
  entropy T*S    EENTRO =        -0.03657803
  eigenvalues    EBANDS =      -891.43303799
  atomic energy  EATOM  =     18082.44932260
  Solvation  Ediel_sol  =         0.00000000
  ---------------------------------------------------
  free energy    TOTEN  =       -33.08647142 eV

  energy without entropy =      -33.04989340  energy(sigma->0) =      -33.07427875


--------------------------------------------------------------------------------------------------------




--------------------------------------- Iteration      1(  25)  ---------------------------------------


    POTLOK:  cpu time    2.6794: real time    2.6890
    SETDIJ:  cpu time    0.0236: real time    0.0237
     EDDAV:  cpu time   10.9472: real time   10.9678
       DOS:  cpu time    0.0009: real time    0.0010
    CHARGE:  cpu time    0.9808: real time    0.9823
    MIXING:  cpu time    0.2069: real time    0.2093
    --------------------------------------------
      LOOP:  cpu time   14.8388: real time   14.8730

 eigenvalue-minimisations  :   336
 total energy-change (2. order) :-0.1760096E-01  (-0.4033621E-04)
 number of electron     143.0000648 magnetization       0.5292858
 augmentation part       91.7765720 magnetization       0.1121940

 Broyden mixing:
  rms(total) = 0.26231E-02    rms(broyden)= 0.26123E-02
  rms(prec ) = 0.28761E-02
  weight for this iteration     100.00

 eigenvalues of (default mixing * dielectric matrix)
  average eigenvalue GAMMA=   1.8180
 12.2234  4.2085  4.2085  2.3794  2.3794  1.3132  1.1583  1.1583  0.8631  0.8631
  0.7707  0.7707  0.6162  0.6162  0.5305  0.5305  0.4678  0.4678  0.4390  0.3965

 Free energy of the ion-electron system (eV)
  ---------------------------------------------------
  alpha Z        PSCENC =         8.91047545
  Ewald energy   TEWEN  =     25225.36477849
  -Hartree energ DENC   =    -41637.41444601
  -exchange      EXHF   =         0.00000000
  -V(xc)+E(xc)   XCENC  =       574.72557613
  PAW double counting   =     16761.40864042   -18156.42671872
  entropy T*S    EENTRO =        -0.03810938
  eigenvalues    EBANDS =      -892.08359136
  atomic energy  EATOM  =     18082.44932260
  Solvation  Ediel_sol  =         0.00000000
  ---------------------------------------------------
  free energy    TOTEN  =       -33.10407238 eV

  energy without entropy =      -33.06596300  energy(sigma->0) =      -33.09136926


--------------------------------------------------------------------------------------------------------




--------------------------------------- Iteration      1(  26)  ---------------------------------------


    POTLOK:  cpu time    2.6857: real time    2.6930
    SETDIJ:  cpu time    0.0241: real time    0.0242
     EDDAV:  cpu time   11.1834: real time   11.2025
       DOS:  cpu time    0.0024: real time    0.0024
    CHARGE:  cpu time    0.9540: real time    0.9552
    MIXING:  cpu time    0.2202: real time    0.2206
    --------------------------------------------
      LOOP:  cpu time   15.0699: real time   15.0978

 eigenvalue-minimisations  :   348
 total energy-change (2. order) :-0.1253855E-01  (-0.4124650E-04)
 number of electron     143.0000648 magnetization       0.4933838
 augmentation part       91.7771424 magnetization       0.1052902

 Broyden mixing:
  rms(total) = 0.23363E-02    rms(broyden)= 0.23208E-02
  rms(prec ) = 0.24664E-02
  weight for this iteration     100.00

 eigenvalues of (default mixing * dielectric matrix)
  average eigenvalue GAMMA=   1.8197
 12.6024  4.4343  4.4343  2.5069  2.5069  1.5675  1.0767  1.0767  0.9082  0.9082
  0.7716  0.7716  0.6451  0.6451  0.5508  0.5508  0.4858  0.4858  0.4679  0.4416
  0.3756

 Free energy of the ion-electron system (eV)
  ---------------------------------------------------
  alpha Z        PSCENC =         8.91047545
  Ewald energy   TEWEN  =     25225.36477849
  -Hartree energ DENC   =    -41636.74004184
  -exchange      EXHF   =         0.00000000
  -V(xc)+E(xc)   XCENC  =       574.71092457
  PAW double counting   =     16760.62196752   -18155.65834268
  entropy T*S    EENTRO =        -0.03986232
  eigenvalues    EBANDS =      -892.73583271
  atomic energy  EATOM  =     18082.44932260
  Solvation  Ediel_sol  =         0.00000000
  ---------------------------------------------------
  free energy    TOTEN  =       -33.11661093 eV

  energy without entropy =      -33.07674861  energy(sigma->0) =      -33.10332349


--------------------------------------------------------------------------------------------------------




--------------------------------------- Iteration      1(  27)  ---------------------------------------


    POTLOK:  cpu time    2.6732: real time    2.6803
    SETDIJ:  cpu time    0.0237: real time    0.0238
     EDDAV:  cpu time    9.7866: real time    9.8030
       DOS:  cpu time    0.0024: real time    0.0024
    CHARGE:  cpu time    0.9455: real time    0.9464
    MIXING:  cpu time    0.2396: real time    0.2399
    --------------------------------------------
      LOOP:  cpu time   13.6710: real time   13.6958

 eigenvalue-minimisations  :   288
 total energy-change (2. order) :-0.5483765E-02  (-0.1357261E-04)
 number of electron     143.0000648 magnetization       0.4606060
 augmentation part       91.7744702 magnetization       0.0883338

 Broyden mixing:
  rms(total) = 0.18401E-02    rms(broyden)= 0.18309E-02
  rms(prec ) = 0.19276E-02
  weight for this iteration     100.00

 eigenvalues of (default mixing * dielectric matrix)
  average eigenvalue GAMMA=   1.7981
 12.8256  4.5966  4.5966  2.5538  2.5538  1.6211  1.0185  1.0185  1.0610  0.7865
  0.7865  0.8493  0.6828  0.6828  0.5760  0.5760  0.5140  0.5140  0.4636  0.4636
  0.4383  0.3796

 Free energy of the ion-electron system (eV)
  ---------------------------------------------------
  alpha Z        PSCENC =         8.91047545
  Ewald energy   TEWEN  =     25225.36477849
  -Hartree energ DENC   =    -41636.49938018
  -exchange      EXHF   =         0.00000000
  -V(xc)+E(xc)   XCENC  =       574.70776375
  PAW double counting   =     16760.86866616   -18155.93416857
  entropy T*S    EENTRO =        -0.04083993
  eigenvalues    EBANDS =      -892.94871248
  atomic energy  EATOM  =     18082.44932260
  Solvation  Ediel_sol  =         0.00000000
  ---------------------------------------------------
  free energy    TOTEN  =       -33.12209470 eV

  energy without entropy =      -33.08125477  energy(sigma->0) =      -33.10848139


--------------------------------------------------------------------------------------------------------




--------------------------------------- Iteration      1(  28)  ---------------------------------------


    POTLOK:  cpu time    2.7045: real time    2.7092
    SETDIJ:  cpu time    0.0217: real time    0.0245
     EDDAV:  cpu time    9.8660: real time    9.8850
       DOS:  cpu time    0.0023: real time    0.0023
    CHARGE:  cpu time    0.9719: real time    0.9729
    MIXING:  cpu time    0.2536: real time    0.2538
    --------------------------------------------
      LOOP:  cpu time   13.8200: real time   13.8477

 eigenvalue-minimisations  :   288
 total energy-change (2. order) :-0.3424284E-02  (-0.1034004E-04)
 number of electron     143.0000648 magnetization       0.4087128
 augmentation part       91.7739611 magnetization       0.0507372

 Broyden mixing:
  rms(total) = 0.16725E-02    rms(broyden)= 0.16655E-02
  rms(prec ) = 0.17407E-02
  weight for this iteration     100.00

 eigenvalues of (default mixing * dielectric matrix)
  average eigenvalue GAMMA=   1.8841
 13.4545  5.2225  5.2225  2.7724  2.7724  1.9889  1.4113  0.9924  0.9924  0.9376
  0.9376  0.7643  0.7643  0.6774  0.6774  0.5604  0.5604  0.5323  0.4695  0.4695
  0.4402  0.3919  0.3230

 Free energy of the ion-electron system (eV)
  ---------------------------------------------------
  alpha Z        PSCENC =         8.91047545
  Ewald energy   TEWEN  =     25225.36477849
  -Hartree energ DENC   =    -41636.28096956
  -exchange      EXHF   =         0.00000000
  -V(xc)+E(xc)   XCENC  =       574.70313595
  PAW double counting   =     16761.16631880   -18156.23733560
  entropy T*S    EENTRO =        -0.04167168
  eigenvalues    EBANDS =      -893.15957342
  atomic energy  EATOM  =     18082.44932260
  Solvation  Ediel_sol  =         0.00000000
  ---------------------------------------------------
  free energy    TOTEN  =       -33.12551898 eV

  energy without entropy =      -33.08384730  energy(sigma->0) =      -33.11162842


--------------------------------------------------------------------------------------------------------




--------------------------------------- Iteration      1(  29)  ---------------------------------------


    POTLOK:  cpu time    2.6932: real time    2.7003
    SETDIJ:  cpu time    0.0237: real time    0.0238
     EDDAV:  cpu time    9.6421: real time    9.6556
       DOS:  cpu time    0.0024: real time    0.0024
    CHARGE:  cpu time    0.9787: real time    0.9800
    MIXING:  cpu time    0.2636: real time    0.2640
    --------------------------------------------
      LOOP:  cpu time   13.6037: real time   13.6261

 eigenvalue-minimisations  :   280
 total energy-change (2. order) :-0.4717924E-02  (-0.1899914E-04)
 number of electron     143.0000648 magnetization       0.3925365
 augmentation part       91.7746005 magnetization       0.0591702

 Broyden mixing:
  rms(total) = 0.15078E-02    rms(broyden)= 0.14908E-02
  rms(prec ) = 0.15265E-02
  weight for this iteration     100.00

 eigenvalues of (default mixing * dielectric matrix)
  average eigenvalue GAMMA=   1.8725
 13.8998  5.4574  5.4574  2.8517  2.8517  2.0097  1.5034  1.0406  1.0406  0.9105
  0.9105  0.7629  0.7629  0.6704  0.6363  0.6363  0.5312  0.5312  0.4683  0.4683
  0.4414  0.4532  0.3676  0.2776

 Free energy of the ion-electron system (eV)
  ---------------------------------------------------
  alpha Z        PSCENC =         8.91047545
  Ewald energy   TEWEN  =     25225.36477849
  -Hartree energ DENC   =    -41635.80454807
  -exchange      EXHF   =         0.00000000
  -V(xc)+E(xc)   XCENC  =       574.69470338
  PAW double counting   =     16761.11539539   -18156.17490934
  entropy T*S    EENTRO =        -0.04300881
  eigenvalues    EBANDS =      -893.64244600
  atomic energy  EATOM  =     18082.44932260
  Solvation  Ediel_sol  =         0.00000000
  ---------------------------------------------------
  free energy    TOTEN  =       -33.13023690 eV

  energy without entropy =      -33.08722810  energy(sigma->0) =      -33.11590064


--------------------------------------------------------------------------------------------------------




--------------------------------------- Iteration      1(  30)  ---------------------------------------


    POTLOK:  cpu time    2.6877: real time    2.6933
    SETDIJ:  cpu time    0.0241: real time    0.0241
     EDDAV:  cpu time   10.0702: real time   10.0884
       DOS:  cpu time    0.0023: real time    0.0023
    CHARGE:  cpu time    0.9919: real time    0.9933
    MIXING:  cpu time    0.2814: real time    0.2817
    --------------------------------------------
      LOOP:  cpu time   14.0576: real time   14.0832

 eigenvalue-minimisations  :   296
 total energy-change (2. order) :-0.1241901E-02  (-0.1026570E-04)
 number of electron     143.0000648 magnetization       0.3751231
 augmentation part       91.7747588 magnetization       0.0497214

 Broyden mixing:
  rms(total) = 0.11810E-02    rms(broyden)= 0.11753E-02
  rms(prec ) = 0.12028E-02
  weight for this iteration     100.00

 eigenvalues of (default mixing * dielectric matrix)
  average eigenvalue GAMMA=   1.8978
 14.7260  6.4344  5.1954  2.9295  2.9295  2.0913  1.5369  1.0735  1.0735  0.9208
  0.9208  0.7638  0.7638  0.6745  0.6745  0.5389  0.5389  0.5682  0.5682  0.4931
  0.4742  0.4742  0.4404  0.3792  0.2608

 Free energy of the ion-electron system (eV)
  ---------------------------------------------------
  alpha Z        PSCENC =         8.91047545
  Ewald energy   TEWEN  =     25225.36477849
  -Hartree energ DENC   =    -41635.70400203
  -exchange      EXHF   =         0.00000000
  -V(xc)+E(xc)   XCENC  =       574.69238925
  PAW double counting   =     16761.22798383   -18156.28586574
  entropy T*S    EENTRO =        -0.04344372
  eigenvalues    EBANDS =      -893.74311694
  atomic energy  EATOM  =     18082.44932260
  Solvation  Ediel_sol  =         0.00000000
  ---------------------------------------------------
  free energy    TOTEN  =       -33.13147881 eV

  energy without entropy =      -33.08803509  energy(sigma->0) =      -33.11699757


--------------------------------------------------------------------------------------------------------




--------------------------------------- Iteration      1(  31)  ---------------------------------------


    POTLOK:  cpu time    2.7030: real time    2.7061
    SETDIJ:  cpu time    0.0248: real time    0.0248
[...]
     26      -6.4190      1.00000
     27      -6.3541      1.00000
     28      -6.2946      1.00000
     29      -6.2590      1.00000
     30      -6.2022      1.00000
     31      -6.1716      1.00000
     32      -6.1397      1.00000
     33      -6.1243      1.00000
     34      -6.0695      1.00000
     35      -6.0541      1.00000
     36      -5.9839      1.00000
     37      -5.9417      1.00000
     38      -5.8906      1.00000
     39      -5.8793      1.00000
     40      -5.8334      1.00000
     41      -5.8175      1.00000
     42      -5.7831      1.00000
     43      -5.7676      1.00000
     44      -5.7393      1.00000
     45      -5.7259      1.00000
     46      -5.7033      1.00000
     47      -5.6872      1.00000
     48      -5.6498      1.00000
     49      -5.6381      1.00000
     50      -5.6019      1.00000
     51      -5.5784      1.00000
     52      -5.5544      1.00000
     53      -5.5461      1.00000
     54      -5.5094      1.00000
     55      -5.4973      1.00000
     56      -5.4748      1.00000
     57      -5.4354      1.00000
     58      -5.4148      1.00000
     59      -5.3943      1.00000
     60      -5.3730      1.00000
     61      -5.3468      1.00000
     62      -5.3429      1.00000
     63      -5.3152      1.00000
     64      -5.2851      1.00000
     65      -5.2517      1.00000
     66      -5.2417      1.00000
     67      -5.1993      1.00000
     68      -5.1726      1.00000
     69      -4.9229      1.00000
     70      -4.7420      1.00010
     71      -4.5779      1.00435
     72      -4.1724      0.62396
     73      -3.3841     -0.00000
     74      -3.2369     -0.00000
     75      -2.5947     -0.00000
     76      -2.4211     -0.00000
     77      -2.3908     -0.00000
     78      -2.3115     -0.00000
     79      -1.8791     -0.00000
     80      -1.4344     -0.00000
     81      -1.2822     -0.00000
     82      -1.0350     -0.00000
     83      -0.8833     -0.00000
     84      -0.6989     -0.00000
     85      -0.3777     -0.00000
     86      -0.2217     -0.00000
     87      -0.1826     -0.00000
     88       0.0029     -0.00000
     89       0.1379     -0.00000
     90       0.2779     -0.00000
     91       0.3045     -0.00000
     92       0.3672     -0.00000

 spin component 2

 k-point     1 :       0.0000    0.0000    0.0000
  band No.  band energies     occupation 
      1     -10.5401      1.00000
      2      -9.0053      1.00000
      3      -8.7717      1.00000
      4      -8.0383      1.00000
      5      -7.8994      1.00000
      6      -7.8658      1.00000
      7      -7.6901      1.00000
      8      -7.5019      1.00000
      9      -7.4575      1.00000
     10      -7.3001      1.00000
     11      -7.2432      1.00000
     12      -7.1935      1.00000
     13      -7.1388      1.00000
     14      -7.0852      1.00000
     15      -7.0650      1.00000
     16      -6.9849      1.00000
     17      -6.8902      1.00000
     18      -6.8691      1.00000
     19      -6.7844      1.00000
     20      -6.7458      1.00000
     21      -6.6804      1.00000
     22      -6.6381      1.00000
     23      -6.6087      1.00000
     24      -6.5577      1.00000
     25      -6.4613      1.00000
     26      -6.4124      1.00000
     27      -6.3448      1.00000
     28      -6.2833      1.00000
     29      -6.2514      1.00000
     30      -6.1963      1.00000
     31      -6.1649      1.00000
     32      -6.1315      1.00000
     33      -6.1149      1.00000
     34      -6.0600      1.00000
     35      -6.0439      1.00000
     36      -5.9757      1.00000
     37      -5.9318      1.00000
     38      -5.8837      1.00000
     39      -5.8715      1.00000
     40      -5.8273      1.00000
     41      -5.8105      1.00000
     42      -5.7745      1.00000
     43      -5.7605      1.00000
     44      -5.7321      1.00000
     45      -5.7194      1.00000
     46      -5.6979      1.00000
     47      -5.6785      1.00000
     48      -5.6414      1.00000
     49      -5.6326      1.00000
     50      -5.5952      1.00000
     51      -5.5713      1.00000
     52      -5.5445      1.00000
     53      -5.5399      1.00000
     54      -5.4990      1.00000
     55      -5.4900      1.00000
     56      -5.4684      1.00000
     57      -5.4266      1.00000
     58      -5.4068      1.00000
     59      -5.3849      1.00000
     60      -5.3650      1.00000
     61      -5.3410      1.00000
     62      -5.3353      1.00000
     63      -5.3061      1.00000
     64      -5.2767      1.00000
     65      -5.2449      1.00000
     66      -5.2360      1.00000
     67      -5.1904      1.00000
     68      -5.1630      1.00000
     69      -4.9127      1.00000
     70      -4.7315      1.00013
     71      -4.5702      1.00500
     72      -4.1107      0.36648
     73      -3.3723     -0.00000
     74      -3.2212     -0.00000
     75      -2.5762     -0.00000
     76      -2.4082     -0.00000
     77      -2.3626     -0.00000
     78      -2.2977     -0.00000
     79      -1.8149     -0.00000
     80      -1.4253     -0.00000
     81      -1.2642     -0.00000
     82      -1.0041     -0.00000
     83      -0.8582     -0.00000
     84      -0.6841     -0.00000
     85      -0.3522     -0.00000
     86      -0.2088     -0.00000
     87      -0.1532     -0.00000
     88       0.0208     -0.00000
     89       0.0523     -0.00000
     90       0.1999     -0.00000
     91       0.2504     -0.00000
     92       0.2806     -0.00000


--------------------------------------------------------------------------------------------------------


 soft charge-density along one line, spin component            1
         0         1         2         3         4         5         6         7         8         9
 total charge-density along one line
 
 soft charge-density along one line, spin component            2
         0         1         2         3         4         5         6         7         8         9
 total charge-density along one line
 
 pseudopotential strength for first ion, spin component:            1
-10.782   0.002  -0.013  -0.000  -0.001   1.215  -0.002   0.010
  0.002 -10.801   0.003   0.020  -0.001  -0.002   1.227  -0.002
 -0.013   0.003 -10.800  -0.008  -0.009   0.010  -0.002   1.227
 -0.000   0.020  -0.008 -10.795  -0.002   0.001  -0.015   0.005
 -0.001  -0.001  -0.009  -0.002 -10.789   0.000   0.000   0.006
  1.215  -0.002   0.010   0.001   0.000   6.157   0.002  -0.006
 -0.002   1.227  -0.002  -0.015   0.000   0.002   6.151   0.001
  0.010  -0.002   1.227   0.005   0.006  -0.006   0.001   6.151
  0.001  -0.015   0.005   1.225   0.001  -0.002   0.010  -0.004
  0.000   0.000   0.006   0.001   1.220  -0.000   0.001  -0.003
 -0.004   0.001   0.000  -0.002   0.000  -0.000  -0.003   0.002
 -0.007   0.001   0.000  -0.003   0.001  -0.001  -0.007   0.004
 -0.002  -0.017  -0.006  -0.000  -0.009   0.003   0.010   0.004
 -0.000   0.009  -0.018  -0.001   0.000  -0.000  -0.007   0.012
  0.010  -0.000   0.002  -0.016  -0.002  -0.008  -0.000  -0.003
 -0.003  -0.018  -0.006  -0.000  -0.009   0.004   0.010   0.004
 -0.000   0.010  -0.019  -0.001   0.001  -0.000  -0.007   0.011
  0.011  -0.000   0.002  -0.017  -0.002  -0.008  -0.000  -0.003
 pseudopotential strength for first ion, spin component:            2
-10.781   0.001  -0.013   0.000  -0.002   1.214  -0.002   0.010
  0.001 -10.798   0.003   0.019   0.001  -0.002   1.225  -0.002
 -0.013   0.003 -10.799  -0.008  -0.010   0.010  -0.002   1.226
  0.000   0.019  -0.008 -10.794  -0.003   0.000  -0.014   0.005
 -0.002   0.001  -0.010  -0.003 -10.785   0.001  -0.001   0.007
  1.214  -0.002   0.010   0.000   0.001   6.157   0.002  -0.006
 -0.002   1.225  -0.002  -0.014  -0.001   0.002   6.151   0.000
  0.010  -0.002   1.226   0.005   0.007  -0.006   0.000   6.151
  0.000  -0.014   0.005   1.223   0.001  -0.002   0.009  -0.004
  0.001  -0.001   0.007   0.001   1.217  -0.001   0.002  -0.004
 -0.004   0.000   0.001  -0.001  -0.000  -0.000  -0.003   0.002
 -0.007   0.001   0.001  -0.003  -0.000  -0.001  -0.005   0.003
 -0.002  -0.017  -0.006  -0.000  -0.009   0.003   0.011   0.004
 -0.000   0.010  -0.018  -0.001   0.001   0.000  -0.008   0.012
  0.011  -0.000   0.002  -0.016  -0.003  -0.008   0.000  -0.002
 -0.003  -0.019  -0.006  -0.000  -0.009   0.004   0.011   0.004
 -0.000   0.011  -0.020  -0.001   0.001  -0.000  -0.008   0.012
  0.011  -0.000   0.002  -0.017  -0.003  -0.009  -0.000  -0.003
 total augmentation occupancy for first ion, spin component:            1
  1.948   0.010   0.003  -0.004  -0.000  -0.020  -0.005   0.002  -0.001   0.001  -0.009   0.005   0.005  -0.010  -0.020  -0.003
  0.010   1.947   0.001   0.008   0.002  -0.005  -0.019  -0.003  -0.009   0.000   0.014  -0.002   0.038  -0.034  -0.008  -0.025
  0.003   0.001   1.949  -0.008  -0.001   0.002  -0.003  -0.015   0.005   0.003  -0.012   0.004   0.028   0.066   0.003  -0.010
 -0.004   0.008  -0.008   1.942   0.001  -0.001  -0.009   0.005  -0.010  -0.003   0.002   0.010  -0.001   0.020   0.056  -0.000
 -0.000   0.002  -0.001   0.001   1.939   0.001   0.000   0.003  -0.003  -0.015   0.010  -0.007   0.051   0.019   0.012  -0.017
 -0.020  -0.005   0.002  -0.001   0.001   0.008  -0.000   0.002  -0.002  -0.001  -0.030   0.003   0.008   0.001  -0.019  -0.001
 -0.005  -0.019  -0.003  -0.009   0.000  -0.000   0.008  -0.001  -0.001   0.002  -0.014   0.004   0.014  -0.012  -0.000  -0.001
  0.002  -0.003  -0.015   0.005   0.003   0.002  -0.001   0.010  -0.001   0.001   0.007  -0.001   0.011   0.021  -0.012  -0.000
 -0.001  -0.009   0.005  -0.010  -0.003  -0.002  -0.001  -0.001   0.009  -0.000  -0.018   0.000  -0.003  -0.002   0.021   0.000
  0.001   0.000   0.003  -0.003  -0.015  -0.001   0.002   0.001  -0.000   0.009   0.005   0.001   0.016   0.001   0.008  -0.001
 -0.009   0.014  -0.012   0.002   0.010  -0.030  -0.014   0.007  -0.018   0.005   1.641  -0.103  -0.151   0.204   0.048   0.021
  0.005  -0.002   0.004   0.010  -0.007   0.003   0.004  -0.001   0.000   0.001  -0.103   0.012   0.022  -0.022  -0.008  -0.002
  0.005   0.038   0.028  -0.001   0.051   0.008   0.014   0.011  -0.003   0.016  -0.151   0.022   0.099  -0.009  -0.023  -0.008
 -0.010  -0.034   0.066   0.020   0.019   0.001  -0.012   0.021  -0.002   0.001   0.204  -0.022  -0.009   0.104  -0.027   0.002
 -0.020  -0.008   0.003   0.056   0.012  -0.019  -0.000  -0.012   0.021   0.008   0.048  -0.008  -0.023  -0.027   0.130   0.002
 -0.003  -0.025  -0.010  -0.000  -0.017  -0.001  -0.001  -0.000   0.000  -0.001   0.021  -0.002  -0.008   0.002   0.002   0.001
 -0.000   0.015  -0.029  -0.003  -0.001   0.000   0.001  -0.001   0.000  -0.000  -0.025   0.002   0.002  -0.009   0.001  -0.000
  0.016  -0.000   0.003  -0.026  -0.005   0.001   0.000   0.001  -0.001  -0.000  -0.007   0.001   0.002   0.001  -0.008  -0.000
 total augmentation occupancy for first ion, spin component:            2
  0.000  -0.000   0.000  -0.000  -0.001   0.001   0.000  -0.000  -0.000   0.000   0.002   0.000   0.001  -0.000   0.001   0.000
 -0.000   0.002  -0.001  -0.000   0.002   0.000   0.001   0.000   0.000  -0.000  -0.006  -0.001  -0.002   0.002  -0.001  -0.000
  0.000  -0.001   0.001   0.000  -0.000  -0.000   0.000   0.001  -0.000   0.000   0.003   0.000   0.000  -0.002   0.000  -0.000
 -0.000  -0.000   0.000   0.000  -0.000  -0.000   0.000  -0.000   0.001   0.000   0.001   0.000   0.000   0.000  -0.001  -0.000
 -0.001   0.002  -0.000  -0.000   0.002   0.000  -0.000   0.000   0.000   0.000  -0.007  -0.001  -0.002   0.002  -0.001  -0.000
  0.001   0.000  -0.000  -0.000   0.000  -0.000  -0.000   0.000   0.000  -0.000  -0.000  -0.000  -0.000   0.000   0.000   0.000
  0.000   0.001   0.000   0.000  -0.000  -0.000   0.000  -0.000  -0.000   0.000   0.001   0.000   0.000  -0.000   0.000  -0.000
 -0.000   0.000   0.001  -0.000   0.000   0.000  -0.000  -0.000   0.000  -0.000  -0.001  -0.000  -0.000   0.000  -0.000  -0.000
 -0.000   0.000  -0.000   0.001   0.000   0.000  -0.000   0.000  -0.000  -0.000  -0.001  -0.000  -0.000   0.000  -0.000  -0.000
  0.000  -0.000   0.000   0.000   0.000  -0.000   0.000  -0.000  -0.000   0.000   0.002   0.000   0.000  -0.000   0.000   0.000
  0.002  -0.006   0.003   0.001  -0.007  -0.000   0.001  -0.001  -0.001   0.002   0.034   0.002   0.008  -0.008   0.006   0.000
  0.000  -0.001   0.000   0.000  -0.001  -0.000   0.000  -0.000  -0.000   0.000   0.002   0.000   0.000  -0.000   0.000   0.000
  0.001  -0.002   0.000   0.000  -0.002  -0.000   0.000  -0.000  -0.000   0.000   0.008   0.000   0.001  -0.001   0.001   0.000
 -0.000   0.002  -0.002   0.000   0.002   0.000  -0.000   0.000   0.000  -0.000  -0.008  -0.000  -0.001   0.001  -0.001  -0.000
  0.001  -0.001   0.000  -0.001  -0.001   0.000   0.000  -0.000  -0.000   0.000   0.006   0.000   0.001  -0.001   0.001   0.000
  0.000  -0.000  -0.000  -0.000  -0.000   0.000  -0.000  -0.000  -0.000   0.000   0.000   0.000   0.000  -0.000   0.000   0.000
 -0.000   0.000  -0.000   0.000   0.000  -0.000  -0.000  -0.000  -0.000  -0.000  -0.000  -0.000  -0.000   0.000  -0.000  -0.000
  0.000   0.000  -0.000  -0.000   0.000   0.000  -0.000   0.000  -0.000  -0.000  -0.000   0.000  -0.000   0.000  -0.000   0.000


------------------------ aborting loop because EDIFF is reached ----------------------------------------


    CHARGE:  cpu time    0.9719: real time    0.9756
    FORLOC:  cpu time    0.0945: real time    0.0946
    FORNL :  cpu time    5.6509: real time    5.6641
    FORCOR:  cpu time    2.6234: real time    2.6343
    FORHAR:  cpu time    0.3594: real time    0.3598
    MIXING:  cpu time    0.0635: real time    0.0657
    OFIELD:  cpu time    0.0000: real time    0.0000

 VOLUME and BASIS-vectors are now :
 -----------------------------------------------------------------------------
  energy-cutoff  :      400.00
  volume of cell :    13870.69
      direct lattice vectors                 reciprocal lattice vectors
    25.715344608  0.000000000  0.000000000     0.038887288  0.000000000  0.000000000
     0.000000000 22.393162374  0.000000000     0.000000000  0.044656489  0.000000000
     0.000000000  0.000000000 24.087419260     0.000000000  0.000000000  0.041515448

  length of vectors
    25.715344608 22.393162374 24.087419260     0.038887288  0.044656489  0.041515448


 FORCES acting on ions
    electron-ion (+dipol)            ewald-force                    non-local-force                 convergence-correction
 -----------------------------------------------------------------------------------------------
   0.223E+03 -.926E+03 0.101E+04   -.222E+03 0.922E+03 -.100E+04   -.893E+00 0.417E+01 -.689E+01   -.383E-01 0.281E-01 -.118E-01
   0.916E+03 0.282E+03 0.659E+03   -.913E+03 -.283E+03 -.659E+03   -.333E+01 0.757E+00 -.408E+00   0.204E-01 -.441E-01 0.116E+00
   -.673E+02 0.475E+03 0.129E+04   0.668E+02 -.473E+03 -.128E+04   0.562E+00 -.182E+01 -.672E+01   -.389E-01 -.305E-01 -.935E-01
   -.101E+04 -.627E+03 0.712E+03   0.101E+04 0.620E+03 -.708E+03   0.693E+01 0.643E+01 -.451E+01   0.301E-01 0.254E-01 0.429E-01
   0.181E+03 0.124E+04 0.343E+03   -.181E+03 -.124E+04 -.342E+03   -.235E+00 -.520E+01 -.104E+01   0.688E-02 0.182E-01 0.683E-01
   0.686E+03 -.120E+04 0.393E+02   -.683E+03 0.119E+04 -.402E+02   -.265E+01 0.779E+01 0.804E+00   0.434E-02 0.261E-01 0.493E-01
   0.133E+04 -.123E+03 -.361E+03   -.132E+04 0.123E+03 0.360E+03   -.973E+01 -.151E+00 0.133E+01   0.532E-01 -.549E-01 -.669E-01
   -.127E+04 0.248E+03 0.158E+03   0.127E+04 -.248E+03 -.158E+03   0.452E+01 -.161E+00 0.479E+00   -.390E-01 0.961E-02 0.180E-02
   0.760E+03 0.928E+03 -.712E+03   -.757E+03 -.922E+03 0.708E+03   -.349E+01 -.633E+01 0.391E+01   -.343E-01 -.108E-01 0.123E-01
   -.754E+03 0.101E+04 -.393E+03   0.748E+03 -.998E+03 0.388E+03   0.538E+01 -.952E+01 0.408E+01   0.122E-01 -.234E-01 -.867E-01
   -.612E+03 -.886E+03 -.355E+03   0.611E+03 0.883E+03 0.356E+03   0.163E+01 0.240E+01 -.138E+01   0.186E-01 -.434E-01 0.681E-01
   0.163E+03 -.614E+03 -.121E+04   -.161E+03 0.611E+03 0.121E+04   -.202E+01 0.350E+01 0.528E+01   -.192E-02 0.506E-01 -.432E-01
   -.538E+03 0.189E+03 -.118E+04   0.534E+03 -.188E+03 0.117E+04   0.350E+01 -.122E+01 0.449E+01   -.206E-01 0.291E-01 -.194E-01
 -----------------------------------------------------------------------------------------------
   -.134E+00 -.670E+00 0.562E+00   -.227E-12 0.455E-12 0.455E-12   0.167E+00 0.645E+00 -.568E+00   -.272E-01 -.200E-01 0.367E-01
 
 
 POSITION                                       TOTAL-FORCE (eV/Angst)
 -----------------------------------------------------------------------------------
     13.07048     13.28492     10.01557        -0.000271     -0.005370      0.015036
     11.93016     11.32644     11.37320         0.016632     -0.002902      0.010984
     13.86660     10.99327      9.95319        -0.007146      0.006477     -0.004888
     15.55303     12.65642     10.08474        -0.003213      0.000995      0.017020
     13.47243      9.41708     11.73276        -0.001180      0.001150      0.002848
     11.62395     13.61617     11.92283         0.003564      0.008232      0.001898
     10.19588     11.91721     13.01998        -0.001439     -0.013218     -0.013848
     15.65441     10.68201     11.55651        -0.008614      0.005457     -0.009186
     11.74702      9.99790     13.39436        -0.007772     -0.007480      0.012327
     15.48196      8.72410     12.89489         0.004716     -0.006804     -0.026067
     14.08200     12.52430     12.02617         0.005429     -0.000219     -0.011731
     12.43992     12.25560     13.75292        -0.001320      0.010071      0.001738
     14.20383     10.63447     13.63973         0.000613      0.003611      0.003870
 -----------------------------------------------------------------------------------
    total drift:                                0.005751     -0.045441      0.031055


--------------------------------------------------------------------------------------------------------



  FREE ENERGIE OF THE ION-ELECTRON SYSTEM (eV)
  ---------------------------------------------------
  free  energy   TOTEN  =       -33.13597556 eV

  energy  without entropy=      -33.08812305  energy(sigma->0) =      -33.12002472
 
 d Force = 0.1371987E-03[ 0.101E-03, 0.173E-03]  d Energy = 0.3168353E-03-0.180E-03
 d Force =-0.3606594E+00[-0.362E+00,-0.360E+00]  d Ewald  =-0.3606594E+00-0.464E-07


--------------------------------------------------------------------------------------------------------


    POTLOK:  cpu time    2.7241: real time    2.7336


--------------------------------------------------------------------------------------------------------




--------------------------------------------------------------------------------------------------------


  
 reached required accuracy - stopping structural energy minimisation
     LOOP+:  cpu time   60.0828: real time   60.2494
    4ORBIT:  cpu time    0.0000: real time    0.0000

 total amount of memory used by VASP MPI-rank0   171959. kBytes
=======================================================================

   base      :      30000. kBytes
   nonl-proj :       5545. kBytes
   fftplans  :      33574. kBytes
   grid      :      79593. kBytes
   one-center:         31. kBytes
   wavefun   :      23216. kBytes
 
  
  
 General timing and accounting informations for this job:
 ========================================================
  
                  Total CPU time used (sec):      760.865
                            User time (sec):      750.226
                          System time (sec):       10.639
                         Elapsed time (sec):      766.105
  
                   Maximum memory used (kb):      348568.
                   Average memory used (kb):           0.
  
                          Minor page faults:      1777054
                          Major page faults:        19888
                 Voluntary context switches:         4403
