<?xml version="1.0" encoding="ISO-8859-1"?>
<modeling>
 <generator>
  <i name="program" type="string">vasp </i>
  <i name="version" type="string">6.1.2  </i>
  <i name="subversion" type="string">22Jul20 (build Aug  2 2021 21:04:21) gamma-only                       parallel </i>
  <i name="platform" type="string">LinuxPGI </i>
  <i name="date" type="string">2021 12 25 </i>
  <i name="time" type="string">06:37:51 </i>
 </generator>
 <incar>
  <i type="int" name="ISPIN">     2</i>
  <i type="int" name="IBRION">     2</i>
  <i type="int" name="NSW">  1000</i>
  <i type="int" name="ISIF">     0</i>
  <i type="int" name="ISYM">     0</i>
  <i name="ENCUT">    400.00000000</i>
  <i type="logical" name="LREAL"> F  </i>
  <i type="int" name="ISMEAR">     1</i>
  <i name="SIGMA">      0.20000000</i>
  <i type="logical" name="LWAVE"> F  </i>
  <i type="logical" name="LCHARG"> F  </i>
  <i type="int" name="KPAR">     1</i>
  <i type="int" name="NCORE">     8</i>
  <i type="string" name="GGA"> PE</i>
  <i type="int" name="ISPIN">     2</i>
 </incar>
 <structure name="primitive_cell" >
  <crystal>
   <varray name="basis" >
    <v>      25.71534461       0.00000000       0.00000000 </v>
    <v>       0.00000000      22.39316237       0.00000000 </v>
    <v>       0.00000000       0.00000000      24.08741926 </v>
   </varray>
   <i name="volume">  13870.68949189 </i>
   <varray name="rec_basis" >
    <v>       0.03888729       0.00000000       0.00000000 </v>
    <v>       0.00000000       0.04465649       0.00000000 </v>
    <v>       0.00000000       0.00000000       0.04151545 </v>
   </varray>
  </crystal>
  <varray name="positions" >
   <v>       0.50832159       0.59320797       0.41582929 </v>
   <v>       0.46392311       0.50586833       0.47202056 </v>
   <v>       0.53928007       0.49095708       0.41332758 </v>
   <v>       0.60476379       0.56515156       0.41861483 </v>
   <v>       0.52388855       0.42052184       0.48699938 </v>
   <v>       0.45201804       0.60800613       0.49491238 </v>
   <v>       0.39642075       0.53226369       0.54061993 </v>
   <v>       0.60879375       0.47700158       0.47977281 </v>
   <v>       0.45686070       0.44649148       0.55607096 </v>
   <v>       0.60204100       0.38962118       0.53546548 </v>
   <v>       0.54757869       0.55935325       0.49917235 </v>
   <v>       0.48375409       0.54720431       0.57102252 </v>
   <v>       0.55236576       0.47484688       0.56629646 </v>
  </varray>
 </structure>
 <varray name="primitive_index" >
  <v type="int" >        1 </v>
  <v type="int" >        2 </v>
  <v type="int" >        3 </v>
  <v type="int" >        4 </v>
  <v type="int" >        5 </v>
  <v type="int" >        6 </v>
  <v type="int" >        7 </v>
  <v type="int" >        8 </v>
  <v type="int" >        9 </v>
  <v type="int" >       10 </v>
  <v type="int" >       11 </v>
  <v type="int" >       12 </v>
  <v type="int" >       13 </v>
 </varray>
 <kpoints>
  <generation param="Gamma">
   <v type="int" name="divisions">       1        1        1 </v>
   <v name="usershift">      0.00000000       0.00000000       0.00000000 </v>
   <v name="genvec1">      1.00000000       0.00000000       0.00000000 </v>
   <v name="genvec2">      0.00000000       1.00000000       0.00000000 </v>
   <v name="genvec3">      0.00000000       0.00000000       1.00000000 </v>
   <v name="shift">      0.00000000       0.00000000       0.00000000 </v>
  </generation>
  <varray name="kpointlist" >
   <v>       0.00000000       0.00000000       0.00000000 </v>
  </varray>
  <varray name="weights" >
   <v>       1.00000000 </v>
  </varray>
 </kpoints>
 <parameters>
  <separator name="general" >
   <i type="string" name="SYSTEM">unknown system</i>
   <i type="logical" name="LCOMPAT"> F  </i>
  </separator>
  <separator name="electronic" >
   <i type="string" name="PREC">normal</i>
   <i name="ENMAX">    400.00000000</i>
   <i name="ENAUG">    586.98000000</i>
   <i name="EDIFF">      0.00010000</i>
   <i type="int" name="IALGO">    38</i>
   <i type="int" name="IWAVPR">    11</i>
   <i type="int" name="NBANDS">    92</i>
   <i type="int" name="NBANDSLOW">    -1</i>
   <i type="int" name="NBANDSHIGH">    -1</i>
   <i name="NELECT">    143.00000000</i>
   <i type="int" name="TURBO">     0</i>
   <i type="int" name="IRESTART">     0</i>
   <i type="int" name="NREBOOT">     0</i>
   <i type="int" name="NMIN">     0</i>
   <i name="EREF">      0.00000000</i>
   <separator name="electronic smearing" >
    <i type="int" name="ISMEAR">     1</i>
    <i name="SIGMA">      0.20000000</i>
    <i name="KSPACING">      0.50000000</i>
    <i type="logical" name="KGAMMA"> T  </i>
    <i type="logical" name="KBLOWUP"> T  </i>
   </separator>
   <separator name="electronic projectors" >
    <i type="logical" name="LREAL"> F  </i>
    <v name="ROPT">      0.00000000</v>
    <i type="int" name="LMAXPAW">  -100</i>
    <i type="int" name="LMAXMIX">     2</i>
    <i type="logical" name="NLSPLINE"> F  </i>
   </separator>
   <separator name="electronic startup" >
    <i type="int" name="ISTART">     0</i>
    <i type="int" name="ICHARG">     2</i>
    <i type="int" name="INIWAV">     1</i>
   </separator>
   <separator name="electronic spin" >
    <i type="int" name="ISPIN">     2</i>
    <i type="logical" name="LNONCOLLINEAR"> F  </i>
    <v name="MAGMOM">      1.00000000      1.00000000      1.00000000      1.00000000      1.00000000      1.00000000      1.00000000      1.00000000      1.00000000      1.00000000      1.00000000      1.00000000      1.00000000</v>
    <i name="NUPDOWN">     -1.00000000</i>
    <i type="logical" name="LSORBIT"> F  </i>
    <v name="SAXIS">      0.00000000      0.00000000      1.00000000</v>
    <i type="logical" name="LSPIRAL"> F  </i>
    <v name="QSPIRAL">      0.00000000      0.00000000      0.00000000</v>
    <i type="logical" name="LZEROZ"> F  </i>
   </separator>
   <separator name="electronic exchange-correlation" >
    <i type="logical" name="LASPH"> F  </i>
    <i type="logical" name="LMETAGGA"> F  </i>
   </separator>
   <separator name="electronic convergence" >
    <i type="int" name="NELM">    60</i>
    <i type="int" name="NELMDL">     0</i>
    <i type="int" name="NELMIN">     2</i>
    <i name="ENINI">    400.00000000</i>
    <separator name="electronic convergence detail" >
     <i type="logical" name="LDIAG"> T  </i>
     <i type="logical" name="LSUBROT"> F  </i>
     <i name="WEIMIN">      0.00100000</i>
     <i name="EBREAK">      0.00000027</i>
     <i name="DEPER">      0.30000000</i>
     <i type="int" name="NRMM">     4</i>
     <i name="TIME">      0.40000000</i>
    </separator>
   </separator>
   <separator name="electronic mixer" >
    <i name="AMIX">      0.40000000</i>
    <i name="BMIX">      1.00000000</i>
    <i name="AMIN">      0.10000000</i>
    <i name="AMIX_MAG">      1.60000000</i>
    <i name="BMIX_MAG">      1.00000000</i>
    <separator name="electronic mixer details" >
     <i type="int" name="IMIX">     4</i>
     <i type="logical" name="MIXFIRST"> F  </i>
     <i type="int" name="MAXMIX">   -45</i>
     <i name="WC">    100.00000000</i>
     <i type="int" name="INIMIX">     1</i>
     <i type="int" name="MIXPRE">     1</i>
     <i type="int" name="MREMOVE">     5</i>
    </separator>
   </separator>
   <separator name="electronic dipolcorrection" >
    <i type="logical" name="LDIPOL"> F  </i>
    <i type="logical" name="LMONO"> F  </i>
    <i type="int" name="IDIPOL">     0</i>
    <i name="EPSILON">      1.00000000</i>
    <v name="DIPOL">   -100.00000000   -100.00000000   -100.00000000</v>
    <i name="EFIELD">      0.00000000</i>
   </separator>
  </separator>
  <separator name="grids" >
   <i type="int" name="NGX">   126</i>
   <i type="int" name="NGY">   112</i>
   <i type="int" name="NGZ">   120</i>
   <i type="int" name="NGXF">   252</i>
   <i type="int" name="NGYF">   224</i>
   <i type="int" name="NGZF">   240</i>
   <i type="logical" name="ADDGRID"> F  </i>
  </separator>
  <separator name="ionic" >
   <i type="int" name="NSW">  1000</i>
   <i type="int" name="IBRION">     2</i>
   <i type="int" name="MDALGO">     0</i>
   <i type="int" name="ISIF">     0</i>
   <i name="PSTRESS">      0.00000000</i>
   <i name="EDIFFG">      0.00100000</i>
   <i type="int" name="NFREE">     1</i>
   <i name="POTIM">      0.50000000</i>
   <i name="SMASS">     -3.00000000</i>
   <i name="SCALEE">      1.00000000</i>
  </separator>
  <separator name="ionic md" >
   <i name="TEBEG">      0.00010000</i>
   <i name="TEEND">      0.00010000</i>
   <i type="int" name="NBLOCK">     1</i>
   <i type="int" name="KBLOCK">  1000</i>
   <i type="int" name="NPACO">   256</i>
   <i name="APACO">     16.00000000</i>
  </separator>
  <separator name="symmetry" >
   <i type="int" name="ISYM">     0</i>
   <i name="SYMPREC">      0.00001000</i>
  </separator>
  <separator name="dos" >
   <i type="int" name="LORBIT">     0</i>
   <v name="RWIGS">     -1.00000000</v>
   <i type="int" name="NEDOS">   301</i>
   <i name="EMIN">     10.00000000</i>
   <i name="EMAX">    -10.00000000</i>
   <i name="EFERMI">      0.00000000</i>
  </separator>
  <separator name="writing" >
   <i type="int" name="NWRITE">     2</i>
   <i type="logical" name="LWAVE"> F  </i>
   <i type="logical" name="LDOWNSAMPLE"> F  </i>
   <i type="logical" name="LCHARG"> F  </i>
   <i type="logical" name="LPARD"> F  </i>
   <i type="logical" name="LVTOT"> F  </i>
   <i type="logical" name="LVHAR"> F  </i>
   <i type="logical" name="LELF"> F  </i>
   <i type="logical" name="LOPTICS"> F  </i>
   <v name="STM">      0.00000000      0.00000000      0.00000000      0.00000000      0.00000000      0.00000000      0.00000000</v>
  </separator>
  <separator name="performance" >
   <i type="int" name="NPAR">     2</i>
   <i type="int" name="NSIM">     4</i>
   <i type="int" name="NBLK">    -1</i>
   <i type="logical" name="LPLANE"> T  </i>
   <i type="logical" name="LSCALAPACK"> T  </i>
   <i type="logical" name="LSCAAWARE"> F  </i>
   <i type="logical" name="LSCALU"> F  </i>
   <i type="logical" name="LASYNC"> F  </i>
   <i type="logical" name="LORBITALREAL"> F  </i>
  </separator>
  <separator name="miscellaneous" >
   <i type="int" name="IDIOT">     3</i>
   <i type="int" name="PHON_NSTRUCT">    -1</i>
   <i type="logical" name="LMUSIC"> F  </i>
   <v name="POMASS">     63.54600000</v>
   <v name="DARWINR">      0.00000000</v>
   <v name="DARWINV">      1.00000000</v>
   <i type="logical" name="LCORR"> T  </i>
  </separator>
  <i type="logical" name="GGA_COMPAT"> T  </i>
  <i type="logical" name="LBERRY"> F  </i>
  <i type="int" name="ICORELEVEL">     0</i>
  <i type="logical" name="LDAU"> F  </i>
  <i type="int" name="I_CONSTRAINED_M">     0</i>
  <separator name="electronic exchange-correlation" >
   <i type="string" name="GGA">PE</i>
   <i type="int" name="VOSKOWN">     0</i>
   <i type="logical" name="LHFCALC"> F  </i>
   <i type="string" name="PRECFOCK"></i>
   <i type="logical" name="LSYMGRAD"> F  </i>
   <i type="logical" name="LHFONE"> F  </i>
   <i type="logical" name="LRHFCALC"> F  </i>
   <i type="logical" name="LTHOMAS"> F  </i>
   <i type="logical" name="LMODELHF"> F  </i>
   <i type="logical" name="LFOCKACE"> F  </i>
   <i name="ENCUT4O">     -1.00000000</i>
   <i type="int" name="EXXOEP">     0</i>
   <i type="int" name="FOURORBIT">     0</i>
   <i name="AEXX">      0.00000000</i>
   <i name="HFALPHA">      0.00000000</i>
   <i name="MCALPHA">      0.00000000</i>
   <i name="ALDAX">      1.00000000</i>
   <i name="AGGAX">      1.00000000</i>
   <i name="ALDAC">      1.00000000</i>
   <i name="AGGAC">      1.00000000</i>
   <i type="int" name="NKREDX">     1</i>
   <i type="int" name="NKREDY">     1</i>
   <i type="int" name="NKREDZ">     1</i>
   <i type="logical" name="SHIFTRED"> F  </i>
   <i type="logical" name="ODDONLY"> F  </i>
   <i type="logical" name="EVENONLY"> F  </i>
   <i type="int" name="LMAXFOCK">     0</i>
   <i type="int" name="NMAXFOCKAE">     0</i>
   <i type="logical" name="LFOCKAEDFT"> F  </i>
   <i name="HFSCREEN">      0.00000000</i>
   <i name="HFSCREENC">      0.00000000</i>
   <i type="int" name="NBANDSGWLOW">     0</i>
  </separator>
  <separator name="vdW DFT" >
   <i type="logical" name="LUSE_VDW"> F  </i>
   <i name="Zab_VDW">     -0.84910000</i>
   <i name="PARAM1">      0.12340000</i>
   <i name="PARAM2">      1.00000000</i>
   <i name="PARAM3">      0.00000000</i>
  </separator>
  <separator name="model GW" >
   <i type="int" name="MODEL_GW">     0</i>
   <i name="MODEL_EPS0">    640.18566886</i>
   <i name="MODEL_ALPHA">      1.00000000</i>
  </separator>
  <separator name="linear response parameters" >
   <i type="logical" name="LEPSILON"> F  </i>
   <i type="logical" name="LRPA"> F  </i>
   <i type="logical" name="LNABLA"> F  </i>
   <i type="logical" name="LVEL"> F  </i>
   <i type="int" name="KINTER">     0</i>
   <i name="CSHIFT">      0.10000000</i>
   <i name="OMEGAMAX">     -1.00000000</i>
   <i name="DEG_THRESHOLD">      0.00200000</i>
   <i name="RTIME">     -0.10000000</i>
   <i name="WPLASMAI">      0.00000000</i>
   <v name="DFIELD">      0.00000000      0.00000000      0.00000000</v>
   <v name="WPLASMA">      0.00000000      0.00000000      0.00000000      0.00000000      0.00000000      0.00000000      0.00000000      0.00000000      0.00000000</v>
  </separator>
  <separator name="orbital magnetization" >
   <i type="logical" name="NUCIND"> F  </i>
   <v name="MAGPOS">      0.00000000      0.00000000      0.00000000</v>
   <i type="logical" name="LNICSALL"> T  </i>
   <i type="logical" name="ORBITALMAG"> F  </i>
   <i type="logical" name="LMAGBLOCH"> F  </i>
   <i type="logical" name="LCHIMAG"> F  </i>
   <i type="logical" name="LGAUGE"> T  </i>
   <i type="int" name="MAGATOM">     0</i>
   <v name="MAGDIPOL">      0.00000000      0.00000000      0.00000000</v>
   <v name="AVECCONST">      0.00000000      0.00000000      0.00000000</v>
  </separator>
  <separator name="response functions" >
   <i type="logical" name="LFINITE_TEMPERATURE"> F  </i>
   <i type="logical" name="LADDER"> F  </i>
   <i type="logical" name="LRPAFORCE"> F  </i>
   <i type="logical" name="LFXC"> F  </i>
   <i type="logical" name="LHARTREE"> T  </i>
   <i type="int" name="IBSE">     0</i>
   <v type="int" name="KPOINT">    -1     0     0     0</v>
   <i type="logical" name="LTCTC"> F  </i>
   <i type="logical" name="LTCTE"> F  </i>
   <i type="logical" name="LTETE"> F  </i>
   <i type="logical" name="LTRIPLET"> F  </i>
   <i type="logical" name="LFXCEPS"> F  </i>
   <i type="logical" name="LFXHEG"> F  </i>
   <i type="int" name="NATURALO">     2</i>
   <i type="logical" name="LHOLEGF"> F  </i>
   <i type="logical" name="L2ORDER"> F  </i>
   <i type="logical" name="LDMP1"> F  </i>
   <i type="logical" name="LMP2LT"> F  </i>
   <i type="logical" name="LSMP2LT"> F  </i>
   <i type="logical" name="LGWLF"> F  </i>
   <i name="ENCUTGW">     -2.00000000</i>
   <i name="ENCUTGWSOFT">     -2.00000000</i>
   <i name="ENCUTLF">     -1.00000000</i>
   <i type="logical" name="LESF_SPLINES"> F  </i>
   <i type="int" name="LMAXMP2">    -1</i>
   <i name="SCISSOR">      0.00000000</i>
   <i type="int" name="NOMEGA">     0</i>
   <i type="int" name="NOMEGAR">     0</i>
   <i type="int" name="NBANDSGW">    -1</i>
   <i type="int" name="NBANDSO">    -1</i>
   <i type="int" name="NBANDSV">    -1</i>
   <i type="int" name="NELM">     1</i>
   <i type="int" name="NELMHF">     1</i>
   <i type="int" name="DIM">     3</i>
   <i type="int" name="IESPILON">     4</i>
   <i type="int" name="ANTIRES">     0</i>
   <i name="OMEGAMAX">    -30.00000000</i>
   <i name="OMEGAMIN">    -30.00000000</i>
   <i name="OMEGATL">   -200.00000000</i>
   <i type="int" name="OMEGAGRID">     0</i>
   <i name="CSHIFT">     -0.10000000</i>
   <i type="logical" name="LSELFENERGY"> F  </i>
   <i type="logical" name="LSPECTRAL"> F  </i>
   <i type="logical" name="LSPECTRALGW"> F  </i>
   <i type="logical" name="LSINGLES"> F  </i>
   <i type="logical" name="LFERMIGW"> F  </i>
   <i type="logical" name="ODDONLYGW"> F  </i>
   <i type="logical" name="EVENONLYGW"> F  </i>
   <i type="int" name="NKREDLFX">     1</i>
   <i type="int" name="NKREDLFY">     1</i>
   <i type="int" name="NKREDLFZ">     1</i>
   <i type="int" name="MAXMEM">  2800</i>
   <i type="int" name="TELESCOPE">     0</i>
   <i type="int" name="NTAUPAR">    -1</i>
   <i type="int" name="NOMEGAPAR">    -1</i>
   <i name="LAMBDA">      1.00000000</i>
  </separator>
  <separator name="External order field" >
   <i name="OFIELD_KAPPA">      0.00000000</i>
   <v name="OFIELD_K">      0.00000000      0.00000000      0.00000000</v>
   <i name="OFIELD_Q6_NEAR">      0.00000000</i>
   <i name="OFIELD_Q6_FAR">      0.00000000</i>
   <i name="OFIELD_A">      0.00000000</i>
  </separator>
 </parameters>
 <atominfo>
  <atoms>      13 </atoms>
  <types>       1 </types>
  <array name="atoms" >
   <dimension dim="1">ion</dimension>
   <field type="string">element</field>
   <field type="int">atomtype</field>
   <set>
    <rc><c>Cu</c><c>   1</c></rc>
    <rc><c>Cu</c><c>   1</c></rc>
    <rc><c>Cu</c><c>   1</c></rc>
    <rc><c>Cu</c><c>   1</c></rc>
    <rc><c>Cu</c><c>   1</c></rc>
    <rc><c>Cu</c><c>   1</c></rc>
    <rc><c>Cu</c><c>   1</c></rc>
    <rc><c>Cu</c><c>   1</c></rc>
    <rc><c>Cu</c><c>   1</c></rc>
    <rc><c>Cu</c><c>   1</c></rc>
    <rc><c>Cu</c><c>   1</c></rc>
    <rc><c>Cu</c><c>   1</c></rc>
    <rc><c>Cu</c><c>   1</c></rc>
   </set>
  </array>
  <array name="atomtypes" >
   <dimension dim="1">type</dimension>
   <field type="int">atomspertype</field>
   <field type="string">element</field>
   <field>mass</field>
   <field>valence</field>
   <field type="string">pseudopotential</field>
   <set>
    <rc><c>  13</c><c>Cu</c><c>     63.54600000</c><c>     11.00000000</c><c>  PAW_PBE Cu 22Jun2005                  </c></rc>
   </set>
  </array>
 </atominfo>
 <structure name="initialpos" >
  <crystal>
   <varray name="basis" >
    <v>      25.71534461       0.00000000       0.00000000 </v>
    <v>       0.00000000      22.39316237       0.00000000 </v>
    <v>       0.00000000       0.00000000      24.08741926 </v>
   </varray>
   <i name="volume">  13870.68949189 </i>
   <varray name="rec_basis" >
    <v>       0.03888729       0.00000000       0.00000000 </v>
    <v>       0.00000000       0.04465649       0.00000000 </v>
    <v>       0.00000000       0.00000000       0.04151545 </v>
   </varray>
  </crystal>
  <varray name="positions" >
   <v>       0.50832159       0.59320797       0.41582929 </v>
   <v>       0.46392311       0.50586833       0.47202056 </v>
   <v>       0.53928007       0.49095708       0.41332758 </v>
   <v>       0.60476379       0.56515156       0.41861483 </v>
   <v>       0.52388855       0.42052184       0.48699938 </v>
   <v>       0.45201804       0.60800613       0.49491238 </v>
   <v>       0.39642075       0.53226369       0.54061993 </v>
   <v>       0.60879375       0.47700158       0.47977281 </v>
   <v>       0.45686070       0.44649148       0.55607096 </v>
   <v>       0.60204100       0.38962118       0.53546548 </v>
   <v>       0.54757869       0.55935325       0.49917235 </v>
   <v>       0.48375409       0.54720431       0.57102252 </v>
   <v>       0.55236576       0.47484688       0.56629646 </v>
  </varray>
 </structure>
 <calculation>
  <scstep>
   <time name="dav">   11.66   11.67</time>
   <time name="total">   14.38   14.42</time>
   <energy>
    <i name="alphaZ">      8.91047545 </i>
    <i name="ewald">  25225.36477849 </i>
    <i name="hartreedc"> -41680.39700268 </i>
    <i name="XCdc">    584.85984692 </i>
    <i name="pawpsdc">  15965.26744864 </i>
    <i name="pawaedc"> -17340.97210982 </i>
    <i name="eentropy">      0.02698402 </i>
    <i name="bandstr">    136.45534521 </i>
    <i name="atom">  18082.44932260 </i>
    <i name="e_fr_energy">    981.96508883 </i>
    <i name="e_wo_entrp">    981.93810480 </i>
    <i name="e_0_energy">    981.95609415 </i>
   </energy>
  </scstep>
  <scstep>
   <time name="dav">   11.73   11.74</time>
   <time name="total">   11.73   11.74</time>
   <energy>
    <i name="e_fr_energy">    295.38559218 </i>
    <i name="e_wo_entrp">    295.41195019 </i>
    <i name="e_0_energy">    295.39437818 </i>
   </energy>
  </scstep>
  <scstep>
   <time name="dav">   14.27   14.30</time>
   <time name="total">   14.28   14.30</time>
   <energy>
    <i name="e_fr_energy">     18.43841280 </i>
    <i name="e_wo_entrp">     18.41436762 </i>
    <i name="e_0_energy">     18.43039774 </i>
   </energy>
  </scstep>
  <scstep>
   <time name="dav">   13.57   13.59</time>
   <time name="total">   13.57   13.59</time>
   <energy>
    <i name="e_fr_energy">    -34.26632996 </i>
    <i name="e_wo_entrp">    -34.29677113 </i>
    <i name="e_0_energy">    -34.27647702 </i>
   </energy>
  </scstep>
  <scstep>
   <time name="dav">   14.81   14.82</time>
   <time name="total">   15.82   15.84</time>
   <energy>
    <i name="e_fr_energy">    -37.41496088 </i>
    <i name="e_wo_entrp">    -37.50467993 </i>
    <i name="e_0_energy">    -37.44486723 </i>
   </energy>
  </scstep>
  <scstep>
   <time name="dav">   12.07   12.08</time>
   <time name="total">   15.85   15.87</time>
   <energy>
    <i name="e_fr_energy">    -14.49995651 </i>
    <i name="e_wo_entrp">    -14.47240413 </i>
    <i name="e_0_energy">    -14.49077238 </i>
   </energy>
  </scstep>
  <scstep>
   <time name="dav">   13.23   13.26</time>
   <time name="total">   17.00   17.03</time>
   <energy>
    <i name="e_fr_energy">     -8.44154189 </i>
    <i name="e_wo_entrp">     -8.39239865 </i>
    <i name="e_0_energy">     -8.42516081 </i>
   </energy>
  </scstep>
  <scstep>
   <time name="dav">   13.64   13.65</time>
   <time name="total">   17.42   17.45</time>
   <energy>
    <i name="e_fr_energy">     -8.69226643 </i>
    <i name="e_wo_entrp">     -8.62074865 </i>
    <i name="e_0_energy">     -8.66842717 </i>
   </energy>
  </scstep>
  <scstep>
   <time name="dav">   14.43   14.45</time>
   <time name="total">   18.20   18.22</time>
   <energy>
    <i name="e_fr_energy">    -10.66800440 </i>
    <i name="e_wo_entrp">    -10.62779632 </i>
    <i name="e_0_energy">    -10.65460171 </i>
   </energy>
  </scstep>
  <scstep>
   <time name="dav">   14.83   14.85</time>
   <time name="total">   18.58   18.61</time>
   <energy>
    <i name="e_fr_energy">    -13.82930832 </i>
    <i name="e_wo_entrp">    -13.85248010 </i>
    <i name="e_0_energy">    -13.83703225 </i>
   </energy>
  </scstep>
  <scstep>
   <time name="dav">   14.29   14.31</time>
   <time name="total">   18.08   18.11</time>
   <energy>
    <i name="e_fr_energy">    -17.23772997 </i>
    <i name="e_wo_entrp">    -17.26696747 </i>
    <i name="e_0_energy">    -17.24747581 </i>
   </energy>
  </scstep>
  <scstep>
   <time name="dav">   15.19   15.21</time>
   <time name="total">   18.96   18.99</time>
   <energy>
    <i name="e_fr_energy">    -22.43679233 </i>
    <i name="e_wo_entrp">    -22.45738613 </i>
    <i name="e_0_energy">    -22.44365693 </i>
   </energy>
  </scstep>
  <scstep>
   <time name="dav">   14.36   14.37</time>
   <time name="total">   18.12   18.15</time>
   <energy>
    <i name="e_fr_energy">    -25.75369148 </i>
    <i name="e_wo_entrp">    -25.77183339 </i>
    <i name="e_0_energy">    -25.75973878 </i>
   </energy>
  </scstep>
  <scstep>
   <time name="dav">   15.14   15.16</time>
   <time name="total">   18.95   18.97</time>
   <energy>
    <i name="e_fr_energy">    -27.56289883 </i>
    <i name="e_wo_entrp">    -27.58402335 </i>
    <i name="e_0_energy">    -27.56994034 </i>
   </energy>
  </scstep>
  <scstep>
   <time name="dav">   14.54   14.55</time>
   <time name="total">   18.32   18.35</time>
   <energy>
    <i name="e_fr_energy">    -30.15060580 </i>
    <i name="e_wo_entrp">    -30.17320877 </i>
    <i name="e_0_energy">    -30.15814012 </i>
   </energy>
  </scstep>
  <scstep>
   <time name="dav">   14.34   14.36</time>
   <time name="total">   18.17   18.19</time>
   <energy>
    <i name="e_fr_energy">    -31.13339332 </i>
    <i name="e_wo_entrp">    -31.14422781 </i>
    <i name="e_0_energy">    -31.13700481 </i>
   </energy>
  </scstep>
  <scstep>
   <time name="dav">   14.42   14.44</time>
   <time name="total">   18.19   18.21</time>
   <energy>
    <i name="e_fr_energy">    -31.60116878 </i>
    <i name="e_wo_entrp">    -31.60332569 </i>
    <i name="e_0_energy">    -31.60188775 </i>
   </energy>
  </scstep>
  <scstep>
   <time name="dav">   15.36   15.38</time>
   <time name="total">   19.17   19.21</time>
   <energy>
    <i name="e_fr_energy">    -32.06289531 </i>
    <i name="e_wo_entrp">    -32.05453008 </i>
    <i name="e_0_energy">    -32.06010690 </i>
   </energy>
  </scstep>
  <scstep>
   <time name="dav">   15.25   15.27</time>
   <time name="total">   19.13   19.15</time>
   <energy>
    <i name="e_fr_energy">    -32.55446056 </i>
    <i name="e_wo_entrp">    -32.53503705 </i>
    <i name="e_0_energy">    -32.54798606 </i>
   </energy>
  </scstep>
  <scstep>
   <time name="dav">   15.64   15.68</time>
   <time name="total">   19.49   19.55</time>
   <energy>
    <i name="e_fr_energy">    -32.78994553 </i>
    <i name="e_wo_entrp">    -32.76567446 </i>
    <i name="e_0_energy">    -32.78185517 </i>
   </energy>
  </scstep>
  <scstep>
   <time name="dav">   15.38   15.40</time>
   <time name="total">   19.26   19.28</time>
   <energy>
    <i name="e_fr_energy">    -32.94839399 </i>
    <i name="e_wo_entrp">    -32.92007566 </i>
    <i name="e_0_energy">    -32.93895454 </i>
   </energy>
  </scstep>
  <scstep>
   <time name="dav">   14.52   14.61</time>
   <time name="total">   18.40   18.49</time>
   <energy>
    <i name="e_fr_energy">    -33.01922838 </i>
    <i name="e_wo_entrp">    -32.98753101 </i>
    <i name="e_0_energy">    -33.00866259 </i>
   </energy>
  </scstep>
  <scstep>
   <time name="dav">   12.31   12.33</time>
   <time name="total">   16.21   16.24</time>
   <energy>
    <i name="e_fr_energy">    -33.06060380 </i>
    <i name="e_wo_entrp">    -33.02585431 </i>
    <i name="e_0_energy">    -33.04902064 </i>
   </energy>
  </scstep>
  <scstep>
   <time name="dav">   10.77   10.80</time>
   <time name="total">   14.69   14.73</time>
   <energy>
    <i name="e_fr_energy">    -33.08647142 </i>
    <i name="e_wo_entrp">    -33.04989340 </i>
    <i name="e_0_energy">    -33.07427875 </i>
   </energy>
  </scstep>
  <scstep>
   <time name="dav">   10.95   10.97</time>
   <time name="total">   14.84   14.87</time>
   <energy>
    <i name="e_fr_energy">    -33.10407238 </i>
    <i name="e_wo_entrp">    -33.06596300 </i>
    <i name="e_0_energy">    -33.09136926 </i>
   </energy>
  </scstep>
  <scstep>
   <time name="dav">   11.18   11.20</time>
   <time name="total">   15.07   15.10</time>
   <energy>
    <i name="e_fr_energy">    -33.11661093 </i>
    <i name="e_wo_entrp">    -33.07674861 </i>
    <i name="e_0_energy">    -33.10332349 </i>
   </energy>
  </scstep>
  <scstep>
   <time name="dav">    9.79    9.80</time>
   <time name="total">   13.67   13.70</time>
   <energy>
    <i name="e_fr_energy">    -33.12209470 </i>
    <i name="e_wo_entrp">    -33.08125477 </i>
    <i name="e_0_energy">    -33.10848139 </i>
   </energy>
  </scstep>
  <scstep>
   <time name="dav">    9.87    9.89</time>
   <time name="total">   13.82   13.85</time>
   <energy>
    <i name="e_fr_energy">    -33.12551898 </i>
    <i name="e_wo_entrp">    -33.08384730 </i>
    <i name="e_0_energy">    -33.11162842 </i>
   </energy>
  </scstep>
  <scstep>
   <time name="dav">    9.64    9.66</time>
   <time name="total">   13.60   13.63</time>
   <energy>
    <i name="e_fr_energy">    -33.13023690 </i>
    <i name="e_wo_entrp">    -33.08722810 </i>
    <i name="e_0_energy">    -33.11590064 </i>
   </energy>
  </scstep>
  <scstep>
   <time name="dav">   10.07   10.09</time>
   <time name="total">   14.06   14.08</time>
   <energy>
    <i name="e_fr_energy">    -33.13147881 </i>
    <i name="e_wo_entrp">    -33.08803509 </i>
    <i name="e_0_energy">    -33.11699757 </i>
   </energy>
  </scstep>
  <scstep>
   <time name="dav">    9.33    9.34</time>
   <time name="total">   13.34   13.36</time>
   <energy>
    <i name="e_fr_energy">    -33.13268169 </i>
    <i name="e_wo_entrp">    -33.08875603 </i>
    <i name="e_0_energy">    -33.11803980 </i>
   </energy>
  </scstep>
  <scstep>
   <time name="dav">    9.68    9.70</time>
   <time name="total">   13.72   13.75</time>
   <energy>
    <i name="e_fr_energy">    -33.13322736 </i>
    <i name="e_wo_entrp">    -33.08902087 </i>
    <i name="e_0_energy">    -33.11849187 </i>
   </energy>
  </scstep>
  <scstep>
   <time name="dav">    9.06    9.08</time>
   <time name="total">   13.10   13.13</time>
   <energy>
    <i name="e_fr_energy">    -33.13401165 </i>
    <i name="e_wo_entrp">    -33.08926052 </i>
    <i name="e_0_energy">    -33.11909461 </i>
   </energy>
  </scstep>
  <scstep>
   <time name="dav">    9.59    9.60</time>
   <time name="total">   13.62   13.64</time>
   <energy>
    <i name="e_fr_energy">    -33.13437011 </i>
    <i name="e_wo_entrp">    -33.08922832 </i>
    <i name="e_0_energy">    -33.11932285 </i>
   </energy>
  </scstep>
  <scstep>
   <time name="dav">    9.44    9.46</time>
   <time name="total">   13.48   13.51</time>
   <energy>
    <i name="e_fr_energy">    -33.13452640 </i>
    <i name="e_wo_entrp">    -33.08913223 </i>
    <i name="e_0_energy">    -33.11939501 </i>
   </energy>
  </scstep>
  <scstep>
   <time name="dav">    9.08    9.09</time>
   <time name="total">   13.12   13.15</time>
   <energy>
    <i name="e_fr_energy">    -33.13463978 </i>
    <i name="e_wo_entrp">    -33.08886877 </i>
    <i name="e_0_energy">    -33.11938278 </i>
   </energy>
  </scstep>
  <scstep>
   <time name="dav">    9.52    9.56</time>
   <time name="total">   13.61   13.66</time>
   <energy>
    <i name="e_fr_energy">    -33.13476305 </i>
    <i name="e_wo_entrp">    -33.08855316 </i>
    <i name="e_0_energy">    -33.11935975 </i>
   </energy>
  </scstep>
  <scstep>
   <time name="dav">    9.68    9.69</time>
   <time name="total">   13.82   13.86</time>
   <energy>
    <i name="e_fr_energy">    -33.13486889 </i>
    <i name="e_wo_entrp">    -33.08810774 </i>
    <i name="e_0_energy">    -33.11928184 </i>
   </energy>
  </scstep>
  <scstep>
   <time name="dav">    9.26    9.28</time>
   <time name="total">   12.01   12.03</time>
   <energy>
    <i name="alphaZ">      8.91047545 </i>
    <i name="ewald">  25225.36477849 </i>
    <i name="hartreedc"> -41635.55863755 </i>
    <i name="XCdc">    574.68551924 </i>
    <i name="pawpsdc">  16761.30476003 </i>
    <i name="pawaedc"> -18156.35717315 </i>
    <i name="eentropy">     -0.04721569 </i>
    <i name="bandstr">   -893.88679411 </i>
    <i name="atom">  18082.44932260 </i>
    <i name="e_fr_energy">    -33.13496469 </i>
    <i name="e_wo_entrp">    -33.08774900 </i>
    <i name="e_0_energy">    -33.11922613 </i>
   </energy>
  </scstep>
  <structure>
   <crystal>
    <varray name="basis" >
     <v>      25.71534461       0.00000000       0.00000000 </v>
     <v>       0.00000000      22.39316237       0.00000000 </v>
     <v>       0.00000000       0.00000000      24.08741926 </v>
    </varray>
    <i name="volume">  13870.68949189 </i>
    <varray name="rec_basis" >
     <v>       0.03888729       0.00000000       0.00000000 </v>
     <v>       0.00000000       0.04465649       0.00000000 </v>
     <v>       0.00000000       0.00000000       0.04151545 </v>
    </varray>
   </crystal>
   <varray name="positions" >
    <v>       0.50832159       0.59320797       0.41582929 </v>
    <v>       0.46392311       0.50586833       0.47202056 </v>
    <v>       0.53928007       0.49095708       0.41332758 </v>
    <v>       0.60476379       0.56515156       0.41861483 </v>
    <v>       0.52388855       0.42052184       0.48699938 </v>
    <v>       0.45201804       0.60800613       0.49491238 </v>
    <v>       0.39642075       0.53226369       0.54061993 </v>
    <v>       0.60879375       0.47700158       0.47977281 </v>
    <v>       0.45686070       0.44649148       0.55607096 </v>
    <v>       0.60204100       0.38962118       0.53546548 </v>
    <v>       0.54757869       0.55935325       0.49917235 </v>
    <v>       0.48375409       0.54720431       0.57102252 </v>
    <v>       0.55236576       0.47484688       0.56629646 </v>
   </varray>
  </structure>
  <varray name="forces" >
   <v>      -0.01430948       0.01353809      -0.00826114 </v>
   <v>       0.00264159      -0.01871374       0.04151843 </v>
   <v>      -0.01420830      -0.00975799      -0.03385419 </v>
   <v>       0.01593946       0.01078863       0.01680447 </v>
   <v>       0.00553755       0.00315371       0.02651416 </v>
   <v>       0.00181175       0.01199441       0.02017237 </v>
   <v>       0.02152927      -0.02239704      -0.02605049 </v>
   <v>      -0.01119585       0.00520855       0.00029463 </v>
   <v>      -0.01577123      -0.00551120       0.00052929 </v>
   <v>       0.00321219      -0.00910648      -0.03728676 </v>
   <v>       0.00998458      -0.01680405       0.02893219 </v>
   <v>       0.00017910       0.02373914      -0.01860198 </v>
   <v>      -0.00535064       0.01386797      -0.01071099 </v>
  </varray>
  <energy>
   <i name="e_fr_energy">    -33.13496469 </i>
   <i name="e_wo_entrp">    -33.08774900 </i>
   <i name="e_0_energy">    -33.11922613 </i>
  </energy>
  <time name="totalsc">  631.10  632.30</time>
 </calculation>
 <calculation>
  <scstep>
   <time name="dav">   12.78   12.80</time>
   <time name="total">   16.51   16.54</time>
   <energy>
    <i name="alphaZ">      8.91047545 </i>
    <i name="ewald">  25225.86421111 </i>
    <i name="hartreedc"> -41636.07994504 </i>
    <i name="XCdc">    574.68487936 </i>
    <i name="pawpsdc">  16761.27755320 </i>
    <i name="pawaedc"> -18156.32911143 </i>
    <i name="eentropy">     -0.04764646 </i>
    <i name="bandstr">   -893.86499550 </i>
    <i name="atom">  18082.44932260 </i>
    <i name="e_fr_energy">    -33.13525670 </i>
    <i name="e_wo_entrp">    -33.08761024 </i>
    <i name="e_0_energy">    -33.11937455 </i>
   </energy>
  </scstep>
  <scstep>
   <time name="dav">   15.87   15.90</time>
   <time name="total">   19.62   19.65</time>
   <energy>
    <i name="e_fr_energy">    -33.13563041 </i>
    <i name="e_wo_entrp">    -33.08789464 </i>
    <i name="e_0_energy">    -33.11971848 </i>
   </energy>
  </scstep>
  <scstep>
   <time name="dav">    9.05    9.07</time>
   <time name="total">   11.79   11.81</time>
   <energy>
    <i name="alphaZ">      8.91047545 </i>
    <i name="ewald">  25225.86421111 </i>
    <i name="hartreedc"> -41636.08931432 </i>
    <i name="XCdc">    574.68460387 </i>
    <i name="pawpsdc">  16761.22644633 </i>
    <i name="pawaedc"> -18156.26677016 </i>
    <i name="eentropy">     -0.04775260 </i>
    <i name="bandstr">   -893.86688101 </i>
    <i name="atom">  18082.44932260 </i>
    <i name="e_fr_energy">    -33.13565872 </i>
    <i name="e_wo_entrp">    -33.08790612 </i>
    <i name="e_0_energy">    -33.11974119 </i>
   </energy>
  </scstep>
  <structure>
   <crystal>
    <varray name="basis" >
     <v>      25.71534461       0.00000000       0.00000000 </v>
     <v>       0.00000000      22.39316237       0.00000000 </v>
     <v>       0.00000000       0.00000000      24.08741926 </v>
    </varray>
    <i name="volume">  13870.68949189 </i>
    <varray name="rec_basis" >
     <v>       0.03888729       0.00000000       0.00000000 </v>
     <v>       0.00000000       0.04465649       0.00000000 </v>
     <v>       0.00000000       0.00000000       0.04151545 </v>
    </varray>
   </crystal>
   <varray name="positions" >
    <v>       0.50829474       0.59323714       0.41581275 </v>
    <v>       0.46392806       0.50582802       0.47210371 </v>
    <v>       0.53925342       0.49093606       0.41325977 </v>
    <v>       0.60479369       0.56517480       0.41864848 </v>
    <v>       0.52389894       0.42052863       0.48705249 </v>
    <v>       0.45202144       0.60803197       0.49495278 </v>
    <v>       0.39646114       0.53221544       0.54056775 </v>
    <v>       0.60877274       0.47701280       0.47977340 </v>
    <v>       0.45683111       0.44647961       0.55607202 </v>
    <v>       0.60204702       0.38960156       0.53539080 </v>
    <v>       0.54759743       0.55931705       0.49923030 </v>
    <v>       0.48375443       0.54725545       0.57098526 </v>
    <v>       0.55235572       0.47487676       0.56627501 </v>
   </varray>
  </structure>
  <varray name="forces" >
   <v>      -0.00401883      -0.00012577       0.00763123 </v>
   <v>       0.01060499      -0.00668909       0.01744623 </v>
   <v>      -0.00804061       0.00154455      -0.01186498 </v>
   <v>       0.00252693       0.00401244       0.01450996 </v>
   <v>       0.00058893       0.00155870       0.00865204 </v>
   <v>       0.00213940       0.00882896       0.00640126 </v>
   <v>       0.00539202      -0.01427106      -0.01610775 </v>
   <v>      -0.00835413       0.00482430      -0.00557102 </v>
   <v>      -0.00907444      -0.00657920       0.00795773 </v>
   <v>       0.00401499      -0.00670920      -0.02596201 </v>
   <v>       0.00602181      -0.00450121       0.00105979 </v>
   <v>      -0.00069101       0.01252011      -0.00407075 </v>
   <v>      -0.00111004       0.00558648      -0.00008173 </v>
  </varray>
  <energy>
   <i name="e_fr_energy">    -33.13565872 </i>
   <i name="e_wo_entrp">    -33.08790612 </i>
   <i name="e_0_energy">    -33.11974119 </i>
  </energy>
  <time name="totalsc">   61.51   61.66</time>
 </calculation>
 <calculation>
  <scstep>
   <time name="dav">   12.23   12.25</time>
   <time name="total">   16.00   16.04</time>
   <energy>
    <i name="alphaZ">      8.91047545 </i>
    <i name="ewald">  25226.22487048 </i>
    <i name="hartreedc"> -41636.46312432 </i>
    <i name="XCdc">    574.68481961 </i>
    <i name="pawpsdc">  16761.21582288 </i>
    <i name="pawaedc"> -18156.25896358 </i>
    <i name="eentropy">     -0.04778995 </i>
    <i name="bandstr">   -893.85120336 </i>
    <i name="atom">  18082.44932260 </i>
    <i name="e_fr_energy">    -33.13577020 </i>
    <i name="e_wo_entrp">    -33.08798025 </i>
    <i name="e_0_energy">    -33.11984022 </i>
   </energy>
  </scstep>
  <scstep>
   <time name="dav">   16.07   16.10</time>
   <time name="total">   19.80   19.84</time>
   <energy>
    <i name="e_fr_energy">    -33.13596254 </i>
    <i name="e_wo_entrp">    -33.08812032 </i>
    <i name="e_0_energy">    -33.12001513 </i>
   </energy>
  </scstep>
  <scstep>
   <time name="dav">    9.08    9.10</time>
   <time name="total">   11.79   11.82</time>
   <energy>
    <i name="alphaZ">      8.91047545 </i>
    <i name="ewald">  25226.22487048 </i>
    <i name="hartreedc"> -41636.47032950 </i>
    <i name="XCdc">    574.68493477 </i>
    <i name="pawpsdc">  16761.15368752 </i>
    <i name="pawaedc"> -18156.19604334 </i>
    <i name="eentropy">     -0.04785251 </i>
    <i name="bandstr">   -893.84504103 </i>
    <i name="atom">  18082.44932260 </i>
    <i name="e_fr_energy">    -33.13597556 </i>
    <i name="e_wo_entrp">    -33.08812305 </i>
    <i name="e_0_energy">    -33.12002472 </i>
   </energy>
  </scstep>
  <structure>
   <crystal>
    <varray name="basis" >
     <v>      25.71534461       0.00000000       0.00000000 </v>
     <v>       0.00000000      22.39316237       0.00000000 </v>
     <v>       0.00000000       0.00000000      24.08741926 </v>
    </varray>
    <i name="volume">  13870.68949189 </i>
    <varray name="rec_basis" >
     <v>       0.03888729       0.00000000       0.00000000 </v>
     <v>       0.00000000       0.04465649       0.00000000 </v>
     <v>       0.00000000       0.00000000       0.04151545 </v>
    </varray>
   </crystal>
   <varray name="positions" >
    <v>       0.50827546       0.59325808       0.41580087 </v>
    <v>       0.46393162       0.50579907       0.47216343 </v>
    <v>       0.53923427       0.49092096       0.41321108 </v>
    <v>       0.60481516       0.56519149       0.41867265 </v>
    <v>       0.52390640       0.42053351       0.48709062 </v>
    <v>       0.45202388       0.60805053       0.49498179 </v>
    <v>       0.39649014       0.53218079       0.54053029 </v>
    <v>       0.60875766       0.47702086       0.47977382 </v>
    <v>       0.45680987       0.44647108       0.55607278 </v>
    <v>       0.60205135       0.38958747       0.53533718 </v>
    <v>       0.54761088       0.55929106       0.49927191 </v>
    <v>       0.48375467       0.54729217       0.57095851 </v>
    <v>       0.55234851       0.47489821       0.56625960 </v>
   </varray>
  </structure>
  <varray name="forces" >
   <v>      -0.00027056      -0.00537012       0.01503591 </v>
   <v>       0.01663242      -0.00290211       0.01098424 </v>
   <v>      -0.00714643       0.00647680      -0.00488844 </v>
   <v>      -0.00321339       0.00099453       0.01702022 </v>
   <v>      -0.00117966       0.00114960       0.00284756 </v>
   <v>       0.00356407       0.00823233       0.00189812 </v>
   <v>      -0.00143911      -0.01321779      -0.01384754 </v>
   <v>      -0.00861414       0.00545743      -0.00918625 </v>
   <v>      -0.00777160      -0.00748013       0.01232687 </v>
   <v>       0.00471570      -0.00680398      -0.02606733 </v>
   <v>       0.00542926      -0.00021910      -0.01173145 </v>
   <v>      -0.00131967       0.01007120       0.00173776 </v>
   <v>       0.00061310       0.00361133       0.00387033 </v>
  </varray>
  <energy>
   <i name="e_fr_energy">    -33.13597556 </i>
   <i name="e_wo_entrp">    -33.08812305 </i>
   <i name="e_0_energy">    -33.12002472 </i>
  </energy>
  <time name="totalsc">   60.08   60.25</time>
  <eigenvalues>
   <array>
    <dimension dim="1">band</dimension>
    <dimension dim="2">kpoint</dimension>
    <dimension dim="3">spin</dimension>
    <field>eigene</field>
    <field>occ</field>
    <set>
     <set comment="spin 1">
      <set comment="kpoint 1">
       <r>  -10.5506    1.0000 </r>
       <r>   -9.0127    1.0000 </r>
       <r>   -8.7832    1.0000 </r>
       <r>   -8.0484    1.0000 </r>
       <r>   -7.9070    1.0000 </r>
       <r>   -7.8708    1.0000 </r>
       <r>   -7.7034    1.0000 </r>
       <r>   -7.5146    1.0000 </r>
       <r>   -7.4654    1.0000 </r>
       <r>   -7.3098    1.0000 </r>
       <r>   -7.2493    1.0000 </r>
       <r>   -7.2036    1.0000 </r>
       <r>   -7.1507    1.0000 </r>
       <r>   -7.0914    1.0000 </r>
       <r>   -7.0724    1.0000 </r>
       <r>   -6.9933    1.0000 </r>
       <r>   -6.8966    1.0000 </r>
       <r>   -6.8773    1.0000 </r>
       <r>   -6.7957    1.0000 </r>
       <r>   -6.7531    1.0000 </r>
       <r>   -6.6858    1.0000 </r>
       <r>   -6.6457    1.0000 </r>
       <r>   -6.6155    1.0000 </r>
       <r>   -6.5642    1.0000 </r>
       <r>   -6.4679    1.0000 </r>
       <r>   -6.4190    1.0000 </r>
       <r>   -6.3541    1.0000 </r>
       <r>   -6.2946    1.0000 </r>
       <r>   -6.2590    1.0000 </r>
       <r>   -6.2022    1.0000 </r>
       <r>   -6.1716    1.0000 </r>
       <r>   -6.1397    1.0000 </r>
       <r>   -6.1243    1.0000 </r>
       <r>   -6.0695    1.0000 </r>
       <r>   -6.0541    1.0000 </r>
       <r>   -5.9839    1.0000 </r>
       <r>   -5.9417    1.0000 </r>
       <r>   -5.8906    1.0000 </r>
       <r>   -5.8793    1.0000 </r>
       <r>   -5.8334    1.0000 </r>
       <r>   -5.8175    1.0000 </r>
       <r>   -5.7831    1.0000 </r>
       <r>   -5.7676    1.0000 </r>
       <r>   -5.7393    1.0000 </r>
       <r>   -5.7259    1.0000 </r>
       <r>   -5.7033    1.0000 </r>
       <r>   -5.6872    1.0000 </r>
       <r>   -5.6498    1.0000 </r>
       <r>   -5.6381    1.0000 </r>
       <r>   -5.6019    1.0000 </r>
       <r>   -5.5784    1.0000 </r>
       <r>   -5.5544    1.0000 </r>
       <r>   -5.5461    1.0000 </r>
       <r>   -5.5094    1.0000 </r>
       <r>   -5.4973    1.0000 </r>
       <r>   -5.4748    1.0000 </r>
       <r>   -5.4354    1.0000 </r>
       <r>   -5.4148    1.0000 </r>
       <r>   -5.3943    1.0000 </r>
       <r>   -5.3730    1.0000 </r>
       <r>   -5.3468    1.0000 </r>
       <r>   -5.3429    1.0000 </r>
       <r>   -5.3152    1.0000 </r>
       <r>   -5.2851    1.0000 </r>
       <r>   -5.2517    1.0000 </r>
       <r>   -5.2417    1.0000 </r>
       <r>   -5.1993    1.0000 </r>
       <r>   -5.1726    1.0000 </r>
       <r>   -4.9229    1.0000 </r>
       <r>   -4.7420    1.0001 </r>
       <r>   -4.5779    1.0043 </r>
       <r>   -4.1724    0.6240 </r>
       <r>   -3.3841   -0.0000 </r>
       <r>   -3.2369   -0.0000 </r>
       <r>   -2.5947   -0.0000 </r>
       <r>   -2.4211   -0.0000 </r>
       <r>   -2.3908   -0.0000 </r>
       <r>   -2.3115   -0.0000 </r>
       <r>   -1.8791   -0.0000 </r>
       <r>   -1.4344   -0.0000 </r>
       <r>   -1.2822   -0.0000 </r>
       <r>   -1.0350   -0.0000 </r>
       <r>   -0.8833   -0.0000 </r>
       <r>   -0.6989   -0.0000 </r>
       <r>   -0.3777   -0.0000 </r>
       <r>   -0.2217   -0.0000 </r>
       <r>   -0.1826   -0.0000 </r>
       <r>    0.0029   -0.0000 </r>
       <r>    0.1379   -0.0000 </r>
       <r>    0.2779   -0.0000 </r>
       <r>    0.3045   -0.0000 </r>
       <r>    0.3672   -0.0000 </r>
      </set>
     </set>
     <set comment="spin 2">
      <set comment="kpoint 1">
       <r>  -10.5401    1.0000 </r>
       <r>   -9.0053    1.0000 </r>
       <r>   -8.7717    1.0000 </r>
       <r>   -8.0383    1.0000 </r>
       <r>   -7.8994    1.0000 </r>
       <r>   -7.8658    1.0000 </r>
       <r>   -7.6901    1.0000 </r>
       <r>   -7.5019    1.0000 </r>
       <r>   -7.4575    1.0000 </r>
       <r>   -7.3001    1.0000 </r>
       <r>   -7.2432    1.0000 </r>
       <r>   -7.1935    1.0000 </r>
       <r>   -7.1388    1.0000 </r>
       <r>   -7.0852    1.0000 </r>
       <r>   -7.0650    1.0000 </r>
       <r>   -6.9849    1.0000 </r>
       <r>   -6.8902    1.0000 </r>
       <r>   -6.8691    1.0000 </r>
       <r>   -6.7844    1.0000 </r>
       <r>   -6.7458    1.0000 </r>
       <r>   -6.6804    1.0000 </r>
       <r>   -6.6381    1.0000 </r>
       <r>   -6.6087    1.0000 </r>
       <r>   -6.5577    1.0000 </r>
       <r>   -6.4613    1.0000 </r>
       <r>   -6.4124    1.0000 </r>
       <r>   -6.3448    1.0000 </r>
       <r>   -6.2833    1.0000 </r>
       <r>   -6.2514    1.0000 </r>
       <r>   -6.1963    1.0000 </r>
       <r>   -6.1649    1.0000 </r>
       <r>   -6.1315    1.0000 </r>
       <r>   -6.1149    1.0000 </r>
       <r>   -6.0600    1.0000 </r>
       <r>   -6.0439    1.0000 </r>
       <r>   -5.9757    1.0000 </r>
       <r>   -5.9318    1.0000 </r>
       <r>   -5.8837    1.0000 </r>
       <r>   -5.8715    1.0000 </r>
       <r>   -5.8273    1.0000 </r>
       <r>   -5.8105    1.0000 </r>
       <r>   -5.7745    1.0000 </r>
       <r>   -5.7605    1.0000 </r>
       <r>   -5.7321    1.0000 </r>
       <r>   -5.7194    1.0000 </r>
       <r>   -5.6979    1.0000 </r>
       <r>   -5.6785    1.0000 </r>
       <r>   -5.6414    1.0000 </r>
       <r>   -5.6326    1.0000 </r>
       <r>   -5.5952    1.0000 </r>
       <r>   -5.5713    1.0000 </r>
       <r>   -5.5445    1.0000 </r>
       <r>   -5.5399    1.0000 </r>
       <r>   -5.4990    1.0000 </r>
       <r>   -5.4900    1.0000 </r>
       <r>   -5.4684    1.0000 </r>
       <r>   -5.4266    1.0000 </r>
       <r>   -5.4068    1.0000 </r>
       <r>   -5.3849    1.0000 </r>
       <r>   -5.3650    1.0000 </r>
       <r>   -5.3410    1.0000 </r>
       <r>   -5.3353    1.0000 </r>
       <r>   -5.3061    1.0000 </r>
       <r>   -5.2767    1.0000 </r>
       <r>   -5.2449    1.0000 </r>
       <r>   -5.2360    1.0000 </r>
       <r>   -5.1904    1.0000 </r>
       <r>   -5.1630    1.0000 </r>
       <r>   -4.9127    1.0000 </r>
       <r>   -4.7315    1.0001 </r>
       <r>   -4.5702    1.0050 </r>
       <r>   -4.1107    0.3665 </r>
       <r>   -3.3723   -0.0000 </r>
       <r>   -3.2212   -0.0000 </r>
       <r>   -2.5762   -0.0000 </r>
       <r>   -2.4082   -0.0000 </r>
       <r>   -2.3626   -0.0000 </r>
       <r>   -2.2977   -0.0000 </r>
       <r>   -1.8149   -0.0000 </r>
       <r>   -1.4253   -0.0000 </r>
       <r>   -1.2642   -0.0000 </r>
       <r>   -1.0041   -0.0000 </r>
       <r>   -0.8582   -0.0000 </r>
       <r>   -0.6841   -0.0000 </r>
       <r>   -0.3522   -0.0000 </r>
       <r>   -0.2088   -0.0000 </r>
       <r>   -0.1532   -0.0000 </r>
       <r>    0.0208   -0.0000 </r>
       <r>    0.0523   -0.0000 </r>
       <r>    0.1999   -0.0000 </r>
       <r>    0.2504   -0.0000 </r>
       <r>    0.2806   -0.0000 </r>
      </set>
     </set>
    </set>
   </array>
  </eigenvalues>
  <separator name="orbital magnetization" >
   <v name="MAGDIPOLOUT">      0.00000000      0.00000000      0.00000000</v>
  </separator>
  <dos>
   <i name="efermi">     -4.14270662 </i>
   <total>
    <array>
     <dimension dim="1">gridpoints</dimension>
     <dimension dim="2">spin</dimension>
     <field>energy</field>
     <field>total</field>
     <field>integrated</field>
     <set>
      <set comment="spin 1">
       <r>   -12.5506     0.0000     0.0000 </r>
       <r>   -12.5009     0.0000     0.0000 </r>
       <r>   -12.4511     0.0000     0.0000 </r>
       <r>   -12.4014     0.0000     0.0000 </r>
       <r>   -12.3517     0.0000     0.0000 </r>
       <r>   -12.3020     0.0000     0.0000 </r>
       <r>   -12.2522     0.0000     0.0000 </r>
       <r>   -12.2025     0.0000     0.0000 </r>
       <r>   -12.1528    -0.0000    -0.0000 </r>
       <r>   -12.1031    -0.0000    -0.0000 </r>
       <r>   -12.0533    -0.0000    -0.0000 </r>
       <r>   -12.0036    -0.0000    -0.0000 </r>
       <r>   -11.9539    -0.0000    -0.0000 </r>
       <r>   -11.9042    -0.0000    -0.0000 </r>
       <r>   -11.8544    -0.0000    -0.0000 </r>
       <r>   -11.8047    -0.0000    -0.0000 </r>
       <r>   -11.7550    -0.0000    -0.0000 </r>
       <r>   -11.7053    -0.0000    -0.0000 </r>
       <r>   -11.6555    -0.0000    -0.0000 </r>
       <r>   -11.6058    -0.0000    -0.0000 </r>
       <r>   -11.5561    -0.0000    -0.0000 </r>
       <r>   -11.5064    -0.0000    -0.0000 </r>
       <r>   -11.4566    -0.0000    -0.0000 </r>
       <r>   -11.4069    -0.0000    -0.0000 </r>
       <r>   -11.3572    -0.0000    -0.0000 </r>
       <r>   -11.3074    -0.0000    -0.0000 </r>
       <r>   -11.2577    -0.0001    -0.0000 </r>
       <r>   -11.2080    -0.0003    -0.0000 </r>
       <r>   -11.1583    -0.0012    -0.0001 </r>
       <r>   -11.1085    -0.0043    -0.0003 </r>
       <r>   -11.0588    -0.0135    -0.0010 </r>
       <r>   -11.0091    -0.0366    -0.0028 </r>
       <r>   -10.9594    -0.0832    -0.0069 </r>
       <r>   -10.9096    -0.1548    -0.0146 </r>
       <r>   -10.8599    -0.2196    -0.0255 </r>
       <r>   -10.8102    -0.1845    -0.0347 </r>
       <r>   -10.7605     0.1045    -0.0295 </r>
       <r>   -10.7107     0.7902     0.0098 </r>
       <r>   -10.6610     1.8679     0.1027 </r>
       <r>   -10.6113     3.0807     0.2559 </r>
       <r>   -10.5616     3.9788     0.4537 </r>
       <r>   -10.5118     4.1621     0.6607 </r>
       <r>   -10.4621     3.5437     0.8369 </r>
       <r>   -10.4124     2.4101     0.9567 </r>
       <r>   -10.3627     1.2260     1.0177 </r>
       <r>   -10.3129     0.3531     1.0352 </r>
       <r>   -10.2632    -0.0985     1.0303 </r>
       <r>   -10.2135    -0.2246     1.0192 </r>
       <r>   -10.1638    -0.1880     1.0098 </r>
       <r>   -10.1140    -0.1125     1.0042 </r>
       <r>   -10.0643    -0.0538     1.0016 </r>
       <r>   -10.0146    -0.0214     1.0005 </r>
       <r>    -9.9648    -0.0073     1.0001 </r>
       <r>    -9.9151    -0.0021     1.0000 </r>
       <r>    -9.8654    -0.0005     1.0000 </r>
       <r>    -9.8157    -0.0001     1.0000 </r>
       <r>    -9.7659    -0.0000     1.0000 </r>
       <r>    -9.7162    -0.0001     1.0000 </r>
       <r>    -9.6665    -0.0003     1.0000 </r>
       <r>    -9.6168    -0.0013     0.9999 </r>
       <r>    -9.5670    -0.0047     0.9997 </r>
       <r>    -9.5173    -0.0147     0.9990 </r>
       <r>    -9.4676    -0.0392     0.9970 </r>
       <r>    -9.4179    -0.0882     0.9926 </r>
       <r>    -9.3681    -0.1625     0.9845 </r>
       <r>    -9.3184    -0.2294     0.9731 </r>
       <r>    -9.2687    -0.1960     0.9634 </r>
       <r>    -9.2190     0.0850     0.9676 </r>
       <r>    -9.1692     0.7428     1.0045 </r>
       <r>    -9.1195     1.7665     1.0924 </r>
       <r>    -9.0698     2.9377     1.2385 </r>
       <r>    -9.0201     3.9252     1.4337 </r>
       <r>    -8.9703     4.5068     1.6578 </r>
       <r>    -8.9206     4.7176     1.8923 </r>
       <r>    -8.8709     4.7514     2.1286 </r>
       <r>    -8.8212     4.7090     2.3628 </r>
       <r>    -8.7714     4.4725     2.5852 </r>
       <r>    -8.7217     3.8522     2.7767 </r>
       <r>    -8.6720     2.8356     2.9177 </r>
       <r>    -8.6222     1.6622     3.0004 </r>
       <r>    -8.5725     0.6582     3.0331 </r>
       <r>    -8.5228     0.0177     3.0340 </r>
       <r>    -8.4731    -0.2768     3.0202 </r>
       <r>    -8.4233    -0.3720     3.0017 </r>
       <r>    -8.3736    -0.4060     2.9815 </r>
       <r>    -8.3239    -0.4128     2.9610 </r>
       <r>    -8.2742    -0.2971     2.9462 </r>
       <r>    -8.2244     0.1242     2.9524 </r>
       <r>    -8.1747     1.0314     3.0037 </r>
       <r>    -8.1250     2.4967     3.1279 </r>
       <r>    -8.0753     4.4199     3.3476 </r>
       <r>    -8.0255     6.5323     3.6725 </r>
       <r>    -7.9758     8.4485     4.0926 </r>
       <r>    -7.9261     9.7551     4.5777 </r>
       <r>    -7.8764    10.1473     5.0822 </r>
       <r>    -7.8266     9.5880     5.5590 </r>
       <r>    -7.7769     8.3782     5.9756 </r>
       <r>    -7.7272     7.0526     6.3263 </r>
       <r>    -7.6775     6.1481     6.6320 </r>
       <r>    -7.6277     5.9777     6.9293 </r>
       <r>    -7.5780     6.5094     7.2530 </r>
       <r>    -7.5283     7.4122     7.6216 </r>
       <r>    -7.4785     8.3002     8.0343 </r>
       <r>    -7.4288     9.0550     8.4846 </r>
       <r>    -7.3791     9.9522     8.9794 </r>
       <r>    -7.3294    11.4133     9.5470 </r>
       <r>    -7.2796    13.5702    10.2218 </r>
       <r>    -7.2299    16.0393    11.0193 </r>
       <r>    -7.1802    18.1070    11.9197 </r>
       <r>    -7.1305    19.1581    12.8724 </r>
       <r>    -7.0807    19.0269    13.8185 </r>
       <r>    -7.0310    18.0648    14.7168 </r>
       <r>    -6.9813    16.9258    15.5585 </r>
       <r>    -6.9316    16.2191    16.3650 </r>
       <r>    -6.8818    16.2450    17.1728 </r>
       <r>    -6.8321    16.9480    18.0155 </r>
       <r>    -6.7824    18.0373    18.9125 </r>
       <r>    -6.7327    19.1168    19.8631 </r>
       <r>    -6.6829    19.7675    20.8460 </r>
       <r>    -6.6332    19.6636    21.8238 </r>
       <r>    -6.5835    18.7577    22.7566 </r>
       <r>    -6.5338    17.3928    23.6214 </r>
       <r>    -6.4840    16.1837    24.4262 </r>
       <r>    -6.4343    15.7200    25.2079 </r>
       <r>    -6.3846    16.3176    26.0193 </r>
       <r>    -6.3349    17.9603    26.9124 </r>
       <r>    -6.2851    20.3548    27.9245 </r>
       <r>    -6.2354    22.9803    29.0672 </r>
       <r>    -6.1857    25.1654    30.3186 </r>
       <r>    -6.1359    26.3186    31.6273 </r>
       <r>    -6.0862    26.2896    32.9346 </r>
       <r>    -6.0365    25.6006    34.2076 </r>
       <r>    -5.9868    25.2798    35.4647 </r>
       <r>    -5.9370    26.3136    36.7732 </r>
       <r>    -5.8873    29.0703    38.2187 </r>
       <r>    -5.8376    33.0848    39.8639 </r>
       <r>    -5.7879    37.3331    41.7203 </r>
       <r>    -5.7381    40.7884    43.7485 </r>
       <r>    -5.6884    42.9043    45.8820 </r>
       <r>    -5.6387    43.7678    48.0584 </r>
       <r>    -5.5890    43.9026    50.2415 </r>
       <r>    -5.5392    43.9073    52.4248 </r>
       <r>    -5.4895    44.1420    54.6198 </r>
       <r>    -5.4398    44.5535    56.8353 </r>
       <r>    -5.3901    44.6427    59.0552 </r>
       <r>    -5.3403    43.5859    61.2226 </r>
       <r>    -5.2906    40.5454    63.2387 </r>
       <r>    -5.2409    35.1061    64.9844 </r>
       <r>    -5.1912    27.6390    66.3588 </r>
       <r>    -5.1414    19.3397    67.3205 </r>
       <r>    -5.0917    11.8228    67.9084 </r>
       <r>    -5.0420     6.4289    68.2280 </r>
       <r>    -4.9922     3.6458    68.4093 </r>
       <r>    -4.9425     3.0224    68.5596 </r>
       <r>    -4.8928     3.6029    68.7388 </r>
       <r>    -4.8431     4.5161    68.9633 </r>
       <r>    -4.7933     5.2999    69.2269 </r>
       <r>    -4.7436     5.8454    69.5176 </r>
       <r>    -4.6939     6.1573    69.8237 </r>
       <r>    -4.6442     6.1796    70.1310 </r>
       <r>    -4.5944     5.7828    70.4186 </r>
       <r>    -4.5447     4.8765    70.6611 </r>
       <r>    -4.4950     3.5504    70.8376 </r>
       <r>    -4.4453     2.1322    70.9436 </r>
       <r>    -4.3955     1.0896    70.9978 </r>
       <r>    -4.3458     0.8105    71.0381 </r>
       <r>    -4.2961     1.3816    71.1068 </r>
       <r>    -4.2464     2.4987    71.2311 </r>
       <r>    -4.1966     3.5821    71.4092 </r>
       <r>    -4.1469     4.0688    71.6115 </r>
       <r>    -4.0972     3.7165    71.7963 </r>
       <r>    -4.0475     2.7135    71.9313 </r>
       <r>    -3.9977     1.5141    72.0066 </r>
       <r>    -3.9480     0.5392    72.0334 </r>
       <r>    -3.8983    -0.0286    72.0320 </r>
       <r>    -3.8486    -0.2473    72.0197 </r>
       <r>    -3.7988    -0.2856    72.0054 </r>
       <r>    -3.7491    -0.2902    71.9910 </r>
       <r>    -3.6994    -0.3154    71.9753 </r>
       <r>    -3.6496    -0.3050    71.9602 </r>
       <r>    -3.5999    -0.1071    71.9548 </r>
       <r>    -3.5502     0.4664    71.9780 </r>
       <r>    -3.5005     1.5297    72.0541 </r>
       <r>    -3.4507     3.0108    72.2038 </r>
       <r>    -3.4010     4.6222    72.4337 </r>
       <r>    -3.3513     5.9550    72.7298 </r>
       <r>    -3.3016     6.6406    73.0600 </r>
       <r>    -3.2518     6.4856    73.3825 </r>
       <r>    -3.2021     5.5330    73.6576 </r>
       <r>    -3.1524     4.0489    73.8590 </r>
       <r>    -3.1027     2.4312    73.9799 </r>
       <r>    -3.0529     1.0547    74.0323 </r>
       <r>    -3.0032     0.1246    74.0385 </r>
       <r>    -2.9535    -0.3645    74.0204 </r>
       <r>    -2.9038    -0.5386    73.9936 </r>
       <r>    -2.8540    -0.4985    73.9688 </r>
       <r>    -2.8043    -0.2341    73.9572 </r>
       <r>    -2.7546     0.3457    73.9743 </r>
       <r>    -2.7049     1.3076    74.0394 </r>
       <r>    -2.6551     2.6246    74.1699 </r>
       <r>    -2.6054     4.2170    74.3796 </r>
       <r>    -2.5557     6.0413    74.6800 </r>
       <r>    -2.5060     8.0628    75.0809 </r>
       <r>    -2.4562    10.0736    75.5818 </r>
       <r>    -2.4065    11.5572    76.1565 </r>
       <r>    -2.3568    11.8548    76.7460 </r>
       <r>    -2.3070    10.5910    77.2727 </r>
       <r>    -2.2573     8.0072    77.6708 </r>
       <r>    -2.2076     4.8940    77.9142 </r>
       <r>    -2.1579     2.1854    78.0229 </r>
       <r>    -2.1081     0.5443    78.0499 </r>
       <r>    -2.0584     0.1823    78.0590 </r>
       <r>    -2.0087     0.8969    78.1036 </r>
       <r>    -1.9590     2.1892    78.2125 </r>
       <r>    -1.9092     3.4138    78.3822 </r>
       <r>    -1.8595     3.9954    78.5809 </r>
       <r>    -1.8098     3.6749    78.7636 </r>
       <r>    -1.7601     2.6324    78.8945 </r>
       <r>    -1.7103     1.3780    78.9630 </r>
       <r>    -1.6606     0.4847    78.9871 </r>
       <r>    -1.6109     0.3435    79.0042 </r>
       <r>    -1.5612     1.0489    79.0564 </r>
       <r>    -1.5114     2.4056    79.1760 </r>
       <r>    -1.4617     4.0117    79.3755 </r>
       <r>    -1.4120     5.3975    79.6439 </r>
       <r>    -1.3623     6.1853    79.9515 </r>
       <r>    -1.3125     6.2171    80.2606 </r>
       <r>    -1.2628     5.6137    80.5398 </r>
       <r>    -1.2131     4.7436    80.7756 </r>
       <r>    -1.1633     4.0819    80.9786 </r>
       <r>    -1.1136     3.9783    81.1764 </r>
       <r>    -1.0639     4.4653    81.3985 </r>
       <r>    -1.0142     5.2589    81.6600 </r>
       <r>    -0.9644     5.9659    81.9566 </r>
       <r>    -0.9147     6.3297    82.2714 </r>
       <r>    -0.8650     6.3309    82.5862 </r>
       <r>    -0.8153     6.0958    82.8893 </r>
       <r>    -0.7655     5.7193    83.1737 </r>
       <r>    -0.7158     5.1635    83.4305 </r>
       <r>    -0.6661     4.3365    83.6461 </r>
       <r>    -0.6164     3.2895    83.8097 </r>
       <r>    -0.5666     2.3274    83.9254 </r>
       <r>    -0.5169     1.8885    84.0193 </r>
       <r>    -0.4672     2.2762    84.1325 </r>
       <r>    -0.4175     3.4785    84.3055 </r>
       <r>    -0.3677     5.2038    84.5643 </r>
       <r>    -0.3180     7.0341    84.9140 </r>
       <r>    -0.2683     8.5411    85.3388 </r>
       <r>    -0.2186     9.3598    85.8042 </r>
       <r>    -0.1688     9.3100    86.2671 </r>
       <r>    -0.1191     8.5331    86.6914 </r>
       <r>    -0.0694     7.4713    87.0630 </r>
       <r>    -0.0197     6.6333    87.3928 </r>
       <r>     0.0301     6.3454    87.7083 </r>
       <r>     0.0798     6.7074    88.0419 </r>
       <r>     0.1295     7.7082    88.4252 </r>
       <r>     0.1793     9.2609    88.8857 </r>
       <r>     0.2290    11.0606    89.4357 </r>
       <r>     0.2787    12.4736    90.0559 </r>
       <r>     0.3284    12.7266    90.6888 </r>
       <r>     0.3782    11.3668    91.2540 </r>
       <r>     0.4279     8.6245    91.6829 </r>
       <r>     0.4776     5.3304    91.9479 </r>
       <r>     0.5273     2.4348    92.0690 </r>
       <r>     0.5771     0.5153    92.0946 </r>
       <r>     0.6268    -0.3861    92.0754 </r>
       <r>     0.6765    -0.5834    92.0464 </r>
       <r>     0.7262    -0.4573    92.0237 </r>
       <r>     0.7760    -0.2691    92.0103 </r>
       <r>     0.8257    -0.1292    92.0039 </r>
       <r>     0.8754    -0.0524    92.0013 </r>
       <r>     0.9251    -0.0182    92.0004 </r>
       <r>     0.9749    -0.0055    92.0001 </r>
       <r>     1.0246    -0.0014    92.0000 </r>
       <r>     1.0743    -0.0003    92.0000 </r>
       <r>     1.1240    -0.0001    92.0000 </r>
       <r>     1.1738    -0.0000    92.0000 </r>
       <r>     1.2235    -0.0000    92.0000 </r>
       <r>     1.2732    -0.0000    92.0000 </r>
       <r>     1.3229    -0.0000    92.0000 </r>
       <r>     1.3727    -0.0000    92.0000 </r>
       <r>     1.4224    -0.0000    92.0000 </r>
       <r>     1.4721    -0.0000    92.0000 </r>
       <r>     1.5219    -0.0000    92.0000 </r>
       <r>     1.5716    -0.0000    92.0000 </r>
       <r>     1.6213    -0.0000    92.0000 </r>
       <r>     1.6710     0.0000    92.0000 </r>
       <r>     1.7208     0.0000    92.0000 </r>
       <r>     1.7705     0.0000    92.0000 </r>
       <r>     1.8202     0.0000    92.0000 </r>
       <r>     1.8699     0.0000    92.0000 </r>
       <r>     1.9197     0.0000    92.0000 </r>
       <r>     1.9694     0.0000    92.0000 </r>
       <r>     2.0191     0.0000    92.0000 </r>
       <r>     2.0688     0.0000    92.0000 </r>
       <r>     2.1186     0.0000    92.0000 </r>
       <r>     2.1683     0.0000    92.0000 </r>
       <r>     2.2180     0.0000    92.0000 </r>
       <r>     2.2677     0.0000    92.0000 </r>
       <r>     2.3175     0.0000    92.0000 </r>
       <r>     2.3672     0.0000    92.0000 </r>
      </set>
      <set comment="spin 2">
       <r>   -12.5506     0.0000     0.0000 </r>
       <r>   -12.5009     0.0000     0.0000 </r>
       <r>   -12.4511     0.0000     0.0000 </r>
       <r>   -12.4014     0.0000     0.0000 </r>
       <r>   -12.3517     0.0000     0.0000 </r>
       <r>   -12.3020     0.0000     0.0000 </r>
       <r>   -12.2522     0.0000     0.0000 </r>
       <r>   -12.2025     0.0000     0.0000 </r>
       <r>   -12.1528    -0.0000    -0.0000 </r>
       <r>   -12.1031    -0.0000    -0.0000 </r>
       <r>   -12.0533    -0.0000    -0.0000 </r>
       <r>   -12.0036    -0.0000    -0.0000 </r>
       <r>   -11.9539    -0.0000    -0.0000 </r>
       <r>   -11.9042    -0.0000    -0.0000 </r>
       <r>   -11.8544    -0.0000    -0.0000 </r>
       <r>   -11.8047    -0.0000    -0.0000 </r>
       <r>   -11.7550    -0.0000    -0.0000 </r>
       <r>   -11.7053    -0.0000    -0.0000 </r>
       <r>   -11.6555    -0.0000    -0.0000 </r>
       <r>   -11.6058    -0.0000    -0.0000 </r>
       <r>   -11.5561    -0.0000    -0.0000 </r>
       <r>   -11.5064    -0.0000    -0.0000 </r>
       <r>   -11.4566    -0.0000    -0.0000 </r>
       <r>   -11.4069    -0.0000    -0.0000 </r>
       <r>   -11.3572    -0.0000    -0.0000 </r>
       <r>   -11.3074    -0.0000    -0.0000 </r>
       <r>   -11.2577    -0.0000    -0.0000 </r>
       <r>   -11.2080    -0.0002    -0.0000 </r>
       <r>   -11.1583    -0.0009    -0.0001 </r>
       <r>   -11.1085    -0.0033    -0.0002 </r>
       <r>   -11.0588    -0.0108    -0.0008 </r>
       <r>   -11.0091    -0.0301    -0.0023 </r>
       <r>   -10.9594    -0.0711    -0.0058 </r>
       <r>   -10.9096    -0.1385    -0.0127 </r>
       <r>   -10.8599    -0.2100    -0.0231 </r>
       <r>   -10.8102    -0.2073    -0.0334 </r>
       <r>   -10.7605     0.0143    -0.0327 </r>
       <r>   -10.7107     0.6098    -0.0024 </r>
       <r>   -10.6610     1.6175     0.0780 </r>
       <r>   -10.6113     2.8355     0.2190 </r>
       <r>   -10.5616     3.8392     0.4099 </r>
       <r>   -10.5118     4.1933     0.6185 </r>
       <r>   -10.4621     3.7307     0.8040 </r>
       <r>   -10.4124     2.6684     0.9367 </r>
       <r>   -10.3627     1.4579     1.0092 </r>
       <r>   -10.3129     0.5014     1.0341 </r>
       <r>   -10.2632    -0.0357     1.0323 </r>
       <r>   -10.2135    -0.2169     1.0215 </r>
       <r>   -10.1638    -0.2020     1.0115 </r>
       <r>   -10.1140    -0.1279     1.0051 </r>
       <r>   -10.0643    -0.0638     1.0020 </r>
       <r>   -10.0146    -0.0264     1.0006 </r>
       <r>    -9.9648    -0.0092     1.0002 </r>
       <r>    -9.9151    -0.0028     1.0000 </r>
       <r>    -9.8654    -0.0007     1.0000 </r>
       <r>    -9.8157    -0.0002     1.0000 </r>
       <r>    -9.7659    -0.0000     1.0000 </r>
       <r>    -9.7162    -0.0001     1.0000 </r>
       <r>    -9.6665    -0.0002     1.0000 </r>
       <r>    -9.6168    -0.0011     0.9999 </r>
       <r>    -9.5670    -0.0039     0.9997 </r>
       <r>    -9.5173    -0.0125     0.9991 </r>
       <r>    -9.4676    -0.0342     0.9974 </r>
       <r>    -9.4179    -0.0790     0.9935 </r>
       <r>    -9.3681    -0.1503     0.9860 </r>
       <r>    -9.3184    -0.2221     0.9750 </r>
       <r>    -9.2687    -0.2113     0.9645 </r>
       <r>    -9.2190     0.0245     0.9657 </r>
       <r>    -9.1692     0.6241     0.9967 </r>
       <r>    -9.1195     1.6027     1.0764 </r>
       <r>    -9.0698     2.7668     1.2140 </r>
       <r>    -9.0201     3.7836     1.4021 </r>
       <r>    -8.9703     4.3995     1.6209 </r>
       <r>    -8.9206     4.6198     1.8506 </r>
       <r>    -8.8709     4.6501     2.0819 </r>
       <r>    -8.8212     4.6382     2.3125 </r>
       <r>    -8.7714     4.4975     2.5361 </r>
       <r>    -8.7217     4.0101     2.7355 </r>
       <r>    -8.6720     3.0934     2.8894 </r>
       <r>    -8.6222     1.9349     2.9856 </r>
       <r>    -8.5725     0.8674     3.0287 </r>
       <r>    -8.5228     0.1346     3.0354 </r>
       <r>    -8.4731    -0.2323     3.0239 </r>
       <r>    -8.4233    -0.3619     3.0059 </r>
       <r>    -8.3736    -0.4052     2.9857 </r>
       <r>    -8.3239    -0.4241     2.9646 </r>
       <r>    -8.2742    -0.3495     2.9472 </r>
       <r>    -8.2244    -0.0069     2.9469 </r>
       <r>    -8.1747     0.8018     2.9868 </r>
       <r>    -8.1250     2.1884     3.0956 </r>
       <r>    -8.0753     4.0921     3.2991 </r>
       <r>    -8.0255     6.2578     3.6102 </r>
       <r>    -7.9758     8.2791     4.0219 </r>
       <r>    -7.9261     9.6991     4.5042 </r>
       <r>    -7.8764    10.1717     5.0100 </r>
       <r>    -7.8266     9.6396     5.4894 </r>
       <r>    -7.7769     8.4111     5.9076 </r>
       <r>    -7.7272     7.0423     6.2578 </r>
       <r>    -7.6775     6.0878     6.5605 </r>
       <r>    -7.6277     5.8734     6.8526 </r>
       <r>    -7.5780     6.3859     7.1701 </r>
       <r>    -7.5283     7.3136     7.5338 </r>
       <r>    -7.4785     8.2552     7.9443 </r>
       <r>    -7.4288     9.0306     8.3934 </r>
       <r>    -7.3791     9.8545     8.8834 </r>
       <r>    -7.3294    11.1592     9.4383 </r>
       <r>    -7.2796    13.1708    10.0932 </r>
       <r>    -7.2299    15.6167    10.8698 </r>
       <r>    -7.1802    17.8243    11.7561 </r>
       <r>    -7.1305    19.1181    12.7068 </r>
       <r>    -7.0807    19.2102    13.6620 </r>
       <r>    -7.0310    18.3455    14.5743 </r>
       <r>    -6.9813    17.1490    15.4270 </r>
       <r>    -6.9316    16.2873    16.2369 </r>
       <r>    -6.8818    16.1598    17.0405 </r>
       <r>    -6.8321    16.7884    17.8753 </r>
       <r>    -6.7824    17.9028    18.7655 </r>
       <r>    -6.7327    19.0804    19.7143 </r>
       <r>    -6.6829    19.8577    20.7018 </r>
       <r>    -6.6332    19.8630    21.6895 </r>
       <r>    -6.5835    19.0031    22.6344 </r>
       <r>    -6.5338    17.5870    23.5090 </r>
       <r>    -6.4840    16.2310    24.3161 </r>
       <r>    -6.4343    15.5711    25.0904 </r>
       <r>    -6.3846    15.9910    25.8855 </r>
       <r>    -6.3349    17.5231    26.7569 </r>
       <r>    -6.2851    19.8857    27.7457 </r>
       <r>    -6.2354    22.5490    28.8670 </r>
       <r>    -6.1857    24.8337    30.1019 </r>
       <r>    -6.1359    26.1368    31.4015 </r>
       <r>    -6.0862    26.2677    32.7077 </r>
       <r>    -6.0365    25.6779    33.9846 </r>
       <r>    -5.9868    25.3341    35.2443 </r>
       <r>    -5.9370    26.2247    36.5484 </r>
       <r>    -5.8873    28.7927    37.9801 </r>
       <r>    -5.8376    32.6738    39.6049 </r>
       <r>    -5.7879    36.9035    41.4399 </r>
       <r>    -5.7381    40.4382    43.4508 </r>
       <r>    -5.6884    42.6610    45.5721 </r>
       <r>    -5.6387    43.5901    47.7397 </r>
       <r>    -5.5890    43.7280    49.9141 </r>
       <r>    -5.5392    43.7047    52.0874 </r>
       <r>    -5.4895    43.9355    54.2721 </r>
       <r>    -5.4398    44.4178    56.4808 </r>
       <r>    -5.3901    44.6830    58.7027 </r>
       <r>    -5.3403    43.9094    60.8862 </r>
       <r>    -5.2906    41.2220    62.9360 </r>
       <r>    -5.2409    36.1249    64.7323 </r>
       <r>    -5.1912    28.8805    66.1684 </r>
       <r>    -5.1414    20.5903    67.1923 </r>
       <r>    -5.0917    12.8456    67.8311 </r>
       <r>    -5.0420     7.0644    68.1823 </r>
       <r>    -4.9922     3.8808    68.3753 </r>
       <r>    -4.9425     2.9748    68.5232 </r>
       <r>    -4.8928     3.4354    68.6941 </r>
       <r>    -4.8431     4.3504    68.9104 </r>
       <r>    -4.7933     5.1898    69.1685 </r>
       <r>    -4.7436     5.8023    69.4570 </r>
       <r>    -4.6939     6.1854    69.7646 </r>
       <r>    -4.6442     6.2904    70.0774 </r>
       <r>    -4.5944     5.9892    70.3752 </r>
       <r>    -4.5447     5.1736    70.6324 </r>
       <r>    -4.4950     3.8867    70.8257 </r>
       <r>    -4.4453     2.3795    70.9440 </r>
       <r>    -4.3955     1.0432    70.9959 </r>
       <r>    -4.3458     0.2588    71.0088 </r>
       <r>    -4.2961     0.2536    71.0214 </r>
       <r>    -4.2464     1.0122    71.0717 </r>
       <r>    -4.1966     2.2461    71.1834 </r>
       <r>    -4.1469     3.4521    71.3551 </r>
       <r>    -4.0972     4.1043    71.5592 </r>
       <r>    -4.0475     3.9190    71.7540 </r>
       <r>    -3.9977     3.0112    71.9038 </r>
       <r>    -3.9480     1.8001    71.9933 </r>
       <r>    -3.8983     0.7343    72.0298 </r>
       <r>    -3.8486     0.0538    72.0325 </r>
       <r>    -3.7988    -0.2571    72.0197 </r>
       <r>    -3.7491    -0.3536    72.0021 </r>
       <r>    -3.6994    -0.3774    71.9833 </r>
       <r>    -3.6496    -0.3590    71.9655 </r>
       <r>    -3.5999    -0.1980    71.9556 </r>
       <r>    -3.5502     0.2829    71.9697 </r>
       <r>    -3.5005     1.2244    72.0306 </r>
       <r>    -3.4507     2.6051    72.1601 </r>
       <r>    -3.4010     4.1890    72.3684 </r>
       <r>    -3.3513     5.5967    72.6467 </r>
       <r>    -3.3016     6.4559    72.9678 </r>
       <r>    -3.2518     6.5365    73.2928 </r>
       <r>    -3.2021     5.8168    73.5820 </r>
       <r>    -3.1524     4.4880    73.8052 </r>
       <r>    -3.1027     2.9008    73.9495 </r>
       <r>    -3.0529     1.4406    74.0211 </r>
       <r>    -3.0032     0.3735    74.0397 </r>
       <r>    -2.9535    -0.2405    74.0277 </r>
       <r>    -2.9038    -0.5009    74.0028 </r>
       <r>    -2.8540    -0.5304    73.9764 </r>
       <r>    -2.8043    -0.3573    73.9587 </r>
       <r>    -2.7546     0.0943    73.9634 </r>
       <r>    -2.7049     0.9149    74.0088 </r>
       <r>    -2.6551     2.1115    74.1138 </r>
       <r>    -2.6054     3.6066    74.2932 </r>
       <r>    -2.5557     5.3318    74.5583 </r>
       <r>    -2.5060     7.2688    74.9198 </r>
       <r>    -2.4562     9.3157    75.3830 </r>
       <r>    -2.4065    11.0888    75.9344 </r>
       <r>    -2.3568    11.9421    76.5282 </r>
       <r>    -2.3070    11.3203    77.0911 </r>
       <r>    -2.2573     9.1908    77.5482 </r>
       <r>    -2.2076     6.1565    77.8543 </r>
       <r>    -2.1579     3.1361    78.0102 </r>
       <r>    -2.1081     0.8944    78.0547 </r>
       <r>    -2.0584    -0.2198    78.0438 </r>
       <r>    -2.0087    -0.2328    78.0322 </r>
       <r>    -1.9590     0.6096    78.0625 </r>
       <r>    -1.9092     1.9233    78.1582 </r>
       <r>    -1.8595     3.2049    78.3175 </r>
       <r>    -1.8098     3.9343    78.5132 </r>
       <r>    -1.7601     3.8062    78.7024 </r>
       <r>    -1.7103     2.9332    78.8483 </r>
       <r>    -1.6606     1.8224    78.9389 </r>
       <r>    -1.6109     1.1070    78.9940 </r>
       <r>    -1.5612     1.2086    79.0541 </r>
       <r>    -1.5114     2.1435    79.1606 </r>
       <r>    -1.4617     3.5601    79.3377 </r>
       <r>    -1.4120     4.9460    79.5836 </r>
       <r>    -1.3623     5.8609    79.8751 </r>
       <r>    -1.3125     6.0781    80.1773 </r>
       <r>    -1.2628     5.6244    80.4570 </r>
       <r>    -1.2131     4.7648    80.6939 </r>
       <r>    -1.1633     3.9344    80.8896 </r>
       <r>    -1.1136     3.5696    81.0671 </r>
       <r>    -1.0639     3.8774    81.2599 </r>
       <r>    -1.0142     4.7100    81.4941 </r>
       <r>    -0.9644     5.6710    81.7761 </r>
       <r>    -0.9147     6.3785    82.0933 </r>
       <r>    -0.8650     6.6676    82.4248 </r>
       <r>    -0.8153     6.5911    82.7526 </r>
       <r>    -0.7655     6.2598    83.0638 </r>
       <r>    -0.7158     5.6935    83.3469 </r>
       <r>    -0.6661     4.8293    83.5871 </r>
       <r>    -0.6164     3.6854    83.7703 </r>
       <r>    -0.5666     2.5124    83.8953 </r>
       <r>    -0.5169     1.7510    83.9823 </r>
       <r>    -0.4672     1.7924    84.0715 </r>
       <r>    -0.4175     2.7397    84.2077 </r>
       <r>    -0.3677     4.3572    84.4244 </r>
       <r>    -0.3180     6.2122    84.7333 </r>
       <r>    -0.2683     7.8603    85.1241 </r>
       <r>    -0.2186     8.9781    85.5706 </r>
       <r>    -0.1688     9.4554    86.0408 </r>
       <r>    -0.1191     9.4487    86.5106 </r>
       <r>    -0.0694     9.3171    86.9739 </r>
       <r>    -0.0197     9.4199    87.4423 </r>
       <r>     0.0301     9.9325    87.9362 </r>
       <r>     0.0798    10.8276    88.4747 </r>
       <r>     0.1295    11.9394    89.0684 </r>
       <r>     0.1793    12.9404    89.7118 </r>
       <r>     0.2290    13.2963    90.3730 </r>
       <r>     0.2787    12.4438    90.9918 </r>
       <r>     0.3284    10.1959    91.4988 </r>
       <r>     0.3782     7.0045    91.8471 </r>
       <r>     0.4279     3.7627    92.0342 </r>
       <r>     0.4776     1.2808    92.0979 </r>
       <r>     0.5273    -0.1160    92.0921 </r>
       <r>     0.5771    -0.5998    92.0623 </r>
       <r>     0.6268    -0.5682    92.0340 </r>
       <r>     0.6765    -0.3697    92.0157 </r>
       <r>     0.7262    -0.1906    92.0062 </r>
       <r>     0.7760    -0.0817    92.0021 </r>
       <r>     0.8257    -0.0298    92.0006 </r>
       <r>     0.8754    -0.0093    92.0002 </r>
       <r>     0.9251    -0.0025    92.0000 </r>
       <r>     0.9749    -0.0006    92.0000 </r>
       <r>     1.0246    -0.0001    92.0000 </r>
       <r>     1.0743    -0.0000    92.0000 </r>
       <r>     1.1240    -0.0000    92.0000 </r>
       <r>     1.1738    -0.0000    92.0000 </r>
       <r>     1.2235    -0.0000    92.0000 </r>
       <r>     1.2732    -0.0000    92.0000 </r>
       <r>     1.3229    -0.0000    92.0000 </r>
       <r>     1.3727    -0.0000    92.0000 </r>
       <r>     1.4224    -0.0000    92.0000 </r>
       <r>     1.4721    -0.0000    92.0000 </r>
       <r>     1.5219    -0.0000    92.0000 </r>
       <r>     1.5716     0.0000    92.0000 </r>
       <r>     1.6213     0.0000    92.0000 </r>
       <r>     1.6710     0.0000    92.0000 </r>
       <r>     1.7208     0.0000    92.0000 </r>
       <r>     1.7705     0.0000    92.0000 </r>
       <r>     1.8202     0.0000    92.0000 </r>
       <r>     1.8699     0.0000    92.0000 </r>
       <r>     1.9197     0.0000    92.0000 </r>
       <r>     1.9694     0.0000    92.0000 </r>
       <r>     2.0191     0.0000    92.0000 </r>
       <r>     2.0688     0.0000    92.0000 </r>
       <r>     2.1186     0.0000    92.0000 </r>
       <r>     2.1683     0.0000    92.0000 </r>
       <r>     2.2180     0.0000    92.0000 </r>
       <r>     2.2677     0.0000    92.0000 </r>
       <r>     2.3175     0.0000    92.0000 </r>
       <r>     2.3672     0.0000    92.0000 </r>
      </set>
     </set>
    </array>
   </total>
  </dos>
 </calculation>
 <structure name="finalpos" >
  <crystal>
   <varray name="basis" >
    <v>      25.71534461       0.00000000       0.00000000 </v>
    <v>       0.00000000      22.39316237       0.00000000 </v>
    <v>       0.00000000       0.00000000      24.08741926 </v>
   </varray>
   <i name="volume">  13870.68949189 </i>
   <varray name="rec_basis" >
    <v>       0.03888729       0.00000000       0.00000000 </v>
    <v>       0.00000000       0.04465649       0.00000000 </v>
    <v>       0.00000000       0.00000000       0.04151545 </v>
   </varray>
  </crystal>
  <varray name="positions" >
   <v>       0.50827546       0.59325808       0.41580087 </v>
   <v>       0.46393162       0.50579907       0.47216343 </v>
   <v>       0.53923427       0.49092096       0.41321108 </v>
   <v>       0.60481516       0.56519149       0.41867265 </v>
   <v>       0.52390640       0.42053351       0.48709062 </v>
   <v>       0.45202388       0.60805053       0.49498179 </v>
   <v>       0.39649014       0.53218079       0.54053029 </v>
   <v>       0.60875766       0.47702086       0.47977382 </v>
   <v>       0.45680987       0.44647108       0.55607278 </v>
   <v>       0.60205135       0.38958747       0.53533718 </v>
   <v>       0.54761088       0.55929106       0.49927191 </v>
   <v>       0.48375467       0.54729217       0.57095851 </v>
   <v>       0.55234851       0.47489821       0.56625960 </v>
  </varray>
 </structure>
</modeling>
