unknown system                          
            1
    25.715345    0.000000    0.000000
     0.000000   22.393162    0.000000
     0.000000    0.000000   24.087419
   Cu
    13
Direct configuration=     1
   0.50832159  0.59320797  0.41582929
   0.46392311  0.50586833  0.47202056
   0.53928007  0.49095708  0.41332758
   0.60476379  0.56515156  0.41861483
   0.52388855  0.42052184  0.48699938
   0.45201804  0.60800613  0.49491238
   0.39642075  0.53226369  0.54061993
   0.60879375  0.47700158  0.47977281
   0.45686070  0.44649148  0.55607096
   0.60204100  0.38962118  0.53546548
   0.54757869  0.55935325  0.49917235
   0.48375409  0.54720431  0.57102252
   0.55236576  0.47484688  0.56629646
Direct configuration=     2
   0.50829474  0.59323714  0.41581275
   0.46392806  0.50582802  0.47210371
   0.53925342  0.49093606  0.41325977
   0.60479369  0.56517480  0.41864848
   0.52389894  0.42052863  0.48705249
   0.45202144  0.60803197  0.49495278
   0.39646114  0.53221544  0.54056775
   0.60877274  0.47701280  0.47977340
   0.45683111  0.44647961  0.55607202
   0.60204702  0.38960156  0.53539080
   0.54759743  0.55931705  0.49923030
   0.48375443  0.54725545  0.57098526
   0.55235572  0.47487676  0.56627501
Direct configuration=     3
   0.50827546  0.59325808  0.41580087
   0.46393162  0.50579907  0.47216343
   0.53923427  0.49092096  0.41321108
   0.60481516  0.56519149  0.41867265
   0.52390640  0.42053351  0.48709062
   0.45202388  0.60805053  0.49498179
   0.39649014  0.53218079  0.54053029
   0.60875766  0.47702086  0.47977382
   0.45680987  0.44647108  0.55607278
   0.60205135  0.38958747  0.53533718
   0.54761088  0.55929106  0.49927191
   0.48375467  0.54729217  0.57095851
   0.55234851  0.47489821  0.56625960
