       N       E                     dE             d eps       ncg     rms          rms(c)
DAV:   1     0.760645275242E+03    0.76065E+03   -0.13639E+04   224   0.715E+02
DAV:   2     0.439793845379E+03   -0.32085E+03   -0.29760E+03   424   0.760E+01
DAV:   3     0.123991565708E+03   -0.31580E+03   -0.29864E+03   400   0.722E+01
DAV:   4     0.146761385143E+02   -0.10932E+03   -0.10226E+03   296   0.495E+01
DAV:   5    -0.115212028469E+02   -0.26197E+02   -0.23538E+02   336   0.191E+01    0.236E+01
DAV:   6    -0.287503369088E+01    0.86462E+01   -0.97714E+01   256   0.211E+01    0.164E+01
DAV:   7    -0.253304041163E+01    0.34199E+00   -0.35737E+00   248   0.639E+00    0.683E+00
DAV:   8    -0.686522895882E+01   -0.43322E+01   -0.16866E+00   256   0.379E+00    0.253E+00
DAV:   9    -0.886213905896E+01   -0.19969E+01   -0.43153E-01   248   0.187E+00    0.152E+00
DAV:  10    -0.120260297360E+02   -0.31639E+01   -0.12315E+00   248   0.282E+00    0.100E+00
DAV:  11    -0.137764278332E+02   -0.17504E+01   -0.62311E-01   248   0.173E+00    0.731E-01
DAV:  12    -0.147257276275E+02   -0.94930E+00   -0.31070E-01   240   0.124E+00    0.495E-01
DAV:  13    -0.154034993525E+02   -0.67777E+00   -0.24831E-01   232   0.103E+00    0.369E-01
DAV:  14    -0.155662781972E+02   -0.16278E+00   -0.17654E-02   280   0.335E-01    0.239E-01
DAV:  15    -0.158403133931E+02   -0.27404E+00   -0.14794E-02   256   0.262E-01    0.152E-01
DAV:  16    -0.160609909925E+02   -0.22068E+00   -0.66213E-03   248   0.192E-01    0.899E-02
DAV:  17    -0.161542271815E+02   -0.93236E-01   -0.33055E-03   240   0.128E-01    0.400E-02
DAV:  18    -0.161800786285E+02   -0.25851E-01   -0.54306E-04   192   0.458E-02    0.264E-02
DAV:  19    -0.161945859483E+02   -0.14507E-01   -0.38092E-04   152   0.329E-02    0.170E-02
DAV:  20    -0.162004257712E+02   -0.58398E-02   -0.13710E-04   160   0.209E-02    0.104E-02
DAV:  21    -0.162050690097E+02   -0.46432E-02   -0.37850E-05   168   0.125E-02    0.728E-03
DAV:  22    -0.162099405654E+02   -0.48716E-02   -0.38626E-05   160   0.119E-02    0.422E-03
DAV:  23    -0.162118695452E+02   -0.19290E-02   -0.19103E-05   168   0.810E-03    0.231E-03
DAV:  24    -0.162128139051E+02   -0.94436E-03   -0.84296E-06   168   0.522E-03    0.123E-03
DAV:  25    -0.162129970785E+02   -0.18317E-03   -0.21106E-06   160   0.349E-03    0.631E-04
DAV:  26    -0.162130412503E+02   -0.44172E-04   -0.11955E-06   152   0.241E-03
   1 F= -.16213041E+02 E0= -.16216907E+02  d E =-.162130E+02  mag=     0.0001
       N       E                     dE             d eps       ncg     rms          rms(c)
DAV:   1    -0.165091194048E+02   -0.29612E+00   -0.47078E+02   224   0.764E+01    0.549E+00
DAV:   2    -0.169389618664E+02   -0.42984E+00   -0.44729E+00   256   0.102E+01    0.365E+00
DAV:   3    -0.169118613982E+02    0.27100E-01   -0.39845E-01   248   0.228E+00    0.177E+00
DAV:   4    -0.169139065468E+02   -0.20451E-02   -0.21042E-02   256   0.740E-01    0.388E-01
DAV:   5    -0.169073557837E+02    0.65508E-02   -0.27901E-02   248   0.526E-01    0.983E-02
DAV:   6    -0.169073884233E+02   -0.32640E-04   -0.13965E-03   288   0.118E-01    0.391E-02
DAV:   7    -0.169074452754E+02   -0.56852E-04   -0.16843E-05   152   0.174E-02
   2 F= -.16907445E+02 E0= -.16911314E+02  d E =-.694404E+00  mag=     0.0001
       N       E                     dE             d eps       ncg     rms          rms(c)
DAV:   1    -0.169075018863E+02   -0.11346E-03   -0.55421E+00   224   0.812E+00    0.506E-01
DAV:   2    -0.169131884032E+02   -0.56865E-02   -0.60424E-02   248   0.117E+00    0.298E-01
DAV:   3    -0.169128388307E+02    0.34957E-03   -0.44897E-03   240   0.252E-01    0.174E-01
DAV:   4    -0.169129515006E+02   -0.11267E-03   -0.45462E-04   248   0.907E-02    0.363E-02
DAV:   5    -0.169129072479E+02    0.44253E-04   -0.29027E-04   200   0.544E-02
   3 F= -.16912907E+02 E0= -.16916778E+02  d E =-.699866E+00  mag=     0.0000
       N       E                     dE             d eps       ncg     rms          rms(c)
DAV:   1    -0.169206805173E+02   -0.77290E-02   -0.46827E+00   224   0.743E+00    0.228E-01
DAV:   2    -0.169256536207E+02   -0.49731E-02   -0.52891E-02   240   0.108E+00    0.136E-01
DAV:   3    -0.169255156957E+02    0.13792E-03   -0.17767E-03   256   0.185E-01    0.913E-02
DAV:   4    -0.169254892063E+02    0.26489E-04   -0.47998E-04   240   0.776E-02
   4 F= -.16925489E+02 E0= -.16929364E+02  d E =-.125820E-01  mag=     0.0000
       N       E                     dE             d eps       ncg     rms          rms(c)
DAV:   1    -0.168966626969E+02    0.28853E-01   -0.42204E+01   224   0.223E+01    0.743E-01
DAV:   2    -0.169412800282E+02   -0.44617E-01   -0.47814E-01   240   0.324E+00    0.412E-01
DAV:   3    -0.169398437983E+02    0.14362E-02   -0.16349E-02   240   0.561E-01    0.275E-01
DAV:   4    -0.169393226689E+02    0.52113E-03   -0.42397E-03   256   0.235E-01    0.768E-02
DAV:   5    -0.169393398113E+02   -0.17142E-04   -0.11594E-04   176   0.547E-02
   5 F= -.16939340E+02 E0= -.16943255E+02  d E =-.264326E-01  mag=     0.0000
       N       E                     dE             d eps       ncg     rms          rms(c)
DAV:   1    -0.169383531296E+02    0.96954E-03   -0.58042E+00   224   0.824E+00    0.266E-01
DAV:   2    -0.169443464521E+02   -0.59933E-02   -0.63434E-02   256   0.120E+00    0.205E-01
DAV:   3    -0.169440897132E+02    0.25674E-03   -0.20698E-03   240   0.206E-01    0.135E-01
DAV:   4    -0.169439572015E+02    0.13251E-03   -0.86152E-04   240   0.103E-01    0.447E-02
DAV:   5    -0.169439840572E+02   -0.26856E-04   -0.35968E-05   144   0.290E-02
   6 F= -.16943984E+02 E0= -.16947938E+02  d E =-.464425E-02  mag=     0.0000
       N       E                     dE             d eps       ncg     rms          rms(c)
DAV:   1    -0.169425809374E+02    0.13763E-02   -0.22047E+00   224   0.508E+00    0.164E-01
DAV:   2    -0.169448630876E+02   -0.22822E-02   -0.24230E-02   240   0.744E-01    0.125E-01
DAV:   3    -0.169447695475E+02    0.93540E-04   -0.78588E-04   256   0.127E-01
   7 F= -.16944770E+02 E0= -.16948754E+02  d E =-.542974E-02  mag=     0.0000
       N       E                     dE             d eps       ncg     rms          rms(c)
DAV:   1    -0.169448284201E+02    0.34668E-04   -0.32608E+00   224   0.596E+00    0.178E-01
DAV:   2    -0.169481234224E+02   -0.32950E-02   -0.34916E-02   240   0.859E-01    0.143E-01
DAV:   3    -0.169480235205E+02    0.99902E-04   -0.10182E-03   240   0.141E-01    0.942E-02
DAV:   4    -0.169479517108E+02    0.71810E-04   -0.34655E-04   224   0.661E-02
   8 F= -.16947952E+02 E0= -.16951979E+02  d E =-.318216E-02  mag=     0.0000
       N       E                     dE             d eps       ncg     rms          rms(c)
DAV:   1    -0.169418829141E+02    0.61406E-02   -0.72611E+00   224   0.890E+00    0.276E-01
DAV:   2    -0.169492914813E+02   -0.74086E-02   -0.79031E-02   240   0.129E+00    0.211E-01
DAV:   3    -0.169490848772E+02    0.20660E-03   -0.23386E-03   240   0.213E-01    0.137E-01
DAV:   4    -0.169489221760E+02    0.16270E-03   -0.72820E-04   256   0.956E-02    0.497E-02
DAV:   5    -0.169489478104E+02   -0.25634E-04   -0.55140E-05   144   0.305E-02
   9 F= -.16948948E+02 E0= -.16953056E+02  d E =-.417826E-02  mag=     0.0000
       N       E                     dE             d eps       ncg     rms          rms(c)
DAV:   1    -0.169460404347E+02    0.28817E-02   -0.47397E+00   224   0.749E+00    0.133E-01
DAV:   2    -0.169510345688E+02   -0.49941E-02   -0.51584E-02   240   0.108E+00    0.113E-01
DAV:   3    -0.169509125998E+02    0.12197E-03   -0.13820E-03   272   0.172E-01    0.848E-02
DAV:   4    -0.169507671217E+02    0.14548E-03   -0.22947E-04   176   0.570E-02    0.448E-02
DAV:   5    -0.169507708998E+02   -0.37782E-05   -0.30459E-04   208   0.629E-02
  10 F= -.16950771E+02 E0= -.16954984E+02  d E =-.182309E-02  mag=     0.0000
       N       E                     dE             d eps       ncg     rms          rms(c)
DAV:   1    -0.169345844782E+02    0.16183E-01   -0.16115E+01   224   0.138E+01    0.252E-01
DAV:   2    -0.169515761961E+02   -0.16992E-01   -0.17527E-01   256   0.199E+00    0.210E-01
DAV:   3    -0.169511615987E+02    0.41460E-03   -0.47322E-03   256   0.318E-01    0.156E-01
DAV:   4    -0.169506287350E+02    0.53286E-03   -0.89127E-04   256   0.108E-01    0.780E-02
DAV:   5    -0.169505923714E+02    0.36364E-04   -0.73967E-04   240   0.918E-02
  11 F= -.16950592E+02 E0= -.16955109E+02  d E =-.164456E-02  mag=     0.0000
       N       E                     dE             d eps       ncg     rms          rms(c)
DAV:   1    -0.169452213237E+02    0.54074E-02   -0.68800E+00   224   0.901E+00    0.196E-01
DAV:   2    -0.169525028213E+02   -0.72815E-02   -0.75512E-02   240   0.131E+00    0.153E-01
DAV:   3    -0.169522855423E+02    0.21728E-03   -0.22161E-03   272   0.210E-01    0.110E-01
DAV:   4    -0.169520806954E+02    0.20485E-03   -0.61135E-04   224   0.882E-02    0.453E-02
DAV:   5    -0.169521093081E+02   -0.28613E-04   -0.18834E-04   144   0.504E-02
  12 F= -.16952109E+02 E0= -.16956976E+02  d E =-.151694E-02  mag=     0.0000
       N       E                     dE             d eps       ncg     rms          rms(c)
DAV:   1    -0.169510015595E+02    0.10791E-02   -0.98479E-01   224   0.341E+00    0.783E-02
DAV:   2    -0.169520467238E+02   -0.10452E-02   -0.10873E-02   256   0.495E-01    0.578E-02
DAV:   3    -0.169520164152E+02    0.30309E-04   -0.30871E-04   208   0.797E-02
  13 F= -.16952016E+02 E0= -.16957016E+02  d E =-.142404E-02  mag=     0.0000
       N       E                     dE             d eps       ncg     rms          rms(c)
DAV:   1    -0.169517493478E+02    0.29738E-03   -0.72917E-01   224   0.294E+00    0.972E-02
DAV:   2    -0.169525078339E+02   -0.75849E-03   -0.84337E-03   240   0.429E-01    0.573E-02
DAV:   3    -0.169524889888E+02    0.18845E-04   -0.28470E-04   208   0.751E-02
  14 F= -.16952489E+02 E0= -.16957569E+02  d E =-.472574E-03  mag=     0.0000
       N       E                     dE             d eps       ncg     rms          rms(c)
DAV:   1    -0.169524223449E+02    0.85489E-04   -0.41162E-02   224   0.697E-01    0.160E-02
DAV:   2    -0.169524732761E+02   -0.50931E-04   -0.47313E-04   240   0.104E-01
  15 F= -.16952473E+02 E0= -.16957547E+02  d E =-.456861E-03  mag=     0.0000
