  13  13   0   0
  0.9773367E+03  0.2426492E-08  0.2376782E-08  0.2203024E-08  0.5000000E-15
   1.0000000000000000E-004
  CAR 
 unknown system                          
      2.33294147    -12.35165261  301     -3.83837172      1.00000000
    -12.352  0.0000E+00  0.0000E+00  0.0000E+00  0.0000E+00
    -12.303  0.0000E+00  0.0000E+00  0.0000E+00  0.0000E+00
    -12.254  0.0000E+00  0.0000E+00  0.0000E+00  0.0000E+00
    -12.205  0.0000E+00  0.0000E+00  0.0000E+00  0.0000E+00
    -12.156  0.0000E+00  0.0000E+00  0.0000E+00  0.0000E+00
    -12.107  0.0000E+00  0.0000E+00  0.0000E+00  0.0000E+00
    -12.058  0.0000E+00  0.0000E+00  0.0000E+00  0.0000E+00
    -12.009  0.0000E+00  0.0000E+00  0.0000E+00  0.0000E+00
    -11.960 -0.3786E-29 -0.3786E-29 -0.1853E-30 -0.1853E-30
    -11.911 -0.1734E-27 -0.1734E-27 -0.8671E-29 -0.8671E-29
    -11.862 -0.7169E-26 -0.7169E-26 -0.3596E-27 -0.3596E-27
    -11.813 -0.2626E-24 -0.2626E-24 -0.1321E-25 -0.1321E-25
    -11.764 -0.8519E-23 -0.8519E-23 -0.4302E-24 -0.4302E-24
    -11.715 -0.2448E-21 -0.2448E-21 -0.1241E-22 -0.1241E-22
    -11.666 -0.6228E-20 -0.6228E-20 -0.3172E-21 -0.3172E-21
    -11.617 -0.1403E-18 -0.1403E-18 -0.7183E-20 -0.7183E-20
    -11.568 -0.2797E-17 -0.2797E-17 -0.1441E-18 -0.1441E-18
    -11.520 -0.4821E-16 -0.4821E-16 -0.2504E-17 -0.2504E-17
    -11.471 -0.7452E-15 -0.7452E-15 -0.3898E-16 -0.3898E-16
    -11.422 -0.1026E-13 -0.1026E-13 -0.5414E-15 -0.5414E-15
    -11.373 -0.1248E-12 -0.1248E-12 -0.6652E-14 -0.6652E-14
    -11.324 -0.1341E-11 -0.1341E-11 -0.7230E-13 -0.7230E-13
    -11.275 -0.1272E-10 -0.1272E-10 -0.6949E-12 -0.6949E-12
    -11.226 -0.1064E-09 -0.1064E-09 -0.5903E-11 -0.5903E-11
    -11.177 -0.7845E-09 -0.7845E-09 -0.4430E-10 -0.4430E-10
    -11.128 -0.5092E-08 -0.5092E-08 -0.2935E-09 -0.2935E-09
    -11.079 -0.2905E-07 -0.2905E-07 -0.1716E-08 -0.1716E-08
    -11.030 -0.1455E-06 -0.1455E-06 -0.8837E-08 -0.8837E-08
    -10.981 -0.6378E-06 -0.6378E-06 -0.4005E-07 -0.4005E-07
    -10.932 -0.2440E-05 -0.2440E-05 -0.1595E-06 -0.1595E-06
    -10.883 -0.8106E-05 -0.8106E-05 -0.5562E-06 -0.5562E-06
    -10.834 -0.2323E-04 -0.2323E-04 -0.1693E-05 -0.1693E-05
    -10.785 -0.5679E-04 -0.5679E-04 -0.4473E-05 -0.4473E-05
    -10.736 -0.1161E-03 -0.1161E-03 -0.1016E-04 -0.1016E-04
    -10.687 -0.1905E-03 -0.1905E-03 -0.1948E-04 -0.1948E-04
    -10.638 -0.2244E-03 -0.2244E-03 -0.3047E-04 -0.3047E-04
    -10.590 -0.9782E-04 -0.9782E-04 -0.3525E-04 -0.3525E-04
    -10.541  0.3450E-03  0.3450E-03 -0.1837E-04 -0.1837E-04
    -10.492  0.1197E-02  0.1197E-02  0.4021E-04  0.4021E-04
    -10.443  0.2357E-02  0.2357E-02  0.1556E-03  0.1556E-03
    -10.394  0.3488E-02  0.3488E-02  0.3263E-03  0.3263E-03
    -10.345  0.4143E-02  0.4143E-02  0.5292E-03  0.5292E-03
    -10.296  0.4029E-02  0.4029E-02  0.7264E-03  0.7264E-03
    -10.247  0.3199E-02  0.3199E-02  0.8830E-03  0.8830E-03
    -10.198  0.2015E-02  0.2015E-02  0.9816E-03  0.9816E-03
    -10.149  0.9166E-03  0.9166E-03  0.1026E-02  0.1026E-02
    -10.100  0.1803E-03  0.1803E-03  0.1035E-02  0.1035E-02
    -10.051 -0.1588E-03 -0.1588E-03  0.1028E-02  0.1028E-02
    -10.002 -0.2247E-03 -0.2247E-03  0.1017E-02  0.1017E-02
     -9.953 -0.1702E-03 -0.1702E-03  0.1008E-02  0.1008E-02
     -9.904 -0.9683E-04 -0.9683E-04  0.1003E-02  0.1003E-02
     -9.855 -0.4495E-04 -0.4495E-04  0.1001E-02  0.1001E-02
     -9.806 -0.1776E-04 -0.1776E-04  0.1000E-02  0.1000E-02
     -9.757 -0.6799E-05 -0.6799E-05  0.1000E-02  0.1000E-02
     -9.708 -0.5137E-05 -0.5137E-05  0.9998E-03  0.9998E-03
     -9.659 -0.1141E-04 -0.1141E-04  0.9992E-03  0.9992E-03
     -9.611 -0.3028E-04 -0.3028E-04  0.9978E-03  0.9978E-03
     -9.562 -0.7045E-04 -0.7045E-04  0.9943E-03  0.9943E-03
     -9.513 -0.1363E-03 -0.1363E-03  0.9876E-03  0.9876E-03
     -9.464 -0.2078E-03 -0.2078E-03  0.9775E-03  0.9775E-03
     -9.415 -0.2121E-03 -0.2121E-03  0.9671E-03  0.9671E-03
     -9.366 -0.1392E-04 -0.1392E-04  0.9664E-03  0.9664E-03
     -9.317  0.5379E-03  0.5379E-03  0.9927E-03  0.9927E-03
     -9.268  0.1495E-02  0.1495E-02  0.1066E-02  0.1066E-02
     -9.219  0.2690E-02  0.2690E-02  0.1198E-02  0.1198E-02
     -9.170  0.3733E-02  0.3733E-02  0.1380E-02  0.1380E-02
     -9.121  0.4193E-02  0.4193E-02  0.1586E-02  0.1586E-02
     -9.072  0.3862E-02  0.3862E-02  0.1775E-02  0.1775E-02
     -9.023  0.2889E-02  0.2889E-02  0.1916E-02  0.1916E-02
     -8.974  0.1688E-02  0.1688E-02  0.1999E-02  0.1999E-02
     -8.925  0.6704E-03  0.6704E-03  0.2031E-02  0.2031E-02
     -8.876  0.4359E-04  0.4359E-04  0.2034E-02  0.2034E-02
     -8.827 -0.2190E-03 -0.2190E-03  0.2023E-02  0.2023E-02
     -8.778 -0.2702E-03 -0.2702E-03  0.2010E-02  0.2010E-02
     -8.729 -0.2614E-03 -0.2614E-03  0.1997E-02  0.1997E-02
     -8.681 -0.2688E-03 -0.2688E-03  0.1984E-02  0.1984E-02
     -8.632 -0.2703E-03 -0.2703E-03  0.1970E-02  0.1970E-02
     -8.583 -0.1542E-03 -0.1542E-03  0.1963E-02  0.1963E-02
     -8.534  0.2353E-03  0.2353E-03  0.1974E-02  0.1974E-02
     -8.485  0.1000E-02  0.1000E-02  0.2023E-02  0.2023E-02
     -8.436  0.2074E-02  0.2074E-02  0.2125E-02  0.2125E-02
     -8.387  0.3197E-02  0.3197E-02  0.2281E-02  0.2281E-02
     -8.338  0.4046E-02  0.4046E-02  0.2479E-02  0.2479E-02
     -8.289  0.4455E-02  0.4455E-02  0.2698E-02  0.2698E-02
     -8.240  0.4516E-02  0.4516E-02  0.2919E-02  0.2919E-02
     -8.191  0.4448E-02  0.4448E-02  0.3136E-02  0.3136E-02
     -8.142  0.4374E-02  0.4374E-02  0.3350E-02  0.3350E-02
     -8.093  0.4253E-02  0.4253E-02  0.3559E-02  0.3559E-02
     -8.044  0.4032E-02  0.4032E-02  0.3756E-02  0.3756E-02
     -7.995  0.3790E-02  0.3790E-02  0.3941E-02  0.3941E-02
     -7.946  0.3681E-02  0.3681E-02  0.4122E-02  0.4122E-02
     -7.897  0.3729E-02  0.3729E-02  0.4304E-02  0.4304E-02
     -7.848  0.3768E-02  0.3768E-02  0.4489E-02  0.4489E-02
     -7.799  0.3644E-02  0.3644E-02  0.4667E-02  0.4667E-02
     -7.750  0.3468E-02  0.3468E-02  0.4837E-02  0.4837E-02
     -7.702  0.3628E-02  0.3628E-02  0.5014E-02  0.5014E-02
     -7.653  0.4507E-02  0.4507E-02  0.5235E-02  0.5235E-02
     -7.604  0.6157E-02  0.6157E-02  0.5536E-02  0.5536E-02
     -7.555  0.8201E-02  0.8201E-02  0.5938E-02  0.5938E-02
     -7.506  0.1003E-01  0.1003E-01  0.6429E-02  0.6429E-02
     -7.457  0.1115E-01  0.1115E-01  0.6974E-02  0.6974E-02
     -7.408  0.1139E-01  0.1139E-01  0.7532E-02  0.7532E-02
     -7.359  0.1097E-01  0.1097E-01  0.8069E-02  0.8069E-02
     -7.310  0.1027E-01  0.1027E-01  0.8572E-02  0.8572E-02
     -7.261  0.9682E-02  0.9682E-02  0.9046E-02  0.9046E-02
     -7.212  0.9544E-02  0.9544E-02  0.9513E-02  0.9513E-02
     -7.163  0.1022E-01  0.1022E-01  0.1001E-01  0.1001E-01
     -7.114  0.1205E-01  0.1205E-01  0.1060E-01  0.1060E-01
     -7.065  0.1501E-01  0.1501E-01  0.1134E-01  0.1134E-01
     -7.016  0.1847E-01  0.1847E-01  0.1224E-01  0.1224E-01
     -6.967  0.2120E-01  0.2120E-01  0.1328E-01  0.1328E-01
     -6.918  0.2204E-01  0.2204E-01  0.1436E-01  0.1436E-01
     -6.869  0.2067E-01  0.2067E-01  0.1537E-01  0.1537E-01
     -6.820  0.1796E-01  0.1796E-01  0.1625E-01  0.1625E-01
     -6.772  0.1548E-01  0.1548E-01  0.1701E-01  0.1701E-01
     -6.723  0.1451E-01  0.1451E-01  0.1772E-01  0.1772E-01
     -6.674  0.1541E-01  0.1541E-01  0.1847E-01  0.1847E-01
     -6.625  0.1761E-01  0.1761E-01  0.1933E-01  0.1933E-01
     -6.576  0.2014E-01  0.2014E-01  0.2032E-01  0.2032E-01
     -6.527  0.2218E-01  0.2218E-01  0.2141E-01  0.2141E-01
     -6.478  0.2324E-01  0.2324E-01  0.2254E-01  0.2254E-01
     -6.429  0.2316E-01  0.2316E-01  0.2368E-01  0.2368E-01
     -6.380  0.2215E-01  0.2215E-01  0.2476E-01  0.2476E-01
     -6.331  0.2071E-01  0.2071E-01  0.2578E-01  0.2578E-01
     -6.282  0.1963E-01  0.1963E-01  0.2674E-01  0.2674E-01
     -6.233  0.1959E-01  0.1959E-01  0.2769E-01  0.2769E-01
     -6.184  0.2080E-01  0.2080E-01  0.2871E-01  0.2871E-01
     -6.135  0.2276E-01  0.2276E-01  0.2983E-01  0.2983E-01
     -6.086  0.2463E-01  0.2463E-01  0.3103E-01  0.3103E-01
     -6.037  0.2571E-01  0.2571E-01  0.3229E-01  0.3229E-01
     -5.988  0.2599E-01  0.2599E-01  0.3356E-01  0.3356E-01
     -5.939  0.2607E-01  0.2607E-01  0.3484E-01  0.3484E-01
     -5.890  0.2681E-01  0.2681E-01  0.3615E-01  0.3615E-01
     -5.841  0.2871E-01  0.2871E-01  0.3756E-01  0.3756E-01
     -5.793  0.3166E-01  0.3166E-01  0.3911E-01  0.3911E-01
     -5.744  0.3507E-01  0.3507E-01  0.4082E-01  0.4082E-01
     -5.695  0.3812E-01  0.3812E-01  0.4269E-01  0.4269E-01
     -5.646  0.4011E-01  0.4011E-01  0.4465E-01  0.4465E-01
     -5.597  0.4067E-01  0.4067E-01  0.4664E-01  0.4664E-01
     -5.548  0.4002E-01  0.4002E-01  0.4860E-01  0.4860E-01
     -5.499  0.3892E-01  0.3892E-01  0.5051E-01  0.5051E-01
     -5.450  0.3841E-01  0.3841E-01  0.5239E-01  0.5239E-01
     -5.401  0.3921E-01  0.3921E-01  0.5431E-01  0.5431E-01
     -5.352  0.4125E-01  0.4125E-01  0.5633E-01  0.5633E-01
     -5.303  0.4364E-01  0.4364E-01  0.5846E-01  0.5846E-01
     -5.254  0.4495E-01  0.4495E-01  0.6066E-01  0.6066E-01
     -5.205  0.4390E-01  0.4390E-01  0.6281E-01  0.6281E-01
     -5.156  0.3980E-01  0.3980E-01  0.6476E-01  0.6476E-01
     -5.107  0.3298E-01  0.3298E-01  0.6637E-01  0.6637E-01
     -5.058  0.2460E-01  0.2460E-01  0.6758E-01  0.6758E-01
     -5.009  0.1627E-01  0.1627E-01  0.6837E-01  0.6837E-01
     -4.960  0.9402E-02  0.9402E-02  0.6883E-01  0.6883E-01
     -4.911  0.4798E-02  0.4798E-02  0.6907E-01  0.6907E-01
     -4.863  0.2530E-02  0.2530E-02  0.6919E-01  0.6919E-01
     -4.814  0.2069E-02  0.2069E-02  0.6929E-01  0.6929E-01
     -4.765  0.2556E-02  0.2556E-02  0.6942E-01  0.6942E-01
     -4.716  0.3157E-02  0.3157E-02  0.6957E-01  0.6957E-01
     -4.667  0.3407E-02  0.3407E-02  0.6974E-01  0.6974E-01
     -4.618  0.3341E-02  0.3341E-02  0.6990E-01  0.6990E-01
     -4.569  0.3298E-02  0.3298E-02  0.7006E-01  0.7006E-01
     -4.520  0.3520E-02  0.3520E-02  0.7024E-01  0.7024E-01
     -4.471  0.3886E-02  0.3886E-02  0.7043E-01  0.7043E-01
     -4.422  0.4012E-02  0.4012E-02  0.7062E-01  0.7062E-01
     -4.373  0.3587E-02  0.3587E-02  0.7080E-01  0.7080E-01
     -4.324  0.2637E-02  0.2637E-02  0.7093E-01  0.7093E-01
     -4.275  0.1478E-02  0.1478E-02  0.7100E-01  0.7100E-01
     -4.226  0.4723E-03  0.4723E-03  0.7102E-01  0.7102E-01
     -4.177 -0.1750E-03 -0.1750E-03  0.7102E-01  0.7102E-01
     -4.128 -0.4333E-03 -0.4333E-03  0.7099E-01  0.7099E-01
     -4.079 -0.3242E-03 -0.3242E-03  0.7098E-01  0.7098E-01
     -4.030  0.1712E-03  0.1712E-03  0.7099E-01  0.7099E-01
     -3.981  0.1072E-02  0.1072E-02  0.7104E-01  0.7104E-01
     -3.932  0.2262E-02  0.2262E-02  0.7115E-01  0.7115E-01
     -3.884  0.3410E-02  0.3410E-02  0.7132E-01  0.7132E-01
     -3.835  0.4069E-02  0.4069E-02  0.7152E-01  0.7152E-01
     -3.786  0.3934E-02  0.3934E-02  0.7171E-01  0.7171E-01
     -3.737  0.3055E-02  0.3055E-02  0.7186E-01  0.7186E-01
     -3.688  0.1843E-02  0.1843E-02  0.7195E-01  0.7195E-01
     -3.639  0.8598E-03  0.8599E-03  0.7199E-01  0.7199E-01
     -3.590  0.5467E-03  0.5467E-03  0.7202E-01  0.7202E-01
     -3.541  0.1040E-02  0.1040E-02  0.7207E-01  0.7207E-01
     -3.492  0.2113E-02  0.2113E-02  0.7217E-01  0.7217E-01
     -3.443  0.3264E-02  0.3264E-02  0.7233E-01  0.7233E-01
     -3.394  0.3923E-02  0.3923E-02  0.7252E-01  0.7252E-01
     -3.345  0.3743E-02  0.3743E-02  0.7271E-01  0.7271E-01
     -3.296  0.2798E-02  0.2798E-02  0.7284E-01  0.7284E-01
     -3.247  0.1578E-02  0.1578E-02  0.7292E-01  0.7292E-01
     -3.198  0.7729E-03  0.7729E-03  0.7296E-01  0.7296E-01
     -3.149  0.9646E-03  0.9646E-03  0.7301E-01  0.7301E-01
     -3.100  0.2351E-02  0.2351E-02  0.7312E-01  0.7312E-01
     -3.051  0.4584E-02  0.4584E-02  0.7335E-01  0.7335E-01
     -3.002  0.6824E-02  0.6824E-02  0.7368E-01  0.7368E-01
     -2.954  0.8096E-02  0.8096E-02  0.7408E-01  0.7408E-01
     -2.905  0.7801E-02  0.7801E-02  0.7446E-01  0.7446E-01
     -2.856  0.6053E-02  0.6053E-02  0.7475E-01  0.7475E-01
     -2.807  0.3595E-02  0.3595E-02  0.7493E-01  0.7493E-01
     -2.758  0.1377E-02  0.1377E-02  0.7500E-01  0.7500E-01
     -2.709  0.1333E-03  0.1333E-03  0.7500E-01  0.7500E-01
     -2.660  0.2078E-03  0.2078E-03  0.7501E-01  0.7501E-01
     -2.611  0.1560E-02  0.1560E-02  0.7509E-01  0.7509E-01
     -2.562  0.3784E-02  0.3784E-02  0.7528E-01  0.7528E-01
     -2.513  0.6142E-02  0.6142E-02  0.7558E-01  0.7558E-01
     -2.464  0.7749E-02  0.7749E-02  0.7596E-01  0.7596E-01
     -2.415  0.7947E-02  0.7947E-02  0.7634E-01  0.7634E-01
     -2.366  0.6660E-02  0.6660E-02  0.7667E-01  0.7667E-01
     -2.317  0.4427E-02  0.4427E-02  0.7689E-01  0.7689E-01
     -2.268  0.2082E-02  0.2082E-02  0.7699E-01  0.7699E-01
     -2.219  0.3602E-03  0.3602E-03  0.7701E-01  0.7701E-01
     -2.170 -0.3117E-03 -0.3117E-03  0.7699E-01  0.7699E-01
     -2.121  0.2128E-03  0.2128E-03  0.7700E-01  0.7700E-01
     -2.072  0.1843E-02  0.1843E-02  0.7709E-01  0.7709E-01
     -2.023  0.4195E-02  0.4195E-02  0.7730E-01  0.7730E-01
     -1.975  0.6545E-02  0.6545E-02  0.7762E-01  0.7762E-01
     -1.926  0.8019E-02  0.8019E-02  0.7801E-01  0.7801E-01
     -1.877  0.8013E-02  0.8013E-02  0.7840E-01  0.7840E-01
     -1.828  0.6554E-02  0.6554E-02  0.7872E-01  0.7872E-01
     -1.779  0.4276E-02  0.4276E-02  0.7893E-01  0.7893E-01
     -1.730  0.2019E-02  0.2019E-02  0.7903E-01  0.7903E-01
     -1.681  0.3739E-03  0.3739E-03  0.7905E-01  0.7905E-01
     -1.632 -0.4851E-03 -0.4851E-03  0.7903E-01  0.7903E-01
     -1.583 -0.6678E-03 -0.6678E-03  0.7899E-01  0.7899E-01
     -1.534 -0.3315E-03 -0.3315E-03  0.7898E-01  0.7898E-01
     -1.485  0.4316E-03  0.4315E-03  0.7900E-01  0.7900E-01
     -1.436  0.1553E-02  0.1553E-02  0.7907E-01  0.7907E-01
     -1.387  0.2923E-02  0.2923E-02  0.7922E-01  0.7922E-01
     -1.338  0.4406E-02  0.4406E-02  0.7943E-01  0.7943E-01
     -1.289  0.5907E-02  0.5907E-02  0.7972E-01  0.7972E-01
     -1.240  0.7349E-02  0.7349E-02  0.8008E-01  0.8008E-01
     -1.191  0.8571E-02  0.8571E-02  0.8050E-01  0.8050E-01
     -1.142  0.9290E-02  0.9290E-02  0.8096E-01  0.8096E-01
     -1.093  0.9263E-02  0.9263E-02  0.8141E-01  0.8141E-01
     -1.045  0.8500E-02  0.8500E-02  0.8183E-01  0.8183E-01
     -0.996  0.7309E-02  0.7309E-02  0.8218E-01  0.8218E-01
     -0.947  0.6107E-02  0.6107E-02  0.8248E-01  0.8248E-01
     -0.898  0.5203E-02  0.5203E-02  0.8274E-01  0.8274E-01
     -0.849  0.4707E-02  0.4707E-02  0.8297E-01  0.8297E-01
     -0.800  0.4573E-02  0.4573E-02  0.8319E-01  0.8319E-01
     -0.751  0.4669E-02  0.4669E-02  0.8342E-01  0.8342E-01
     -0.702  0.4848E-02  0.4848E-02  0.8366E-01  0.8366E-01
     -0.653  0.5001E-02  0.5001E-02  0.8390E-01  0.8390E-01
     -0.604  0.5046E-02  0.5046E-02  0.8415E-01  0.8415E-01
     -0.555  0.4870E-02  0.4870E-02  0.8439E-01  0.8439E-01
     -0.506  0.4335E-02  0.4335E-02  0.8460E-01  0.8460E-01
     -0.457  0.3409E-02  0.3409E-02  0.8477E-01  0.8477E-01
     -0.408  0.2329E-02  0.2329E-02  0.8488E-01  0.8488E-01
     -0.359  0.1574E-02  0.1574E-02  0.8496E-01  0.8496E-01
     -0.310  0.1626E-02  0.1626E-02  0.8504E-01  0.8504E-01
     -0.261  0.2665E-02  0.2665E-02  0.8517E-01  0.8517E-01
     -0.212  0.4439E-02  0.4438E-02  0.8538E-01  0.8538E-01
     -0.163  0.6402E-02  0.6402E-02  0.8570E-01  0.8570E-01
     -0.114  0.8022E-02  0.8022E-02  0.8609E-01  0.8609E-01
     -0.066  0.9027E-02  0.9027E-02  0.8653E-01  0.8653E-01
     -0.017  0.9452E-02  0.9452E-02  0.8699E-01  0.8699E-01
      0.032  0.9526E-02  0.9526E-02  0.8746E-01  0.8746E-01
      0.081  0.9552E-02  0.9552E-02  0.8793E-01  0.8793E-01
      0.130  0.9852E-02  0.9851E-02  0.8841E-01  0.8841E-01
      0.179  0.1066E-01  0.1066E-01  0.8893E-01  0.8893E-01
      0.228  0.1188E-01  0.1188E-01  0.8951E-01  0.8951E-01
      0.277  0.1293E-01  0.1292E-01  0.9015E-01  0.9015E-01
      0.326  0.1294E-01  0.1294E-01  0.9078E-01  0.9078E-01
      0.375  0.1137E-01  0.1137E-01  0.9134E-01  0.9134E-01
      0.424  0.8421E-02  0.8423E-02  0.9175E-01  0.9175E-01
      0.473  0.4979E-02  0.4981E-02  0.9199E-01  0.9199E-01
      0.522  0.2055E-02  0.2056E-02  0.9209E-01  0.9209E-01
      0.571  0.2159E-03  0.2167E-03  0.9210E-01  0.9210E-01
      0.620 -0.5610E-03 -0.5607E-03  0.9208E-01  0.9208E-01
      0.669 -0.6535E-03 -0.6535E-03  0.9204E-01  0.9204E-01
      0.718 -0.4684E-03 -0.4685E-03  0.9202E-01  0.9202E-01
      0.767 -0.2595E-03 -0.2596E-03  0.9201E-01  0.9201E-01
      0.816 -0.1185E-03 -0.1185E-03  0.9200E-01  0.9200E-01
      0.864 -0.4583E-04 -0.4586E-04  0.9200E-01  0.9200E-01
      0.913 -0.1525E-04 -0.1526E-04  0.9200E-01  0.9200E-01
      0.962 -0.4398E-05 -0.4402E-05  0.9200E-01  0.9200E-01
      1.011 -0.1107E-05 -0.1108E-05  0.9200E-01  0.9200E-01
      1.060 -0.2438E-06 -0.2440E-06  0.9200E-01  0.9200E-01
      1.109 -0.4714E-07 -0.4719E-07  0.9200E-01  0.9200E-01
      1.158 -0.8019E-08 -0.8027E-08  0.9200E-01  0.9200E-01
      1.207 -0.1202E-08 -0.1203E-08  0.9200E-01  0.9200E-01
      1.256 -0.1588E-09 -0.1590E-09  0.9200E-01  0.9200E-01
      1.305 -0.1853E-10 -0.1856E-10  0.9200E-01  0.9200E-01
      1.354 -0.1911E-11 -0.1913E-11  0.9200E-01  0.9200E-01
      1.403 -0.1741E-12 -0.1744E-12  0.9200E-01  0.9200E-01
      1.452 -0.1404E-13 -0.1406E-13  0.9200E-01  0.9200E-01
      1.501 -0.9934E-15 -0.9934E-15  0.9200E-01  0.9200E-01
      1.550 -0.6804E-16 -0.6804E-16  0.9200E-01  0.9200E-01
      1.599 -0.4536E-17 -0.4536E-17  0.9200E-01  0.9200E-01
      1.648  0.0000E+00  0.0000E+00  0.9200E-01  0.9200E-01
      1.697  0.0000E+00  0.0000E+00  0.9200E-01  0.9200E-01
      1.746  0.0000E+00  0.0000E+00  0.9200E-01  0.9200E-01
      1.795  0.0000E+00  0.0000E+00  0.9200E-01  0.9200E-01
      1.843  0.0000E+00  0.0000E+00  0.9200E-01  0.9200E-01
      1.892  0.0000E+00  0.0000E+00  0.9200E-01  0.9200E-01
      1.941  0.0000E+00  0.0000E+00  0.9200E-01  0.9200E-01
      1.990  0.0000E+00  0.0000E+00  0.9200E-01  0.9200E-01
      2.039  0.0000E+00  0.0000E+00  0.9200E-01  0.9200E-01
      2.088  0.0000E+00  0.0000E+00  0.9200E-01  0.9200E-01
      2.137  0.0000E+00  0.0000E+00  0.9200E-01  0.9200E-01
      2.186  0.0000E+00  0.0000E+00  0.9200E-01  0.9200E-01
      2.235  0.0000E+00  0.0000E+00  0.9200E-01  0.9200E-01
      2.284  0.0000E+00  0.0000E+00  0.9200E-01  0.9200E-01
      2.333  0.0000E+00  0.0000E+00  0.9200E-01  0.9200E-01
