   13   13 1000    2
  0.9773367E+03  0.2426492E-08  0.2376782E-08  0.2203024E-08  0.5000000E-15
   1.0000000000000000E-004
  CAR 
 unknown system                          
    143      1     92
 
  0.1262379E-14  0.1262379E-14  0.1262379E-14  0.1000000E+01
    1      -10.351653    -10.351653   1.000000   1.000000
    2       -9.141378     -9.141377   1.000000   1.000000
    3       -8.341539     -8.341539   1.000000   1.000000
    4       -8.107313     -8.107313   1.000000   1.000000
    5       -7.850341     -7.850341   1.000000   1.000000
    6       -7.594966     -7.594966   1.000000   1.000000
    7       -7.479718     -7.479718   1.000000   1.000000
    8       -7.442229     -7.442229   1.000000   1.000000
    9       -7.314968     -7.314968   1.000000   1.000000
   10       -7.224192     -7.224192   1.000000   1.000000
   11       -7.125609     -7.125609   1.000000   1.000000
   12       -7.014172     -7.014172   1.000000   1.000000
   13       -6.972094     -6.972094   1.000000   1.000000
   14       -6.963239     -6.963239   1.000000   1.000000
   15       -6.924944     -6.924944   1.000000   1.000000
   16       -6.902920     -6.902920   1.000000   1.000000
   17       -6.840164     -6.840164   1.000000   1.000000
   18       -6.693192     -6.693192   1.000000   1.000000
   19       -6.676537     -6.676537   1.000000   1.000000
   20       -6.606393     -6.606393   1.000000   1.000000
   21       -6.569923     -6.569923   1.000000   1.000000
   22       -6.511358     -6.511358   1.000000   1.000000
   23       -6.484826     -6.484826   1.000000   1.000000
   24       -6.443852     -6.443852   1.000000   1.000000
   25       -6.381779     -6.381779   1.000000   1.000000
   26       -6.366203     -6.366202   1.000000   1.000000
   27       -6.322341     -6.322341   1.000000   1.000000
   28       -6.212489     -6.212489   1.000000   1.000000
   29       -6.192184     -6.192184   1.000000   1.000000
   30       -6.141956     -6.141955   1.000000   1.000000
   31       -6.087820     -6.087820   1.000000   1.000000
   32       -6.072837     -6.072837   1.000000   1.000000
   33       -6.047032     -6.047032   1.000000   1.000000
   34       -5.994239     -5.994239   1.000000   1.000000
   35       -5.980418     -5.980418   1.000000   1.000000
   36       -5.908029     -5.908029   1.000000   1.000000
   37       -5.866016     -5.866016   1.000000   1.000000
   38       -5.837018     -5.837018   1.000000   1.000000
   39       -5.795920     -5.795920   1.000000   1.000000
   40       -5.773049     -5.773049   1.000000   1.000000
   41       -5.763507     -5.763507   1.000000   1.000000
   42       -5.731898     -5.731898   1.000000   1.000000
   43       -5.687514     -5.687514   1.000000   1.000000
   44       -5.670467     -5.670467   1.000000   1.000000
   45       -5.631369     -5.631369   1.000000   1.000000
   46       -5.623574     -5.623573   1.000000   1.000000
   47       -5.604803     -5.604803   1.000000   1.000000
   48       -5.590937     -5.590937   1.000000   1.000000
   49       -5.572819     -5.572819   1.000000   1.000000
   50       -5.532841     -5.532841   1.000000   1.000000
   51       -5.507730     -5.507730   1.000000   1.000000
   52       -5.474570     -5.474570   1.000000   1.000000
   53       -5.434936     -5.434936   1.000000   1.000000
   54       -5.427054     -5.427054   1.000000   1.000000
   55       -5.375144     -5.375143   1.000000   1.000000
   56       -5.359363     -5.359363   1.000000   1.000000
   57       -5.342602     -5.342602   1.000000   1.000000
   58       -5.315902     -5.315902   1.000000   1.000000
   59       -5.294700     -5.294700   1.000000   1.000000
   60       -5.286387     -5.286387   1.000000   1.000000
   61       -5.247953     -5.247953   1.000000   1.000000
   62       -5.218210     -5.218210   1.000000   1.000000
   63       -5.208103     -5.208103   1.000000   1.000000
   64       -5.200536     -5.200536   1.000000   1.000000
   65       -5.177096     -5.177096   1.000000   1.000000
   66       -5.136718     -5.136718   1.000000   1.000000
   67       -5.122870     -5.122870   1.000000   1.000000
   68       -5.106999     -5.106999   1.000000   1.000000
   69       -4.994405     -4.994405   1.000000   1.000000
   70       -4.726207     -4.726207   1.000000   1.000000
   71       -4.445007     -4.445007   1.000077   1.000077
   72       -3.839339     -3.839338   0.504091   0.504090
   73       -3.400904     -3.400904  -0.004168  -0.004168
   74       -2.977473     -2.977473  -0.000000  -0.000000
   75       -2.947432     -2.947432  -0.000000  -0.000000
   76       -2.485663     -2.485663  -0.000000  -0.000000
   77       -2.431087     -2.431086  -0.000000  -0.000000
   78       -1.946974     -1.946974  -0.000000  -0.000000
   79       -1.906332     -1.906332  -0.000000  -0.000000
   80       -1.335547     -1.335546  -0.000000  -0.000000
   81       -1.149399     -1.149398  -0.000000  -0.000000
   82       -1.127772     -1.127772  -0.000000  -0.000000
   83       -0.939737     -0.939737  -0.000000  -0.000000
   84       -0.730647     -0.730645  -0.000000  -0.000000
   85       -0.526997     -0.526996  -0.000000  -0.000000
   86       -0.177643     -0.177639  -0.000000  -0.000000
   87       -0.083744     -0.083739  -0.000000  -0.000000
   88        0.044525      0.044536  -0.000000  -0.000000
   89        0.119641      0.119641  -0.000000  -0.000000
   90        0.283840      0.283867  -0.000000  -0.000000
   91        0.309980      0.310014  -0.000000  -0.000000
   92        0.332915      0.332941  -0.000000  -0.000000
