       N       E                     dE             d eps       ncg     rms          rms(c)
DAV:   1     0.967490650765E+03    0.96749E+03   -0.25340E+04   368   0.745E+02
DAV:   2     0.250022710918E+03   -0.71747E+03   -0.64762E+03   384   0.217E+02
DAV:   3     0.118244344060E+02   -0.23820E+03   -0.22534E+03   464   0.134E+02
DAV:   4    -0.339785835410E+02   -0.45803E+02   -0.42586E+02   448   0.113E+02
DAV:   5    -0.359175854633E+02   -0.19390E+01   -0.19204E+01   496   0.225E+01    0.275E+01
DAV:   6    -0.182113744484E+02    0.17706E+02   -0.12449E+02   408   0.897E+01    0.123E+01
DAV:   7    -0.106613159325E+02    0.75501E+01   -0.30880E+01   448   0.596E+01    0.454E+00
DAV:   8    -0.103460853863E+02    0.31523E+00   -0.50056E+00   456   0.440E+01    0.406E+00
DAV:   9    -0.119213037547E+02   -0.15752E+01   -0.11726E+00   476   0.277E+01    0.277E+00
DAV:  10    -0.147118528784E+02   -0.27905E+01   -0.15630E+00   528   0.114E+01    0.198E+00
DAV:  11    -0.187565789162E+02   -0.40447E+01   -0.16653E+00   472   0.136E+01    0.153E+00
DAV:  12    -0.232043755642E+02   -0.44478E+01   -0.21736E+00   480   0.825E+00    0.110E+00
DAV:  13    -0.259375747016E+02   -0.27332E+01   -0.92012E-01   504   0.600E+00    0.973E-01
DAV:  14    -0.274231275546E+02   -0.14856E+01   -0.31343E-01   544   0.515E+00    0.901E-01
DAV:  15    -0.281774432063E+02   -0.75432E+00   -0.11529E-01   512   0.223E+00    0.814E-01
DAV:  16    -0.290807971436E+02   -0.90335E+00   -0.17961E-01   556   0.318E+00    0.604E-01
DAV:  17    -0.298450268524E+02   -0.76423E+00   -0.21334E-01   500   0.346E+00    0.384E-01
DAV:  18    -0.304098649901E+02   -0.56484E+00   -0.10488E-01   432   0.287E+00    0.328E-01
DAV:  19    -0.306449470986E+02   -0.23508E+00   -0.23523E-02   456   0.213E+00    0.251E-01
DAV:  20    -0.310353153704E+02   -0.39037E+00   -0.21902E-02   528   0.128E+00    0.173E-01
DAV:  21    -0.312949877331E+02   -0.25967E+00   -0.10725E-02   536   0.110E+00    0.131E-01
DAV:  22    -0.314640107943E+02   -0.16902E+00   -0.46542E-03   528   0.832E-01    0.878E-02
DAV:  23    -0.315485452246E+02   -0.84534E-01   -0.22929E-03   500   0.517E-01    0.555E-02
DAV:  24    -0.315892219554E+02   -0.40677E-01   -0.11569E-03   468   0.513E-01    0.423E-02
DAV:  25    -0.316095967316E+02   -0.20375E-01   -0.85438E-04   408   0.295E-01    0.336E-02
DAV:  26    -0.316221592583E+02   -0.12563E-01   -0.46481E-04   312   0.202E-01    0.247E-02
DAV:  27    -0.316280156865E+02   -0.58564E-02   -0.28559E-04   304   0.196E-01    0.209E-02
DAV:  28    -0.316331125974E+02   -0.50969E-02   -0.23990E-04   280   0.144E-01    0.184E-02
DAV:  29    -0.316368475773E+02   -0.37350E-02   -0.23094E-04   280   0.114E-01    0.142E-02
DAV:  30    -0.316391123932E+02   -0.22648E-02   -0.11626E-04   288   0.112E-01    0.116E-02
DAV:  31    -0.316409050396E+02   -0.17926E-02   -0.78505E-05   264   0.881E-02    0.895E-03
DAV:  32    -0.316429205506E+02   -0.20155E-02   -0.82155E-05   272   0.713E-02    0.828E-03
DAV:  33    -0.316440130817E+02   -0.10925E-02   -0.50127E-05   276   0.649E-02    0.807E-03
DAV:  34    -0.316445038445E+02   -0.49076E-03   -0.33516E-05   272   0.418E-02    0.670E-03
DAV:  35    -0.316447545076E+02   -0.25066E-03   -0.22903E-05   256   0.367E-02    0.601E-03
DAV:  36    -0.316450040929E+02   -0.24959E-03   -0.18345E-05   264   0.270E-02    0.569E-03
DAV:  37    -0.316451606079E+02   -0.15652E-03   -0.12586E-05   272   0.252E-02    0.513E-03
DAV:  38    -0.316453521922E+02   -0.19158E-03   -0.11241E-05   256   0.255E-02    0.444E-03
DAV:  39    -0.316455743924E+02   -0.22220E-03   -0.16093E-05   272   0.229E-02    0.433E-03
DAV:  40    -0.316457550308E+02   -0.18064E-03   -0.13340E-05   264   0.321E-02    0.319E-03
DAV:  41    -0.316458176849E+02   -0.62654E-04   -0.85343E-06   272   0.219E-02
   1 F= -.31645818E+02 E0= -.31631009E+02  d E =-.316458E+02  mag=     0.6116
       N       E                     dE             d eps       ncg     rms          rms(c)
DAV:   1    -0.316708590654E+02   -0.25104E-01   -0.18035E+01   400   0.146E+01    0.386E-01
DAV:   2    -0.317024878136E+02   -0.31629E-01   -0.35838E-01   560   0.498E+00    0.402E-01
DAV:   3    -0.317010132730E+02    0.14745E-02   -0.22799E-02   432   0.329E+00    0.210E-01
DAV:   4    -0.317007764809E+02    0.23679E-03   -0.43652E-03   456   0.107E+00    0.166E-01
DAV:   5    -0.317003837287E+02    0.39275E-03   -0.11542E-03   408   0.402E-01    0.110E-01
DAV:   6    -0.316996640255E+02    0.71970E-03   -0.10389E-03   480   0.744E-01    0.643E-02
DAV:   7    -0.316994309896E+02    0.23304E-03   -0.32162E-04   304   0.572E-01    0.199E-02
DAV:   8    -0.316994271389E+02    0.38507E-05   -0.14467E-04   248   0.141E-01
   2 F= -.31699427E+02 E0= -.31686843E+02  d E =-.536095E-01  mag=     0.5929
       N       E                     dE             d eps       ncg     rms          rms(c)
DAV:   1    -0.315335294638E+02    0.16590E+00   -0.11347E+02   392   0.383E+01    0.104E+00
DAV:   2    -0.317573193061E+02   -0.22379E+00   -0.25361E+00   556   0.143E+01    0.109E+00
DAV:   3    -0.317406986622E+02    0.16621E-01   -0.11748E-01   416   0.891E+00    0.537E-01
DAV:   4    -0.317401135607E+02    0.58510E-03   -0.35930E-02   448   0.247E+00    0.440E-01
DAV:   5    -0.317379814760E+02    0.21321E-02   -0.79671E-03   424   0.131E+00    0.296E-01
DAV:   6    -0.317354907683E+02    0.24907E-02   -0.78234E-03   652   0.174E+00    0.178E-01
DAV:   7    -0.317346474854E+02    0.84328E-03   -0.19043E-03   432   0.143E+00    0.688E-02
DAV:   8    -0.317349039353E+02   -0.25645E-03   -0.15400E-03   472   0.550E-01    0.542E-02
DAV:   9    -0.317350594384E+02   -0.15550E-03   -0.35088E-04   336   0.280E-01    0.484E-02
DAV:  10    -0.317352128606E+02   -0.15342E-03   -0.11912E-04   256   0.186E-01    0.242E-02
DAV:  11    -0.317355536979E+02   -0.34084E-03   -0.18881E-04   264   0.170E-01    0.270E-02
DAV:  12    -0.317357153751E+02   -0.16168E-03   -0.94099E-05   264   0.108E-01    0.229E-02
DAV:  13    -0.317360392480E+02   -0.32387E-03   -0.51274E-05   256   0.832E-02    0.145E-02
DAV:  14    -0.317364887481E+02   -0.44950E-03   -0.32815E-05   256   0.723E-02    0.172E-02
DAV:  15    -0.317372903157E+02   -0.80157E-03   -0.46565E-05   248   0.656E-02    0.155E-02
DAV:  16    -0.317382552037E+02   -0.96489E-03   -0.95663E-05   264   0.831E-02    0.116E-02
DAV:  17    -0.317394121083E+02   -0.11569E-02   -0.12102E-04   268   0.606E-02    0.119E-02
DAV:  18    -0.317400567816E+02   -0.64467E-03   -0.70091E-05   296   0.769E-02    0.111E-02
DAV:  19    -0.317411512947E+02   -0.10945E-02   -0.13808E-04   268   0.682E-02    0.972E-03
DAV:  20    -0.317418105093E+02   -0.65921E-03   -0.96248E-05   296   0.704E-02    0.113E-02
DAV:  21    -0.317422819605E+02   -0.47145E-03   -0.78476E-05   280   0.584E-02    0.943E-03
DAV:  22    -0.317428648859E+02   -0.58293E-03   -0.12767E-04   296   0.620E-02    0.820E-03
DAV:  23    -0.317432035605E+02   -0.33867E-03   -0.10504E-04   288   0.651E-02    0.836E-03
DAV:  24    -0.317433962251E+02   -0.19266E-03   -0.10229E-04   304   0.607E-02    0.803E-03
DAV:  25    -0.317434763063E+02   -0.80081E-04   -0.83638E-05   280   0.543E-02
   3 F= -.31743476E+02 E0= -.31733854E+02  d E =-.976586E-01  mag=     0.1756
       N       E                     dE             d eps       ncg     rms          rms(c)
DAV:   1    -0.317368859366E+02    0.65103E-02   -0.57881E+00   400   0.826E+00    0.170E-01
DAV:   2    -0.317477169732E+02   -0.10831E-01   -0.11259E-01   548   0.212E+00    0.197E-01
DAV:   3    -0.317473182261E+02    0.39875E-03   -0.29857E-03   424   0.117E+00    0.119E-01
DAV:   4    -0.317473397225E+02   -0.21496E-04   -0.92040E-04   408   0.512E-01
   4 F= -.31747340E+02 E0= -.31736396E+02  d E =-.101522E+00  mag=     0.1749
       N       E                     dE             d eps       ncg     rms          rms(c)
DAV:   1    -0.317455701779E+02    0.17480E-02   -0.16979E+01   392   0.141E+01    0.319E-01
DAV:   2    -0.317767243403E+02   -0.31154E-01   -0.33306E-01   556   0.467E+00    0.384E-01
DAV:   3    -0.317756645665E+02    0.10598E-02   -0.19210E-02   432   0.275E+00    0.212E-01
DAV:   4    -0.317755700206E+02    0.94546E-04   -0.37944E-03   432   0.978E-01    0.172E-01
DAV:   5    -0.317753758879E+02    0.19413E-03   -0.10129E-03   440   0.519E-01    0.109E-01
DAV:   6    -0.317753479924E+02    0.27896E-04   -0.95568E-04   468   0.712E-01
   5 F= -.31775348E+02 E0= -.31767048E+02  d E =-.280083E-01  mag=     0.1682
       N       E                     dE             d eps       ncg     rms          rms(c)
DAV:   1    -0.316255969299E+02    0.14978E+00   -0.89271E+01   392   0.336E+01    0.765E-01
DAV:   2    -0.318097640139E+02   -0.18417E+00   -0.19750E+00   568   0.128E+01    0.944E-01
DAV:   3    -0.317996330014E+02    0.10131E-01   -0.87132E-02   424   0.711E+00    0.487E-01
DAV:   4    -0.317997671607E+02   -0.13416E-03   -0.25794E-02   448   0.185E+00    0.423E-01
DAV:   5    -0.317981552944E+02    0.16119E-02   -0.47563E-03   424   0.129E+00    0.286E-01
DAV:   6    -0.317972101140E+02    0.94518E-03   -0.64829E-03   624   0.157E+00    0.134E-01
DAV:   7    -0.317969269802E+02    0.28313E-03   -0.18089E-03   456   0.112E+00    0.467E-02
DAV:   8    -0.317970128397E+02   -0.85860E-04   -0.94549E-04   440   0.369E-01
   6 F= -.31797013E+02 E0= -.31792521E+02  d E =-.496731E-01  mag=     0.1520
       N       E                     dE             d eps       ncg     rms          rms(c)
DAV:   1    -0.317578792894E+02    0.39048E-01   -0.33334E+01   392   0.200E+01    0.471E-01
DAV:   2    -0.318229699237E+02   -0.65091E-01   -0.69997E-01   552   0.731E+00    0.580E-01
DAV:   3    -0.318192578184E+02    0.37121E-02   -0.34643E-02   424   0.427E+00    0.310E-01
DAV:   4    -0.318191022912E+02    0.15553E-03   -0.83614E-03   448   0.112E+00    0.260E-01
DAV:   5    -0.318184387230E+02    0.66357E-03   -0.18628E-03   416   0.689E-01    0.176E-01
DAV:   6    -0.318180811488E+02    0.35757E-03   -0.26566E-03   656   0.986E-01    0.848E-02
DAV:   7    -0.318179923244E+02    0.88824E-04   -0.61533E-04   432   0.694E-01
   7 F= -.31817992E+02 E0= -.31814857E+02  d E =-.209795E-01  mag=     0.1358
       N       E                     dE             d eps       ncg     rms          rms(c)
DAV:   1    -0.317827255576E+02    0.35356E-01   -0.23427E+01   392   0.167E+01    0.387E-01
DAV:   2    -0.318272239750E+02   -0.44498E-01   -0.47605E-01   548   0.578E+00    0.468E-01
DAV:   3    -0.318249689123E+02    0.22551E-02   -0.23900E-02   420   0.337E+00    0.254E-01
DAV:   4    -0.318248551614E+02    0.11375E-03   -0.55364E-03   448   0.973E-01    0.209E-01
DAV:   5    -0.318244693979E+02    0.38576E-03   -0.12675E-03   404   0.556E-01    0.143E-01
DAV:   6    -0.318243117926E+02    0.15761E-03   -0.17496E-03   604   0.797E-01    0.722E-02
DAV:   7    -0.318242694190E+02    0.42374E-04   -0.41828E-04   416   0.574E-01
   8 F= -.31824269E+02 E0= -.31821549E+02  d E =-.272566E-01  mag=     0.1195
       N       E                     dE             d eps       ncg     rms          rms(c)
DAV:   1    -0.317692073592E+02    0.55104E-01   -0.44426E+01   392   0.234E+01    0.529E-01
DAV:   2    -0.318567926291E+02   -0.87585E-01   -0.92170E-01   560   0.691E+00    0.631E-01
DAV:   3    -0.318522779492E+02    0.45147E-02   -0.36273E-02   424   0.417E+00    0.353E-01
DAV:   4    -0.318519079052E+02    0.37004E-03   -0.86085E-03   464   0.128E+00    0.290E-01
DAV:   5    -0.318511803555E+02    0.72755E-03   -0.21439E-03   416   0.668E-01    0.210E-01
DAV:   6    -0.318507680835E+02    0.41227E-03   -0.39100E-03   572   0.116E+00    0.102E-01
DAV:   7    -0.318506678336E+02    0.10025E-03   -0.85614E-04   432   0.808E-01    0.393E-02
DAV:   8    -0.318507364065E+02   -0.68573E-04   -0.55747E-04   384   0.314E-01
   9 F= -.31850736E+02 E0= -.31848339E+02  d E =-.264670E-01  mag=     0.1024
       N       E                     dE             d eps       ncg     rms          rms(c)
DAV:   1    -0.318126759524E+02    0.37992E-01   -0.24444E+01   392   0.171E+01    0.402E-01
DAV:   2    -0.318596165346E+02   -0.46941E-01   -0.49828E-01   552   0.522E+00    0.484E-01
DAV:   3    -0.318569984882E+02    0.26180E-02   -0.21994E-02   432   0.315E+00    0.267E-01
DAV:   4    -0.318567805474E+02    0.21794E-03   -0.50003E-03   496   0.999E-01    0.215E-01
DAV:   5    -0.318564233845E+02    0.35716E-03   -0.12339E-03   400   0.484E-01    0.155E-01
DAV:   6    -0.318563032764E+02    0.12011E-03   -0.21182E-03   556   0.894E-01    0.811E-02
DAV:   7    -0.318562578275E+02    0.45449E-04   -0.51169E-04   416   0.640E-01
  10 F= -.31856258E+02 E0= -.31853878E+02  d E =-.319884E-01  mag=     0.0885
       N       E                     dE             d eps       ncg     rms          rms(c)
DAV:   1    -0.317737064919E+02    0.82597E-01   -0.52504E+01   392   0.254E+01    0.565E-01
DAV:   2    -0.318775874944E+02   -0.10388E+00   -0.10938E+00   560   0.711E+00    0.679E-01
DAV:   3    -0.318719952460E+02    0.55922E-02   -0.37913E-02   404   0.410E+00    0.388E-01
DAV:   4    -0.318714306995E+02    0.56455E-03   -0.97902E-03   472   0.149E+00    0.318E-01
DAV:   5    -0.318705639913E+02    0.86671E-03   -0.24346E-03   412   0.737E-01    0.227E-01
DAV:   6    -0.318701799891E+02    0.38400E-03   -0.43835E-03   628   0.988E-01    0.109E-01
DAV:   7    -0.318700571077E+02    0.12288E-03   -0.75397E-04   432   0.799E-01    0.469E-02
DAV:   8    -0.318701742491E+02   -0.11714E-03   -0.10355E-03   412   0.350E-01    0.498E-02
DAV:   9    -0.318701976548E+02   -0.23406E-04   -0.12621E-04   264   0.188E-01
  11 F= -.31870198E+02 E0= -.31867650E+02  d E =-.139398E-01  mag=     0.0727
       N       E                     dE             d eps       ncg     rms          rms(c)
DAV:   1    -0.318701819055E+02   -0.76565E-05   -0.31805E-02   408   0.623E-01    0.179E-02
DAV:   2    -0.318702933400E+02   -0.11143E-03   -0.63295E-04   456   0.238E-01    0.187E-02
DAV:   3    -0.318703177916E+02   -0.24452E-04   -0.82265E-05   256   0.177E-01
  12 F= -.31870318E+02 E0= -.31867743E+02  d E =-.140600E-01  mag=     0.0696
       N       E                     dE             d eps       ncg     rms          rms(c)
DAV:   1    -0.318593966816E+02    0.10897E-01   -0.11435E+01   392   0.116E+01    0.234E-01
DAV:   2    -0.318803623358E+02   -0.20966E-01   -0.21958E-01   548   0.342E+00    0.337E-01
DAV:   3    -0.318791776390E+02    0.11847E-02   -0.90689E-03   424   0.188E+00    0.200E-01
DAV:   4    -0.318790308562E+02    0.14678E-03   -0.18837E-03   472   0.619E-01    0.167E-01
DAV:   5    -0.318788108460E+02    0.22001E-03   -0.53187E-04   392   0.363E-01    0.116E-01
DAV:   6    -0.318787847942E+02    0.26052E-04   -0.11416E-03   552   0.406E-01    0.437E-02
DAV:   7    -0.318787911217E+02   -0.63274E-05   -0.17339E-04   256   0.364E-01
  13 F= -.31878791E+02 E0= -.31875566E+02  d E =-.847333E-02  mag=     0.0594
       N       E                     dE             d eps       ncg     rms          rms(c)
DAV:   1    -0.318591277557E+02    0.19657E-01   -0.13066E+01   392   0.124E+01    0.264E-01
DAV:   2    -0.318831407006E+02   -0.24013E-01   -0.25350E-01   552   0.366E+00    0.366E-01
DAV:   3    -0.318816441719E+02    0.14965E-02   -0.10655E-02   424   0.206E+00    0.209E-01
DAV:   4    -0.318814828025E+02    0.16137E-03   -0.23789E-03   480   0.714E-01    0.170E-01
DAV:   5    -0.318812634729E+02    0.21933E-03   -0.64414E-04   392   0.392E-01    0.118E-01
DAV:   6    -0.318812412799E+02    0.22193E-04   -0.11797E-03   556   0.361E-01    0.478E-02
DAV:   7    -0.318812338060E+02    0.74739E-05   -0.16404E-04   256   0.353E-01
  14 F= -.31881234E+02 E0= -.31877351E+02  d E =-.109160E-01  mag=     0.0507
       N       E                     dE             d eps       ncg     rms          rms(c)
DAV:   1    -0.318787002482E+02    0.25410E-02   -0.52803E+00   392   0.783E+00    0.161E-01
DAV:   2    -0.318871959105E+02   -0.84957E-02   -0.89574E-02   552   0.224E+00    0.207E-01
DAV:   3    -0.318867555665E+02    0.44034E-03   -0.41665E-03   424   0.126E+00    0.117E-01
DAV:   4    -0.318867054659E+02    0.50101E-04   -0.75987E-04   392   0.435E-01
  15 F= -.31886705E+02 E0= -.31882461E+02  d E =-.547166E-02  mag=     0.0478
       N       E                     dE             d eps       ncg     rms          rms(c)
DAV:   1    -0.318137083719E+02    0.73047E-01   -0.47851E+01   392   0.242E+01    0.508E-01
DAV:   2    -0.319068920143E+02   -0.93184E-01   -0.97508E-01   556   0.746E+00    0.694E-01
DAV:   3    -0.319013593671E+02    0.55326E-02   -0.36304E-02   424   0.417E+00    0.417E-01
DAV:   4    -0.319006516800E+02    0.70769E-03   -0.80213E-03   472   0.112E+00    0.358E-01
DAV:   5    -0.318991838626E+02    0.14678E-02   -0.23997E-03   488   0.725E-01    0.244E-01
DAV:   6    -0.318984219700E+02    0.76189E-03   -0.53579E-03   644   0.115E+00    0.950E-02
DAV:   7    -0.318983539302E+02    0.68040E-04   -0.96343E-04   432   0.841E-01
  16 F= -.31898354E+02 E0= -.31892612E+02  d E =-.171201E-01  mag=     0.0405
       N       E                     dE             d eps       ncg     rms          rms(c)
DAV:   1    -0.315139026993E+02    0.38452E+00   -0.19665E+02   392   0.526E+01    0.110E+00
DAV:   2    -0.319329790755E+02   -0.41908E+00   -0.43759E+00   568   0.181E+01    0.146E+00
DAV:   3    -0.319058961514E+02    0.27083E-01   -0.18066E-01   424   0.107E+01    0.733E-01
DAV:   4    -0.319056033481E+02    0.29280E-03   -0.48919E-02   456   0.213E+00    0.630E-01
DAV:   5    -0.319023809443E+02    0.32224E-02   -0.67823E-03   448   0.131E+00    0.501E-01
DAV:   6    -0.318984720416E+02    0.39089E-02   -0.18184E-02   636   0.209E+00    0.255E-01
DAV:   7    -0.318975760553E+02    0.89599E-03   -0.35863E-03   464   0.160E+00    0.127E-01
DAV:   8    -0.318975858239E+02   -0.97686E-05   -0.37321E-03   496   0.889E-01    0.857E-02
DAV:   9    -0.318976696041E+02   -0.83780E-04   -0.11505E-03   400   0.475E-01    0.602E-02
DAV:  10    -0.318977075150E+02   -0.37911E-04   -0.25984E-04   304   0.351E-01
  17 F= -.31897708E+02 E0= -.31888532E+02  d E =-.164737E-01  mag=     0.0314
       N       E                     dE             d eps       ncg     rms          rms(c)
DAV:   1    -0.318537268031E+02    0.43943E-01   -0.34302E+01   392   0.204E+01    0.479E-01
DAV:   2    -0.319254571811E+02   -0.71730E-01   -0.76184E-01   560   0.697E+00    0.614E-01
DAV:   3    -0.319213024740E+02    0.41547E-02   -0.34419E-02   420   0.442E+00    0.316E-01
DAV:   4    -0.319212426272E+02    0.59847E-04   -0.80360E-03   464   0.110E+00    0.266E-01
DAV:   5    -0.319208250169E+02    0.41761E-03   -0.15948E-03   400   0.592E-01    0.194E-01
DAV:   6    -0.319206436067E+02    0.18141E-03   -0.26443E-03   568   0.106E+00    0.913E-02
DAV:   7    -0.319205643459E+02    0.79261E-04   -0.73755E-04   432   0.799E-01
  18 F= -.31920564E+02 E0= -.31913694E+02  d E =-.228568E-01  mag=     0.0263
       N       E                     dE             d eps       ncg     rms          rms(c)
DAV:   1    -0.319204971807E+02    0.14643E-03   -0.12614E-01   400   0.123E+00    0.241E-02
DAV:   2    -0.319207480920E+02   -0.25091E-03   -0.24165E-03   544   0.321E-01    0.333E-02
DAV:   3    -0.319207470854E+02    0.10065E-05   -0.52508E-05   256   0.101E-01
  19 F= -.31920747E+02 E0= -.31913751E+02  d E =-.230396E-01  mag=     0.0252
       N       E                     dE             d eps       ncg     rms          rms(c)
DAV:   1    -0.319011401902E+02    0.19608E-01   -0.17451E+01   392   0.143E+01    0.377E-01
DAV:   2    -0.319350830897E+02   -0.33943E-01   -0.36937E-01   568   0.546E+00    0.475E-01
DAV:   3    -0.319324042737E+02    0.26788E-02   -0.22426E-02   432   0.350E+00    0.234E-01
DAV:   4    -0.319323281770E+02    0.76097E-04   -0.47369E-03   480   0.789E-01    0.187E-01
DAV:   5    -0.319321394393E+02    0.18874E-03   -0.88085E-04   380   0.377E-01    0.142E-01
DAV:   6    -0.319320348370E+02    0.10460E-03   -0.11546E-03   488   0.857E-01    0.872E-02
DAV:   7    -0.319319788275E+02    0.56010E-04   -0.60815E-04   404   0.568E-01
  20 F= -.31931979E+02 E0= -.31925539E+02  d E =-.112317E-01  mag=     0.0212
       N       E                     dE             d eps       ncg     rms          rms(c)
DAV:   1    -0.319299157479E+02    0.21191E-02   -0.18380E+00   396   0.459E+00    0.929E-02
DAV:   2    -0.319327006973E+02   -0.27849E-02   -0.28988E-02   568   0.131E+00    0.947E-02
DAV:   3    -0.319326392257E+02    0.61472E-04   -0.13360E-03   416   0.803E-01    0.521E-02
DAV:   4    -0.319326422967E+02   -0.30710E-05   -0.15293E-04   240   0.220E-01
  21 F= -.31932642E+02 E0= -.31926352E+02  d E =-.118952E-01  mag=     0.0192
       N       E                     dE             d eps       ncg     rms          rms(c)
DAV:   1    -0.319101712417E+02    0.22468E-01   -0.19212E+01   392   0.149E+01    0.356E-01
DAV:   2    -0.319476856097E+02   -0.37514E-01   -0.40119E-01   556   0.567E+00    0.497E-01
DAV:   3    -0.319446841287E+02    0.30015E-02   -0.20324E-02   404   0.328E+00    0.267E-01
DAV:   4    -0.319444919111E+02    0.19222E-03   -0.42628E-03   448   0.659E-01    0.221E-01
DAV:   5    -0.319440749834E+02    0.41693E-03   -0.88042E-04   392   0.458E-01    0.160E-01
DAV:   6    -0.319438141780E+02    0.26081E-03   -0.19626E-03   604   0.804E-01    0.767E-02
DAV:   7    -0.319437526389E+02    0.61539E-04   -0.51465E-04   396   0.604E-01
  22 F= -.31943753E+02 E0= -.31937282E+02  d E =-.111103E-01  mag=     0.0159
       N       E                     dE             d eps       ncg     rms          rms(c)
DAV:   1    -0.315808165346E+02    0.36300E+00   -0.18013E+02   392   0.498E+01    0.114E+00
DAV:   2    -0.319911246413E+02   -0.41031E+00   -0.43281E+00   560   0.198E+01    0.152E+00
DAV:   3    -0.319602597992E+02    0.30865E-01   -0.19927E-01   428   0.117E+01    0.705E-01
DAV:   4    -0.319611855255E+02   -0.92573E-03   -0.56975E-02   432   0.213E+00    0.589E-01
DAV:   5    -0.319589597124E+02    0.22258E-02   -0.60609E-03   424   0.136E+00    0.496E-01
DAV:   6    -0.319558543844E+02    0.31053E-02   -0.16768E-02   600   0.232E+00    0.307E-01
DAV:   7    -0.319546229080E+02    0.12315E-02   -0.52869E-03   512   0.165E+00    0.169E-01
DAV:   8    -0.319542772930E+02    0.34561E-03   -0.42960E-03   560   0.922E-01    0.800E-02
DAV:   9    -0.319543421137E+02   -0.64821E-04   -0.11017E-03   416   0.472E-01    0.528E-02
DAV:  10    -0.319543434859E+02   -0.13722E-05   -0.17725E-04   240   0.303E-01
  23 F= -.31954343E+02 E0= -.31947157E+02  d E =-.217012E-01  mag=     0.0119
       N       E                     dE             d eps       ncg     rms          rms(c)
DAV:   1    -0.319554719514E+02   -0.11298E-02   -0.93995E-01   400   0.325E+00    0.619E-02
DAV:   2    -0.319568811606E+02   -0.14092E-02   -0.14673E-02   576   0.110E+00    0.912E-02
DAV:   3    -0.319568100119E+02    0.71149E-04   -0.84730E-04   400   0.619E-01
  24 F= -.31956810E+02 E0= -.31949589E+02  d E =-.246653E-02  mag=     0.0113
       N       E                     dE             d eps       ncg     rms          rms(c)
DAV:   1    -0.319504944362E+02    0.63867E-02   -0.84893E+00   392   0.980E+00    0.217E-01
DAV:   2    -0.319656069247E+02   -0.15112E-01   -0.16115E-01   568   0.351E+00    0.326E-01
DAV:   3    -0.319644065140E+02    0.12004E-02   -0.79175E-03   420   0.198E+00    0.184E-01
DAV:   4    -0.319642892857E+02    0.11723E-03   -0.15561E-03   440   0.396E-01    0.157E-01
DAV:   5    -0.319640436969E+02    0.24559E-03   -0.45015E-04   368   0.334E-01    0.104E-01
DAV:   6    -0.319639920046E+02    0.51692E-04   -0.12164E-03   560   0.530E-01    0.409E-02
DAV:   7    -0.319639808403E+02    0.11164E-04   -0.16496E-04   256   0.373E-01
  25 F= -.31963981E+02 E0= -.31956610E+02  d E =-.963735E-02  mag=     0.0091
       N       E                     dE             d eps       ncg     rms          rms(c)
DAV:   1    -0.319158519219E+02    0.48140E-01   -0.34098E+01   392   0.200E+01    0.481E-01
DAV:   2    -0.319855958852E+02   -0.69744E-01   -0.74095E-01   568   0.754E+00    0.636E-01
DAV:   3    -0.319801191083E+02    0.54768E-02   -0.30896E-02   420   0.447E+00    0.327E-01
DAV:   4    -0.319798801801E+02    0.23893E-03   -0.76546E-03   444   0.836E-01    0.271E-01
DAV:   5    -0.319792558222E+02    0.62436E-03   -0.13553E-03   408   0.571E-01    0.204E-01
DAV:   6    -0.319787573663E+02    0.49846E-03   -0.30988E-03   612   0.991E-01    0.972E-02
DAV:   7    -0.319786431502E+02    0.11422E-03   -0.81164E-04   432   0.732E-01    0.334E-02
DAV:   8    -0.319786911152E+02   -0.47965E-04   -0.54626E-04   384   0.282E-01
  26 F= -.31978691E+02 E0= -.31971077E+02  d E =-.243476E-01  mag=     0.0072
       N       E                     dE             d eps       ncg     rms          rms(c)
DAV:   1    -0.317390981394E+02    0.23955E+00   -0.14128E+02   408   0.431E+01    0.947E-01
DAV:   2    -0.320274080568E+02   -0.28831E+00   -0.30387E+00   560   0.162E+01    0.125E+00
DAV:   3    -0.320060728859E+02    0.21335E-01   -0.13104E-01   432   0.948E+00    0.591E-01
DAV:   4    -0.320064850074E+02   -0.41212E-03   -0.37501E-02   432   0.166E+00    0.494E-01
DAV:   5    -0.320046964611E+02    0.17885E-02   -0.46449E-03   448   0.117E+00    0.410E-01
DAV:   6    -0.320024559321E+02    0.22405E-02   -0.12434E-02   588   0.187E+00    0.231E-01
DAV:   7    -0.320017568645E+02    0.69907E-03   -0.31168E-03   496   0.131E+00    0.128E-01
DAV:   8    -0.320016061541E+02    0.15071E-03   -0.26253E-03   508   0.688E-01    0.650E-02
DAV:   9    -0.320016528895E+02   -0.46735E-04   -0.69682E-04   400   0.386E-01
  27 F= -.32001653E+02 E0= -.31993598E+02  d E =-.473094E-01  mag=     0.0054
       N       E                     dE             d eps       ncg     rms          rms(c)
DAV:   1    -0.313833590533E+02    0.61825E+00   -0.65871E+02   520   0.112E+02    0.171E+00
DAV:   2    -0.320304483920E+02   -0.64709E+00   -0.71995E+00   576   0.304E+01    0.224E+00
DAV:   3    -0.319726859956E+02    0.57762E-01   -0.58675E-01   424   0.186E+01    0.861E-01
DAV:   4    -0.319719783860E+02    0.70761E-03   -0.16138E-01   480   0.447E+00    0.520E-01
DAV:   5    -0.319709651802E+02    0.10132E-02   -0.52580E-02   416   0.526E+00    0.363E-01
DAV:   6    -0.319703441686E+02    0.62101E-03   -0.19480E-02   524   0.342E+00    0.167E-01
DAV:   7    -0.319702766170E+02    0.67552E-04   -0.46118E-03   560   0.107E+00    0.802E-02
DAV:   8    -0.319703689872E+02   -0.92370E-04   -0.12701E-03   496   0.659E-01    0.527E-02
DAV:   9    -0.319705659684E+02   -0.19698E-03   -0.56736E-04   376   0.417E-01    0.551E-02
DAV:  10    -0.319706249275E+02   -0.58959E-04   -0.20711E-04   272   0.323E-01
  28 F= -.31970625E+02 E0= -.31961649E+02  d E =-.162814E-01  mag=     0.0036
       N       E                     dE             d eps       ncg     rms          rms(c)
DAV:   1    -0.315025054259E+02    0.46806E+00   -0.39800E+02   488   0.810E+01    0.130E+00
DAV:   2    -0.320456681763E+02   -0.54316E+00   -0.57934E+00   576   0.221E+01    0.171E+00
DAV:   3    -0.320135817608E+02    0.32086E-01   -0.30995E-01   432   0.136E+01    0.772E-01
DAV:   4    -0.320137196251E+02   -0.13786E-03   -0.80960E-02   412   0.257E+00    0.611E-01
DAV:   5    -0.320099077704E+02    0.38119E-02   -0.23678E-02   416   0.332E+00    0.438E-01
DAV:   6    -0.320080372226E+02    0.18705E-02   -0.20141E-02   592   0.245E+00    0.241E-01
DAV:   7    -0.320073244727E+02    0.71275E-03   -0.39819E-03   544   0.108E+00    0.143E-01
DAV:   8    -0.320070587022E+02    0.26577E-03   -0.23988E-03   480   0.757E-01    0.638E-02
DAV:   9    -0.320071196544E+02   -0.60952E-04   -0.86733E-04   424   0.534E-01
  29 F= -.32007120E+02 E0= -.31998922E+02  d E =-.527762E-01  mag=     0.0026
       N       E                     dE             d eps       ncg     rms          rms(c)
DAV:   1    -0.320116249788E+02   -0.45663E-02   -0.15556E+01   400   0.134E+01    0.329E-01
DAV:   2    -0.320414514735E+02   -0.29826E-01   -0.32206E-01   560   0.502E+00    0.429E-01
DAV:   3    -0.320391380282E+02    0.23134E-02   -0.15892E-02   424   0.302E+00    0.223E-01
DAV:   4    -0.320390201045E+02    0.11792E-03   -0.34436E-03   432   0.635E-01    0.185E-01
DAV:   5    -0.320387534293E+02    0.26668E-03   -0.69239E-04   400   0.390E-01    0.137E-01
DAV:   6    -0.320385899382E+02    0.16349E-03   -0.13050E-03   560   0.734E-01    0.691E-02
DAV:   7    -0.320385463331E+02    0.43605E-04   -0.40544E-04   400   0.519E-01
  30 F= -.32038546E+02 E0= -.32030227E+02  d E =-.314267E-01  mag=     0.0021
       N       E                     dE             d eps       ncg     rms          rms(c)
DAV:   1    -0.318281188832E+02    0.21047E+00   -0.14539E+02   408   0.439E+01    0.956E-01
DAV:   2    -0.321108309655E+02   -0.28271E+00   -0.29916E+00   560   0.154E+01    0.117E+00
DAV:   3    -0.320923192138E+02    0.18512E-01   -0.11900E-01   424   0.905E+00    0.569E-01
DAV:   4    -0.320925087611E+02   -0.18955E-03   -0.35275E-02   432   0.182E+00    0.480E-01
DAV:   5    -0.320905681512E+02    0.19406E-02   -0.59036E-03   416   0.140E+00    0.375E-01
DAV:   6    -0.320887388464E+02    0.18293E-02   -0.12465E-02   584   0.183E+00    0.193E-01
DAV:   7    -0.320882469994E+02    0.49185E-03   -0.26916E-03   512   0.119E+00    0.995E-02
DAV:   8    -0.320882202375E+02    0.26762E-04   -0.20821E-03   432   0.565E-01    0.643E-02
DAV:   9    -0.320882347652E+02   -0.14528E-04   -0.39646E-04   384   0.326E-01
  31 F= -.32088235E+02 E0= -.32079498E+02  d E =-.811151E-01  mag=     0.0015
       N       E                     dE             d eps       ncg     rms          rms(c)
DAV:   1    -0.320778062745E+02    0.10414E-01   -0.74222E+00   400   0.922E+00    0.228E-01
DAV:   2    -0.320913619184E+02   -0.13556E-01   -0.14611E-01   560   0.342E+00    0.296E-01
DAV:   3    -0.320902915694E+02    0.10703E-02   -0.81894E-03   432   0.216E+00    0.146E-01
DAV:   4    -0.320902497278E+02    0.41842E-04   -0.17285E-03   480   0.463E-01    0.118E-01
DAV:   5    -0.320901606469E+02    0.89081E-04   -0.29316E-04   312   0.274E-01
  32 F= -.32090161E+02 E0= -.32081312E+02  d E =-.830410E-01  mag=     0.0013
       N       E                     dE             d eps       ncg     rms          rms(c)
DAV:   1    -0.320929618813E+02   -0.27122E-02   -0.16616E+01   392   0.139E+01    0.336E-01
DAV:   2    -0.321228862402E+02   -0.29924E-01   -0.32517E-01   560   0.507E+00    0.411E-01
DAV:   3    -0.321211610268E+02    0.17252E-02   -0.18874E-02   424   0.282E+00    0.229E-01
DAV:   4    -0.321209938667E+02    0.16716E-03   -0.35263E-03   412   0.757E-01    0.192E-01
DAV:   5    -0.321206533907E+02    0.34048E-03   -0.10138E-03   388   0.497E-01    0.127E-01
DAV:   6    -0.321206022445E+02    0.51146E-04   -0.14138E-03   556   0.824E-01    0.627E-02
DAV:   7    -0.321205856411E+02    0.16603E-04   -0.39193E-04   360   0.540E-01
  33 F= -.32120586E+02 E0= -.32111104E+02  d E =-.304250E-01  mag=     0.0010
       N       E                     dE             d eps       ncg     rms          rms(c)
DAV:   1    -0.318588490519E+02    0.26175E+00   -0.15431E+02   392   0.457E+01    0.106E+00
DAV:   2    -0.321848746705E+02   -0.32603E+00   -0.34902E+00   560   0.174E+01    0.124E+00
DAV:   3    -0.321657555979E+02    0.19119E-01   -0.15294E-01   424   0.965E+00    0.645E-01
DAV:   4    -0.321656361279E+02    0.11947E-03   -0.41762E-02   432   0.230E+00    0.547E-01
DAV:   5    -0.321632796695E+02    0.23565E-02   -0.83993E-03   416   0.166E+00    0.427E-01
DAV:   6    -0.321607087633E+02    0.25709E-02   -0.14304E-02   632   0.223E+00    0.196E-01
DAV:   7    -0.321602969374E+02    0.41183E-03   -0.37067E-03   544   0.118E+00    0.788E-02
DAV:   8    -0.321603653600E+02   -0.68423E-04   -0.17224E-03   448   0.480E-01    0.630E-02
DAV:   9    -0.321603944741E+02   -0.29114E-04   -0.37802E-04   384   0.359E-01
  34 F= -.32160394E+02 E0= -.32149156E+02  d E =-.702338E-01  mag=     0.0007
       N       E                     dE             d eps       ncg     rms          rms(c)
DAV:   1    -0.321397763055E+02    0.20589E-01   -0.27948E+01   392   0.181E+01    0.448E-01
DAV:   2    -0.321958180786E+02   -0.56042E-01   -0.60668E-01   560   0.741E+00    0.548E-01
DAV:   3    -0.321923129444E+02    0.35051E-02   -0.30574E-02   432   0.409E+00    0.290E-01
DAV:   4    -0.321922125894E+02    0.10035E-03   -0.71793E-03   432   0.967E-01    0.245E-01
DAV:   5    -0.321917809108E+02    0.43168E-03   -0.14536E-03   400   0.644E-01    0.182E-01
DAV:   6    -0.321914819942E+02    0.29892E-03   -0.18873E-03   512   0.106E+00    0.909E-02
DAV:   7    -0.321915038249E+02   -0.21831E-04   -0.12868E-03   528   0.558E-01    0.312E-02
DAV:   8    -0.321915198101E+02   -0.15985E-04   -0.17752E-04   272   0.177E-01
  35 F= -.32191520E+02 E0= -.32179414E+02  d E =-.311253E-01  mag=     0.0005
       N       E                     dE             d eps       ncg     rms          rms(c)
DAV:   1    -0.320518601856E+02    0.13964E+00   -0.80806E+01   392   0.318E+01    0.776E-01
DAV:   2    -0.322230353947E+02   -0.17118E+00   -0.18461E+00   560   0.134E+01    0.931E-01
DAV:   3    -0.322121169502E+02    0.10918E-01   -0.85081E-02   420   0.738E+00    0.467E-01
DAV:   4    -0.322122370731E+02   -0.12012E-03   -0.22658E-02   432   0.163E+00    0.400E-01
DAV:   5    -0.322111974911E+02    0.10396E-02   -0.43528E-03   416   0.118E+00    0.315E-01
DAV:   6    -0.322099444525E+02    0.12530E-02   -0.59574E-03   652   0.166E+00    0.143E-01
DAV:   7    -0.322098165615E+02    0.12789E-03   -0.23888E-03   560   0.866E-01    0.518E-02
DAV:   8    -0.322098424844E+02   -0.25923E-04   -0.51578E-04   408   0.316E-01
  36 F= -.32209842E+02 E0= -.32196274E+02  d E =-.494480E-01  mag=     0.0004
       N       E                     dE             d eps       ncg     rms          rms(c)
DAV:   1    -0.321574864061E+02    0.52330E-01   -0.43968E+01   392   0.230E+01    0.542E-01
DAV:   2    -0.322458685252E+02   -0.88382E-01   -0.93860E-01   560   0.849E+00    0.656E-01
DAV:   3    -0.322405061398E+02    0.53624E-02   -0.39481E-02   432   0.472E+00    0.359E-01
DAV:   4    -0.322403044681E+02    0.20167E-03   -0.10384E-02   416   0.112E+00    0.305E-01
DAV:   5    -0.322394353562E+02    0.86911E-03   -0.21739E-03   416   0.801E-01    0.221E-01
DAV:   6    -0.322388925936E+02    0.54276E-03   -0.40680E-03   616   0.123E+00    0.938E-02
DAV:   7    -0.322388490079E+02    0.43586E-04   -0.10730E-03   496   0.734E-01    0.352E-02
DAV:   8    -0.322389039167E+02   -0.54909E-04   -0.45791E-04   384   0.249E-01
  37 F= -.32238904E+02 E0= -.32225238E+02  d E =-.290614E-01  mag=     0.0003
       N       E                     dE             d eps       ncg     rms          rms(c)
DAV:   1    -0.320451237490E+02    0.19373E+00   -0.11396E+02   392   0.385E+01    0.870E-01
DAV:   2    -0.322859967068E+02   -0.24087E+00   -0.25431E+00   560   0.146E+01    0.105E+00
DAV:   3    -0.322715691405E+02    0.14428E-01   -0.10088E-01   432   0.800E+00    0.553E-01
DAV:   4    -0.322715501855E+02    0.18955E-04   -0.29250E-02   416   0.175E+00    0.477E-01
DAV:   5    -0.322696699898E+02    0.18802E-02   -0.56230E-03   416   0.142E+00    0.375E-01
DAV:   6    -0.322676552978E+02    0.20147E-02   -0.10610E-02   632   0.183E+00    0.169E-01
DAV:   7    -0.322673566574E+02    0.29864E-03   -0.26681E-03   528   0.101E+00    0.798E-02
DAV:   8    -0.322673910210E+02   -0.34364E-04   -0.13234E-03   464   0.451E-01    0.614E-02
DAV:   9    -0.322674072655E+02   -0.16245E-04   -0.33042E-04   336   0.318E-01
  38 F= -.32267407E+02 E0= -.32253756E+02  d E =-.575648E-01  mag=     0.0002
       N       E                     dE             d eps       ncg     rms          rms(c)
DAV:   1    -0.318107317387E+02    0.45666E+00   -0.50578E+02   520   0.947E+01    0.168E+00
DAV:   2    -0.323349071433E+02   -0.52418E+00   -0.60270E+00   560   0.333E+01    0.229E+00
DAV:   3    -0.322743019936E+02    0.60605E-01   -0.60715E-01   416   0.187E+01    0.906E-01
DAV:   4    -0.322720134615E+02    0.22885E-02   -0.14550E-01   464   0.500E+00    0.533E-01
DAV:   5    -0.322705870229E+02    0.14264E-02   -0.50533E-02   408   0.445E+00    0.327E-01
DAV:   6    -0.322705975187E+02   -0.10496E-04   -0.18307E-02   496   0.324E+00    0.181E-01
DAV:   7    -0.322703827580E+02    0.21476E-03   -0.45605E-03   512   0.158E+00    0.690E-02
DAV:   8    -0.322706209263E+02   -0.23817E-03   -0.19869E-03   592   0.768E-01    0.718E-02
DAV:   9    -0.322707486291E+02   -0.12770E-03   -0.48513E-04   400   0.245E-01    0.605E-02
DAV:  10    -0.322707758862E+02   -0.27257E-04   -0.81987E-05   272   0.304E-01
  39 F= -.32270776E+02 E0= -.32257639E+02  d E =-.609334E-01  mag=     0.0001
       N       E                     dE             d eps       ncg     rms          rms(c)
DAV:   1    -0.320560987859E+02    0.21465E+00   -0.11407E+02   392   0.387E+01    0.856E-01
DAV:   2    -0.322958853725E+02   -0.23979E+00   -0.25212E+00   560   0.136E+01    0.105E+00
DAV:   3    -0.322822433097E+02    0.13642E-01   -0.10123E-01   416   0.789E+00    0.552E-01
DAV:   4    -0.322820886921E+02    0.15462E-03   -0.27369E-02   416   0.169E+00    0.477E-01
DAV:   5    -0.322801588507E+02    0.19298E-02   -0.48427E-03   416   0.117E+00    0.361E-01
DAV:   6    -0.322784528473E+02    0.17060E-02   -0.10760E-02   616   0.184E+00    0.171E-01
DAV:   7    -0.322781047353E+02    0.34811E-03   -0.23726E-03   560   0.116E+00    0.727E-02
DAV:   8    -0.322781300253E+02   -0.25290E-04   -0.13264E-03   512   0.497E-01    0.541E-02
DAV:   9    -0.322781519922E+02   -0.21967E-04   -0.35058E-04   336   0.311E-01
  40 F= -.32278152E+02 E0= -.32264705E+02  d E =-.683095E-01  mag=     0.0001
       N       E                     dE             d eps       ncg     rms          rms(c)
DAV:   1    -0.322579958020E+02    0.20134E-01   -0.26801E+01   392   0.178E+01    0.382E-01
DAV:   2    -0.323108431585E+02   -0.52847E-01   -0.55229E-01   568   0.598E+00    0.500E-01
DAV:   3    -0.323079453650E+02    0.28978E-02   -0.20294E-02   424   0.327E+00    0.288E-01
DAV:   4    -0.323076898218E+02    0.25554E-03   -0.50681E-03   416   0.844E-01    0.247E-01
DAV:   5    -0.323070995077E+02    0.59031E-03   -0.13761E-03   456   0.615E-01    0.172E-01
DAV:   6    -0.323067908257E+02    0.30868E-03   -0.25174E-03   608   0.954E-01    0.711E-02
DAV:   7    -0.323067543166E+02    0.36509E-04   -0.58575E-04   448   0.559E-01
  41 F= -.32306754E+02 E0= -.32293588E+02  d E =-.286023E-01  mag=     0.0001
       N       E                     dE             d eps       ncg     rms          rms(c)
DAV:   1    -0.319312840259E+02    0.37551E+00   -0.25773E+02   424   0.618E+01    0.119E+00
DAV:   2    -0.323972699116E+02   -0.46599E+00   -0.49307E+00   576   0.224E+01    0.159E+00
DAV:   3    -0.323682842187E+02    0.28986E-01   -0.25707E-01   408   0.123E+01    0.761E-01
DAV:   4    -0.323688487252E+02   -0.56451E-03   -0.66455E-02   432   0.262E+00    0.638E-01
DAV:   5    -0.323660829930E+02    0.27657E-02   -0.15890E-02   416   0.252E+00    0.530E-01
DAV:   6    -0.323625400181E+02    0.35430E-02   -0.24536E-02   600   0.226E+00    0.294E-01
DAV:   7    -0.323614114245E+02    0.11286E-02   -0.48736E-03   528   0.114E+00    0.165E-01
DAV:   8    -0.323610784288E+02    0.33300E-03   -0.32683E-03   472   0.819E-01    0.742E-02
DAV:   9    -0.323611636114E+02   -0.85183E-04   -0.11490E-03   448   0.549E-01    0.506E-02
DAV:  10    -0.323612113032E+02   -0.47692E-04   -0.25220E-04   288   0.288E-01
  42 F= -.32361211E+02 E0= -.32348973E+02  d E =-.830593E-01  mag=     0.0001
       N       E                     dE             d eps       ncg     rms          rms(c)
DAV:   1    -0.315542215939E+02    0.80694E+00   -0.13047E+03   552   0.182E+02    0.242E+00
DAV:   2    -0.323665041655E+02   -0.81228E+00   -0.96865E+00   560   0.423E+01    0.303E+00
DAV:   3    -0.322572414874E+02    0.10926E+00   -0.10997E+00   432   0.252E+01    0.104E+00
DAV:   4    -0.322627358175E+02   -0.54943E-02   -0.35408E-01   504   0.785E+00    0.715E-01
DAV:   5    -0.322630880743E+02   -0.35226E-03   -0.99648E-02   432   0.591E+00    0.362E-01
DAV:   6    -0.322631157812E+02   -0.27707E-04   -0.32906E-02   432   0.433E+00    0.166E-01
DAV:   7    -0.322635647650E+02   -0.44898E-03   -0.70174E-03   576   0.146E+00    0.113E-01
DAV:   8    -0.322637478524E+02   -0.18309E-03   -0.22635E-03   416   0.873E-01    0.616E-02
DAV:   9    -0.322640114175E+02   -0.26357E-03   -0.95174E-04   432   0.625E-01    0.327E-02
DAV:  10    -0.322641773372E+02   -0.16592E-03   -0.15142E-04   272   0.246E-01    0.149E-02
DAV:  11    -0.322642720243E+02   -0.94687E-04   -0.66782E-05   288   0.148E-01
  43 F= -.32264272E+02 E0= -.32253596E+02  d E =0.138800E-01  mag=     0.0000
       N       E                     dE             d eps       ncg     rms          rms(c)
DAV:   1    -0.318934472204E+02    0.37073E+00   -0.80731E+02   536   0.129E+02    0.194E+00
DAV:   2    -0.324262061670E+02   -0.53276E+00   -0.63916E+00   576   0.316E+01    0.226E+00
DAV:   3    -0.323652582575E+02    0.60948E-01   -0.65595E-01   416   0.202E+01    0.831E-01
DAV:   4    -0.323685332006E+02   -0.32749E-02   -0.20566E-01   464   0.532E+00    0.600E-01
DAV:   5    -0.323676436734E+02    0.88953E-03   -0.65811E-02   384   0.484E+00    0.337E-01
DAV:   6    -0.323671245291E+02    0.51914E-03   -0.22162E-02   432   0.359E+00    0.117E-01
DAV:   7    -0.323674113184E+02   -0.28679E-03   -0.47112E-03   608   0.132E+00    0.851E-02
DAV:   8    -0.323674444948E+02   -0.33176E-04   -0.11481E-03   416   0.701E-01    0.569E-02
DAV:   9    -0.323676226483E+02   -0.17815E-03   -0.87868E-04   440   0.519E-01    0.494E-02
DAV:  10    -0.323676407417E+02   -0.18093E-04   -0.17932E-04   288   0.330E-01
  44 F= -.32367641E+02 E0= -.32355742E+02  d E =-.894887E-01  mag=     0.0000
       N       E                     dE             d eps       ncg     rms          rms(c)
DAV:   1    -0.323441224020E+02    0.23500E-01   -0.32713E+01   392   0.195E+01    0.476E-01
DAV:   2    -0.324111277021E+02   -0.67005E-01   -0.71807E-01   576   0.764E+00    0.566E-01
DAV:   3    -0.324068271162E+02    0.43006E-02   -0.28248E-02   424   0.416E+00    0.305E-01
DAV:   4    -0.324066525592E+02    0.17456E-03   -0.71942E-03   448   0.873E-01    0.254E-01
DAV:   5    -0.324062036515E+02    0.44891E-03   -0.12200E-03   432   0.611E-01    0.199E-01
DAV:   6    -0.324058059896E+02    0.39766E-03   -0.22996E-03   560   0.103E+00    0.102E-01
DAV:   7    -0.324057430712E+02    0.62918E-04   -0.10893E-03   560   0.596E-01    0.327E-02
DAV:   8    -0.324057576679E+02   -0.14597E-04   -0.28110E-04   304   0.254E-01
  45 F= -.32405758E+02 E0= -.32393245E+02  d E =-.381169E-01  mag=     0.0000
       N       E                     dE             d eps       ncg     rms          rms(c)
DAV:   1    -0.317944823056E+02    0.61126E+00   -0.32916E+02   424   0.721E+01    0.156E+00
DAV:   2    -0.325218648365E+02   -0.72738E+00   -0.78144E+00   576   0.292E+01    0.194E+00
DAV:   3    -0.324773859250E+02    0.44479E-01   -0.45026E-01   408   0.164E+01    0.855E-01
DAV:   4    -0.324800835143E+02   -0.26976E-02   -0.10418E-01   432   0.335E+00    0.703E-01
DAV:   5    -0.324783077968E+02    0.17757E-02   -0.19303E-02   416   0.245E+00    0.628E-01
DAV:   6    -0.324730069808E+02    0.53008E-02   -0.29315E-02   616   0.239E+00    0.355E-01
DAV:   7    -0.324709861839E+02    0.20208E-02   -0.67917E-03   464   0.180E+00    0.172E-01
DAV:   8    -0.324707395286E+02    0.24666E-03   -0.55280E-03   608   0.118E+00    0.781E-02
DAV:   9    -0.324708513527E+02   -0.11182E-03   -0.14846E-03   432   0.565E-01    0.548E-02
DAV:  10    -0.324708922478E+02   -0.40895E-04   -0.28078E-04   336   0.256E-01
  46 F= -.32470892E+02 E0= -.32456483E+02  d E =-.103252E+00  mag=     0.0000
       N       E                     dE             d eps       ncg     rms          rms(c)
DAV:   1    -0.324202577811E+02    0.50594E-01   -0.28702E+01   392   0.183E+01    0.444E-01
DAV:   2    -0.324786561764E+02   -0.58398E-01   -0.62384E-01   572   0.728E+00    0.535E-01
DAV:   3    -0.324748506323E+02    0.38055E-02   -0.25748E-02   416   0.396E+00    0.287E-01
DAV:   4    -0.324746875701E+02    0.16306E-03   -0.64154E-03   432   0.806E-01    0.239E-01
DAV:   5    -0.324742576047E+02    0.42997E-03   -0.10762E-03   400   0.591E-01    0.185E-01
DAV:   6    -0.324738887118E+02    0.36889E-03   -0.21225E-03   568   0.982E-01    0.900E-02
DAV:   7    -0.324738463460E+02    0.42366E-04   -0.89393E-04   512   0.570E-01
  47 F= -.32473846E+02 E0= -.32458873E+02  d E =-.106206E+00  mag=     0.0000
       N       E                     dE             d eps       ncg     rms          rms(c)
DAV:   1    -0.323937632711E+02    0.80125E-01   -0.63320E+01   392   0.277E+01    0.687E-01
DAV:   2    -0.325312443719E+02   -0.13748E+00   -0.14683E+00   552   0.117E+01    0.783E-01
DAV:   3    -0.325225675872E+02    0.86768E-02   -0.58170E-02   408   0.618E+00    0.401E-01
DAV:   4    -0.325226738616E+02   -0.10627E-03   -0.16096E-02   416   0.110E+00    0.336E-01
DAV:   5    -0.325219332841E+02    0.74058E-03   -0.16298E-03   496   0.679E-01    0.280E-01
DAV:   6    -0.325209087090E+02    0.10246E-02   -0.46586E-03   600   0.127E+00    0.148E-01
DAV:   7    -0.325206021492E+02    0.30656E-03   -0.16146E-03   496   0.941E-01    0.675E-02
DAV:   8    -0.325206108508E+02   -0.87016E-05   -0.11144E-03   528   0.458E-01    0.466E-02
DAV:   9    -0.325206248902E+02   -0.14039E-04   -0.26237E-04   320   0.230E-01
  48 F= -.32520625E+02 E0= -.32504957E+02  d E =-.467785E-01  mag=     0.0000
       N       E                     dE             d eps       ncg     rms          rms(c)
DAV:   1    -0.318927649653E+02    0.62785E+00   -0.66780E+02   504   0.115E+02    0.180E+00
DAV:   2    -0.326018019841E+02   -0.70904E+00   -0.79643E+00   576   0.333E+01    0.209E+00
DAV:   3    -0.325548779166E+02    0.46924E-01   -0.66225E-01   432   0.185E+01    0.780E-01
DAV:   4    -0.325586112723E+02   -0.37334E-02   -0.16197E-01   472   0.424E+00    0.502E-01
DAV:   5    -0.325589058821E+02   -0.29461E-03   -0.54749E-02   424   0.511E+00    0.385E-01
DAV:   6    -0.325578079362E+02    0.10979E-02   -0.16801E-02   560   0.323E+00    0.198E-01
DAV:   7    -0.325573591329E+02    0.44880E-03   -0.40818E-03   544   0.122E+00    0.844E-02
DAV:   8    -0.325574644334E+02   -0.10530E-03   -0.22325E-03   592   0.859E-01    0.615E-02
DAV:   9    -0.325575560692E+02   -0.91636E-04   -0.58161E-04   432   0.414E-01
  49 F= -.32557556E+02 E0= -.32540389E+02  d E =-.837097E-01  mag=     0.0000
       N       E                     dE             d eps       ncg     rms          rms(c)
DAV:   1    -0.324284682133E+02    0.12900E+00   -0.67867E+01   392   0.291E+01    0.597E-01
DAV:   2    -0.325733191309E+02   -0.14485E+00   -0.14898E+00   576   0.851E+00    0.703E-01
DAV:   3    -0.325675698330E+02    0.57493E-02   -0.45383E-02   416   0.512E+00    0.399E-01
DAV:   4    -0.325672282133E+02    0.34162E-03   -0.10388E-02   416   0.108E+00    0.344E-01
DAV:   5    -0.325661746594E+02    0.10536E-02   -0.27039E-03   480   0.843E-01    0.257E-01
DAV:   6    -0.325653653921E+02    0.80927E-03   -0.53942E-03   600   0.127E+00    0.110E-01
DAV:   7    -0.325652110546E+02    0.15434E-03   -0.92510E-04   480   0.742E-01    0.511E-02
DAV:   8    -0.325652388463E+02   -0.27792E-04   -0.83262E-04   416   0.369E-01
  50 F= -.32565239E+02 E0= -.32548555E+02  d E =-.913925E-01  mag=     0.0000
       N       E                     dE             d eps       ncg     rms          rms(c)
DAV:   1    -0.325599203688E+02    0.52907E-02   -0.39817E+00   392   0.666E+00    0.170E-01
DAV:   2    -0.325669411701E+02   -0.70208E-02   -0.77772E-02   568   0.296E+00    0.222E-01
DAV:   3    -0.325663139221E+02    0.62725E-03   -0.46730E-03   416   0.167E+00    0.112E-01
DAV:   4    -0.325663233165E+02   -0.93944E-05   -0.11216E-03   400   0.272E-01    0.951E-02
DAV:   5    -0.325662511661E+02    0.72150E-04   -0.93382E-05   256   0.169E-01
  51 F= -.32566251E+02 E0= -.32549432E+02  d E =-.924048E-01  mag=     0.0000
       N       E                     dE             d eps       ncg     rms          rms(c)
DAV:   1    -0.325558342106E+02    0.10489E-01   -0.22659E+01   392   0.164E+01    0.393E-01
DAV:   2    -0.326002391410E+02   -0.44405E-01   -0.47941E-01   568   0.529E+00    0.489E-01
DAV:   3    -0.325974379078E+02    0.28012E-02   -0.22157E-02   432   0.308E+00    0.270E-01
DAV:   4    -0.325972495787E+02    0.18833E-03   -0.46786E-03   480   0.885E-01    0.216E-01
DAV:   5    -0.325969729252E+02    0.27665E-03   -0.99997E-04   400   0.494E-01    0.161E-01
DAV:   6    -0.325968977959E+02    0.75129E-04   -0.18183E-03   640   0.911E-01    0.883E-02
DAV:   7    -0.325967993993E+02    0.98397E-04   -0.55051E-04   416   0.662E-01
  52 F= -.32596799E+02 E0= -.32580068E+02  d E =-.305482E-01  mag=     0.0000
       N       E                     dE             d eps       ncg     rms          rms(c)
DAV:   1    -0.325884991631E+02    0.83986E-02   -0.82396E+00   392   0.980E+00    0.235E-01
DAV:   2    -0.326029424899E+02   -0.14443E-01   -0.15740E-01   568   0.312E+00    0.278E-01
DAV:   3    -0.326020592107E+02    0.88328E-03   -0.80330E-03   416   0.185E+00    0.147E-01
DAV:   4    -0.326020371489E+02    0.22062E-04   -0.17174E-03   480   0.557E-01    0.114E-01
DAV:   5    -0.326019984893E+02    0.38660E-04   -0.31361E-04   304   0.301E-01
  53 F= -.32601998E+02 E0= -.32585362E+02  d E =-.357473E-01  mag=     0.0000
       N       E                     dE             d eps       ncg     rms          rms(c)
DAV:   1    -0.325965140898E+02    0.55231E-02   -0.95321E+00   392   0.106E+01    0.229E-01
DAV:   2    -0.326134259601E+02   -0.16912E-01   -0.17890E-01   568   0.321E+00    0.284E-01
DAV:   3    -0.326125810635E+02    0.84490E-03   -0.83642E-03   432   0.192E+00    0.160E-01
DAV:   4    -0.326125324149E+02    0.48649E-04   -0.17081E-03   464   0.568E-01    0.133E-01
DAV:   5    -0.326124468373E+02    0.85578E-04   -0.34226E-04   320   0.265E-01
  54 F= -.32612447E+02 E0= -.32595724E+02  d E =-.104483E-01  mag=     0.0000
       N       E                     dE             d eps       ncg     rms          rms(c)
DAV:   1    -0.326030409465E+02    0.94915E-02   -0.73696E+00   392   0.930E+00    0.196E-01
DAV:   2    -0.326156594579E+02   -0.12619E-01   -0.13314E-01   568   0.267E+00    0.233E-01
DAV:   3    -0.326150864958E+02    0.57296E-03   -0.54663E-03   432   0.154E+00    0.135E-01
DAV:   4    -0.326150527598E+02    0.33736E-04   -0.12076E-03   416   0.525E-01    0.112E-01
DAV:   5    -0.326150052135E+02    0.47546E-04   -0.24553E-04   288   0.233E-01
  55 F= -.32615005E+02 E0= -.32598202E+02  d E =-.130067E-01  mag=     0.0000
       N       E                     dE             d eps       ncg     rms          rms(c)
DAV:   1    -0.326042633731E+02    0.10789E-01   -0.95381E+00   392   0.105E+01    0.240E-01
DAV:   2    -0.326214476084E+02   -0.17184E-01   -0.18270E-01   576   0.348E+00    0.303E-01
DAV:   3    -0.326203698184E+02    0.10778E-02   -0.94999E-03   424   0.212E+00    0.163E-01
DAV:   4    -0.326203270566E+02    0.42762E-04   -0.19697E-03   496   0.495E-01    0.131E-01
DAV:   5    -0.326202456938E+02    0.81363E-04   -0.33422E-04   336   0.289E-01
  56 F= -.32620246E+02 E0= -.32603136E+02  d E =-.524048E-02  mag=     0.0000
       N       E                     dE             d eps       ncg     rms          rms(c)
DAV:   1    -0.326177747059E+02    0.25524E-02   -0.17998E+00   408   0.456E+00    0.836E-02
DAV:   2    -0.326205171323E+02   -0.27424E-02   -0.28397E-02   560   0.115E+00    0.942E-02
DAV:   3    -0.326204184883E+02    0.98644E-04   -0.79255E-04   392   0.640E-01
  57 F= -.32620418E+02 E0= -.32603186E+02  d E =-.541327E-02  mag=     0.0000
       N       E                     dE             d eps       ncg     rms          rms(c)
DAV:   1    -0.326152785542E+02    0.52386E-02   -0.47133E+00   392   0.745E+00    0.161E-01
DAV:   2    -0.326235133814E+02   -0.82348E-02   -0.87380E-02   552   0.225E+00    0.197E-01
DAV:   3    -0.326231609105E+02    0.35247E-03   -0.43957E-03   416   0.133E+00    0.108E-01
DAV:   4    -0.326231488206E+02    0.12090E-04   -0.89406E-04   400   0.455E-01
  58 F= -.32623149E+02 E0= -.32605861E+02  d E =-.273033E-02  mag=     0.0000
       N       E                     dE             d eps       ncg     rms          rms(c)
DAV:   1    -0.326229034040E+02    0.25751E-03   -0.16065E-01   400   0.140E+00    0.647E-02
DAV:   2    -0.326232706157E+02   -0.36721E-03   -0.39346E-03   560   0.639E-01    0.448E-02
DAV:   3    -0.326232552526E+02    0.15363E-04   -0.29441E-04   296   0.535E-01
  59 F= -.32623255E+02 E0= -.32605985E+02  d E =-.283676E-02  mag=     0.0000
       N       E                     dE             d eps       ncg     rms          rms(c)
DAV:   1    -0.326217064859E+02    0.15641E-02   -0.20721E+00   392   0.492E+00    0.978E-02
DAV:   2    -0.326251589845E+02   -0.34525E-02   -0.36177E-02   576   0.147E+00    0.130E-01
DAV:   3    -0.326249796597E+02    0.17932E-03   -0.16602E-03   392   0.840E-01    0.747E-02
DAV:   4    -0.326249598432E+02    0.19817E-04   -0.22940E-04   240   0.206E-01
  60 F= -.32624960E+02 E0= -.32607597E+02  d E =-.170459E-02  mag=     0.0000
       N       E                     dE             d eps       ncg     rms          rms(c)
DAV:   1    -0.326250117169E+02   -0.32057E-04   -0.10869E-02   544   0.419E-01    0.419E-02
DAV:   2    -0.326250052440E+02    0.64729E-05   -0.10171E-04   256   0.256E-01
  61 F= -.32625005E+02 E0= -.32607638E+02  d E =-.174999E-02  mag=     0.0000
       N       E                     dE             d eps       ncg     rms          rms(c)
DAV:   1    -0.326247792689E+02    0.23245E-03   -0.77290E-01   408   0.295E+00    0.573E-02
DAV:   2    -0.326260159847E+02   -0.12367E-02   -0.12894E-02   536   0.843E-01    0.777E-02
DAV:   3    -0.326259447485E+02    0.71236E-04   -0.46695E-04   400   0.513E-01
  62 F= -.32625945E+02 E0= -.32608534E+02  d E =-.939505E-03  mag=     0.0000
       N       E                     dE             d eps       ncg     rms          rms(c)
DAV:   1    -0.326260385841E+02   -0.22599E-04   -0.75044E-02   408   0.921E-01    0.373E-02
DAV:   2    -0.326261428322E+02   -0.10425E-03   -0.11940E-03   512   0.265E-01    0.344E-02
DAV:   3    -0.326261401244E+02    0.27079E-05   -0.11248E-04   216   0.201E-01
  63 F= -.32626140E+02 E0= -.32608715E+02  d E =-.113488E-02  mag=     0.0000
