 vasp.6.1.2 22Jul20 (build Jan 14 2022 17:24:41) gamma-only                      
 executed on             LinuxPGI date 2022.01.31  15:26:13
 running on    8 total cores
 distrk:  each k-point on    8 cores,    1 groups
 distr:  one band on NCORE=   8 cores,    1 groups


--------------------------------------------------------------------------------------------------------


 INCAR:
 POTCAR:    PAW_PBE Cu 22Jun2005                  
 -----------------------------------------------------------------------------
|                                                                             |
|           W    W    AA    RRRRR   N    N  II  N    N   GGGG   !!!           |
|           W    W   A  A   R    R  NN   N  II  NN   N  G    G  !!!           |
|           W    W  A    A  R    R  N N  N  II  N N  N  G       !!!           |
|           W WW W  AAAAAA  RRRRR   N  N N  II  N  N N  G  GGG   !            |
|           WW  WW  A    A  R   R   N   NN  II  N   NN  G    G                |
|           W    W  A    A  R    R  N    N  II  N    N   GGGG   !!!           |
|                                                                             |
|     You use a magnetic or noncollinear calculation, but did not specify     |
|     the initial magnetic moment with the MAGMOM tag. Note that a            |
|     default of 1 will be used for all atoms. This ferromagnetic setup       |
|     may break the symmetry of the crystal, in particular it may rule        |
|     out finding an antiferromagnetic solution. Thence, we recommend         |
|     setting the initial magnetic moment manually or verifying carefully     |
|     that this magnetic setup is desired.                                    |
|                                                                             |
 -----------------------------------------------------------------------------

 -----------------------------------------------------------------------------
|                                                                             |
|           W    W    AA    RRRRR   N    N  II  N    N   GGGG   !!!           |
|           W    W   A  A   R    R  NN   N  II  NN   N  G    G  !!!           |
|           W    W  A    A  R    R  N N  N  II  N N  N  G       !!!           |
|           W WW W  AAAAAA  RRRRR   N  N N  II  N  N N  G  GGG   !            |
|           WW  WW  A    A  R   R   N   NN  II  N   NN  G    G                |
|           W    W  A    A  R    R  N    N  II  N    N   GGGG   !!!           |
|                                                                             |
|     For optimal performance we recommend to set                             |
|       NCORE = 4 - approx SQRT(number of cores).                             |
|     NCORE specifies how many cores store one orbital (NPAR=cpu/NCORE).      |
|     This setting can greatly improve the performance of VASP for DFT.       |
|     The default, NCORE=1 might be grossly inefficient on modern             |
|     multi-core architectures or massively parallel machines. Do your        |
|     own testing!!!!                                                         |
|     Unfortunately you need to use the default for GW and RPA                |
|     calculations (for HF NCORE is supported but not extensively tested      |
|     yet).                                                                   |
|                                                                             |
 -----------------------------------------------------------------------------

 POTCAR:    PAW_PBE Cu 22Jun2005                  
   SHA256 =  0e71e558f37a4e8407882b4609ceaae59938afaad9ced71dfe8490308a0ab630 Cu/POTCAR             
   COPYR  = (c) Copyright 22Jun2005 Georg Kresse                                                    
   COPYR  = This file is part of the software VASP. Any use, copying, and all other rights are regul
   COPYR  = If you do not have a valid VASP license, you may not use, copy or distribute this file. 
   VRHFIN =Cu: d10 p1                                                                               
   LEXCH  = PE                                                                                      
   EATOM  =  1390.9808 eV,  102.2342 Ry                                                             
                                                                                                    
   TITEL  = PAW_PBE Cu 22Jun2005                                                                    
   LULTRA =        F    use ultrasoft PP ?                                                          
   IUNSCR =        1    unscreen: 0-lin 1-nonlin 2-no                                               
   RPACOR =    2.000    partial core radius                                                         
   POMASS =   63.546; ZVAL   =   11.000    mass and valenz                                          
   RCORE  =    2.300    outmost cutoff radius                                                       
   RWIGS  =    2.200; RWIGS  =    1.164    wigner-seitz radius (au A)                               
   ENMAX  =  295.446; ENMIN  =  221.585 eV                                                          
   ICORE  =        3    local potential                                                             
   LCOR   =        T    correct aug charges                                                         
   LPAW   =        T    paw PP                                                                      
   EAUG   =  586.980                                                                                
   DEXC   =    0.000                                                                                
   RMAX   =    2.344    core radius for proj-oper                                                   
   RAUG   =    1.300    factor for augmentation sphere                                              
   RDEP   =    2.302    radius for radial grids                                                     
   RDEPT  =    1.771    core radius for aug-charge                                                  
                                                                                                    
   Atomic configuration                                                                             
    9 entries                                                                                       
     n  l   j            E        occ.                                                              
     1  0  0.50     -8850.2468   2.0000                                                             
     2  0  0.50     -1062.3498   2.0000                                                             
     2  1  1.50      -916.8226   6.0000                                                             
     3  0  0.50      -114.6929   2.0000                                                             
     3  1  1.50       -72.1325   6.0000                                                             
     3  2  2.50        -5.0394  10.0000                                                             
     4  0  0.50        -4.6097   1.0000                                                             
     4  1  0.50        -4.0817   0.0000                                                             
     4  3  2.50        -1.3606   0.0000                                                             
   Description                                                                                      
     l       E           TYP  RCUT    TYP  RCUT                                                     
     2     -5.0393973     23  2.200                                                                 
     2     10.8846608     23  2.200                                                                 
     0     -4.6097109     23  2.200                                                                 
     0      8.2520465     23  2.200                                                                 
     1     -2.7211652     23  2.200                                                                 
     1     21.7055443     23  2.200                                                                 
     3      2.7211652     23  2.300                                                                 
  local pseudopotential read in
  partial core-charges read in
  partial kinetic energy density read in
  atomic valenz-charges read in
  non local Contribution for L=            2  read in
    real space projection operators read in
  non local Contribution for L=            2  read in
    real space projection operators read in
  non local Contribution for L=            0  read in
    real space projection operators read in
  non local Contribution for L=            0  read in
    real space projection operators read in
  non local Contribution for L=            1  read in
    real space projection operators read in
  non local Contribution for L=            1  read in
    real space projection operators read in
    PAW grid and wavefunctions read in
 
   number of l-projection  operators is LMAX  =            6
   number of lm-projection operators is LMMAX =           18
 
  PAW_PBE Cu 22Jun2005                  :
 energy of atom  1       EATOM=-1390.9808
 kinetic energy error for atom=    0.0232 (will be added to EATOM!!)
 
 
 POSCAR: Cu
  positions in cartesian coordinates
  No initial velocities read in
 exchange correlation table for  LEXCH =        8
   RHO(1)=    0.500       N(1)  =     2000
   RHO(2)=  100.500       N(2)  =     4000
 


--------------------------------------------------------------------------------------------------------


 ion  position               nearest neighbor table
   1  0.559  0.490  0.471-   7 2.45   8 2.46   9 2.47   3 2.48  10 2.49  12 2.49   2 2.62
   2  0.541  0.580  0.537-   8 2.43   3 2.45   9 2.47  12 2.47   4 2.51   1 2.62
   3  0.491  0.563  0.442-  10 2.45   2 2.45   4 2.46   1 2.48   6 2.50
   4  0.438  0.574  0.537-   5 2.42   3 2.46   6 2.47   9 2.47   2 2.51  11 2.52
   5  0.339  0.563  0.536-   6 2.41   4 2.42  11 2.42
   6  0.390  0.540  0.445-   5 2.41  10 2.45   4 2.47   3 2.50  11 2.51
   7  0.654  0.464  0.495-   8 2.39  12 2.40   1 2.45
   8  0.630  0.562  0.490-   7 2.39   2 2.43   1 2.46  12 2.49
   9  0.495  0.490  0.558-  13 2.41   1 2.47   4 2.47   2 2.47  11 2.51  12 2.52  10 2.54
  10  0.460  0.465  0.453-  13 2.39   3 2.45   6 2.45  11 2.48   1 2.49   9 2.54
  11  0.394  0.478  0.538-   5 2.42  13 2.46  10 2.48   9 2.51   6 2.51   4 2.52
  12  0.597  0.501  0.575-   7 2.40   2 2.47   1 2.49   8 2.49   9 2.52
  13  0.459  0.398  0.534-  10 2.39   9 2.41  11 2.46
 

IMPORTANT INFORMATION: All symmetrisations will be switched off!
NOSYMM: (Re-)initialisation of all symmetry stuff for point group C_1.


----------------------------------------------------------------------------------------

                                     Primitive cell                                     

  volume of cell :   12705.3770

  direct lattice vectors                    reciprocal lattice vectors
    24.264921133  0.000000000  0.000000000     0.041211756  0.000000000  0.000000000
     0.000000000 23.767820890  0.000000000     0.000000000  0.042073693  0.000000000
     0.000000000  0.000000000 22.030243867     0.000000000  0.000000000  0.045392144

  length of vectors
    24.264921133 23.767820890 22.030243867     0.041211756  0.042073693  0.045392144

  position of ions in fractional coordinates (direct lattice)
     0.558728016  0.490127919  0.471051253
     0.541348409  0.580344743  0.536609761
     0.490679648  0.563267967  0.441950049
     0.438256158  0.573813738  0.536646349
     0.339151048  0.562901891  0.535515086
     0.390212692  0.539516482  0.445259844
     0.653742133  0.463971827  0.495389025
     0.630138138  0.561550288  0.489840777
     0.495082111  0.490032230  0.558412200
     0.460321756  0.465484608  0.452846528
     0.394230741  0.477793579  0.537753219
     0.597324190  0.501263253  0.575165122
     0.458978668  0.398396829  0.533744630

  ion indices of the primitive-cell ions
   primitive index   ion index
                 1           1
                 2           2
                 3           3
                 4           4
                 5           5
                 6           6
                 7           7
                 8           8
                 9           9
                10          10
                11          11
                12          12
                13          13

----------------------------------------------------------------------------------------

 
 
 KPOINTS: KPOINTS created by Atomic Simulation Env

Automatic generation of k-mesh.
Space group operators:
 irot       det(A)        alpha          n_x          n_y          n_z        tau_x        tau_y        tau_z
    1     1.000000     0.000000     1.000000     0.000000     0.000000     0.000000     0.000000     0.000000
 
 Subroutine IBZKPT returns following result:
 ===========================================
 
 Found      1 irreducible k-points:
 
 Following reciprocal coordinates:
            Coordinates               Weight
  0.000000  0.000000  0.000000      1.000000
 
 Following cartesian coordinates:
            Coordinates               Weight
  0.000000  0.000000  0.000000      1.000000
 


--------------------------------------------------------------------------------------------------------




 Dimension of arrays:
   k-points           NKPTS =      1   k-points in BZ     NKDIM =      1   number of bands    NBANDS=     92
   number of dos      NEDOS =    301   number of ions     NIONS =     13
   non local maximal  LDIM  =      6   non local SUM 2l+1 LMDIM =     18
   total plane-waves  NPLWV = ******
   max r-space proj   IRMAX =      1   max aug-charges    IRDMAX=   3745
   dimension x,y,z NGX =   120 NGY =  120 NGZ =  108
   dimension x,y,z NGXF=   240 NGYF=  240 NGZF=  216
   support grid    NGXF=   240 NGYF=  240 NGZF=  216
   ions per type =              13
   NGX,Y,Z   is equivalent  to a cutoff of   8.22,  8.39,  8.15 a.u.
   NGXF,Y,Z  is equivalent  to a cutoff of  16.44, 16.79, 16.30 a.u.

 SYSTEM =  unknown system                          
 POSCAR =  Cu                                      

 Startparameter for this run:
   NWRITE =      2    write-flag & timer
   PREC   = normal    normal or accurate (medium, high low for compatibility)
   ISTART =      0    job   : 0-new  1-cont  2-samecut
   ICHARG =      2    charge: 1-file 2-atom 10-const
   ISPIN  =      2    spin polarized calculation?
   LNONCOLLINEAR =      F non collinear calculations
   LSORBIT =      F    spin-orbit coupling
   INIWAV =      1    electr: 0-lowe 1-rand  2-diag
   LASPH  =      F    aspherical Exc in radial PAW
   METAGGA=      F    non-selfconsistent MetaGGA calc.

 Electronic Relaxation 1
   ENCUT  =  400.0 eV  29.40 Ry    5.42 a.u.  39.57 38.76 35.93*2*pi/ulx,y,z
   ENINI  =  400.0     initial cutoff
   ENAUG  =  587.0 eV  augmentation charge cutoff
   NELM   =     60;   NELMIN=  2; NELMDL=  0     # of ELM steps 
   EDIFF  = 0.1E-03   stopping-criterion for ELM
   LREAL  =      F    real-space projection
   NLSPLINE    = F    spline interpolate recip. space projectors
   LCOMPAT=      F    compatible to vasp.4.4
   GGA_COMPAT  = T    GGA compatible to vasp.4.4-vasp.4.6
   LMAXPAW     = -100 max onsite density
   LMAXMIX     =    2 max onsite mixed and CHGCAR
   VOSKOWN=      0    Vosko Wilk Nusair interpolation
   ROPT   =    0.00000
 Ionic relaxation
   EDIFFG = 0.1E-02   stopping-criterion for IOM
   NSW    =   1000    number of steps for IOM
   NBLOCK =      1;   KBLOCK =   1000    inner block; outer block 
   IBRION =      2    ionic relax: 0-MD 1-quasi-New 2-CG
   NFREE  =      1    steps in history (QN), initial steepest desc. (CG)
   ISIF   =      0    stress and relaxation
   IWAVPR =     11    prediction:  0-non 1-charg 2-wave 3-comb
   ISYM   =      0    0-nonsym 1-usesym 2-fastsym
   LCORR  =      T    Harris-Foulkes like correction to forces

   POTIM  = 0.5000    time-step for ionic-motion
   TEIN   =    0.0    initial temperature
   TEBEG  =    0.0;   TEEND  =   0.0 temperature during run
   SMASS  =  -3.00    Nose mass-parameter (am)
   estimated Nose-frequenzy (Omega)   =  0.10E-29 period in steps = 0.13E+47 mass=  -0.135E-25a.u.
   SCALEE = 1.0000    scale energy and forces
   NPACO  =    256;   APACO  = 16.0  distance and # of slots for P.C.
   PSTRESS=    0.0 pullay stress

  Mass of Ions in am
   POMASS =  63.55
  Ionic Valenz
   ZVAL   =  11.00
  Atomic Wigner-Seitz radii
   RWIGS  =  -1.00
  virtual crystal weights 
   VCA    =   1.00
   NELECT =     143.0000    total number of electrons
   NUPDOWN=      -1.0000    fix difference up-down

 DOS related values:
   EMIN   =  10.00;   EMAX   =-10.00  energy-range for DOS
   EFERMI =   0.00
   ISMEAR =     1;   SIGMA  =   0.20  broadening in eV -4-tet -1-fermi 0-gaus

 Electronic relaxation 2 (details)
   IALGO  =     38    algorithm
   LDIAG  =      T    sub-space diagonalisation (order eigenvalues)
   LSUBROT=      F    optimize rotation matrix (better conditioning)
   TURBO    =      0    0=normal 1=particle mesh
   IRESTART =      0    0=no restart 2=restart with 2 vectors
   NREBOOT  =      0    no. of reboots
   NMIN     =      0    reboot dimension
   EREF     =   0.00    reference energy to select bands
   IMIX   =      4    mixing-type and parameters
     AMIX     =   0.40;   BMIX     =  1.00
     AMIX_MAG =   1.60;   BMIX_MAG =  1.00
     AMIN     =   0.10
     WC   =   100.;   INIMIX=   1;  MIXPRE=   1;  MAXMIX= -45

 Intra band minimization:
   WEIMIN = 0.0010     energy-eigenvalue tresh-hold
   EBREAK =  0.27E-06  absolut break condition
   DEPER  =   0.30     relativ break condition  

   TIME   =   0.40     timestep for ELM

  volume/ion in A,a.u.               =     977.34      6595.39
  Fermi-wavevector in a.u.,A,eV,Ry     =   0.366880  0.693303  1.831359  0.134601
  Thomas-Fermi vector in A             =   1.291564
 
 Write flags
   LWAVE        =      F    write WAVECAR
   LDOWNSAMPLE  =      F    k-point downsampling of WAVECAR
   LCHARG       =      F    write CHGCAR
   LVTOT        =      F    write LOCPOT, total local potential
   LVHAR        =      F    write LOCPOT, Hartree potential only
   LELF         =      F    write electronic localiz. function (ELF)
   LORBIT       =      0    0 simple, 1 ext, 2 COOP (PROOUT), +10 PAW based schemes


 Dipole corrections
   LMONO  =      F    monopole corrections only (constant potential shift)
   LDIPOL =      F    correct potential (dipole corrections)
   IDIPOL =      0    1-x, 2-y, 3-z, 4-all directions 
   EPSILON=  1.0000000 bulk dielectric constant

 Exchange correlation treatment:
   GGA     =    PE    GGA type
   LEXCH   =     8    internal setting for exchange type
   VOSKOWN=      0    Vosko Wilk Nusair interpolation
   LHFCALC =     F    Hartree Fock is set to
   LHFONE  =     F    Hartree Fock one center treatment
   AEXX    =    0.0000 exact exchange contribution

 Linear response parameters
   LEPSILON=     F    determine dielectric tensor
   LRPA    =     F    only Hartree local field effects (RPA)
   LNABLA  =     F    use nabla operator in PAW spheres
   LVEL    =     F    velocity operator in full k-point grid
   LINTERFAST=   F  fast interpolation
   KINTER  =     0    interpolate to denser k-point grid
   CSHIFT  =0.1000    complex shift for real part using Kramers Kronig
   OMEGAMAX=  -1.0    maximum frequency
   DEG_THRESHOLD= 0.2000000E-02 threshold for treating states as degnerate
   RTIME   =   -0.100 relaxation time in fs
  (WPLASMAI=    0.000 imaginary part of plasma frequency in eV, 0.658/RTIME)
   DFIELD  = 0.0000000 0.0000000 0.0000000 field for delta impulse in time
 
 Orbital magnetization related:
   ORBITALMAG=     F  switch on orbital magnetization
   LCHIMAG   =     F  perturbation theory with respect to B field
   DQ        =  0.001000  dq finite difference perturbation B field
   LLRAUG    =     F  two centre corrections for induced B field



--------------------------------------------------------------------------------------------------------


 conjugate gradient relaxation of ions
 charge density and potential will be updated during run
 spin polarized calculation
 Variant of blocked Davidson
 Davidson routine will perform the subspace rotation
 perform sub-space diagonalisation
    after iterative eigenvector-optimisation
 modified Broyden-mixing scheme, WC =      100.0
 initial mixing is a Kerker type mixing with AMIX =  0.4000 and BMIX =      1.0000
 Hartree-type preconditioning will be used
 using additional bands            20
 reciprocal scheme for non local part
 use partial core corrections
 calculate Harris-corrections to forces 
   (improved forces if not selfconsistent)
 use gradient corrections 
 use of overlap-Matrix (Vanderbilt PP)
 Methfessel and Paxton  Order N= 1 SIGMA  =   0.20


--------------------------------------------------------------------------------------------------------


  energy-cutoff  :      400.00
  volume of cell :    12705.38
      direct lattice vectors                 reciprocal lattice vectors
    24.264921133  0.000000000  0.000000000     0.041211756  0.000000000  0.000000000
     0.000000000 23.767820890  0.000000000     0.000000000  0.042073693  0.000000000
     0.000000000  0.000000000 22.030243867     0.000000000  0.000000000  0.045392144

  length of vectors
    24.264921133 23.767820890 22.030243867     0.041211756  0.042073693  0.045392144


 
 k-points in units of 2pi/SCALE and weight: KPOINTS created by Atomic Simulation Env
   0.00000000  0.00000000  0.00000000       1.000
 
 k-points in reciprocal lattice and weights: KPOINTS created by Atomic Simulation Env
   0.00000000  0.00000000  0.00000000       1.000
 
 position of ions in fractional coordinates (direct lattice) 
   0.55872802  0.49012792  0.47105125
   0.54134841  0.58034474  0.53660976
   0.49067965  0.56326797  0.44195005
   0.43825616  0.57381374  0.53664635
   0.33915105  0.56290189  0.53551509
   0.39021269  0.53951648  0.44525984
   0.65374213  0.46397183  0.49538903
   0.63013814  0.56155029  0.48984078
   0.49508211  0.49003223  0.55841220
   0.46032176  0.46548461  0.45284653
   0.39423074  0.47779358  0.53775322
   0.59732419  0.50126325  0.57516512
   0.45897867  0.39839683  0.53374463
 
 position of ions in cartesian coordinates  (Angst):
  13.55749124 11.64927259 10.37737397
  13.13577645 13.79352992 11.82164389
  11.90630295 13.38765216  9.73626736
  10.63425110 13.63830215 11.82244994
   8.22947343 13.37895132 11.79752793
   9.46848021 12.82313111  9.80918296
  15.86300130 11.02759927 10.91354103
  15.29025222 13.34682667 10.79131177
  12.01312837 11.64699826 12.30195694
  11.16967111 11.06355479  9.97631945
   9.56597785 11.35611221 11.84683456
  14.49402435 11.91393523 12.67102791
  11.13708119  9.46902448 11.75852437
 


--------------------------------------------------------------------------------------------------------


 use parallel FFT for orbitals z direction half grid
 k-point   1 :   0.0000 0.0000 0.0000  plane waves:  115367

 maximum and minimum number of plane-waves per node :     14427    14416

 maximum number of plane-waves:    115367
 maximum index in each direction: 
   IXMAX=   39   IYMAX=   38   IZMAX=   35
   IXMIN=  -39   IYMIN=  -38   IZMIN=    0


 parallel 3D FFT for wavefunctions:
    minimum data exchange during FFTs selected (reduces bandwidth)
 parallel 3D FFT for charge:
    minimum data exchange during FFTs selected (reduces bandwidth)


 total amount of memory used by VASP MPI-rank0   262818. kBytes
=======================================================================

   base      :      30000. kBytes
   nonl-proj :       5078. kBytes
   fftplans  :      56793. kBytes
   grid      :     128390. kBytes
   one-center:         31. kBytes
   wavefun   :      42526. kBytes
 
     INWAV:  cpu time    0.0001: real time    0.0001
 Broyden mixing: mesh for mixing (old mesh)
   NGX = 79   NGY = 77   NGZ = 71
  (NGX  =240   NGY  =240   NGZ  =216)
  gives a total of 431893 points

 initial charge density was supplied:
 charge density of overlapping atoms calculated
 number of electron     143.0000000 magnetization      13.0000000
 keeping initial charge density in first step


--------------------------------------------------------------------------------------------------------


 Maximum index for augmentation-charges           445 (set IRDMAX)


--------------------------------------------------------------------------------------------------------


 First call to EWALD:  gamma=   0.076
 Maximum number of real-space cells 3x 3x 3
 Maximum number of reciprocal cells 3x 3x 3

    FEWALD:  cpu time    0.0015: real time    0.0015


--------------------------------------- Iteration      1(   1)  ---------------------------------------


    POTLOK:  cpu time    4.2877: real time    4.3332
    SETDIJ:  cpu time    0.0339: real time    0.0339
     EDDAV:  cpu time   13.5316: real time   13.5521
       DOS:  cpu time    0.0055: real time    0.0055
    --------------------------------------------
      LOOP:  cpu time   17.8586: real time   17.9247

 eigenvalue-minimisations  :   368
 total energy-change (2. order) : 0.9674907E+03  (-0.2534035E+04)
 number of electron     143.0000000 magnetization      13.0000000
 augmentation part      143.0000000 magnetization      13.0000000

 Free energy of the ion-electron system (eV)
  ---------------------------------------------------
  alpha Z        PSCENC =         9.72772698
  Ewald energy   TEWEN  =     22983.81802953
  -Hartree energ DENC   =    -39455.27415455
  -exchange      EXHF   =         0.00000000
  -V(xc)+E(xc)   XCENC  =       583.70083193
  PAW double counting   =     15965.26744864   -17340.97210982
  entropy T*S    EENTRO =         0.00744933
  eigenvalues    EBANDS =       138.76610614
  atomic energy  EATOM  =     18082.44932260
  Solvation  Ediel_sol  =         0.00000000
  ---------------------------------------------------
  free energy    TOTEN  =       967.49065076 eV

  energy without entropy =      967.48320143  energy(sigma->0) =      967.48816765


--------------------------------------------------------------------------------------------------------




--------------------------------------- Iteration      1(   2)  ---------------------------------------


     EDDAV:  cpu time   13.9167: real time   13.9324
       DOS:  cpu time    0.0014: real time    0.0014
    --------------------------------------------
      LOOP:  cpu time   13.9181: real time   13.9338

 eigenvalue-minimisations  :   384
 total energy-change (2. order) :-0.7174679E+03  (-0.6476164E+03)
 number of electron     143.0000000 magnetization      13.0000000
 augmentation part      143.0000000 magnetization      13.0000000

 Free energy of the ion-electron system (eV)
  ---------------------------------------------------
  alpha Z        PSCENC =         9.72772698
  Ewald energy   TEWEN  =     22983.81802953
  -Hartree energ DENC   =    -39455.27415455
  -exchange      EXHF   =         0.00000000
  -V(xc)+E(xc)   XCENC  =       583.70083193
  PAW double counting   =     15965.26744864   -17340.97210982
  entropy T*S    EENTRO =         0.03816137
  eigenvalues    EBANDS =      -578.73254575
  atomic energy  EATOM  =     18082.44932260
  Solvation  Ediel_sol  =         0.00000000
  ---------------------------------------------------
  free energy    TOTEN  =       250.02271092 eV

  energy without entropy =      249.98454955  energy(sigma->0) =      250.00999046


--------------------------------------------------------------------------------------------------------




--------------------------------------- Iteration      1(   3)  ---------------------------------------


     EDDAV:  cpu time   15.7161: real time   15.7325
       DOS:  cpu time    0.0014: real time    0.0013
    --------------------------------------------
      LOOP:  cpu time   15.7175: real time   15.7339

 eigenvalue-minimisations  :   464
 total energy-change (2. order) :-0.2381983E+03  (-0.2253427E+03)
 number of electron     143.0000000 magnetization      13.0000000
 augmentation part      143.0000000 magnetization      13.0000000

 Free energy of the ion-electron system (eV)
  ---------------------------------------------------
  alpha Z        PSCENC =         9.72772698
  Ewald energy   TEWEN  =     22983.81802953
  -Hartree energ DENC   =    -39455.27415455
  -exchange      EXHF   =         0.00000000
  -V(xc)+E(xc)   XCENC  =       583.70083193
  PAW double counting   =     15965.26744864   -17340.97210982
  entropy T*S    EENTRO =        -0.01121885
  eigenvalues    EBANDS =      -816.88144204
  atomic energy  EATOM  =     18082.44932260
  Solvation  Ediel_sol  =         0.00000000
  ---------------------------------------------------
  free energy    TOTEN  =        11.82443441 eV

  energy without entropy =       11.83565326  energy(sigma->0) =       11.82817402


--------------------------------------------------------------------------------------------------------




--------------------------------------- Iteration      1(   4)  ---------------------------------------


     EDDAV:  cpu time   15.3879: real time   15.4068
       DOS:  cpu time    0.0048: real time    0.0048
    --------------------------------------------
      LOOP:  cpu time   15.3927: real time   15.4116

 eigenvalue-minimisations  :   448
 total energy-change (2. order) :-0.4580302E+02  (-0.4258622E+02)
 number of electron     143.0000000 magnetization      13.0000000
 augmentation part      143.0000000 magnetization      13.0000000

 Free energy of the ion-electron system (eV)
  ---------------------------------------------------
  alpha Z        PSCENC =         9.72772698
  Ewald energy   TEWEN  =     22983.81802953
  -Hartree energ DENC   =    -39455.27415455
  -exchange      EXHF   =         0.00000000
  -V(xc)+E(xc)   XCENC  =       583.70083193
  PAW double counting   =     15965.26744864   -17340.97210982
  entropy T*S    EENTRO =         0.04989975
  eigenvalues    EBANDS =      -862.74557858
  atomic energy  EATOM  =     18082.44932260
  Solvation  Ediel_sol  =         0.00000000
  ---------------------------------------------------
  free energy    TOTEN  =       -33.97858354 eV

  energy without entropy =      -34.02848329  energy(sigma->0) =      -33.99521679


--------------------------------------------------------------------------------------------------------




--------------------------------------- Iteration      1(   5)  ---------------------------------------


     EDDAV:  cpu time   16.5537: real time   16.5724
       DOS:  cpu time    0.0013: real time    0.0013
    CHARGE:  cpu time    1.3185: real time    1.3219
    MIXING:  cpu time    0.0655: real time    0.0656
    --------------------------------------------
      LOOP:  cpu time   17.9391: real time   17.9613

 eigenvalue-minimisations  :   496
 total energy-change (2. order) :-0.1939002E+01  (-0.1920361E+01)
 number of electron     143.0000159 magnetization      11.9482496
 augmentation part       87.5144279 magnetization      11.1530426

 Broyden mixing:
  rms(total) = 0.27492E+01    rms(broyden)= 0.27490E+01
  rms(prec ) = 0.28220E+01
  weight for this iteration     100.00

 Free energy of the ion-electron system (eV)
  ---------------------------------------------------
  alpha Z        PSCENC =         9.72772698
  Ewald energy   TEWEN  =     22983.81802953
  -Hartree energ DENC   =    -39455.27415455
  -exchange      EXHF   =         0.00000000
  -V(xc)+E(xc)   XCENC  =       583.70083193
  PAW double counting   =     15965.26744864   -17340.97210982
  entropy T*S    EENTRO =         0.04801395
  eigenvalues    EBANDS =      -864.68269471
  atomic energy  EATOM  =     18082.44932260
  Solvation  Ediel_sol  =         0.00000000
  ---------------------------------------------------
  free energy    TOTEN  =       -35.91758546 eV

  energy without entropy =      -35.96559941  energy(sigma->0) =      -35.93359011


--------------------------------------------------------------------------------------------------------




--------------------------------------- Iteration      1(   6)  ---------------------------------------


    POTLOK:  cpu time    4.1791: real time    4.1855
    SETDIJ:  cpu time    0.0332: real time    0.0332
     EDDAV:  cpu time   18.9153: real time   18.9374
       DOS:  cpu time    0.0044: real time    0.0044
    CHARGE:  cpu time    1.2755: real time    1.2766
    MIXING:  cpu time    0.0726: real time    0.0727
    --------------------------------------------
      LOOP:  cpu time   24.4803: real time   24.5251

 eigenvalue-minimisations  :   408
 total energy-change (2. order) : 0.1770621E+02  (-0.1244950E+02)
 number of electron     143.0000172 magnetization      11.2870755
 augmentation part       95.0346053 magnetization       7.3170720

 Broyden mixing:
  rms(total) = 0.12312E+01    rms(broyden)= 0.12309E+01
  rms(prec ) = 0.13008E+01
  weight for this iteration     100.00

 eigenvalues of (default mixing * dielectric matrix)
  average eigenvalue GAMMA=   0.8372
  0.8372

 Free energy of the ion-electron system (eV)
  ---------------------------------------------------
  alpha Z        PSCENC =         9.72772698
  Ewald energy   TEWEN  =     22983.81802953
  -Hartree energ DENC   =    -39239.55721225
  -exchange      EXHF   =         0.00000000
  -V(xc)+E(xc)   XCENC  =       582.96324091
  PAW double counting   =     16098.58262706   -17429.32819728
  entropy T*S    EENTRO =         0.03171477
  eigenvalues    EBANDS =     -1106.89862676
  atomic energy  EATOM  =     18082.44932260
  Solvation  Ediel_sol  =         0.00000000
  ---------------------------------------------------
  free energy    TOTEN  =       -18.21137445 eV

  energy without entropy =      -18.24308921  energy(sigma->0) =      -18.22194604


--------------------------------------------------------------------------------------------------------




--------------------------------------- Iteration      1(   7)  ---------------------------------------


    POTLOK:  cpu time    4.2415: real time    4.2604
    SETDIJ:  cpu time    0.0342: real time    0.0342
     EDDAV:  cpu time   15.3914: real time   15.4156
       DOS:  cpu time    0.0015: real time    0.0015
    CHARGE:  cpu time    1.2914: real time    1.2925
    MIXING:  cpu time    0.0821: real time    0.0822
    --------------------------------------------
      LOOP:  cpu time   21.0420: real time   21.0709

 eigenvalue-minimisations  :   448
 total energy-change (2. order) : 0.7550059E+01  (-0.3087958E+01)
 number of electron     143.0000170 magnetization      10.4150066
 augmentation part       92.0505783 magnetization       5.9360603

 Broyden mixing:
  rms(total) = 0.45411E+00    rms(broyden)= 0.45400E+00
  rms(prec ) = 0.47446E+00
  weight for this iteration     100.00

 eigenvalues of (default mixing * dielectric matrix)
  average eigenvalue GAMMA=   0.8823
  1.1062  0.6584

 Free energy of the ion-electron system (eV)
  ---------------------------------------------------
  alpha Z        PSCENC =         9.72772698
  Ewald energy   TEWEN  =     22983.81802953
  -Hartree energ DENC   =    -39400.22139715
  -exchange      EXHF   =         0.00000000
  -V(xc)+E(xc)   XCENC  =       592.60577959
  PAW double counting   =     16400.70973137   -17784.46054383
  entropy T*S    EENTRO =        -0.02010464
  eigenvalues    EBANDS =      -895.26986038
  atomic energy  EATOM  =     18082.44932260
  Solvation  Ediel_sol  =         0.00000000
  ---------------------------------------------------
  free energy    TOTEN  =       -10.66131593 eV

  energy without entropy =      -10.64121129  energy(sigma->0) =      -10.65461439


--------------------------------------------------------------------------------------------------------




--------------------------------------- Iteration      1(   8)  ---------------------------------------


    POTLOK:  cpu time    4.2775: real time    4.2887
    SETDIJ:  cpu time    0.0342: real time    0.0342
     EDDAV:  cpu time   15.6262: real time   15.6436
       DOS:  cpu time    0.0032: real time    0.0032
    CHARGE:  cpu time    1.3243: real time    1.3254
    MIXING:  cpu time    0.0871: real time    0.0871
    --------------------------------------------
      LOOP:  cpu time   21.3525: real time   21.3823

 eigenvalue-minimisations  :   456
 total energy-change (2. order) : 0.3152305E+00  (-0.5005564E+00)
 number of electron     143.0000168 magnetization       9.9618129
 augmentation part       91.5981890 magnetization       5.1353485

 Broyden mixing:
  rms(total) = 0.40610E+00    rms(broyden)= 0.40603E+00
  rms(prec ) = 0.42429E+00
  weight for this iteration     100.00

 eigenvalues of (default mixing * dielectric matrix)
  average eigenvalue GAMMA=   0.7880
  1.1357  0.6141  0.6141

 Free energy of the ion-electron system (eV)
  ---------------------------------------------------
  alpha Z        PSCENC =         9.72772698
  Ewald energy   TEWEN  =     22983.81802953
  -Hartree energ DENC   =    -39434.69249553
  -exchange      EXHF   =         0.00000000
  -V(xc)+E(xc)   XCENC  =       592.84896215
  PAW double counting   =     16615.20164176   -18009.14542322
  entropy T*S    EENTRO =        -0.04399187
  eigenvalues    EBANDS =      -850.50985778
  atomic energy  EATOM  =     18082.44932260
  Solvation  Ediel_sol  =         0.00000000
  ---------------------------------------------------
  free energy    TOTEN  =       -10.34608539 eV

  energy without entropy =      -10.30209351  energy(sigma->0) =      -10.33142143


--------------------------------------------------------------------------------------------------------




--------------------------------------- Iteration      1(   9)  ---------------------------------------


    POTLOK:  cpu time    4.1962: real time    4.2020
    SETDIJ:  cpu time    0.0345: real time    0.0345
     EDDAV:  cpu time   16.0636: real time   16.0813
       DOS:  cpu time    0.0049: real time    0.0049
    CHARGE:  cpu time    4.7267: real time    5.4455
    MIXING:  cpu time    0.0945: real time    0.0945
    --------------------------------------------
      LOOP:  cpu time   25.1203: real time   25.8628

 eigenvalue-minimisations  :   476
 total energy-change (2. order) :-0.1575218E+01  (-0.1172561E+00)
 number of electron     143.0000167 magnetization       8.9126704
 augmentation part       91.6520520 magnetization       4.6036545

 Broyden mixing:
  rms(total) = 0.27699E+00    rms(broyden)= 0.27694E+00
  rms(prec ) = 0.28458E+00
  weight for this iteration     100.00

 eigenvalues of (default mixing * dielectric matrix)
  average eigenvalue GAMMA=   0.8939
  1.3336  0.8827  0.8827  0.4764

 Free energy of the ion-electron system (eV)
  ---------------------------------------------------
  alpha Z        PSCENC =         9.72772698
  Ewald energy   TEWEN  =     22983.81802953
  -Hartree energ DENC   =    -39435.59716961
  -exchange      EXHF   =         0.00000000
  -V(xc)+E(xc)   XCENC  =       591.09379355
  PAW double counting   =     16669.47230705   -18063.55073126
  entropy T*S    EENTRO =        -0.01478256
  eigenvalues    EBANDS =      -849.31980002
  atomic energy  EATOM  =     18082.44932260
  Solvation  Ediel_sol  =         0.00000000
  ---------------------------------------------------
  free energy    TOTEN  =       -11.92130375 eV

  energy without entropy =      -11.90652119  energy(sigma->0) =      -11.91637623


--------------------------------------------------------------------------------------------------------




--------------------------------------- Iteration      1(  10)  ---------------------------------------


    POTLOK:  cpu time    4.2432: real time    4.2490
    SETDIJ:  cpu time    0.0350: real time    0.0350
     EDDAV:  cpu time   17.4536: real time   17.4766
       DOS:  cpu time    0.0017: real time    0.0017
    CHARGE:  cpu time    1.3255: real time    1.3286
    MIXING:  cpu time    0.0956: real time    0.0957
    --------------------------------------------
      LOOP:  cpu time   23.1546: real time   23.1866

 eigenvalue-minimisations  :   528
 total energy-change (2. order) :-0.2790549E+01  (-0.1562998E+00)
 number of electron     143.0000168 magnetization       8.0422257
 augmentation part       91.8950968 magnetization       4.1704369

 Broyden mixing:
  rms(total) = 0.19829E+00    rms(broyden)= 0.19825E+00
  rms(prec ) = 0.20327E+00
  weight for this iteration     100.00

 eigenvalues of (default mixing * dielectric matrix)
  average eigenvalue GAMMA=   1.0185
  1.6546  1.6546  0.6307  0.6307  0.5219

 Free energy of the ion-electron system (eV)
  ---------------------------------------------------
  alpha Z        PSCENC =         9.72772698
  Ewald energy   TEWEN  =     22983.81802953
  -Hartree energ DENC   =    -39439.22806131
  -exchange      EXHF   =         0.00000000
  -V(xc)+E(xc)   XCENC  =       588.33464111
  PAW double counting   =     16743.29855648   -18136.32080659
  entropy T*S    EENTRO =         0.00799708
  eigenvalues    EBANDS =      -846.79925876
  atomic energy  EATOM  =     18082.44932260
  Solvation  Ediel_sol  =         0.00000000
  ---------------------------------------------------
  free energy    TOTEN  =       -14.71185288 eV

  energy without entropy =      -14.71984996  energy(sigma->0) =      -14.71451857


--------------------------------------------------------------------------------------------------------




--------------------------------------- Iteration      1(  11)  ---------------------------------------


    POTLOK:  cpu time    4.1923: real time    4.2078
    SETDIJ:  cpu time    0.0346: real time    0.0346
     EDDAV:  cpu time   16.7756: real time   16.7939
       DOS:  cpu time    0.0025: real time    0.0025
    CHARGE:  cpu time    1.2990: real time    1.3001
    MIXING:  cpu time    0.1041: real time    0.1042
    --------------------------------------------
      LOOP:  cpu time   22.4080: real time   22.4431

 eigenvalue-minimisations  :   472
 total energy-change (2. order) :-0.4044726E+01  (-0.1665275E+00)
 number of electron     143.0000168 magnetization       7.1572656
 augmentation part       91.9392765 magnetization       3.5075170

 Broyden mixing:
  rms(total) = 0.15340E+00    rms(broyden)= 0.15338E+00
  rms(prec ) = 0.15653E+00
  weight for this iteration     100.00

 eigenvalues of (default mixing * dielectric matrix)
  average eigenvalue GAMMA=   1.0678
  1.9777  1.9777  0.6955  0.6955  0.5303  0.5303

 Free energy of the ion-electron system (eV)
  ---------------------------------------------------
  alpha Z        PSCENC =         9.72772698
  Ewald energy   TEWEN  =     22983.81802953
  -Hartree energ DENC   =    -39442.52512305
  -exchange      EXHF   =         0.00000000
  -V(xc)+E(xc)   XCENC  =       585.08370053
  PAW double counting   =     16760.00922603   -18152.24417299
  entropy T*S    EENTRO =        -0.00300782
  eigenvalues    EBANDS =      -845.07228072
  atomic energy  EATOM  =     18082.44932260
  Solvation  Ediel_sol  =         0.00000000
  ---------------------------------------------------
  free energy    TOTEN  =       -18.75657892 eV

  energy without entropy =      -18.75357109  energy(sigma->0) =      -18.75557631


--------------------------------------------------------------------------------------------------------




--------------------------------------- Iteration      1(  12)  ---------------------------------------


    POTLOK:  cpu time    4.1701: real time    4.1828
    SETDIJ:  cpu time    0.0344: real time    0.0345
     EDDAV:  cpu time   16.1715: real time   16.1935
       DOS:  cpu time    0.0027: real time    0.0027
    CHARGE:  cpu time    1.3208: real time    1.3219
    MIXING:  cpu time    0.1129: real time    0.1129
    --------------------------------------------
      LOOP:  cpu time   21.8124: real time   21.8483

 eigenvalue-minimisations  :   480
 total energy-change (2. order) :-0.4447797E+01  (-0.2173634E+00)
 number of electron     143.0000167 magnetization       6.4771107
 augmentation part       91.8939006 magnetization       3.1101957

 Broyden mixing:
  rms(total) = 0.10985E+00    rms(broyden)= 0.10983E+00
  rms(prec ) = 0.11223E+00
  weight for this iteration     100.00

 eigenvalues of (default mixing * dielectric matrix)
  average eigenvalue GAMMA=   1.1537
  2.4200  2.4200  0.7817  0.7817  0.5937  0.5937  0.4848

 Free energy of the ion-electron system (eV)
  ---------------------------------------------------
  alpha Z        PSCENC =         9.72772698
  Ewald energy   TEWEN  =     22983.81802953
  -Hartree energ DENC   =    -39443.81035456
  -exchange      EXHF   =         0.00000000
  -V(xc)+E(xc)   XCENC  =       581.66760602
  PAW double counting   =     16736.60413841   -18128.31198200
  entropy T*S    EENTRO =         0.01001832
  eigenvalues    EBANDS =      -845.35888086
  atomic energy  EATOM  =     18082.44932260
  Solvation  Ediel_sol  =         0.00000000
  ---------------------------------------------------
  free energy    TOTEN  =       -23.20437556 eV

  energy without entropy =      -23.21439389  energy(sigma->0) =      -23.20771500


--------------------------------------------------------------------------------------------------------




--------------------------------------- Iteration      1(  13)  ---------------------------------------


    POTLOK:  cpu time    4.1489: real time    4.1550
    SETDIJ:  cpu time    0.0336: real time    0.0336
     EDDAV:  cpu time   16.7118: real time   16.7368
       DOS:  cpu time    0.0029: real time    0.0029
    CHARGE:  cpu time    1.2983: real time    1.3015
    MIXING:  cpu time    0.1152: real time    0.1153
    --------------------------------------------
      LOOP:  cpu time   22.3107: real time   22.3451

 eigenvalue-minimisations  :   504
 total energy-change (2. order) :-0.2733199E+01  (-0.9201225E-01)
 number of electron     143.0000168 magnetization       5.7972534
 augmentation part       91.8412511 magnetization       2.9448477

 Broyden mixing:
  rms(total) = 0.97266E-01    rms(broyden)= 0.97235E-01
  rms(prec ) = 0.10090E+00
  weight for this iteration     100.00

 eigenvalues of (default mixing * dielectric matrix)
  average eigenvalue GAMMA=   1.1380
  2.6281  2.6281  0.9489  0.6680  0.6680  0.6199  0.4913  0.4520

 Free energy of the ion-electron system (eV)
  ---------------------------------------------------
  alpha Z        PSCENC =         9.72772698
  Ewald energy   TEWEN  =     22983.81802953
  -Hartree energ DENC   =    -39440.48027416
  -exchange      EXHF   =         0.00000000
  -V(xc)+E(xc)   XCENC  =       579.47937962
  PAW double counting   =     16704.69279771   -18096.36952639
  entropy T*S    EENTRO =        -0.00526434
  eigenvalues    EBANDS =      -849.24976624
  atomic energy  EATOM  =     18082.44932260
  Solvation  Ediel_sol  =         0.00000000
  ---------------------------------------------------
  free energy    TOTEN  =       -25.93757470 eV

  energy without entropy =      -25.93231036  energy(sigma->0) =      -25.93581992


--------------------------------------------------------------------------------------------------------




--------------------------------------- Iteration      1(  14)  ---------------------------------------


    POTLOK:  cpu time    4.1626: real time    4.1713
    SETDIJ:  cpu time    0.0347: real time    0.0347
     EDDAV:  cpu time   17.7590: real time   17.7830
       DOS:  cpu time    0.0035: real time    0.0035
    CHARGE:  cpu time    1.2657: real time    1.2667
    MIXING:  cpu time    0.1244: real time    0.1245
    --------------------------------------------
      LOOP:  cpu time   23.3499: real time   23.3839

 eigenvalue-minimisations  :   544
 total energy-change (2. order) :-0.1485553E+01  (-0.3134336E-01)
 number of electron     143.0000167 magnetization       5.2626477
 augmentation part       91.8360942 magnetization       2.8001580

 Broyden mixing:
  rms(total) = 0.90137E-01    rms(broyden)= 0.90095E-01
  rms(prec ) = 0.93667E-01
  weight for this iteration     100.00

 eigenvalues of (default mixing * dielectric matrix)
  average eigenvalue GAMMA=   1.1233
  2.7027  2.7027  1.0958  0.6485  0.6485  0.6807  0.4851  0.5728  0.5728

 Free energy of the ion-electron system (eV)
  ---------------------------------------------------
  alpha Z        PSCENC =         9.72772698
  Ewald energy   TEWEN  =     22983.81802953
  -Hartree energ DENC   =    -39436.95382066
  -exchange      EXHF   =         0.00000000
  -V(xc)+E(xc)   XCENC  =       578.15245495
  PAW double counting   =     16685.73791729   -18077.90304676
  entropy T*S    EENTRO =        -0.01477610
  eigenvalues    EBANDS =      -852.43693538
  atomic energy  EATOM  =     18082.44932260
  Solvation  Ediel_sol  =         0.00000000
  ---------------------------------------------------
  free energy    TOTEN  =       -27.42312755 eV

  energy without entropy =      -27.40835146  energy(sigma->0) =      -27.41820219


--------------------------------------------------------------------------------------------------------




--------------------------------------- Iteration      1(  15)  ---------------------------------------


    POTLOK:  cpu time    4.1795: real time    4.2206
    SETDIJ:  cpu time    0.0343: real time    0.0354
     EDDAV:  cpu time   17.0179: real time   17.0367
       DOS:  cpu time    0.0029: real time    0.0029
    CHARGE:  cpu time    1.3109: real time    1.3120
    MIXING:  cpu time    0.1382: real time    0.1383
    --------------------------------------------
      LOOP:  cpu time   22.6837: real time   22.7460

 eigenvalue-minimisations  :   512
 total energy-change (2. order) :-0.7543157E+00  (-0.1152943E-01)
 number of electron     143.0000167 magnetization       4.2682274
 augmentation part       91.8505406 magnetization       2.0699334

 Broyden mixing:
  rms(total) = 0.81366E-01    rms(broyden)= 0.81337E-01
  rms(prec ) = 0.85351E-01
  weight for this iteration     100.00

 eigenvalues of (default mixing * dielectric matrix)
  average eigenvalue GAMMA=   1.2529
  4.1522  1.6962  1.4630  1.4630  0.8168  0.8168  0.5955  0.5955  0.4651  0.4651

 Free energy of the ion-electron system (eV)
  ---------------------------------------------------
  alpha Z        PSCENC =         9.72772698
  Ewald energy   TEWEN  =     22983.81802953
  -Hartree energ DENC   =    -39435.03521317
  -exchange      EXHF   =         0.00000000
  -V(xc)+E(xc)   XCENC  =       577.44285152
  PAW double counting   =     16678.30604072   -18070.97738807
  entropy T*S    EENTRO =        -0.01833426
  eigenvalues    EBANDS =      -853.89047905
  atomic energy  EATOM  =     18082.44932260
  Solvation  Ediel_sol  =         0.00000000
  ---------------------------------------------------
  free energy    TOTEN  =       -28.17744321 eV

  energy without entropy =      -28.15910894  energy(sigma->0) =      -28.17133178


--------------------------------------------------------------------------------------------------------




--------------------------------------- Iteration      1(  16)  ---------------------------------------


    POTLOK:  cpu time    4.1580: real time    4.1677
    SETDIJ:  cpu time    0.0348: real time    0.0348
     EDDAV:  cpu time   22.4816: real time   22.5038
       DOS:  cpu time    0.0034: real time    0.0034
    CHARGE:  cpu time    1.2966: real time    1.3000
    MIXING:  cpu time    0.1647: real time    0.1648
    --------------------------------------------
      LOOP:  cpu time   28.1392: real time   28.1745

 eigenvalue-minimisations  :   556
 total energy-change (2. order) :-0.9033539E+00  (-0.1796055E-01)
 number of electron     143.0000167 magnetization       3.1916179
 augmentation part       91.8490264 magnetization       1.3401210

 Broyden mixing:
  rms(total) = 0.60358E-01    rms(broyden)= 0.60298E-01
  rms(prec ) = 0.63541E-01
  weight for this iteration     100.00

 eigenvalues of (default mixing * dielectric matrix)
  average eigenvalue GAMMA=   1.4251
  5.7937  1.9364  1.9364  1.4272  0.9971  0.7439  0.7439  0.5776  0.5776  0.4709
  0.4709

 Free energy of the ion-electron system (eV)
  ---------------------------------------------------
  alpha Z        PSCENC =         9.72772698
  Ewald energy   TEWEN  =     22983.81802953
  -Hartree energ DENC   =    -39432.79709189
  -exchange      EXHF   =         0.00000000
  -V(xc)+E(xc)   XCENC  =       576.56014153
  PAW double counting   =     16671.50651002   -18064.82900598
  entropy T*S    EENTRO =        -0.01329398
  eigenvalues    EBANDS =      -855.50313595
  atomic energy  EATOM  =     18082.44932260
  Solvation  Ediel_sol  =         0.00000000
  ---------------------------------------------------
  free energy    TOTEN  =       -29.08079714 eV

  energy without entropy =      -29.06750316  energy(sigma->0) =      -29.07636582


--------------------------------------------------------------------------------------------------------




--------------------------------------- Iteration      1(  17)  ---------------------------------------


    POTLOK:  cpu time    4.2162: real time    4.2219
    SETDIJ:  cpu time    0.0370: real time    0.0371
     EDDAV:  cpu time   16.8013: real time   16.8227
       DOS:  cpu time    0.0030: real time    0.0030
    CHARGE:  cpu time    1.2919: real time    1.2931
    MIXING:  cpu time    0.1520: real time    0.1521
    --------------------------------------------
      LOOP:  cpu time   22.5014: real time   22.5298

 eigenvalue-minimisations  :   500
 total energy-change (2. order) :-0.7642297E+00  (-0.2133431E-01)
 number of electron     143.0000167 magnetization       2.5995573
 augmentation part       91.8609454 magnetization       1.0201277

 Broyden mixing:
  rms(total) = 0.38363E-01    rms(broyden)= 0.38294E-01
  rms(prec ) = 0.40421E-01
  weight for this iteration     100.00

 eigenvalues of (default mixing * dielectric matrix)
  average eigenvalue GAMMA=   1.5292
  7.3591  1.9726  1.9726  1.5989  1.1337  0.7986  0.7986  0.6296  0.5680  0.5680
  0.4754  0.4754

 Free energy of the ion-electron system (eV)
  ---------------------------------------------------
  alpha Z        PSCENC =         9.72772698
  Ewald energy   TEWEN  =     22983.81802953
  -Hartree energ DENC   =    -39427.27919999
  -exchange      EXHF   =         0.00000000
  -V(xc)+E(xc)   XCENC  =       575.79228533
  PAW double counting   =     16655.12804297   -18048.62926170
  entropy T*S    EENTRO =        -0.00623755
  eigenvalues    EBANDS =      -860.84573502
  atomic energy  EATOM  =     18082.44932260
  Solvation  Ediel_sol  =         0.00000000
  ---------------------------------------------------
  free energy    TOTEN  =       -29.84502685 eV

  energy without entropy =      -29.83878930  energy(sigma->0) =      -29.84294767


--------------------------------------------------------------------------------------------------------




--------------------------------------- Iteration      1(  18)  ---------------------------------------


    POTLOK:  cpu time    4.2428: real time    4.2564
    SETDIJ:  cpu time    0.0354: real time    0.0354
     EDDAV:  cpu time   14.8986: real time   14.9106
       DOS:  cpu time    0.0035: real time    0.0035
    CHARGE:  cpu time    2.5894: real time    2.5913
    MIXING:  cpu time    0.1685: real time    0.1687
    --------------------------------------------
      LOOP:  cpu time   21.9383: real time   21.9659

 eigenvalue-minimisations  :   432
 total energy-change (2. order) :-0.5648381E+00  (-0.1048812E-01)
 number of electron     143.0000167 magnetization       2.4110185
 augmentation part       91.8917510 magnetization       1.0182050

 Broyden mixing:
  rms(total) = 0.32794E-01    rms(broyden)= 0.32767E-01
  rms(prec ) = 0.35014E-01
  weight for this iteration     100.00

 eigenvalues of (default mixing * dielectric matrix)
  average eigenvalue GAMMA=   1.5181
  7.8846  2.0907  2.0907  1.3694  1.3694  0.8956  0.7413  0.7413  0.5398  0.5398
  0.5344  0.4689  0.4689

 Free energy of the ion-electron system (eV)
  ---------------------------------------------------
  alpha Z        PSCENC =         9.72772698
  Ewald energy   TEWEN  =     22983.81802953
  -Hartree energ DENC   =    -39422.31328335
  -exchange      EXHF   =         0.00000000
  -V(xc)+E(xc)   XCENC  =       575.18980961
  PAW double counting   =     16643.80689239   -18036.93075398
  entropy T*S    EENTRO =        -0.01163934
  eigenvalues    EBANDS =      -866.14596942
  atomic energy  EATOM  =     18082.44932260
  Solvation  Ediel_sol  =         0.00000000
  ---------------------------------------------------
  free energy    TOTEN  =       -30.40986499 eV

  energy without entropy =      -30.39822565  energy(sigma->0) =      -30.40598521


--------------------------------------------------------------------------------------------------------




--------------------------------------- Iteration      1(  19)  ---------------------------------------


    POTLOK:  cpu time    4.2065: real time    4.2110
    SETDIJ:  cpu time    0.0292: real time    0.0401
     EDDAV:  cpu time   15.6055: real time   15.6255
       DOS:  cpu time    0.0030: real time    0.0030
    CHARGE:  cpu time    1.2766: real time    1.2777
    MIXING:  cpu time    0.1810: real time    0.1811
    --------------------------------------------
      LOOP:  cpu time   21.3017: real time   21.3384

 eigenvalue-minimisations  :   456
 total energy-change (2. order) :-0.2350821E+00  (-0.2352333E-02)
 number of electron     143.0000167 magnetization       2.0246025
 augmentation part       91.8887141 magnetization       0.7036833

 Broyden mixing:
  rms(total) = 0.25060E-01    rms(broyden)= 0.25053E-01
  rms(prec ) = 0.27039E-01
  weight for this iteration     100.00

 eigenvalues of (default mixing * dielectric matrix)
  average eigenvalue GAMMA=   1.5833
  8.8403  2.3182  2.3182  1.5057  1.5057  0.8525  0.8525  0.7201  0.7201  0.5877
  0.5877  0.4868  0.4582  0.4126

 Free energy of the ion-electron system (eV)
  ---------------------------------------------------
  alpha Z        PSCENC =         9.72772698
  Ewald energy   TEWEN  =     22983.81802953
  -Hartree energ DENC   =    -39421.22859196
  -exchange      EXHF   =         0.00000000
  -V(xc)+E(xc)   XCENC  =       574.96257942
  PAW double counting   =     16645.10898167   -18038.26770901
  entropy T*S    EENTRO =        -0.01313056
  eigenvalues    EBANDS =      -867.20215577
  atomic energy  EATOM  =     18082.44932260
  Solvation  Ediel_sol  =         0.00000000
  ---------------------------------------------------
  free energy    TOTEN  =       -30.64494710 eV

  energy without entropy =      -30.63181654  energy(sigma->0) =      -30.64057024


--------------------------------------------------------------------------------------------------------




--------------------------------------- Iteration      1(  20)  ---------------------------------------


    POTLOK:  cpu time    4.1988: real time    4.2037
    SETDIJ:  cpu time    0.0345: real time    0.0345
     EDDAV:  cpu time   17.4997: real time   17.5275
       DOS:  cpu time    0.0035: real time    0.0035
    CHARGE:  cpu time    1.3158: real time    1.3189
    MIXING:  cpu time    0.1922: real time    0.1945
    --------------------------------------------
      LOOP:  cpu time   23.2445: real time   23.2827

 eigenvalue-minimisations  :   528
 total energy-change (2. order) :-0.3903683E+00  (-0.2190181E-02)
 number of electron     143.0000167 magnetization       1.6694243
 augmentation part       91.8685741 magnetization       0.4676188

 Broyden mixing:
  rms(total) = 0.17269E-01    rms(broyden)= 0.17255E-01
  rms(prec ) = 0.19032E-01
  weight for this iteration     100.00

 eigenvalues of (default mixing * dielectric matrix)
  average eigenvalue GAMMA=   1.6536
 10.1160  2.4227  2.4227  1.4550  1.4550  1.1422  1.1422  0.7545  0.7545  0.6701
  0.5645  0.5645  0.4711  0.4711  0.3981

 Free energy of the ion-electron system (eV)
  ---------------------------------------------------
  alpha Z        PSCENC =         9.72772698
  Ewald energy   TEWEN  =     22983.81802953
  -Hartree energ DENC   =    -39419.04972500
  -exchange      EXHF   =         0.00000000
  -V(xc)+E(xc)   XCENC  =       574.59250825
  PAW double counting   =     16648.18789551   -18041.54238862
  entropy T*S    EENTRO =        -0.01667195
  eigenvalues    EBANDS =      -869.20201267
  atomic energy  EATOM  =     18082.44932260
  Solvation  Ediel_sol  =         0.00000000
  ---------------------------------------------------
  free energy    TOTEN  =       -31.03531537 eV

  energy without entropy =      -31.01864342  energy(sigma->0) =      -31.02975805


--------------------------------------------------------------------------------------------------------




--------------------------------------- Iteration      1(  21)  ---------------------------------------


    POTLOK:  cpu time    4.1707: real time    4.1796
    SETDIJ:  cpu time    0.0339: real time    0.0339
     EDDAV:  cpu time   17.6400: real time   17.6585
       DOS:  cpu time    0.0028: real time    0.0028
    CHARGE:  cpu time    1.2961: real time    1.2973
    MIXING:  cpu time    0.1998: real time    0.1999
    --------------------------------------------
      LOOP:  cpu time   23.3433: real time   23.3719

 eigenvalue-minimisations  :   536
 total energy-change (2. order) :-0.2596724E+00  (-0.1072478E-02)
 number of electron     143.0000167 magnetization       1.3499480
 augmentation part       91.8730400 magnetization       0.2771285

 Broyden mixing:
  rms(total) = 0.13058E-01    rms(broyden)= 0.13041E-01
  rms(prec ) = 0.14441E-01
  weight for this iteration     100.00

 eigenvalues of (default mixing * dielectric matrix)
  average eigenvalue GAMMA=   1.7348
 11.2701  2.8202  2.8202  1.5665  1.5665  1.2488  1.2488  0.7598  0.7598  0.6659
  0.5695  0.5695  0.5459  0.4727  0.4727  0.3992

 Free energy of the ion-electron system (eV)
  ---------------------------------------------------
  alpha Z        PSCENC =         9.72772698
  Ewald energy   TEWEN  =     22983.81802953
  -Hartree energ DENC   =    -39416.11637572
  -exchange      EXHF   =         0.00000000
  -V(xc)+E(xc)   XCENC  =       574.30240456
  PAW double counting   =     16646.69830230   -18039.85883759
  entropy T*S    EENTRO =        -0.02228047
  eigenvalues    EBANDS =      -872.29327992
  atomic energy  EATOM  =     18082.44932260
  Solvation  Ediel_sol  =         0.00000000
  ---------------------------------------------------
  free energy    TOTEN  =       -31.29498773 eV

  energy without entropy =      -31.27270726  energy(sigma->0) =      -31.28756091


--------------------------------------------------------------------------------------------------------




--------------------------------------- Iteration      1(  22)  ---------------------------------------


    POTLOK:  cpu time    4.1902: real time    4.1955
    SETDIJ:  cpu time    0.0360: real time    0.0361
     EDDAV:  cpu time   17.3961: real time   17.4146
       DOS:  cpu time    0.0030: real time    0.0030
    CHARGE:  cpu time    1.2786: real time    1.2798
    MIXING:  cpu time    0.2110: real time    0.2112
    --------------------------------------------
      LOOP:  cpu time   23.1149: real time   23.1401

 eigenvalue-minimisations  :   528
 total energy-change (2. order) :-0.1690231E+00  (-0.4654191E-03)
 number of electron     143.0000167 magnetization       1.1615745
 augmentation part       91.8763261 magnetization       0.2018068

 Broyden mixing:
  rms(total) = 0.87773E-02    rms(broyden)= 0.87569E-02
  rms(prec ) = 0.99005E-02
  weight for this iteration     100.00

 eigenvalues of (default mixing * dielectric matrix)
  average eigenvalue GAMMA=   1.7819
 12.0321  3.2146  3.2146  1.6835  1.6835  1.2589  1.2589  0.7763  0.7763  0.6878
  0.6878  0.5724  0.5724  0.5300  0.4808  0.4649  0.3967

 Free energy of the ion-electron system (eV)
  ---------------------------------------------------
  alpha Z        PSCENC =         9.72772698
  Ewald energy   TEWEN  =     22983.81802953
  -Hartree energ DENC   =    -39413.97079305
  -exchange      EXHF   =         0.00000000
  -V(xc)+E(xc)   XCENC  =       574.10825651
  PAW double counting   =     16648.47707886   -18041.62212708
  entropy T*S    EENTRO =        -0.02838309
  eigenvalues    EBANDS =      -874.42312204
  atomic energy  EATOM  =     18082.44932260
  Solvation  Ediel_sol  =         0.00000000
  ---------------------------------------------------
  free energy    TOTEN  =       -31.46401079 eV

  energy without entropy =      -31.43562770  energy(sigma->0) =      -31.45454976


--------------------------------------------------------------------------------------------------------




--------------------------------------- Iteration      1(  23)  ---------------------------------------


    POTLOK:  cpu time    4.1529: real time    4.1609
    SETDIJ:  cpu time    0.0346: real time    0.0346
     EDDAV:  cpu time   16.6677: real time   16.6835
       DOS:  cpu time    0.0036: real time    0.0036
    CHARGE:  cpu time    1.3067: real time    1.3078
    MIXING:  cpu time    0.2318: real time    0.2320
    --------------------------------------------
      LOOP:  cpu time   22.3974: real time   22.4804

 eigenvalue-minimisations  :   500
 total energy-change (2. order) :-0.8453443E-01  (-0.2292918E-03)
 number of electron     143.0000167 magnetization       1.0290190
 augmentation part       91.8725137 magnetization       0.1397954

 Broyden mixing:
  rms(total) = 0.55459E-02    rms(broyden)= 0.55290E-02
  rms(prec ) = 0.65696E-02
  weight for this iteration     100.00

 eigenvalues of (default mixing * dielectric matrix)
  average eigenvalue GAMMA=   1.8227
 12.9371  3.4766  3.4766  1.7423  1.7423  1.2238  1.1595  1.1595  0.7697  0.7697
  0.7433  0.6456  0.5688  0.5688  0.4880  0.4698  0.4698  0.3972

 Free energy of the ion-electron system (eV)
  ---------------------------------------------------
  alpha Z        PSCENC =         9.72772698
  Ewald energy   TEWEN  =     22983.81802953
  -Hartree energ DENC   =    -39412.92382862
  -exchange      EXHF   =         0.00000000
  -V(xc)+E(xc)   XCENC  =       574.01539335
  PAW double counting   =     16651.79367772   -18045.01730177
  entropy T*S    EENTRO =        -0.03075164
  eigenvalues    EBANDS =      -875.38081337
  atomic energy  EATOM  =     18082.44932260
  Solvation  Ediel_sol  =         0.00000000
  ---------------------------------------------------
  free energy    TOTEN  =       -31.54854522 eV

  energy without entropy =      -31.51779359  energy(sigma->0) =      -31.53829468


--------------------------------------------------------------------------------------------------------




--------------------------------------- Iteration      1(  24)  ---------------------------------------


    POTLOK:  cpu time    5.7342: real time    5.8001
    SETDIJ:  cpu time    0.0338: real time    0.0338
     EDDAV:  cpu time   15.9268: real time   15.9472
       DOS:  cpu time    0.0028: real time    0.0028
    CHARGE:  cpu time    1.3123: real time    1.3134
    MIXING:  cpu time    0.2519: real time    0.2522
    --------------------------------------------
      LOOP:  cpu time   23.2617: real time   23.2914

 eigenvalue-minimisations  :   468
 total energy-change (2. order) :-0.4067673E-01  (-0.1156859E-03)
 number of electron     143.0000167 magnetization       0.9440506
 augmentation part       91.8761153 magnetization       0.1118025

 Broyden mixing:
  rms(total) = 0.42268E-02    rms(broyden)= 0.42139E-02
  rms(prec ) = 0.50655E-02
  weight for this iteration     100.00

 eigenvalues of (default mixing * dielectric matrix)
  average eigenvalue GAMMA=   1.8418
 13.5633  3.7065  3.7065  1.7647  1.7647  1.3722  1.3722  1.1839  0.8675  0.7617
  0.7617  0.6869  0.5676  0.5676  0.5354  0.4864  0.4645  0.4645  0.3964

 Free energy of the ion-electron system (eV)
  ---------------------------------------------------
  alpha Z        PSCENC =         9.72772698
  Ewald energy   TEWEN  =     22983.81802953
  -Hartree energ DENC   =    -39411.61410756
  -exchange      EXHF   =         0.00000000
  -V(xc)+E(xc)   XCENC  =       573.95914369
  PAW double counting   =     16651.16722251   -18044.29637775
  entropy T*S    EENTRO =        -0.03383568
  eigenvalues    EBANDS =      -876.76634626
  atomic energy  EATOM  =     18082.44932260
  Solvation  Ediel_sol  =         0.00000000
  ---------------------------------------------------
  free energy    TOTEN  =       -31.58922196 eV

  energy without entropy =      -31.55538628  energy(sigma->0) =      -31.57794340


--------------------------------------------------------------------------------------------------------




--------------------------------------- Iteration      1(  25)  ---------------------------------------


    POTLOK:  cpu time    4.1303: real time    4.1388
    SETDIJ:  cpu time    0.0366: real time    0.0366
     EDDAV:  cpu time   14.3671: real time   14.3905
       DOS:  cpu time    0.0030: real time    0.0030
    CHARGE:  cpu time    1.2948: real time    1.2979
    MIXING:  cpu time    0.2711: real time    0.2713
    --------------------------------------------
      LOOP:  cpu time   20.1028: real time   20.1380

 eigenvalue-minimisations  :   408
 total energy-change (2. order) :-0.2037478E-01  (-0.8543825E-04)
 number of electron     143.0000167 magnetization       0.8761336
 augmentation part       91.8787032 magnetization       0.0872792

 Broyden mixing:
  rms(total) = 0.33581E-02    rms(broyden)= 0.33482E-02
  rms(prec ) = 0.39067E-02
  weight for this iteration     100.00

 eigenvalues of (default mixing * dielectric matrix)
  average eigenvalue GAMMA=   1.8606
 14.1219  3.9768  3.9768  1.7478  1.7478  1.6323  1.6323  1.0425  1.0425  0.7562
  0.7562  0.7199  0.5756  0.5756  0.5887  0.3970  0.5148  0.4713  0.4713  0.4641

 Free energy of the ion-electron system (eV)
  ---------------------------------------------------
  alpha Z        PSCENC =         9.72772698
  Ewald energy   TEWEN  =     22983.81802953
  -Hartree energ DENC   =    -39410.66020744
  -exchange      EXHF   =         0.00000000
  -V(xc)+E(xc)   XCENC  =       573.93278642
  PAW double counting   =     16650.30054689   -18043.37870785
  entropy T*S    EENTRO =        -0.03552073
  eigenvalues    EBANDS =      -877.76357311
  atomic energy  EATOM  =     18082.44932260
  Solvation  Ediel_sol  =         0.00000000
  ---------------------------------------------------
  free energy    TOTEN  =       -31.60959673 eV

  energy without entropy =      -31.57407600  energy(sigma->0) =      -31.59775649


--------------------------------------------------------------------------------------------------------




--------------------------------------- Iteration      1(  26)  ---------------------------------------


    POTLOK:  cpu time    4.1985: real time    4.2025
    SETDIJ:  cpu time    0.0351: real time    0.0351
     EDDAV:  cpu time   11.9143: real time   11.9378
       DOS:  cpu time    0.0028: real time    0.0028
    CHARGE:  cpu time    1.3077: real time    1.3109
    MIXING:  cpu time    0.2938: real time    0.2941
    --------------------------------------------
      LOOP:  cpu time   17.7521: real time   17.7832

 eigenvalue-minimisations  :   312
 total energy-change (2. order) :-0.1256253E-01  (-0.4648142E-04)
 number of electron     143.0000167 magnetization       0.8283309
 augmentation part       91.8762351 magnetization       0.0736726

 Broyden mixing:
  rms(total) = 0.24705E-02    rms(broyden)= 0.24616E-02
  rms(prec ) = 0.28595E-02
  weight for this iteration     100.00

 eigenvalues of (default mixing * dielectric matrix)
  average eigenvalue GAMMA=   1.8649
 14.4913  4.2117  4.2117  1.8651  1.7995  1.7995  1.2965  1.2965  1.1389  0.7621
  0.7621  0.7561  0.6804  0.6804  0.5747  0.5747  0.4948  0.4704  0.4704  0.3965
  0.4293

 Free energy of the ion-electron system (eV)
  ---------------------------------------------------
  alpha Z        PSCENC =         9.72772698
  Ewald energy   TEWEN  =     22983.81802953
  -Hartree energ DENC   =    -39410.05713200
  -exchange      EXHF   =         0.00000000
  -V(xc)+E(xc)   XCENC  =       573.92119016
  PAW double counting   =     16650.30453574   -18043.40275499
  entropy T*S    EENTRO =        -0.03705344
  eigenvalues    EBANDS =      -878.34602383
  atomic energy  EATOM  =     18082.44932260
  Solvation  Ediel_sol  =         0.00000000
  ---------------------------------------------------
  free energy    TOTEN  =       -31.62215926 eV

  energy without entropy =      -31.58510582  energy(sigma->0) =      -31.60980811


--------------------------------------------------------------------------------------------------------




--------------------------------------- Iteration      1(  27)  ---------------------------------------


    POTLOK:  cpu time    4.2084: real time    4.2155
    SETDIJ:  cpu time    0.0351: real time    0.0351
     EDDAV:  cpu time   11.6549: real time   11.6689
       DOS:  cpu time    0.0028: real time    0.0028
    CHARGE:  cpu time    1.2818: real time    1.2871
    MIXING:  cpu time    0.3042: real time    0.3044
    --------------------------------------------
      LOOP:  cpu time   17.4871: real time   17.5138

 eigenvalue-minimisations  :   304
 total energy-change (2. order) :-0.5856428E-02  (-0.2855924E-04)
 number of electron     143.0000167 magnetization       0.7802071
 augmentation part       91.8751811 magnetization       0.0514501

 Broyden mixing:
  rms(total) = 0.20941E-02    rms(broyden)= 0.20885E-02
  rms(prec ) = 0.23634E-02
  weight for this iteration     100.00

 eigenvalues of (default mixing * dielectric matrix)
  average eigenvalue GAMMA=   1.8643
 14.8162  4.4711  4.4711  1.9819  1.9819  1.5611  1.4634  1.4634  1.0865  0.8592
  0.8592  0.7648  0.7648  0.6445  0.5717  0.5717  0.5064  0.4910  0.4636  0.4636
  0.3961  0.3616

 Free energy of the ion-electron system (eV)
  ---------------------------------------------------
  alpha Z        PSCENC =         9.72772698
  Ewald energy   TEWEN  =     22983.81802953
  -Hartree energ DENC   =    -39409.58227143
  -exchange      EXHF   =         0.00000000
  -V(xc)+E(xc)   XCENC  =       573.91328988
  PAW double counting   =     16650.03831120   -18043.14080569
  entropy T*S    EENTRO =        -0.03844816
  eigenvalues    EBANDS =      -878.81317060
  atomic energy  EATOM  =     18082.44932260
  Solvation  Ediel_sol  =         0.00000000
  ---------------------------------------------------
  free energy    TOTEN  =       -31.62801569 eV

  energy without entropy =      -31.58956753  energy(sigma->0) =      -31.61519963


--------------------------------------------------------------------------------------------------------




--------------------------------------- Iteration      1(  28)  ---------------------------------------


    POTLOK:  cpu time    4.1816: real time   14.7469
    SETDIJ:  cpu time    0.0342: real time    0.0342
     EDDAV:  cpu time   11.0377: real time   11.0543
       DOS:  cpu time    0.0030: real time    0.0030
    CHARGE:  cpu time    1.2842: real time    1.2852
    MIXING:  cpu time    0.3189: real time    0.3192
    --------------------------------------------
      LOOP:  cpu time   16.8594: real time   27.4428

 eigenvalue-minimisations  :   280
 total energy-change (2. order) :-0.5096911E-02  (-0.2398967E-04)
 number of electron     143.0000167 magnetization       0.7387955
 augmentation part       91.8759449 magnetization       0.0383377

 Broyden mixing:
  rms(total) = 0.18398E-02    rms(broyden)= 0.18337E-02
  rms(prec ) = 0.20080E-02
  weight for this iteration     100.00

 eigenvalues of (default mixing * dielectric matrix)
  average eigenvalue GAMMA=   1.8758
 15.2214  4.7877  4.7877  2.2482  2.2482  1.5798  1.5798  1.2384  1.2384  0.8706
  0.8706  0.7574  0.7574  0.6604  0.5707  0.5707  0.5213  0.5213  0.4662  0.4662
  0.4280  0.3970  0.3551

 Free energy of the ion-electron system (eV)
  ---------------------------------------------------
  alpha Z        PSCENC =         9.72772698
  Ewald energy   TEWEN  =     22983.81802953
  -Hartree energ DENC   =    -39409.05867551
  -exchange      EXHF   =         0.00000000
  -V(xc)+E(xc)   XCENC  =       573.90337453
  PAW double counting   =     16649.86428783   -18042.96906200
  entropy T*S    EENTRO =        -0.03967016
  eigenvalues    EBANDS =      -879.32844639
  atomic energy  EATOM  =     18082.44932260
  Solvation  Ediel_sol  =         0.00000000
  ---------------------------------------------------
  free energy    TOTEN  =       -31.63311260 eV

  energy without entropy =      -31.59344243  energy(sigma->0) =      -31.61988921


--------------------------------------------------------------------------------------------------------




--------------------------------------- Iteration      1(  29)  ---------------------------------------


    POTLOK:  cpu time    4.1649: real time    4.1710
    SETDIJ:  cpu time    0.0351: real time    0.0351
     EDDAV:  cpu time   11.0222: real time   11.0334
       DOS:  cpu time    0.0031: real time    0.0031
    CHARGE:  cpu time    1.3149: real time    1.3159
    MIXING:  cpu time    0.3225: real time    0.3249
    --------------------------------------------
      LOOP:  cpu time   16.8627: real time   16.8834

 eigenvalue-minimisations  :   280
 total energy-change (2. order) :-0.3734980E-02  (-0.2309390E-04)
 number of electron     143.0000167 magnetization       0.7192508
 augmentation part       91.8761802 magnetization       0.0437349

 Broyden mixing:
  rms(total) = 0.14173E-02    rms(broyden)= 0.14104E-02
  rms(prec ) = 0.15161E-02
  weight for this iteration     100.00

 eigenvalues of (default mixing * dielectric matrix)
  average eigenvalue GAMMA=   1.8859
 15.5730  5.0681  5.0681  2.3851  2.3851  1.6232  1.6232  1.2124  1.2124  0.9304
  0.9304  0.7452  0.7452  0.6857  0.6691  0.6691  0.5790  0.5790  0.4917  0.4690
  0.4690  0.3968  0.4356  0.3160

 Free energy of the ion-electron system (eV)
  ---------------------------------------------------
  alpha Z        PSCENC =         9.72772698
  Ewald energy   TEWEN  =     22983.81802953
  -Hartree energ DENC   =    -39408.67257788
  -exchange      EXHF   =         0.00000000
  -V(xc)+E(xc)   XCENC  =       573.89657004
  PAW double counting   =     16650.09639609   -18043.22019203
  entropy T*S    EENTRO =        -0.04052944
  eigenvalues    EBANDS =      -879.69159346
  atomic energy  EATOM  =     18082.44932260
  Solvation  Ediel_sol  =         0.00000000
  ---------------------------------------------------
  free energy    TOTEN  =       -31.63684758 eV

  energy without entropy =      -31.59631814  energy(sigma->0) =      -31.62333776


--------------------------------------------------------------------------------------------------------




--------------------------------------- Iteration      1(  30)  ---------------------------------------


    POTLOK:  cpu time    4.1773: real time    4.1850
    SETDIJ:  cpu time    0.0338: real time    0.0338
     EDDAV:  cpu time   11.2852: real time   11.2995
       DOS:  cpu time    0.0029: real time    0.0029
    CHARGE:  cpu time    1.2782: real time    1.2791
    MIXING:  cpu time    0.3415: real time    0.3418
    --------------------------------------------
      LOOP:  cpu time   17.1190: real time   17.1422

 eigenvalue-minimisations  :   288
 total energy-change (2. order) :-0.2264816E-02  (-0.1162552E-04)
[...]
     26      -6.3662      1.00000
     27      -6.3223      1.00000
     28      -6.2125      1.00000
     29      -6.1922      1.00000
     30      -6.1420      1.00000
     31      -6.0878      1.00000
     32      -6.0728      1.00000
     33      -6.0470      1.00000
     34      -5.9942      1.00000
     35      -5.9804      1.00000
     36      -5.9080      1.00000
     37      -5.8660      1.00000
     38      -5.8370      1.00000
     39      -5.7959      1.00000
     40      -5.7730      1.00000
     41      -5.7635      1.00000
     42      -5.7319      1.00000
     43      -5.6875      1.00000
     44      -5.6705      1.00000
     45      -5.6314      1.00000
     46      -5.6236      1.00000
     47      -5.6048      1.00000
     48      -5.5909      1.00000
     49      -5.5728      1.00000
     50      -5.5328      1.00000
     51      -5.5077      1.00000
     52      -5.4746      1.00000
     53      -5.4349      1.00000
     54      -5.4271      1.00000
     55      -5.3751      1.00000
     56      -5.3594      1.00000
     57      -5.3426      1.00000
     58      -5.3159      1.00000
     59      -5.2947      1.00000
     60      -5.2864      1.00000
     61      -5.2480      1.00000
     62      -5.2182      1.00000
     63      -5.2081      1.00000
     64      -5.2005      1.00000
     65      -5.1771      1.00000
     66      -5.1367      1.00000
     67      -5.1229      1.00000
     68      -5.1070      1.00000
     69      -4.9944      1.00000
     70      -4.7262      1.00000
     71      -4.4450      1.00008
     72      -3.8393      0.50409
     73      -3.4009     -0.00417
     74      -2.9775     -0.00000
     75      -2.9474     -0.00000
     76      -2.4857     -0.00000
     77      -2.4311     -0.00000
     78      -1.9470     -0.00000
     79      -1.9063     -0.00000
     80      -1.3355     -0.00000
     81      -1.1494     -0.00000
     82      -1.1278     -0.00000
     83      -0.9397     -0.00000
     84      -0.7306     -0.00000
     85      -0.5270     -0.00000
     86      -0.1776     -0.00000
     87      -0.0837     -0.00000
     88       0.0445     -0.00000
     89       0.1196     -0.00000
     90       0.2838     -0.00000
     91       0.3100     -0.00000
     92       0.3329     -0.00000

 spin component 2

 k-point     1 :       0.0000    0.0000    0.0000
  band No.  band energies     occupation 
      1     -10.3517      1.00000
      2      -9.1414      1.00000
      3      -8.3415      1.00000
      4      -8.1073      1.00000
      5      -7.8503      1.00000
      6      -7.5950      1.00000
      7      -7.4797      1.00000
      8      -7.4422      1.00000
      9      -7.3150      1.00000
     10      -7.2242      1.00000
     11      -7.1256      1.00000
     12      -7.0142      1.00000
     13      -6.9721      1.00000
     14      -6.9632      1.00000
     15      -6.9249      1.00000
     16      -6.9029      1.00000
     17      -6.8402      1.00000
     18      -6.6932      1.00000
     19      -6.6765      1.00000
     20      -6.6064      1.00000
     21      -6.5699      1.00000
     22      -6.5114      1.00000
     23      -6.4848      1.00000
     24      -6.4439      1.00000
     25      -6.3818      1.00000
     26      -6.3662      1.00000
     27      -6.3223      1.00000
     28      -6.2125      1.00000
     29      -6.1922      1.00000
     30      -6.1420      1.00000
     31      -6.0878      1.00000
     32      -6.0728      1.00000
     33      -6.0470      1.00000
     34      -5.9942      1.00000
     35      -5.9804      1.00000
     36      -5.9080      1.00000
     37      -5.8660      1.00000
     38      -5.8370      1.00000
     39      -5.7959      1.00000
     40      -5.7730      1.00000
     41      -5.7635      1.00000
     42      -5.7319      1.00000
     43      -5.6875      1.00000
     44      -5.6705      1.00000
     45      -5.6314      1.00000
     46      -5.6236      1.00000
     47      -5.6048      1.00000
     48      -5.5909      1.00000
     49      -5.5728      1.00000
     50      -5.5328      1.00000
     51      -5.5077      1.00000
     52      -5.4746      1.00000
     53      -5.4349      1.00000
     54      -5.4271      1.00000
     55      -5.3751      1.00000
     56      -5.3594      1.00000
     57      -5.3426      1.00000
     58      -5.3159      1.00000
     59      -5.2947      1.00000
     60      -5.2864      1.00000
     61      -5.2480      1.00000
     62      -5.2182      1.00000
     63      -5.2081      1.00000
     64      -5.2005      1.00000
     65      -5.1771      1.00000
     66      -5.1367      1.00000
     67      -5.1229      1.00000
     68      -5.1070      1.00000
     69      -4.9944      1.00000
     70      -4.7262      1.00000
     71      -4.4450      1.00008
     72      -3.8393      0.50409
     73      -3.4009     -0.00417
     74      -2.9775     -0.00000
     75      -2.9474     -0.00000
     76      -2.4857     -0.00000
     77      -2.4311     -0.00000
     78      -1.9470     -0.00000
     79      -1.9063     -0.00000
     80      -1.3355     -0.00000
     81      -1.1494     -0.00000
     82      -1.1278     -0.00000
     83      -0.9397     -0.00000
     84      -0.7306     -0.00000
     85      -0.5270     -0.00000
     86      -0.1776     -0.00000
     87      -0.0837     -0.00000
     88       0.0445     -0.00000
     89       0.1196     -0.00000
     90       0.2839     -0.00000
     91       0.3100     -0.00000
     92       0.3329     -0.00000


--------------------------------------------------------------------------------------------------------


 soft charge-density along one line, spin component            1
         0         1         2         3         4         5         6         7         8         9
 total charge-density along one line
 
 soft charge-density along one line, spin component            2
         0         1         2         3         4         5         6         7         8         9
 total charge-density along one line
 
 pseudopotential strength for first ion, spin component:            1
-10.780  -0.010   0.006   0.016  -0.006   1.220   0.008  -0.006
 -0.010 -10.766   0.013  -0.005  -0.015   0.008   1.208  -0.010
  0.006   0.013 -10.774   0.000   0.025  -0.006  -0.010   1.214
  0.016  -0.005   0.000 -10.795  -0.007  -0.013   0.004   0.000
 -0.006  -0.015   0.025  -0.007 -10.783   0.004   0.012  -0.020
  1.220   0.008  -0.006  -0.013   0.004   6.147  -0.006   0.004
  0.008   1.208  -0.010   0.004   0.012  -0.006   6.155   0.008
 -0.006  -0.010   1.214   0.000  -0.020   0.004   0.008   6.151
 -0.013   0.004   0.000   1.231   0.006   0.011  -0.004   0.000
  0.004   0.012  -0.020   0.006   1.222  -0.003  -0.010   0.015
  0.003  -0.006  -0.001   0.003   0.006  -0.002   0.005   0.001
  0.006  -0.011  -0.001   0.006   0.011  -0.003   0.008   0.001
  0.005  -0.010   0.008   0.000   0.013  -0.003   0.009  -0.008
  0.000  -0.013  -0.011   0.006  -0.000   0.000   0.013   0.011
 -0.014   0.000  -0.003  -0.010   0.006   0.014   0.000   0.002
  0.006  -0.011   0.010   0.000   0.016  -0.002   0.011  -0.010
  0.000  -0.016  -0.013   0.006  -0.000   0.000   0.016   0.014
 -0.017   0.000  -0.004  -0.012   0.007   0.018   0.000   0.002
 pseudopotential strength for first ion, spin component:            2
-10.780  -0.010   0.006   0.016  -0.006   1.220   0.008  -0.006
 -0.010 -10.766   0.013  -0.005  -0.015   0.008   1.208  -0.010
  0.006   0.013 -10.774   0.000   0.025  -0.006  -0.010   1.214
  0.016  -0.005   0.000 -10.795  -0.007  -0.013   0.004   0.000
 -0.006  -0.015   0.025  -0.007 -10.783   0.004   0.012  -0.020
  1.220   0.008  -0.006  -0.013   0.004   6.147  -0.006   0.004
  0.008   1.208  -0.010   0.004   0.012  -0.006   6.155   0.008
 -0.006  -0.010   1.214   0.000  -0.020   0.004   0.008   6.151
 -0.013   0.004   0.000   1.231   0.006   0.011  -0.004   0.000
  0.004   0.012  -0.020   0.006   1.222  -0.003  -0.010   0.015
  0.003  -0.006  -0.001   0.003   0.006  -0.002   0.005   0.001
  0.006  -0.011  -0.001   0.006   0.011  -0.003   0.008   0.001
  0.005  -0.010   0.008   0.000   0.013  -0.003   0.009  -0.008
  0.000  -0.013  -0.011   0.006  -0.000   0.000   0.013   0.011
 -0.014   0.000  -0.003  -0.010   0.006   0.014   0.000   0.002
  0.006  -0.011   0.010   0.000   0.016  -0.002   0.011  -0.010
  0.000  -0.016  -0.013   0.006  -0.000   0.000   0.016   0.014
 -0.017   0.000  -0.004  -0.012   0.007   0.018   0.000   0.002
 total augmentation occupancy for first ion, spin component:            1
  1.940  -0.009   0.006   0.010  -0.008  -0.020   0.005  -0.003  -0.002   0.006  -0.012  -0.006  -0.024   0.003   0.019   0.010
 -0.009   1.927   0.014  -0.006  -0.009   0.005  -0.018  -0.003   0.001   0.000   0.017   0.003   0.018   0.027  -0.004  -0.009
  0.006   0.014   1.940   0.004   0.018  -0.003  -0.003  -0.022  -0.003  -0.006  -0.020   0.001  -0.011   0.030   0.013   0.008
  0.010  -0.006   0.004   1.931  -0.003  -0.002   0.001  -0.003  -0.017   0.003  -0.016  -0.006   0.004  -0.024   0.015   0.000
 -0.008  -0.009   0.018  -0.003   1.931   0.006   0.000  -0.006   0.003  -0.018  -0.006  -0.004  -0.032  -0.007  -0.014   0.014
 -0.020   0.005  -0.003  -0.002   0.006   0.012   0.000  -0.001   0.001   0.000   0.014  -0.000  -0.002   0.001   0.025   0.000
  0.005  -0.018  -0.003   0.001   0.000   0.000   0.011   0.002   0.000  -0.001  -0.005  -0.003   0.009   0.021   0.004  -0.001
 -0.003  -0.003  -0.022  -0.003  -0.006  -0.001   0.002   0.013   0.000   0.002  -0.001   0.001  -0.017   0.028   0.005   0.001
 -0.002   0.001  -0.003  -0.017   0.003   0.001   0.000   0.000   0.011   0.001   0.021  -0.001   0.001  -0.003   0.016  -0.000
  0.006   0.000  -0.006   0.003  -0.018   0.000  -0.001   0.002   0.001   0.013   0.014   0.001  -0.024   0.005  -0.011   0.001
 -0.012   0.017  -0.020  -0.016  -0.006   0.014  -0.005  -0.001   0.021   0.014   1.639  -0.128   0.166   0.124  -0.078  -0.024
 -0.006   0.003   0.001  -0.006  -0.004  -0.000  -0.003   0.001  -0.001   0.001  -0.128   0.017  -0.029  -0.021   0.007   0.003
 -0.024   0.018  -0.011   0.004  -0.032  -0.002   0.009  -0.017   0.001  -0.024   0.166  -0.029   0.141  -0.013   0.019  -0.011
  0.003   0.027   0.030  -0.024  -0.007   0.001   0.021   0.028  -0.003   0.005   0.124  -0.021  -0.013   0.151   0.019  -0.001
  0.019  -0.004   0.013   0.015  -0.014   0.025   0.004   0.005   0.016  -0.011  -0.078   0.007   0.019   0.019   0.173  -0.001
  0.010  -0.009   0.008   0.000   0.014   0.000  -0.001   0.001  -0.000   0.001  -0.024   0.003  -0.011  -0.001  -0.001   0.001
  0.000  -0.013  -0.014   0.010  -0.001  -0.000  -0.001  -0.002   0.000  -0.000  -0.018   0.002  -0.001  -0.010  -0.001   0.000
 -0.013  -0.000  -0.006  -0.010   0.010  -0.001  -0.000  -0.000  -0.001   0.001   0.009  -0.001  -0.001  -0.001  -0.011  -0.000
 total augmentation occupancy for first ion, spin component:            2
 -0.000  -0.000   0.000   0.000   0.000   0.000   0.000  -0.000   0.000  -0.000  -0.000  -0.000  -0.000   0.000  -0.000  -0.000
 -0.000   0.000   0.000   0.000   0.000   0.000   0.000   0.000  -0.000  -0.000   0.000   0.000  -0.000  -0.000  -0.000  -0.000
  0.000   0.000   0.000   0.000  -0.000   0.000   0.000   0.000   0.000  -0.000  -0.000   0.000  -0.000   0.000   0.000   0.000
  0.000   0.000   0.000   0.000   0.000   0.000  -0.000   0.000   0.000  -0.000   0.000   0.000  -0.000  -0.000  -0.000  -0.000
  0.000   0.000  -0.000   0.000   0.000  -0.000  -0.000  -0.000   0.000   0.000   0.000   0.000  -0.000  -0.000  -0.000   0.000
  0.000   0.000   0.000   0.000  -0.000  -0.000  -0.000   0.000  -0.000   0.000   0.000   0.000  -0.000  -0.000  -0.000   0.000
  0.000   0.000   0.000  -0.000  -0.000  -0.000   0.000  -0.000   0.000   0.000  -0.000  -0.000   0.000   0.000   0.000   0.000
 -0.000   0.000   0.000   0.000  -0.000   0.000  -0.000  -0.000  -0.000  -0.000   0.000   0.000   0.000  -0.000   0.000  -0.000
  0.000  -0.000   0.000   0.000   0.000  -0.000   0.000  -0.000   0.000   0.000  -0.000  -0.000   0.000   0.000   0.000   0.000
 -0.000  -0.000  -0.000  -0.000   0.000   0.000   0.000  -0.000   0.000  -0.000  -0.000  -0.000   0.000   0.000   0.000   0.000
 -0.000   0.000  -0.000   0.000   0.000   0.000  -0.000   0.000  -0.000  -0.000   0.000   0.000  -0.000  -0.000  -0.000  -0.000
 -0.000   0.000   0.000   0.000   0.000   0.000  -0.000   0.000  -0.000  -0.000   0.000   0.000  -0.000  -0.000  -0.000  -0.000
 -0.000  -0.000  -0.000  -0.000  -0.000  -0.000   0.000   0.000   0.000   0.000  -0.000  -0.000   0.000   0.000   0.000   0.000
  0.000  -0.000   0.000  -0.000  -0.000  -0.000   0.000  -0.000   0.000   0.000  -0.000  -0.000   0.000   0.000   0.000   0.000
 -0.000  -0.000   0.000  -0.000  -0.000  -0.000   0.000   0.000   0.000   0.000  -0.000  -0.000   0.000   0.000   0.000  -0.000
 -0.000  -0.000   0.000  -0.000   0.000   0.000   0.000  -0.000   0.000   0.000  -0.000  -0.000   0.000   0.000  -0.000   0.000
 -0.000  -0.000  -0.000  -0.000   0.000   0.000   0.000   0.000   0.000   0.000   0.000  -0.000   0.000  -0.000   0.000  -0.000
 -0.000  -0.000  -0.000   0.000   0.000   0.000  -0.000  -0.000   0.000   0.000   0.000  -0.000  -0.000  -0.000  -0.000   0.000


------------------------ aborting loop because EDIFF is reached ----------------------------------------


    CHARGE:  cpu time    1.3641: real time    1.3652
    FORLOC:  cpu time    0.1727: real time    0.1750
    FORNL :  cpu time   10.7566: real time   10.7658
    FORCOR:  cpu time    4.2044: real time    4.2084
    FORHAR:  cpu time    0.5640: real time    0.5667
    MIXING:  cpu time    0.0836: real time    0.0837
    OFIELD:  cpu time    0.0001: real time    0.0000

 VOLUME and BASIS-vectors are now :
 -----------------------------------------------------------------------------
  energy-cutoff  :      400.00
  volume of cell :    12705.38
      direct lattice vectors                 reciprocal lattice vectors
    24.264921133  0.000000000  0.000000000     0.041211756  0.000000000  0.000000000
     0.000000000 23.767820890  0.000000000     0.000000000  0.042073693  0.000000000
     0.000000000  0.000000000 22.030243867     0.000000000  0.000000000  0.045392144

  length of vectors
    24.264921133 23.767820890 22.030243867     0.041211756  0.042073693  0.045392144


 FORCES acting on ions
    electron-ion (+dipol)            ewald-force                    non-local-force                 convergence-correction
 -----------------------------------------------------------------------------------------------
   -.669E+03 0.830E+03 0.648E+03   0.666E+03 -.828E+03 -.646E+03   0.288E+01 -.240E+01 -.205E+01   0.400E-01 0.582E-01 -.333E-01
   -.416E+03 -.932E+03 -.681E+03   0.412E+03 0.929E+03 0.679E+03   0.348E+01 0.230E+01 0.213E+01   -.175E-01 -.289E-01 -.221E-01
   0.248E+01 -.645E+03 0.102E+04   -.253E+01 0.641E+03 -.102E+04   0.433E-01 0.369E+01 -.373E+01   0.374E-02 -.696E-01 -.277E-01
   0.267E+03 -.999E+03 -.618E+03   -.265E+03 0.995E+03 0.616E+03   -.220E+01 0.426E+01 0.136E+01   -.128E-01 0.610E-02 -.802E-01
   0.105E+04 -.657E+03 -.300E+03   -.104E+04 0.650E+03 0.297E+03   -.879E+01 0.718E+01 0.245E+01   0.178E-01 -.677E-04 0.343E-01
   0.857E+03 -.350E+03 0.972E+03   -.851E+03 0.347E+03 -.967E+03   -.538E+01 0.277E+01 -.519E+01   -.364E-01 -.520E-02 0.369E-01
   -.132E+04 -.104E+03 -.116E+03   0.131E+04 0.104E+03 0.116E+03   0.943E+01 0.258E+00 0.223E+00   0.273E-01 0.884E-01 0.188E+00
   -.747E+03 -.738E+03 0.820E+03   0.743E+03 0.733E+03 -.813E+03   0.379E+01 0.552E+01 -.705E+01   -.203E-01 -.585E-01 -.948E-02
   -.798E+01 0.510E+03 -.937E+03   0.916E+01 -.509E+03 0.934E+03   -.109E+01 -.131E+01 0.237E+01   -.763E-01 0.540E-01 -.614E-01
   0.233E+03 0.858E+03 0.934E+03   -.233E+03 -.854E+03 -.931E+03   -.550E+00 -.434E+01 -.291E+01   -.415E-02 0.254E-01 0.272E-02
   0.106E+04 0.400E+03 -.493E+03   -.106E+04 -.399E+03 0.492E+03   -.362E+01 -.367E+00 0.141E+01   -.850E-02 0.191E-01 0.162E-01
   -.711E+03 0.591E+03 -.962E+03   0.708E+03 -.585E+03 0.953E+03   0.280E+01 -.533E+01 0.835E+01   0.200E-01 -.128E+00 -.110E+00
   0.392E+03 0.123E+04 -.288E+03   -.392E+03 -.122E+04 0.286E+03   0.148E+00 -.128E+02 0.198E+01   0.179E-01 0.359E-01 0.372E-01
 -----------------------------------------------------------------------------------------------
   -.892E+00 0.552E+00 0.687E+00   -.114E-12 -.455E-12 0.171E-12   0.939E+00 -.565E+00 -.654E+00   -.491E-01 -.285E-02 -.281E-01
 
 
 POSITION                                       TOTAL-FORCE (eV/Angst)
 -----------------------------------------------------------------------------------
     13.71589     11.34976     10.47495         0.013033     -0.002751     -0.004120
     13.42691     13.31670     11.91602        -0.007145      0.000747      0.003312
     12.16202     13.11015      9.76543        -0.007205      0.000236     -0.007350
     10.98715     13.54771     11.87989         0.001395      0.008715     -0.013922
      8.57078     13.69740     11.75253        -0.005763      0.008291      0.010827
      9.74807     12.85629      9.79480        -0.004832      0.002167     -0.006822
     15.69784     12.51008     11.41365         0.004050      0.032075      0.014808
     14.49264     13.63263      9.71641         0.015183     -0.014542      0.006880
     11.99843     11.32089     12.32057         0.017314      0.009482      0.004777
     11.22315     10.92444     10.05167        -0.005933     -0.007697     -0.006002
      9.56276     11.55263     11.82918        -0.006203     -0.004437      0.007369
     14.34276     11.23741     12.86281        -0.015487     -0.032896     -0.017816
     10.53651      9.43880     11.84604         0.001592      0.000610      0.008059
 -----------------------------------------------------------------------------------
    total drift:                               -0.001839     -0.015479      0.005017


--------------------------------------------------------------------------------------------------------



  FREE ENERGIE OF THE ION-ELECTRON SYSTEM (eV)
  ---------------------------------------------------
  free  energy   TOTEN  =       -32.62614012 eV

  energy  without entropy=      -32.57386533  energy(sigma->0) =      -32.60871519
 
 d Force = 0.1019383E-03[ 0.121E-03, 0.827E-04]  d Energy = 0.1953758E-03-0.934E-04
 d Force =-0.2480713E+01[-0.248E+01,-0.248E+01]  d Ewald  =-0.2480714E+01 0.698E-06


--------------------------------------------------------------------------------------------------------


    POTLOK:  cpu time    4.1513: real time    4.1627


--------------------------------------------------------------------------------------------------------




--------------------------------------------------------------------------------------------------------


  
 reached required accuracy - stopping structural energy minimisation
     LOOP+:  cpu time   78.5268: real time   78.6826
    4ORBIT:  cpu time    0.0000: real time    0.0000

 total amount of memory used by VASP MPI-rank0   262818. kBytes
=======================================================================

   base      :      30000. kBytes
   nonl-proj :       5078. kBytes
   fftplans  :      56793. kBytes
   grid      :     128390. kBytes
   one-center:         31. kBytes
   wavefun   :      42526. kBytes
 
  
  
 General timing and accounting informations for this job:
 ========================================================
  
                  Total CPU time used (sec):    66619.977
                            User time (sec):    66491.587
                          System time (sec):      128.393
                         Elapsed time (sec):    66822.873
  
                   Maximum memory used (kb):      552336.
                   Average memory used (kb):           0.
  
                          Minor page faults:     62324257
                          Major page faults:       447096
                 Voluntary context switches:         8372
