<?xml version="1.0" encoding="ISO-8859-1"?>
<modeling>
 <generator>
  <i name="program" type="string">vasp </i>
  <i name="version" type="string">6.1.2  </i>
  <i name="subversion" type="string">22Jul20 (build Jan 14 2022 17:24:41) gamma-only                       parallel </i>
  <i name="platform" type="string">LinuxPGI </i>
  <i name="date" type="string">2022 01 31 </i>
  <i name="time" type="string">15:26:13 </i>
 </generator>
 <incar>
  <i type="int" name="ISPIN">     2</i>
  <i type="int" name="IBRION">     2</i>
  <i type="int" name="NSW">  1000</i>
  <i type="int" name="ISIF">     0</i>
  <i type="int" name="ISYM">     0</i>
  <i name="ENCUT">    400.00000000</i>
  <i type="logical" name="LREAL"> F  </i>
  <i type="int" name="ISMEAR">     1</i>
  <i name="SIGMA">      0.20000000</i>
  <i type="logical" name="LWAVE"> F  </i>
  <i type="logical" name="LCHARG"> F  </i>
  <i type="int" name="KPAR">     1</i>
  <i type="int" name="NCORE">     8</i>
  <i type="string" name="GGA"> PE</i>
  <i type="int" name="ISPIN">     2</i>
 </incar>
 <structure name="primitive_cell" >
  <crystal>
   <varray name="basis" >
    <v>      24.26492113       0.00000000       0.00000000 </v>
    <v>       0.00000000      23.76782089       0.00000000 </v>
    <v>       0.00000000       0.00000000      22.03024387 </v>
   </varray>
   <i name="volume">  12705.37695969 </i>
   <varray name="rec_basis" >
    <v>       0.04121176       0.00000000       0.00000000 </v>
    <v>       0.00000000       0.04207369       0.00000000 </v>
    <v>       0.00000000       0.00000000       0.04539214 </v>
   </varray>
  </crystal>
  <varray name="positions" >
   <v>       0.55872802       0.49012792       0.47105125 </v>
   <v>       0.54134841       0.58034474       0.53660976 </v>
   <v>       0.49067965       0.56326797       0.44195005 </v>
   <v>       0.43825616       0.57381374       0.53664635 </v>
   <v>       0.33915105       0.56290189       0.53551509 </v>
   <v>       0.39021269       0.53951648       0.44525984 </v>
   <v>       0.65374213       0.46397183       0.49538903 </v>
   <v>       0.63013814       0.56155029       0.48984078 </v>
   <v>       0.49508211       0.49003223       0.55841220 </v>
   <v>       0.46032176       0.46548461       0.45284653 </v>
   <v>       0.39423074       0.47779358       0.53775322 </v>
   <v>       0.59732419       0.50126325       0.57516512 </v>
   <v>       0.45897867       0.39839683       0.53374463 </v>
  </varray>
 </structure>
 <varray name="primitive_index" >
  <v type="int" >        1 </v>
  <v type="int" >        2 </v>
  <v type="int" >        3 </v>
  <v type="int" >        4 </v>
  <v type="int" >        5 </v>
  <v type="int" >        6 </v>
  <v type="int" >        7 </v>
  <v type="int" >        8 </v>
  <v type="int" >        9 </v>
  <v type="int" >       10 </v>
  <v type="int" >       11 </v>
  <v type="int" >       12 </v>
  <v type="int" >       13 </v>
 </varray>
 <kpoints>
  <generation param="Gamma">
   <v type="int" name="divisions">       1        1        1 </v>
   <v name="usershift">      0.00000000       0.00000000       0.00000000 </v>
   <v name="genvec1">      1.00000000       0.00000000       0.00000000 </v>
   <v name="genvec2">      0.00000000       1.00000000       0.00000000 </v>
   <v name="genvec3">      0.00000000       0.00000000       1.00000000 </v>
   <v name="shift">      0.00000000       0.00000000       0.00000000 </v>
  </generation>
  <varray name="kpointlist" >
   <v>       0.00000000       0.00000000       0.00000000 </v>
  </varray>
  <varray name="weights" >
   <v>       1.00000000 </v>
  </varray>
 </kpoints>
 <parameters>
  <separator name="general" >
   <i type="string" name="SYSTEM">unknown system</i>
   <i type="logical" name="LCOMPAT"> F  </i>
  </separator>
  <separator name="electronic" >
   <i type="string" name="PREC">normal</i>
   <i name="ENMAX">    400.00000000</i>
   <i name="ENAUG">    586.98000000</i>
   <i name="EDIFF">      0.00010000</i>
   <i type="int" name="IALGO">    38</i>
   <i type="int" name="IWAVPR">    11</i>
   <i type="int" name="NBANDS">    92</i>
   <i type="int" name="NBANDSLOW">    -1</i>
   <i type="int" name="NBANDSHIGH">    -1</i>
   <i name="NELECT">    143.00000000</i>
   <i type="int" name="TURBO">     0</i>
   <i type="int" name="IRESTART">     0</i>
   <i type="int" name="NREBOOT">     0</i>
   <i type="int" name="NMIN">     0</i>
   <i name="EREF">      0.00000000</i>
   <separator name="electronic smearing" >
    <i type="int" name="ISMEAR">     1</i>
    <i name="SIGMA">      0.20000000</i>
    <i name="KSPACING">      0.50000000</i>
    <i type="logical" name="KGAMMA"> T  </i>
    <i type="logical" name="KBLOWUP"> T  </i>
   </separator>
   <separator name="electronic projectors" >
    <i type="logical" name="LREAL"> F  </i>
    <v name="ROPT">      0.00000000</v>
    <i type="int" name="LMAXPAW">  -100</i>
    <i type="int" name="LMAXMIX">     2</i>
    <i type="logical" name="NLSPLINE"> F  </i>
   </separator>
   <separator name="electronic startup" >
    <i type="int" name="ISTART">     0</i>
    <i type="int" name="ICHARG">     2</i>
    <i type="int" name="INIWAV">     1</i>
   </separator>
   <separator name="electronic spin" >
    <i type="int" name="ISPIN">     2</i>
    <i type="logical" name="LNONCOLLINEAR"> F  </i>
    <v name="MAGMOM">      1.00000000      1.00000000      1.00000000      1.00000000      1.00000000      1.00000000      1.00000000      1.00000000      1.00000000      1.00000000      1.00000000      1.00000000      1.00000000</v>
    <i name="NUPDOWN">     -1.00000000</i>
    <i type="logical" name="LSORBIT"> F  </i>
    <v name="SAXIS">      0.00000000      0.00000000      1.00000000</v>
    <i type="logical" name="LSPIRAL"> F  </i>
    <v name="QSPIRAL">      0.00000000      0.00000000      0.00000000</v>
    <i type="logical" name="LZEROZ"> F  </i>
   </separator>
   <separator name="electronic exchange-correlation" >
    <i type="logical" name="LASPH"> F  </i>
    <i type="logical" name="LMETAGGA"> F  </i>
   </separator>
   <separator name="electronic convergence" >
    <i type="int" name="NELM">    60</i>
    <i type="int" name="NELMDL">     0</i>
    <i type="int" name="NELMIN">     2</i>
    <i name="ENINI">    400.00000000</i>
    <separator name="electronic convergence detail" >
     <i type="logical" name="LDIAG"> T  </i>
     <i type="logical" name="LSUBROT"> F  </i>
     <i name="WEIMIN">      0.00100000</i>
     <i name="EBREAK">      0.00000027</i>
     <i name="DEPER">      0.30000000</i>
     <i type="int" name="NRMM">     4</i>
     <i name="TIME">      0.40000000</i>
    </separator>
   </separator>
   <separator name="electronic mixer" >
    <i name="AMIX">      0.40000000</i>
    <i name="BMIX">      1.00000000</i>
    <i name="AMIN">      0.10000000</i>
    <i name="AMIX_MAG">      1.60000000</i>
    <i name="BMIX_MAG">      1.00000000</i>
    <separator name="electronic mixer details" >
     <i type="int" name="IMIX">     4</i>
     <i type="logical" name="MIXFIRST"> F  </i>
     <i type="int" name="MAXMIX">   -45</i>
     <i name="WC">    100.00000000</i>
     <i type="int" name="INIMIX">     1</i>
     <i type="int" name="MIXPRE">     1</i>
     <i type="int" name="MREMOVE">     5</i>
    </separator>
   </separator>
   <separator name="electronic dipolcorrection" >
    <i type="logical" name="LDIPOL"> F  </i>
    <i type="logical" name="LMONO"> F  </i>
    <i type="int" name="IDIPOL">     0</i>
    <i name="EPSILON">      1.00000000</i>
    <v name="DIPOL">   -100.00000000   -100.00000000   -100.00000000</v>
    <i name="EFIELD">      0.00000000</i>
   </separator>
  </separator>
  <separator name="grids" >
   <i type="int" name="NGX">   120</i>
   <i type="int" name="NGY">   120</i>
   <i type="int" name="NGZ">   108</i>
   <i type="int" name="NGXF">   240</i>
   <i type="int" name="NGYF">   240</i>
   <i type="int" name="NGZF">   216</i>
   <i type="logical" name="ADDGRID"> F  </i>
  </separator>
  <separator name="ionic" >
   <i type="int" name="NSW">  1000</i>
   <i type="int" name="IBRION">     2</i>
   <i type="int" name="MDALGO">     0</i>
   <i type="int" name="ISIF">     0</i>
   <i name="PSTRESS">      0.00000000</i>
   <i name="EDIFFG">      0.00100000</i>
   <i type="int" name="NFREE">     1</i>
   <i name="POTIM">      0.50000000</i>
   <i name="SMASS">     -3.00000000</i>
   <i name="SCALEE">      1.00000000</i>
  </separator>
  <separator name="ionic md" >
   <i name="TEBEG">      0.00010000</i>
   <i name="TEEND">      0.00010000</i>
   <i type="int" name="NBLOCK">     1</i>
   <i type="int" name="KBLOCK">  1000</i>
   <i type="int" name="NPACO">   256</i>
   <i name="APACO">     16.00000000</i>
  </separator>
  <separator name="symmetry" >
   <i type="int" name="ISYM">     0</i>
   <i name="SYMPREC">      0.00001000</i>
  </separator>
  <separator name="dos" >
   <i type="int" name="LORBIT">     0</i>
   <v name="RWIGS">     -1.00000000</v>
   <i type="int" name="NEDOS">   301</i>
   <i name="EMIN">     10.00000000</i>
   <i name="EMAX">    -10.00000000</i>
   <i name="EFERMI">      0.00000000</i>
  </separator>
  <separator name="writing" >
   <i type="int" name="NWRITE">     2</i>
   <i type="logical" name="LWAVE"> F  </i>
   <i type="logical" name="LDOWNSAMPLE"> F  </i>
   <i type="logical" name="LCHARG"> F  </i>
   <i type="logical" name="LPARD"> F  </i>
   <i type="logical" name="LVTOT"> F  </i>
   <i type="logical" name="LVHAR"> F  </i>
   <i type="logical" name="LELF"> F  </i>
   <i type="logical" name="LOPTICS"> F  </i>
   <v name="STM">      0.00000000      0.00000000      0.00000000      0.00000000      0.00000000      0.00000000      0.00000000</v>
  </separator>
  <separator name="performance" >
   <i type="int" name="NPAR">     1</i>
   <i type="int" name="NSIM">     4</i>
   <i type="int" name="NBLK">    -1</i>
   <i type="logical" name="LPLANE"> T  </i>
   <i type="logical" name="LSCALAPACK"> T  </i>
   <i type="logical" name="LSCAAWARE"> F  </i>
   <i type="logical" name="LSCALU"> F  </i>
   <i type="logical" name="LASYNC"> F  </i>
   <i type="logical" name="LORBITALREAL"> F  </i>
  </separator>
  <separator name="miscellaneous" >
   <i type="int" name="IDIOT">     3</i>
   <i type="int" name="PHON_NSTRUCT">    -1</i>
   <i type="logical" name="LMUSIC"> F  </i>
   <v name="POMASS">     63.54600000</v>
   <v name="DARWINR">      0.00000000</v>
   <v name="DARWINV">      1.00000000</v>
   <i type="logical" name="LCORR"> T  </i>
  </separator>
  <i type="logical" name="GGA_COMPAT"> T  </i>
  <i type="logical" name="LBERRY"> F  </i>
  <i type="int" name="ICORELEVEL">     0</i>
  <i type="logical" name="LDAU"> F  </i>
  <i type="int" name="I_CONSTRAINED_M">     0</i>
  <separator name="electronic exchange-correlation" >
   <i type="string" name="GGA">PE</i>
   <i type="int" name="VOSKOWN">     0</i>
   <i type="logical" name="LHFCALC"> F  </i>
   <i type="string" name="PRECFOCK"></i>
   <i type="logical" name="LSYMGRAD"> F  </i>
   <i type="logical" name="LHFONE"> F  </i>
   <i type="logical" name="LRHFCALC"> F  </i>
   <i type="logical" name="LTHOMAS"> F  </i>
   <i type="logical" name="LMODELHF"> F  </i>
   <i type="logical" name="LFOCKACE"> F  </i>
   <i name="ENCUT4O">     -1.00000000</i>
   <i type="int" name="EXXOEP">     0</i>
   <i type="int" name="FOURORBIT">     0</i>
   <i name="AEXX">      0.00000000</i>
   <i name="HFALPHA">      0.00000000</i>
   <i name="MCALPHA">      0.00000000</i>
   <i name="ALDAX">      1.00000000</i>
   <i name="AGGAX">      1.00000000</i>
   <i name="ALDAC">      1.00000000</i>
   <i name="AGGAC">      1.00000000</i>
   <i type="int" name="NKREDX">     1</i>
   <i type="int" name="NKREDY">     1</i>
   <i type="int" name="NKREDZ">     1</i>
   <i type="logical" name="SHIFTRED"> F  </i>
   <i type="logical" name="ODDONLY"> F  </i>
   <i type="logical" name="EVENONLY"> F  </i>
   <i type="int" name="LMAXFOCK">     0</i>
   <i type="int" name="NMAXFOCKAE">     0</i>
   <i type="logical" name="LFOCKAEDFT"> F  </i>
   <i name="HFSCREEN">      0.00000000</i>
   <i name="HFSCREENC">      0.00000000</i>
   <i type="int" name="NBANDSGWLOW">     0</i>
  </separator>
  <separator name="vdW DFT" >
   <i type="logical" name="LUSE_VDW"> F  </i>
   <i name="Zab_VDW">     -0.84910000</i>
   <i name="PARAM1">      0.12340000</i>
   <i name="PARAM2">      1.00000000</i>
   <i name="PARAM3">      0.00000000</i>
  </separator>
  <separator name="model GW" >
   <i type="int" name="MODEL_GW">     0</i>
   <i name="MODEL_EPS0">    586.40201352</i>
   <i name="MODEL_ALPHA">      1.00000000</i>
  </separator>
  <separator name="linear response parameters" >
   <i type="logical" name="LEPSILON"> F  </i>
   <i type="logical" name="LRPA"> F  </i>
   <i type="logical" name="LNABLA"> F  </i>
   <i type="logical" name="LVEL"> F  </i>
   <i type="int" name="KINTER">     0</i>
   <i name="CSHIFT">      0.10000000</i>
   <i name="OMEGAMAX">     -1.00000000</i>
   <i name="DEG_THRESHOLD">      0.00200000</i>
   <i name="RTIME">     -0.10000000</i>
   <i name="WPLASMAI">      0.00000000</i>
   <v name="DFIELD">      0.00000000      0.00000000      0.00000000</v>
   <v name="WPLASMA">      0.00000000      0.00000000      0.00000000      0.00000000      0.00000000      0.00000000      0.00000000      0.00000000      0.00000000</v>
  </separator>
  <separator name="orbital magnetization" >
   <i type="logical" name="NUCIND"> F  </i>
   <v name="MAGPOS">      0.00000000      0.00000000      0.00000000</v>
   <i type="logical" name="LNICSALL"> T  </i>
   <i type="logical" name="ORBITALMAG"> F  </i>
   <i type="logical" name="LMAGBLOCH"> F  </i>
   <i type="logical" name="LCHIMAG"> F  </i>
   <i type="logical" name="LGAUGE"> T  </i>
   <i type="int" name="MAGATOM">     0</i>
   <v name="MAGDIPOL">      0.00000000      0.00000000      0.00000000</v>
   <v name="AVECCONST">      0.00000000      0.00000000      0.00000000</v>
  </separator>
  <separator name="response functions" >
   <i type="logical" name="LFINITE_TEMPERATURE"> F  </i>
   <i type="logical" name="LADDER"> F  </i>
   <i type="logical" name="LRPAFORCE"> F  </i>
   <i type="logical" name="LFXC"> F  </i>
   <i type="logical" name="LHARTREE"> T  </i>
   <i type="int" name="IBSE">     0</i>
   <v type="int" name="KPOINT">    -1     0     0     0</v>
   <i type="logical" name="LTCTC"> F  </i>
   <i type="logical" name="LTCTE"> F  </i>
   <i type="logical" name="LTETE"> F  </i>
   <i type="logical" name="LTRIPLET"> F  </i>
   <i type="logical" name="LFXCEPS"> F  </i>
   <i type="logical" name="LFXHEG"> F  </i>
   <i type="int" name="NATURALO">     2</i>
   <i type="logical" name="LHOLEGF"> F  </i>
   <i type="logical" name="L2ORDER"> F  </i>
   <i type="logical" name="LDMP1"> F  </i>
   <i type="logical" name="LMP2LT"> F  </i>
   <i type="logical" name="LSMP2LT"> F  </i>
   <i type="logical" name="LGWLF"> F  </i>
   <i name="ENCUTGW">     -2.00000000</i>
   <i name="ENCUTGWSOFT">     -2.00000000</i>
   <i name="ENCUTLF">     -1.00000000</i>
   <i type="logical" name="LESF_SPLINES"> F  </i>
   <i type="int" name="LMAXMP2">    -1</i>
   <i name="SCISSOR">      0.00000000</i>
   <i type="int" name="NOMEGA">     0</i>
   <i type="int" name="NOMEGAR">     0</i>
   <i type="int" name="NBANDSGW">    -1</i>
   <i type="int" name="NBANDSO">    -1</i>
   <i type="int" name="NBANDSV">    -1</i>
   <i type="int" name="NELM">     1</i>
   <i type="int" name="NELMHF">     1</i>
   <i type="int" name="DIM">     3</i>
   <i type="int" name="IESPILON">     4</i>
   <i type="int" name="ANTIRES">     0</i>
   <i name="OMEGAMAX">    -30.00000000</i>
   <i name="OMEGAMIN">    -30.00000000</i>
   <i name="OMEGATL">   -200.00000000</i>
   <i type="int" name="OMEGAGRID">     0</i>
   <i name="CSHIFT">     -0.10000000</i>
   <i type="logical" name="LSELFENERGY"> F  </i>
   <i type="logical" name="LSPECTRAL"> F  </i>
   <i type="logical" name="LSPECTRALGW"> F  </i>
   <i type="logical" name="LSINGLES"> F  </i>
   <i type="logical" name="LFERMIGW"> F  </i>
   <i type="logical" name="ODDONLYGW"> F  </i>
   <i type="logical" name="EVENONLYGW"> F  </i>
   <i type="int" name="NKREDLFX">     1</i>
   <i type="int" name="NKREDLFY">     1</i>
   <i type="int" name="NKREDLFZ">     1</i>
   <i type="int" name="MAXMEM">  2800</i>
   <i type="int" name="TELESCOPE">     0</i>
   <i type="int" name="NTAUPAR">    -1</i>
   <i type="int" name="NOMEGAPAR">    -1</i>
   <i name="LAMBDA">      1.00000000</i>
  </separator>
  <separator name="External order field" >
   <i name="OFIELD_KAPPA">      0.00000000</i>
   <v name="OFIELD_K">      0.00000000      0.00000000      0.00000000</v>
   <i name="OFIELD_Q6_NEAR">      0.00000000</i>
   <i name="OFIELD_Q6_FAR">      0.00000000</i>
   <i name="OFIELD_A">      0.00000000</i>
  </separator>
 </parameters>
 <atominfo>
  <atoms>      13 </atoms>
  <types>       1 </types>
  <array name="atoms" >
   <dimension dim="1">ion</dimension>
   <field type="string">element</field>
   <field type="int">atomtype</field>
   <set>
    <rc><c>Cu</c><c>   1</c></rc>
    <rc><c>Cu</c><c>   1</c></rc>
    <rc><c>Cu</c><c>   1</c></rc>
    <rc><c>Cu</c><c>   1</c></rc>
    <rc><c>Cu</c><c>   1</c></rc>
    <rc><c>Cu</c><c>   1</c></rc>
    <rc><c>Cu</c><c>   1</c></rc>
    <rc><c>Cu</c><c>   1</c></rc>
    <rc><c>Cu</c><c>   1</c></rc>
    <rc><c>Cu</c><c>   1</c></rc>
    <rc><c>Cu</c><c>   1</c></rc>
    <rc><c>Cu</c><c>   1</c></rc>
    <rc><c>Cu</c><c>   1</c></rc>
   </set>
  </array>
  <array name="atomtypes" >
   <dimension dim="1">type</dimension>
   <field type="int">atomspertype</field>
   <field type="string">element</field>
   <field>mass</field>
   <field>valence</field>
   <field type="string">pseudopotential</field>
   <set>
    <rc><c>  13</c><c>Cu</c><c>     63.54600000</c><c>     11.00000000</c><c>  PAW_PBE Cu 22Jun2005                  </c></rc>
   </set>
  </array>
 </atominfo>
 <structure name="initialpos" >
  <crystal>
   <varray name="basis" >
    <v>      24.26492113       0.00000000       0.00000000 </v>
    <v>       0.00000000      23.76782089       0.00000000 </v>
    <v>       0.00000000       0.00000000      22.03024387 </v>
   </varray>
   <i name="volume">  12705.37695969 </i>
   <varray name="rec_basis" >
    <v>       0.04121176       0.00000000       0.00000000 </v>
    <v>       0.00000000       0.04207369       0.00000000 </v>
    <v>       0.00000000       0.00000000       0.04539214 </v>
   </varray>
  </crystal>
  <varray name="positions" >
   <v>       0.55872802       0.49012792       0.47105125 </v>
   <v>       0.54134841       0.58034474       0.53660976 </v>
   <v>       0.49067965       0.56326797       0.44195005 </v>
   <v>       0.43825616       0.57381374       0.53664635 </v>
   <v>       0.33915105       0.56290189       0.53551509 </v>
   <v>       0.39021269       0.53951648       0.44525984 </v>
   <v>       0.65374213       0.46397183       0.49538903 </v>
   <v>       0.63013814       0.56155029       0.48984078 </v>
   <v>       0.49508211       0.49003223       0.55841220 </v>
   <v>       0.46032176       0.46548461       0.45284653 </v>
   <v>       0.39423074       0.47779358       0.53775322 </v>
   <v>       0.59732419       0.50126325       0.57516512 </v>
   <v>       0.45897867       0.39839683       0.53374463 </v>
  </varray>
 </structure>
 <calculation>
  <scstep>
   <time name="dav">   13.53   13.55</time>
   <time name="total">   17.86   17.92</time>
   <energy>
    <i name="alphaZ">      9.72772698 </i>
    <i name="ewald">  22983.81802953 </i>
    <i name="hartreedc"> -39455.27415455 </i>
    <i name="XCdc">    583.70083193 </i>
    <i name="pawpsdc">  15965.26744864 </i>
    <i name="pawaedc"> -17340.97210982 </i>
    <i name="eentropy">      0.00744933 </i>
    <i name="bandstr">    138.76610614 </i>
    <i name="atom">  18082.44932260 </i>
    <i name="e_fr_energy">    967.49065076 </i>
    <i name="e_wo_entrp">    967.48320143 </i>
    <i name="e_0_energy">    967.48816765 </i>
   </energy>
  </scstep>
  <scstep>
   <time name="dav">   13.92   13.93</time>
   <time name="total">   13.92   13.93</time>
   <energy>
    <i name="e_fr_energy">    250.02271092 </i>
    <i name="e_wo_entrp">    249.98454955 </i>
    <i name="e_0_energy">    250.00999046 </i>
   </energy>
  </scstep>
  <scstep>
   <time name="dav">   15.72   15.73</time>
   <time name="total">   15.72   15.73</time>
   <energy>
    <i name="e_fr_energy">     11.82443441 </i>
    <i name="e_wo_entrp">     11.83565326 </i>
    <i name="e_0_energy">     11.82817402 </i>
   </energy>
  </scstep>
  <scstep>
   <time name="dav">   15.39   15.41</time>
   <time name="total">   15.39   15.41</time>
   <energy>
    <i name="e_fr_energy">    -33.97858354 </i>
    <i name="e_wo_entrp">    -34.02848329 </i>
    <i name="e_0_energy">    -33.99521679 </i>
   </energy>
  </scstep>
  <scstep>
   <time name="dav">   16.55   16.57</time>
   <time name="total">   17.94   17.96</time>
   <energy>
    <i name="e_fr_energy">    -35.91758546 </i>
    <i name="e_wo_entrp">    -35.96559941 </i>
    <i name="e_0_energy">    -35.93359011 </i>
   </energy>
  </scstep>
  <scstep>
   <time name="dav">   18.92   18.94</time>
   <time name="total">   24.48   24.53</time>
   <energy>
    <i name="e_fr_energy">    -18.21137445 </i>
    <i name="e_wo_entrp">    -18.24308921 </i>
    <i name="e_0_energy">    -18.22194604 </i>
   </energy>
  </scstep>
  <scstep>
   <time name="dav">   15.39   15.42</time>
   <time name="total">   21.04   21.07</time>
   <energy>
    <i name="e_fr_energy">    -10.66131593 </i>
    <i name="e_wo_entrp">    -10.64121129 </i>
    <i name="e_0_energy">    -10.65461439 </i>
   </energy>
  </scstep>
  <scstep>
   <time name="dav">   15.63   15.64</time>
   <time name="total">   21.35   21.38</time>
   <energy>
    <i name="e_fr_energy">    -10.34608539 </i>
    <i name="e_wo_entrp">    -10.30209351 </i>
    <i name="e_0_energy">    -10.33142143 </i>
   </energy>
  </scstep>
  <scstep>
   <time name="dav">   16.06   16.08</time>
   <time name="total">   25.12   25.86</time>
   <energy>
    <i name="e_fr_energy">    -11.92130375 </i>
    <i name="e_wo_entrp">    -11.90652119 </i>
    <i name="e_0_energy">    -11.91637623 </i>
   </energy>
  </scstep>
  <scstep>
   <time name="dav">   17.45   17.48</time>
   <time name="total">   23.15   23.19</time>
   <energy>
    <i name="e_fr_energy">    -14.71185288 </i>
    <i name="e_wo_entrp">    -14.71984996 </i>
    <i name="e_0_energy">    -14.71451857 </i>
   </energy>
  </scstep>
  <scstep>
   <time name="dav">   16.78   16.79</time>
   <time name="total">   22.41   22.44</time>
   <energy>
    <i name="e_fr_energy">    -18.75657892 </i>
    <i name="e_wo_entrp">    -18.75357109 </i>
    <i name="e_0_energy">    -18.75557631 </i>
   </energy>
  </scstep>
  <scstep>
   <time name="dav">   16.17   16.19</time>
   <time name="total">   21.81   21.85</time>
   <energy>
    <i name="e_fr_energy">    -23.20437556 </i>
    <i name="e_wo_entrp">    -23.21439389 </i>
    <i name="e_0_energy">    -23.20771500 </i>
   </energy>
  </scstep>
  <scstep>
   <time name="dav">   16.71   16.74</time>
   <time name="total">   22.31   22.35</time>
   <energy>
    <i name="e_fr_energy">    -25.93757470 </i>
    <i name="e_wo_entrp">    -25.93231036 </i>
    <i name="e_0_energy">    -25.93581992 </i>
   </energy>
  </scstep>
  <scstep>
   <time name="dav">   17.76   17.78</time>
   <time name="total">   23.35   23.38</time>
   <energy>
    <i name="e_fr_energy">    -27.42312755 </i>
    <i name="e_wo_entrp">    -27.40835146 </i>
    <i name="e_0_energy">    -27.41820219 </i>
   </energy>
  </scstep>
  <scstep>
   <time name="dav">   17.02   17.04</time>
   <time name="total">   22.68   22.75</time>
   <energy>
    <i name="e_fr_energy">    -28.17744321 </i>
    <i name="e_wo_entrp">    -28.15910894 </i>
    <i name="e_0_energy">    -28.17133178 </i>
   </energy>
  </scstep>
  <scstep>
   <time name="dav">   22.48   22.50</time>
   <time name="total">   28.14   28.17</time>
   <energy>
    <i name="e_fr_energy">    -29.08079714 </i>
    <i name="e_wo_entrp">    -29.06750316 </i>
    <i name="e_0_energy">    -29.07636582 </i>
   </energy>
  </scstep>
  <scstep>
   <time name="dav">   16.80   16.82</time>
   <time name="total">   22.50   22.53</time>
   <energy>
    <i name="e_fr_energy">    -29.84502685 </i>
    <i name="e_wo_entrp">    -29.83878930 </i>
    <i name="e_0_energy">    -29.84294767 </i>
   </energy>
  </scstep>
  <scstep>
   <time name="dav">   14.90   14.91</time>
   <time name="total">   21.94   21.97</time>
   <energy>
    <i name="e_fr_energy">    -30.40986499 </i>
    <i name="e_wo_entrp">    -30.39822565 </i>
    <i name="e_0_energy">    -30.40598521 </i>
   </energy>
  </scstep>
  <scstep>
   <time name="dav">   15.61   15.63</time>
   <time name="total">   21.30   21.34</time>
   <energy>
    <i name="e_fr_energy">    -30.64494710 </i>
    <i name="e_wo_entrp">    -30.63181654 </i>
    <i name="e_0_energy">    -30.64057024 </i>
   </energy>
  </scstep>
  <scstep>
   <time name="dav">   17.50   17.53</time>
   <time name="total">   23.24   23.28</time>
   <energy>
    <i name="e_fr_energy">    -31.03531537 </i>
    <i name="e_wo_entrp">    -31.01864342 </i>
    <i name="e_0_energy">    -31.02975805 </i>
   </energy>
  </scstep>
  <scstep>
   <time name="dav">   17.64   17.66</time>
   <time name="total">   23.34   23.37</time>
   <energy>
    <i name="e_fr_energy">    -31.29498773 </i>
    <i name="e_wo_entrp">    -31.27270726 </i>
    <i name="e_0_energy">    -31.28756091 </i>
   </energy>
  </scstep>
  <scstep>
   <time name="dav">   17.40   17.41</time>
   <time name="total">   23.11   23.14</time>
   <energy>
    <i name="e_fr_energy">    -31.46401079 </i>
    <i name="e_wo_entrp">    -31.43562770 </i>
    <i name="e_0_energy">    -31.45454976 </i>
   </energy>
  </scstep>
  <scstep>
   <time name="dav">   16.67   16.68</time>
   <time name="total">   22.40   22.48</time>
   <energy>
    <i name="e_fr_energy">    -31.54854522 </i>
    <i name="e_wo_entrp">    -31.51779359 </i>
    <i name="e_0_energy">    -31.53829468 </i>
   </energy>
  </scstep>
  <scstep>
   <time name="dav">   15.93   15.95</time>
   <time name="total">   23.26   23.29</time>
   <energy>
    <i name="e_fr_energy">    -31.58922196 </i>
    <i name="e_wo_entrp">    -31.55538628 </i>
    <i name="e_0_energy">    -31.57794340 </i>
   </energy>
  </scstep>
  <scstep>
   <time name="dav">   14.37   14.39</time>
   <time name="total">   20.10   20.14</time>
   <energy>
    <i name="e_fr_energy">    -31.60959673 </i>
    <i name="e_wo_entrp">    -31.57407600 </i>
    <i name="e_0_energy">    -31.59775649 </i>
   </energy>
  </scstep>
  <scstep>
   <time name="dav">   11.91   11.94</time>
   <time name="total">   17.75   17.78</time>
   <energy>
    <i name="e_fr_energy">    -31.62215926 </i>
    <i name="e_wo_entrp">    -31.58510582 </i>
    <i name="e_0_energy">    -31.60980811 </i>
   </energy>
  </scstep>
  <scstep>
   <time name="dav">   11.65   11.67</time>
   <time name="total">   17.49   17.51</time>
   <energy>
    <i name="e_fr_energy">    -31.62801569 </i>
    <i name="e_wo_entrp">    -31.58956753 </i>
    <i name="e_0_energy">    -31.61519963 </i>
   </energy>
  </scstep>
  <scstep>
   <time name="dav">   11.04   11.05</time>
   <time name="total">   16.86   27.44</time>
   <energy>
    <i name="e_fr_energy">    -31.63311260 </i>
    <i name="e_wo_entrp">    -31.59344243 </i>
    <i name="e_0_energy">    -31.61988921 </i>
   </energy>
  </scstep>
  <scstep>
   <time name="dav">   11.02   11.03</time>
   <time name="total">   16.86   16.88</time>
   <energy>
    <i name="e_fr_energy">    -31.63684758 </i>
    <i name="e_wo_entrp">    -31.59631814 </i>
    <i name="e_0_energy">    -31.62333776 </i>
   </energy>
  </scstep>
  <scstep>
   <time name="dav">   11.29   11.30</time>
   <time name="total">   17.12   17.14</time>
   <energy>
    <i name="e_fr_energy">    -31.63911239 </i>
    <i name="e_wo_entrp">    -31.59808019 </i>
    <i name="e_0_energy">    -31.62543499 </i>
   </energy>
  </scstep>
  <scstep>
   <time name="dav">   10.61   10.62</time>
   <time name="total">   16.49   16.51</time>
   <energy>
    <i name="e_fr_energy">    -31.64090504 </i>
    <i name="e_wo_entrp">    -31.59951074 </i>
    <i name="e_0_energy">    -31.62710694 </i>
   </energy>
  </scstep>
  <scstep>
   <time name="dav">   10.83   10.84</time>
   <time name="total">   16.92   16.96</time>
   <energy>
    <i name="e_fr_energy">    -31.64292055 </i>
    <i name="e_wo_entrp">    -31.60085041 </i>
    <i name="e_0_energy">    -31.62889717 </i>
   </energy>
  </scstep>
  <scstep>
   <time name="dav">   15.26   15.29</time>
   <time name="total">   21.13   21.16</time>
   <energy>
    <i name="e_fr_energy">    -31.64401308 </i>
    <i name="e_wo_entrp">    -31.60160718 </i>
    <i name="e_0_energy">    -31.62987778 </i>
   </energy>
  </scstep>
  <scstep>
   <time name="dav">   10.88   10.89</time>
   <time name="total">   16.86   16.88</time>
   <energy>
    <i name="e_fr_energy">    -31.64450384 </i>
    <i name="e_wo_entrp">    -31.60180752 </i>
    <i name="e_0_energy">    -31.63027174 </i>
   </energy>
  </scstep>
  <scstep>
   <time name="dav">   10.45   10.47</time>
   <time name="total">   16.40   20.59</time>
   <energy>
    <i name="e_fr_energy">    -31.64475451 </i>
    <i name="e_wo_entrp">    -31.60183642 </i>
    <i name="e_0_energy">    -31.63044848 </i>
   </energy>
  </scstep>
  <scstep>
   <time name="dav">   10.63   10.64</time>
   <time name="total">   17.02   17.05</time>
   <energy>
    <i name="e_fr_energy">    -31.64500409 </i>
    <i name="e_wo_entrp">    -31.60179289 </i>
    <i name="e_0_energy">    -31.63060036 </i>
   </energy>
  </scstep>
  <scstep>
   <time name="dav">   10.86   10.87</time>
   <time name="total">   17.37   17.39</time>
   <energy>
    <i name="e_fr_energy">    -31.64516061 </i>
    <i name="e_wo_entrp">    -31.60176499 </i>
    <i name="e_0_energy">    -31.63069540 </i>
   </energy>
  </scstep>
  <scstep>
   <time name="dav">   13.44   13.46</time>
   <time name="total">   19.47   19.50</time>
   <energy>
    <i name="e_fr_energy">    -31.64535219 </i>
    <i name="e_wo_entrp">    -31.60167562 </i>
    <i name="e_0_energy">    -31.63079334 </i>
   </energy>
  </scstep>
  <scstep>
   <time name="dav">   10.89   10.90</time>
   <time name="total">   17.12   17.16</time>
   <energy>
    <i name="e_fr_energy">    -31.64557439 </i>
    <i name="e_wo_entrp">    -31.60156935 </i>
    <i name="e_0_energy">    -31.63090605 </i>
   </energy>
  </scstep>
  <scstep>
   <time name="dav">   10.71   10.72</time>
   <time name="total">   16.85   16.88</time>
   <energy>
    <i name="e_fr_energy">    -31.64575503 </i>
    <i name="e_wo_entrp">    -31.60146238 </i>
    <i name="e_0_energy">    -31.63099081 </i>
   </energy>
  </scstep>
  <scstep>
   <time name="dav">   10.92   10.93</time>
   <time name="total">   15.10   15.13</time>
   <energy>
    <i name="alphaZ">      9.72772698 </i>
    <i name="ewald">  22983.81802953 </i>
    <i name="hartreedc"> -39408.15799387 </i>
    <i name="XCdc">    573.88219912 </i>
    <i name="pawpsdc">  16650.21384062 </i>
    <i name="pawaedc"> -18043.32704973 </i>
    <i name="eentropy">     -0.04442603 </i>
    <i name="bandstr">   -880.20746691 </i>
    <i name="atom">  18082.44932260 </i>
    <i name="e_fr_energy">    -31.64581768 </i>
    <i name="e_wo_entrp">    -31.60139166 </i>
    <i name="e_0_energy">    -31.63100901 </i>
   </energy>
  </scstep>
  <structure>
   <crystal>
    <varray name="basis" >
     <v>      24.26492113       0.00000000       0.00000000 </v>
     <v>       0.00000000      23.76782089       0.00000000 </v>
     <v>       0.00000000       0.00000000      22.03024387 </v>
    </varray>
    <i name="volume">  12705.37695969 </i>
    <varray name="rec_basis" >
     <v>       0.04121176       0.00000000       0.00000000 </v>
     <v>       0.00000000       0.04207369       0.00000000 </v>
     <v>       0.00000000       0.00000000       0.04539214 </v>
    </varray>
   </crystal>
   <varray name="positions" >
    <v>       0.55872802       0.49012792       0.47105125 </v>
    <v>       0.54134841       0.58034474       0.53660976 </v>
    <v>       0.49067965       0.56326797       0.44195005 </v>
    <v>       0.43825616       0.57381374       0.53664635 </v>
    <v>       0.33915105       0.56290189       0.53551509 </v>
    <v>       0.39021269       0.53951648       0.44525984 </v>
    <v>       0.65374213       0.46397183       0.49538903 </v>
    <v>       0.63013814       0.56155029       0.48984078 </v>
    <v>       0.49508211       0.49003223       0.55841220 </v>
    <v>       0.46032176       0.46548461       0.45284653 </v>
    <v>       0.39423074       0.47779358       0.53775322 </v>
    <v>       0.59732419       0.50126325       0.57516512 </v>
    <v>       0.45897867       0.39839683       0.53374463 </v>
   </varray>
  </structure>
  <varray name="forces" >
   <v>       0.09942316       0.12901076       0.20535703 </v>
   <v>       0.14591199      -0.16271931      -0.13316820 </v>
   <v>       0.16098381      -0.22866090       0.10380587 </v>
   <v>       0.06092536      -0.14183875       0.03795923 </v>
   <v>       0.19798041      -0.13093507       0.05606172 </v>
   <v>       0.24029303      -0.17167866       0.02463119 </v>
   <v>      -0.35672744      -0.02185268       0.01146957 </v>
   <v>      -0.29129207       0.27694392      -0.02734205 </v>
   <v>       0.28895259      -0.03743002       0.04194647 </v>
   <v>       0.00576688       0.21842720       0.12618255 </v>
   <v>       0.15176913      -0.07704412      -0.20130547 </v>
   <v>      -0.35839220      -0.01445179      -0.23801010 </v>
   <v>      -0.34559466       0.36222942      -0.00758781 </v>
  </varray>
  <energy>
   <i name="e_fr_energy">    -31.64581768 </i>
   <i name="e_wo_entrp">    -31.60139166 </i>
   <i name="e_0_energy">    -31.63100901 </i>
  </energy>
  <time name="totalsc">  837.88  859.02</time>
 </calculation>
 <calculation>
  <scstep>
   <time name="dav">   14.11   14.14</time>
   <time name="total">   19.70   19.73</time>
   <energy>
    <i name="alphaZ">      9.72772698 </i>
    <i name="ewald">  23131.71424341 </i>
    <i name="hartreedc"> -39555.13619323 </i>
    <i name="XCdc">    574.12039584 </i>
    <i name="pawpsdc">  16650.20333416 </i>
    <i name="pawaedc"> -18043.31694813 </i>
    <i name="eentropy">     -0.03361385 </i>
    <i name="bandstr">   -881.39912685 </i>
    <i name="atom">  18082.44932260 </i>
    <i name="e_fr_energy">    -31.67085907 </i>
    <i name="e_wo_entrp">    -31.63724521 </i>
    <i name="e_0_energy">    -31.65965445 </i>
   </energy>
  </scstep>
  <scstep>
   <time name="dav">   24.26   24.29</time>
   <time name="total">   29.91   29.95</time>
   <energy>
    <i name="e_fr_energy">    -31.70248781 </i>
    <i name="e_wo_entrp">    -31.66561284 </i>
    <i name="e_0_energy">    -31.69019616 </i>
   </energy>
  </scstep>
  <scstep>
   <time name="dav">   14.94   14.96</time>
   <time name="total">   20.55   20.59</time>
   <energy>
    <i name="e_fr_energy">    -31.70101327 </i>
    <i name="e_wo_entrp">    -31.66339778 </i>
    <i name="e_0_energy">    -31.68847478 </i>
   </energy>
  </scstep>
  <scstep>
   <time name="dav">   27.28   30.46</time>
   <time name="total">   32.90   36.09</time>
   <energy>
    <i name="e_fr_energy">    -31.70077648 </i>
    <i name="e_wo_entrp">    -31.66351803 </i>
    <i name="e_0_energy">    -31.68835700 </i>
   </energy>
  </scstep>
  <scstep>
   <time name="dav">   14.36   14.38</time>
   <time name="total">   20.04   20.10</time>
   <energy>
    <i name="e_fr_energy">    -31.70038373 </i>
    <i name="e_wo_entrp">    -31.66316562 </i>
    <i name="e_0_energy">    -31.68797769 </i>
   </energy>
  </scstep>
  <scstep>
   <time name="dav">   29.14   29.38</time>
   <time name="total">   34.84   35.10</time>
   <energy>
    <i name="e_fr_energy">    -31.69966403 </i>
    <i name="e_wo_entrp">    -31.66204896 </i>
    <i name="e_0_energy">    -31.68712567 </i>
   </energy>
  </scstep>
  <scstep>
   <time name="dav">   11.63   11.65</time>
   <time name="total">   17.32   17.35</time>
   <energy>
    <i name="e_fr_energy">    -31.69943099 </i>
    <i name="e_wo_entrp">    -31.66182044 </i>
    <i name="e_0_energy">    -31.68689414 </i>
   </energy>
  </scstep>
  <scstep>
   <time name="dav">   10.27   10.29</time>
   <time name="total">   14.51   14.53</time>
   <energy>
    <i name="alphaZ">      9.72772698 </i>
    <i name="ewald">  23131.71424341 </i>
    <i name="hartreedc"> -39553.54722162 </i>
    <i name="XCdc">    574.03636242 </i>
    <i name="pawpsdc">  16678.41589073 </i>
    <i name="pawaedc"> -18072.11199824 </i>
    <i name="eentropy">     -0.03775156 </i>
    <i name="bandstr">   -882.34600185 </i>
    <i name="atom">  18082.44932260 </i>
    <i name="e_fr_energy">    -31.69942714 </i>
    <i name="e_wo_entrp">    -31.66167558 </i>
    <i name="e_0_energy">    -31.68684328 </i>
   </energy>
  </scstep>
  <structure>
   <crystal>
    <varray name="basis" >
     <v>      24.26492113       0.00000000       0.00000000 </v>
     <v>       0.00000000      23.76782089       0.00000000 </v>
     <v>       0.00000000       0.00000000      22.03024387 </v>
    </varray>
    <i name="volume">  12705.37695969 </i>
    <varray name="rec_basis" >
     <v>       0.04121176       0.00000000       0.00000000 </v>
     <v>       0.00000000       0.04207369       0.00000000 </v>
     <v>       0.00000000       0.00000000       0.04539214 </v>
    </varray>
   </crystal>
   <varray name="positions" >
    <v>       0.55892569       0.49038978       0.47150095 </v>
    <v>       0.54163851       0.58001446       0.53631814 </v>
    <v>       0.49099971       0.56280384       0.44217737 </v>
    <v>       0.43837729       0.57352584       0.53672947 </v>
    <v>       0.33954467       0.56263613       0.53563785 </v>
    <v>       0.39069043       0.53916802       0.44531378 </v>
    <v>       0.65303290       0.46392747       0.49541414 </v>
    <v>       0.62955900       0.56211241       0.48978090 </v>
    <v>       0.49565660       0.48995626       0.55850406 </v>
    <v>       0.46033322       0.46592796       0.45312285 </v>
    <v>       0.39453248       0.47763720       0.53731239 </v>
    <v>       0.59661165       0.50123392       0.57464392 </v>
    <v>       0.45829157       0.39913206       0.53372801 </v>
   </varray>
  </structure>
  <varray name="forces" >
   <v>       0.04049975       0.08621429       0.09336168 </v>
   <v>       0.06552118      -0.05531484      -0.08338814 </v>
   <v>       0.16215709      -0.14695866       0.05588801 </v>
   <v>       0.09146244      -0.13656391       0.04260919 </v>
   <v>       0.18836450      -0.12043513       0.04966258 </v>
   <v>       0.18095043      -0.11823599      -0.00660656 </v>
   <v>      -0.30308748      -0.01414823      -0.00010102 </v>
   <v>      -0.19040087       0.26435899      -0.06099714 </v>
   <v>       0.18158490      -0.04951177       0.07880057 </v>
   <v>       0.05089755       0.14079128       0.06523388 </v>
   <v>       0.07942737      -0.04193753      -0.13441538 </v>
   <v>      -0.25726576      -0.04211264      -0.10910773 </v>
   <v>      -0.29011110       0.23385414       0.00906006 </v>
  </varray>
  <energy>
   <i name="e_fr_energy">    -31.69942714 </i>
   <i name="e_wo_entrp">    -31.66167558 </i>
   <i name="e_0_energy">    -31.68684328 </i>
  </energy>
  <time name="totalsc">  212.46  216.37</time>
 </calculation>
 <calculation>
  <scstep>
   <time name="dav">   13.86   13.88</time>
   <time name="total">   19.48   19.51</time>
   <energy>
    <i name="alphaZ">      9.72772698 </i>
    <i name="ewald">  23506.18289835 </i>
    <i name="hartreedc"> -39925.43063319 </i>
    <i name="XCdc">    574.67609498 </i>
    <i name="pawpsdc">  16678.36776486 </i>
    <i name="pawaedc"> -18072.05050242 </i>
    <i name="eentropy">     -0.01519797 </i>
    <i name="bandstr">   -885.44100365 </i>
    <i name="atom">  18082.44932260 </i>
    <i name="e_fr_energy">    -31.53352946 </i>
    <i name="e_wo_entrp">    -31.51833150 </i>
    <i name="e_0_energy">    -31.52846347 </i>
   </energy>
  </scstep>
  <scstep>
   <time name="dav">   18.19   18.22</time>
   <time name="total">   23.74   23.78</time>
   <energy>
    <i name="e_fr_energy">    -31.75731931 </i>
    <i name="e_wo_entrp">    -31.73735693 </i>
    <i name="e_0_energy">    -31.75066518 </i>
   </energy>
  </scstep>
  <scstep>
   <time name="dav">   14.52   14.54</time>
   <time name="total">   20.06   20.10</time>
   <energy>
    <i name="e_fr_energy">    -31.74069866 </i>
    <i name="e_wo_entrp">    -31.71976685 </i>
    <i name="e_0_energy">    -31.73372139 </i>
   </energy>
  </scstep>
  <scstep>
   <time name="dav">   15.31   15.33</time>
   <time name="total">   20.87   20.90</time>
   <energy>
    <i name="e_fr_energy">    -31.74011356 </i>
    <i name="e_wo_entrp">    -31.71957103 </i>
    <i name="e_0_energy">    -31.73326605 </i>
   </energy>
  </scstep>
  <scstep>
   <time name="dav">   14.67   14.68</time>
   <time name="total">   20.28   20.31</time>
   <energy>
    <i name="e_fr_energy">    -31.73798148 </i>
    <i name="e_wo_entrp">    -31.71737794 </i>
    <i name="e_0_energy">    -31.73111363 </i>
   </energy>
  </scstep>
  <scstep>
   <time name="dav">   20.67   20.69</time>
   <time name="total">   26.25   26.28</time>
   <energy>
    <i name="e_fr_energy">    -31.73549077 </i>
    <i name="e_wo_entrp">    -31.71437100 </i>
    <i name="e_0_energy">    -31.72845084 </i>
   </energy>
  </scstep>
  <scstep>
   <time name="dav">   14.97   14.99</time>
   <time name="total">   20.57   20.60</time>
   <energy>
    <i name="e_fr_energy">    -31.73464749 </i>
    <i name="e_wo_entrp">    -31.71336272 </i>
    <i name="e_0_energy">    -31.72755256 </i>
   </energy>
  </scstep>
  <scstep>
   <time name="dav">   15.78   15.79</time>
   <time name="total">   21.41   21.45</time>
   <energy>
    <i name="e_fr_energy">    -31.73490394 </i>
    <i name="e_wo_entrp">    -31.71337621 </i>
    <i name="e_0_energy">    -31.72772803 </i>
   </energy>
  </scstep>
  <scstep>
   <time name="dav">   22.17   23.65</time>
   <time name="total">   27.84   29.32</time>
   <energy>
    <i name="e_fr_energy">    -31.73505944 </i>
    <i name="e_wo_entrp">    -31.71334646 </i>
    <i name="e_0_energy">    -31.72782178 </i>
   </energy>
  </scstep>
  <scstep>
   <time name="dav">   10.46   10.47</time>
   <time name="total">   16.21   16.24</time>
   <energy>
    <i name="e_fr_energy">    -31.73521286 </i>
    <i name="e_wo_entrp">    -31.71329689 </i>
    <i name="e_0_energy">    -31.72790754 </i>
   </energy>
  </scstep>
  <scstep>
   <time name="dav">   10.61   10.63</time>
   <time name="total">   16.31   16.33</time>
   <energy>
    <i name="e_fr_energy">    -31.73555370 </i>
    <i name="e_wo_entrp">    -31.71326074 </i>
    <i name="e_0_energy">    -31.72812271 </i>
   </energy>
  </scstep>
  <scstep>
   <time name="dav">   10.70   10.72</time>
   <time name="total">   16.45   16.65</time>
   <energy>
    <i name="e_fr_energy">    -31.73571538 </i>
    <i name="e_wo_entrp">    -31.71331153 </i>
    <i name="e_0_energy">    -31.72824743 </i>
   </energy>
  </scstep>
  <scstep>
   <time name="dav">   10.39   10.41</time>
   <time name="total">   16.06   16.09</time>
   <energy>
    <i name="e_fr_energy">    -31.73603925 </i>
    <i name="e_wo_entrp">    -31.71346178 </i>
    <i name="e_0_energy">    -31.72851342 </i>
   </energy>
  </scstep>
  <scstep>
   <time name="dav">   10.38   10.39</time>
   <time name="total">   16.09   16.12</time>
   <energy>
    <i name="e_fr_energy">    -31.73648875 </i>
    <i name="e_wo_entrp">    -31.71366342 </i>
    <i name="e_0_energy">    -31.72888031 </i>
   </energy>
  </scstep>
  <scstep>
   <time name="dav">   10.19   10.21</time>
   <time name="total">   15.89   15.92</time>
   <energy>
    <i name="e_fr_energy">    -31.73729032 </i>
    <i name="e_wo_entrp">    -31.71394515 </i>
    <i name="e_0_energy">    -31.72950860 </i>
   </energy>
  </scstep>
  <scstep>
   <time name="dav">   10.55   10.56</time>
   <time name="total">   16.25   16.77</time>
   <energy>
    <i name="e_fr_energy">    -31.73825520 </i>
    <i name="e_wo_entrp">    -31.71426076 </i>
    <i name="e_0_energy">    -31.73025706 </i>
   </energy>
  </scstep>
  <scstep>
   <time name="dav">   10.79   10.81</time>
   <time name="total">   16.59   16.61</time>
   <energy>
    <i name="e_fr_energy">    -31.73941211 </i>
    <i name="e_wo_entrp">    -31.71467449 </i>
    <i name="e_0_energy">    -31.73116623 </i>
   </energy>
  </scstep>
  <scstep>
   <time name="dav">   11.53   11.55</time>
   <time name="total">   17.22   17.24</time>
   <energy>
    <i name="e_fr_energy">    -31.74005678 </i>
    <i name="e_wo_entrp">    -31.71489813 </i>
    <i name="e_0_energy">    -31.73167056 </i>
   </energy>
  </scstep>
  <scstep>
   <time name="dav">   18.78   19.24</time>
   <time name="total">   24.59   25.06</time>
   <energy>
    <i name="e_fr_energy">    -31.74115129 </i>
    <i name="e_wo_entrp">    -31.71519458 </i>
    <i name="e_0_energy">    -31.73249906 </i>
   </energy>
  </scstep>
  <scstep>
   <time name="dav">   11.51   11.52</time>
   <time name="total">   21.10   22.82</time>
   <energy>
    <i name="e_fr_energy">    -31.74181051 </i>
    <i name="e_wo_entrp">    -31.71535422 </i>
    <i name="e_0_energy">    -31.73299174 </i>
   </energy>
  </scstep>
  <scstep>
   <time name="dav">   10.93   10.94</time>
   <time name="total">   16.78   16.80</time>
   <energy>
    <i name="e_fr_energy">    -31.74228196 </i>
    <i name="e_wo_entrp">    -31.71540429 </i>
    <i name="e_0_energy">    -31.73332274 </i>
   </energy>
  </scstep>
  <scstep>
   <time name="dav">   11.51   11.53</time>
   <time name="total">   17.35   17.38</time>
   <energy>
    <i name="e_fr_energy">    -31.74286489 </i>
    <i name="e_wo_entrp">    -31.71531377 </i>
    <i name="e_0_energy">    -31.73368118 </i>
   </energy>
  </scstep>
  <scstep>
   <time name="dav">   11.13   11.14</time>
   <time name="total">   16.95   16.98</time>
   <energy>
    <i name="e_fr_energy">    -31.74320356 </i>
    <i name="e_wo_entrp">    -31.71515172 </i>
    <i name="e_0_energy">    -31.73385295 </i>
   </energy>
  </scstep>
  <scstep>
   <time name="dav">   63.11   63.16</time>
   <time name="total">   91.16   91.22</time>
   <energy>
    <i name="e_fr_energy">    -31.74339623 </i>
    <i name="e_wo_entrp">    -31.71488092 </i>
    <i name="e_0_energy">    -31.73389112 </i>
   </energy>
  </scstep>
  <scstep>
   <time name="dav">  106.41  106.50</time>
   <time name="total">  117.58  118.60</time>
   <energy>
    <i name="alphaZ">      9.72772698 </i>
    <i name="ewald">  23506.18289835 </i>
    <i name="hartreedc"> -39920.63544932 </i>
    <i name="XCdc">    574.41567152 </i>
    <i name="pawpsdc">  16756.37014802 </i>
    <i name="pawaedc"> -18151.49588483 </i>
    <i name="eentropy">     -0.02886599 </i>
    <i name="bandstr">   -888.72904363 </i>
    <i name="atom">  18082.44932260 </i>
    <i name="e_fr_energy">    -31.74347631 </i>
    <i name="e_wo_entrp">    -31.71461032 </i>
    <i name="e_0_energy">    -31.73385431 </i>
   </energy>
  </scstep>
  <structure>
   <crystal>
    <varray name="basis" >
     <v>      24.26492113       0.00000000       0.00000000 </v>
     <v>       0.00000000      23.76782089       0.00000000 </v>
     <v>       0.00000000       0.00000000      22.03024387 </v>
    </varray>
    <i name="volume">  12705.37695969 </i>
    <varray name="rec_basis" >
     <v>       0.04121176       0.00000000       0.00000000 </v>
     <v>       0.00000000       0.04207369       0.00000000 </v>
     <v>       0.00000000       0.00000000       0.04539214 </v>
    </varray>
   </crystal>
   <varray name="positions" >
    <v>       0.55941777       0.49104166       0.47262045 </v>
    <v>       0.54236068       0.57919226       0.53559218 </v>
    <v>       0.49179648       0.56164844       0.44274326 </v>
    <v>       0.43867883       0.57280914       0.53693641 </v>
    <v>       0.34052455       0.56197452       0.53594347 </v>
    <v>       0.39187974       0.53830054       0.44544806 </v>
    <v>       0.65126731       0.46381705       0.49547667 </v>
    <v>       0.62811728       0.56351179       0.48963185 </v>
    <v>       0.49708674       0.48976713       0.55873273 </v>
    <v>       0.46036176       0.46703165       0.45381073 </v>
    <v>       0.39528365       0.47724790       0.53621499 </v>
    <v>       0.59483782       0.50116090       0.57334642 </v>
    <v>       0.45658108       0.40096238       0.53368665 </v>
   </varray>
  </structure>
  <varray name="forces" >
   <v>      -0.13773748      -0.06054700      -0.29249125 </v>
   <v>      -0.18995009       0.27170599       0.07474200 </v>
   <v>       0.15133574       0.09011658      -0.07957550 </v>
   <v>       0.17104496      -0.10897437       0.06259740 </v>
   <v>       0.15185195      -0.08485305       0.04284685 </v>
   <v>      -0.02094911       0.03902011      -0.10597115 </v>
   <v>      -0.13308120      -0.02282184      -0.03444313 </v>
   <v>       0.12549860       0.21981611      -0.17741086 </v>
   <v>      -0.15402179      -0.09749383       0.17908165 </v>
   <v>       0.19805653      -0.10170068      -0.11607357 </v>
   <v>      -0.17056400       0.10108792       0.05926119 </v>
   <v>       0.13077169      -0.09064677       0.31129464 </v>
   <v>      -0.12225581      -0.15470917       0.07614174 </v>
  </varray>
  <energy>
   <i name="e_fr_energy">    -31.74347631 </i>
   <i name="e_wo_entrp">    -31.71461032 </i>
   <i name="e_0_energy">    -31.73385431 </i>
  </energy>
  <time name="totalsc">  720.31  726.66</time>
 </calculation>
 <calculation>
  <scstep>
   <time name="dav">  123.53  123.63</time>
   <time name="total">  152.42  152.64</time>
   <energy>
    <i name="alphaZ">      9.72772698 </i>
    <i name="ewald">  23420.07091898 </i>
    <i name="hartreedc"> -39835.29477390 </i>
    <i name="XCdc">    574.27224413 </i>
    <i name="pawpsdc">  16756.38039386 </i>
    <i name="pawaedc"> -18151.51010496 </i>
    <i name="eentropy">     -0.03415376 </i>
    <i name="bandstr">   -887.79845987 </i>
    <i name="atom">  18082.44932260 </i>
    <i name="e_fr_energy">    -31.73688594 </i>
    <i name="e_wo_entrp">    -31.70273217 </i>
    <i name="e_0_energy">    -31.72550135 </i>
   </energy>
  </scstep>
  <scstep>
   <time name="dav">  156.44  156.57</time>
   <time name="total">  181.22  181.38</time>
   <energy>
    <i name="e_fr_energy">    -31.74771697 </i>
    <i name="e_wo_entrp">    -31.71503361 </i>
    <i name="e_0_energy">    -31.73682252 </i>
   </energy>
  </scstep>
  <scstep>
   <time name="dav">  121.98  122.08</time>
   <time name="total">  151.60  151.72</time>
   <energy>
    <i name="e_fr_energy">    -31.74731823 </i>
    <i name="e_wo_entrp">    -31.71441553 </i>
    <i name="e_0_energy">    -31.73635066 </i>
   </energy>
  </scstep>
  <scstep>
   <time name="dav">  143.29  143.40</time>
   <time name="total">  153.61  153.73</time>
   <energy>
    <i name="alphaZ">      9.72772698 </i>
    <i name="ewald">  23420.07091898 </i>
    <i name="hartreedc"> -39835.95591661 </i>
    <i name="XCdc">    574.31222351 </i>
    <i name="pawpsdc">  16746.06297639 </i>
    <i name="pawaedc"> -18141.02274997 </i>
    <i name="eentropy">     -0.03283096 </i>
    <i name="bandstr">   -887.35901066 </i>
    <i name="atom">  18082.44932260 </i>
    <i name="e_fr_energy">    -31.74733972 </i>
    <i name="e_wo_entrp">    -31.71450877 </i>
    <i name="e_0_energy">    -31.73639607 </i>
   </energy>
  </scstep>
  <structure>
   <crystal>
    <varray name="basis" >
     <v>      24.26492113       0.00000000       0.00000000 </v>
     <v>       0.00000000      23.76782089       0.00000000 </v>
     <v>       0.00000000       0.00000000      22.03024387 </v>
    </varray>
    <i name="volume">  12705.37695969 </i>
    <varray name="rec_basis" >
     <v>       0.04121176       0.00000000       0.00000000 </v>
     <v>       0.00000000       0.04207369       0.00000000 </v>
     <v>       0.00000000       0.00000000       0.04539214 </v>
    </varray>
   </crystal>
   <varray name="positions" >
    <v>       0.55930567       0.49089315       0.47236541 </v>
    <v>       0.54219616       0.57937957       0.53575757 </v>
    <v>       0.49161497       0.56191166       0.44261434 </v>
    <v>       0.43861014       0.57297242       0.53688926 </v>
    <v>       0.34030132       0.56212524       0.53587385 </v>
    <v>       0.39160880       0.53849816       0.44541747 </v>
    <v>       0.65166954       0.46384221       0.49546242 </v>
    <v>       0.62844572       0.56319299       0.48966580 </v>
    <v>       0.49676093       0.48981021       0.55868063 </v>
    <v>       0.46035526       0.46678022       0.45365402 </v>
    <v>       0.39511252       0.47733659       0.53646499 </v>
    <v>       0.59524192       0.50117753       0.57364201 </v>
    <v>       0.45697075       0.40054541       0.53369607 </v>
   </varray>
  </structure>
  <varray name="forces" >
   <v>      -0.09335369      -0.01906668      -0.18914963 </v>
   <v>      -0.12349255       0.19120029       0.03496747 </v>
   <v>       0.15545231       0.02830598      -0.04445132 </v>
   <v>       0.15056507      -0.11640453       0.05684918 </v>
   <v>       0.16357419      -0.09352729       0.04468020 </v>
   <v>       0.03082172      -0.00333555      -0.08316620 </v>
   <v>      -0.18193382      -0.01840639      -0.02881620 </v>
   <v>       0.04846849       0.23570282      -0.14984275 </v>
   <v>      -0.07031689      -0.08334674       0.15608032 </v>
   <v>       0.15526856      -0.03807348      -0.07191004 </v>
   <v>      -0.10249161       0.05824662       0.01147764 </v>
   <v>       0.02687134      -0.08278648       0.20556677 </v>
   <v>      -0.15943312      -0.05850858       0.05771457 </v>
  </varray>
  <energy>
   <i name="e_fr_energy">    -31.74733972 </i>
   <i name="e_wo_entrp">    -31.71450877 </i>
   <i name="e_0_energy">    -31.73639607 </i>
  </energy>
  <time name="totalsc">  706.53  714.02</time>
 </calculation>
 <calculation>
  <scstep>
   <time name="dav">  133.28  133.38</time>
   <time name="total">  161.18  161.31</time>
   <energy>
    <i name="alphaZ">      9.72772698 </i>
    <i name="ewald">  23431.54096226 </i>
    <i name="hartreedc"> -39847.85535994 </i>
    <i name="XCdc">    574.29886381 </i>
    <i name="pawpsdc">  16743.05489962 </i>
    <i name="pawaedc"> -18137.88311477 </i>
    <i name="eentropy">     -0.02286652 </i>
    <i name="bandstr">   -887.05600421 </i>
    <i name="atom">  18082.44932260 </i>
    <i name="e_fr_energy">    -31.74557018 </i>
    <i name="e_wo_entrp">    -31.72270366 </i>
    <i name="e_0_energy">    -31.73794800 </i>
   </energy>
  </scstep>
  <scstep>
   <time name="dav">  153.62  153.75</time>
   <time name="total">  176.62  176.77</time>
   <energy>
    <i name="e_fr_energy">    -31.77672434 </i>
    <i name="e_wo_entrp">    -31.75058647 </i>
    <i name="e_0_energy">    -31.76801172 </i>
   </energy>
  </scstep>
  <scstep>
   <time name="dav">  150.48  150.60</time>
   <time name="total">  172.01  172.15</time>
   <energy>
    <i name="e_fr_energy">    -31.77566457 </i>
    <i name="e_wo_entrp">    -31.75031966 </i>
    <i name="e_0_energy">    -31.76721626 </i>
   </energy>
  </scstep>
  <scstep>
   <time name="dav">  122.95  123.05</time>
   <time name="total">  149.40  149.55</time>
   <energy>
    <i name="e_fr_energy">    -31.77557002 </i>
    <i name="e_wo_entrp">    -31.75020782 </i>
    <i name="e_0_energy">    -31.76711596 </i>
   </energy>
  </scstep>
  <scstep>
   <time name="dav">  138.37  138.47</time>
   <time name="total">  164.40  164.57</time>
   <energy>
    <i name="e_fr_energy">    -31.77537589 </i>
    <i name="e_wo_entrp">    -31.75029856 </i>
    <i name="e_0_energy">    -31.76701678 </i>
   </energy>
  </scstep>
  <scstep>
   <time name="dav">  145.16  146.11</time>
   <time name="total">  156.30  157.26</time>
   <energy>
    <i name="alphaZ">      9.72772698 </i>
    <i name="ewald">  23431.54096226 </i>
    <i name="hartreedc"> -39848.15952298 </i>
    <i name="XCdc">    574.30756219 </i>
    <i name="pawpsdc">  16736.30433401 </i>
    <i name="pawaedc"> -18130.99500709 </i>
    <i name="eentropy">     -0.02490116 </i>
    <i name="bandstr">   -886.92582479 </i>
    <i name="atom">  18082.44932260 </i>
    <i name="e_fr_energy">    -31.77534799 </i>
    <i name="e_wo_entrp">    -31.75044683 </i>
    <i name="e_0_energy">    -31.76704760 </i>
   </energy>
  </scstep>
  <structure>
   <crystal>
    <varray name="basis" >
     <v>      24.26492113       0.00000000       0.00000000 </v>
     <v>       0.00000000      23.76782089       0.00000000 </v>
     <v>       0.00000000       0.00000000      22.03024387 </v>
    </varray>
    <i name="volume">  12705.37695969 </i>
    <varray name="rec_basis" >
     <v>       0.04121176       0.00000000       0.00000000 </v>
     <v>       0.00000000       0.04207369       0.00000000 </v>
     <v>       0.00000000       0.00000000       0.04539214 </v>
    </varray>
   </crystal>
   <varray name="positions" >
    <v>       0.55914049       0.49096116       0.47200076 </v>
    <v>       0.54199094       0.57976350       0.53572818 </v>
    <v>       0.49219147       0.56177570       0.44258513 </v>
    <v>       0.43908081       0.57251163       0.53710021 </v>
    <v>       0.34093433       0.56173902       0.53606631 </v>
    <v>       0.39191547       0.53832699       0.44519037 </v>
    <v>       0.65083944       0.46376989       0.49538672 </v>
    <v>       0.62831023       0.56411635       0.48918372 </v>
    <v>       0.49683413       0.48954072       0.55919648 </v>
    <v>       0.46078797       0.46687909       0.45356431 </v>
    <v>       0.39497052       0.47742766       0.53629510 </v>
    <v>       0.59498504       0.50093127       0.57402323 </v>
    <v>       0.45621287       0.40072238       0.53386333 </v>
   </varray>
  </structure>
  <varray name="forces" >
   <v>      -0.04664451       0.02419334      -0.10225839 </v>
   <v>      -0.04346446       0.11064234       0.06271860 </v>
   <v>       0.10242476       0.08242475      -0.08358830 </v>
   <v>       0.13247032      -0.10007318       0.03292722 </v>
   <v>       0.11599067      -0.03409087       0.04452033 </v>
   <v>       0.03529317       0.01335532      -0.08058072 </v>
   <v>      -0.16307921       0.02388293      -0.02033421 </v>
   <v>      -0.01750355       0.12140417      -0.11773197 </v>
   <v>      -0.05944021      -0.08072659       0.11716702 </v>
   <v>       0.13559794      -0.07710666      -0.03837008 </v>
   <v>      -0.07407748       0.02551826       0.01131918 </v>
   <v>       0.03782154      -0.01352624       0.12092481 </v>
   <v>      -0.15538901      -0.09589759       0.05328653 </v>
  </varray>
  <energy>
   <i name="e_fr_energy">    -31.77534799 </i>
   <i name="e_wo_entrp">    -31.75044683 </i>
   <i name="e_0_energy">    -31.76704760 </i>
  </energy>
  <time name="totalsc"> 1045.76 1047.98</time>
 </calculation>
 <calculation>
  <scstep>
   <time name="dav">  123.71  123.80</time>
   <time name="total">  151.65  151.76</time>
   <energy>
    <i name="alphaZ">      9.72772698 </i>
    <i name="ewald">  23458.50845043 </i>
    <i name="hartreedc"> -39876.58668092 </i>
    <i name="XCdc">    574.32901427 </i>
    <i name="pawpsdc">  16735.85116293 </i>
    <i name="pawaedc"> -18130.61153174 </i>
    <i name="eentropy">     -0.01029447 </i>
    <i name="bandstr">   -885.28276701 </i>
    <i name="atom">  18082.44932260 </i>
    <i name="e_fr_energy">    -31.62559693 </i>
    <i name="e_wo_entrp">    -31.61530246 </i>
    <i name="e_0_energy">    -31.62216544 </i>
   </energy>
  </scstep>
  <scstep>
   <time name="dav">  166.63  166.76</time>
   <time name="total">  191.19  191.34</time>
   <energy>
    <i name="e_fr_energy">    -31.80976401 </i>
    <i name="e_wo_entrp">    -31.79488844 </i>
    <i name="e_0_energy">    -31.80480549 </i>
   </energy>
  </scstep>
  <scstep>
   <time name="dav">  125.44  125.54</time>
   <time name="total">  153.16  153.29</time>
   <energy>
    <i name="e_fr_energy">    -31.79963300 </i>
    <i name="e_wo_entrp">    -31.78637324 </i>
    <i name="e_0_energy">    -31.79521308 </i>
   </energy>
  </scstep>
  <scstep>
   <time name="dav">  137.25  137.36</time>
   <time name="total">  164.09  164.22</time>
   <energy>
    <i name="e_fr_energy">    -31.79976716 </i>
    <i name="e_wo_entrp">    -31.78647532 </i>
    <i name="e_0_energy">    -31.79533655 </i>
   </energy>
  </scstep>
  <scstep>
   <time name="dav">  133.53  133.64</time>
   <time name="total">  161.80  162.14</time>
   <energy>
    <i name="e_fr_energy">    -31.79815529 </i>
    <i name="e_wo_entrp">    -31.78483322 </i>
    <i name="e_0_energy">    -31.79371460 </i>
   </energy>
  </scstep>
  <scstep>
   <time name="dav">  185.85  187.25</time>
   <time name="total">  215.01  216.52</time>
   <energy>
    <i name="e_fr_energy">    -31.79721011 </i>
    <i name="e_wo_entrp">    -31.78374766 </i>
    <i name="e_0_energy">    -31.79272263 </i>
   </energy>
  </scstep>
  <scstep>
   <time name="dav">  150.16  151.27</time>
   <time name="total">  179.42  180.80</time>
   <energy>
    <i name="e_fr_energy">    -31.79692698 </i>
    <i name="e_wo_entrp">    -31.78341501 </i>
    <i name="e_0_energy">    -31.79242299 </i>
   </energy>
  </scstep>
  <scstep>
   <time name="dav">  102.14  102.34</time>
   <time name="total">  112.71  112.98</time>
   <energy>
    <i name="alphaZ">      9.72772698 </i>
    <i name="ewald">  23458.50845043 </i>
    <i name="hartreedc"> -39876.76055372 </i>
    <i name="XCdc">    574.32752282 </i>
    <i name="pawpsdc">  16736.94322675 </i>
    <i name="pawaedc"> -18131.77244591 </i>
    <i name="eentropy">     -0.01347579 </i>
    <i name="bandstr">   -885.20678700 </i>
    <i name="atom">  18082.44932260 </i>
    <i name="e_fr_energy">    -31.79701284 </i>
    <i name="e_wo_entrp">    -31.78353705 </i>
    <i name="e_0_energy">    -31.79252091 </i>
   </energy>
  </scstep>
  <structure>
   <crystal>
    <varray name="basis" >
     <v>      24.26492113       0.00000000       0.00000000 </v>
     <v>       0.00000000      23.76782089       0.00000000 </v>
     <v>       0.00000000       0.00000000      22.03024387 </v>
    </varray>
    <i name="volume">  12705.37695969 </i>
    <varray name="rec_basis" >
     <v>       0.04121176       0.00000000       0.00000000 </v>
     <v>       0.00000000       0.04207369       0.00000000 </v>
     <v>       0.00000000       0.00000000       0.04539214 </v>
    </varray>
   </crystal>
   <varray name="positions" >
    <v>       0.55876421       0.49111608       0.47117009 </v>
    <v>       0.54152345       0.58063812       0.53566122 </v>
    <v>       0.49350475       0.56146597       0.44251857 </v>
    <v>       0.44015303       0.57146195       0.53758076 </v>
    <v>       0.34237634       0.56085920       0.53650474 </v>
    <v>       0.39261405       0.53793705       0.44467305 </v>
    <v>       0.64894848       0.46360514       0.49521427 </v>
    <v>       0.62800157       0.56621978       0.48808552 </v>
    <v>       0.49700087       0.48892682       0.56037159 </v>
    <v>       0.46177368       0.46710431       0.45335994 </v>
    <v>       0.39464703       0.47763511       0.53590809 </v>
    <v>       0.59439984       0.50037029       0.57489165 </v>
    <v>       0.45448640       0.40112552       0.53424436 </v>
   </varray>
  </structure>
  <varray name="forces" >
   <v>       0.06449374       0.09871719       0.08826634 </v>
   <v>       0.14420641      -0.06535840       0.11625421 </v>
   <v>      -0.01419273       0.19707124      -0.15973435 </v>
   <v>       0.08784815      -0.06379585      -0.03157367 </v>
   <v>      -0.02726162       0.11217715       0.03512456 </v>
   <v>       0.03840844       0.05591907      -0.05530947 </v>
   <v>      -0.06570848       0.11145753       0.00181747 </v>
   <v>      -0.16610257      -0.12296079      -0.04222839 </v>
   <v>      -0.04802302      -0.06978814       0.01215866 </v>
   <v>       0.03019301      -0.15991615       0.04482579 </v>
   <v>       0.00989090      -0.05348597       0.00423921 </v>
   <v>       0.04704178       0.14119068      -0.04618130 </v>
   <v>      -0.10079401      -0.18122756       0.03234095 </v>
  </varray>
  <energy>
   <i name="e_fr_energy">    -31.79701284 </i>
   <i name="e_wo_entrp">    -31.78353705 </i>
   <i name="e_0_energy">    -31.79252091 </i>
  </energy>
  <time name="totalsc"> 1396.80 1402.46</time>
 </calculation>
 <calculation>
  <scstep>
   <time name="dav">  124.54  124.64</time>
   <time name="total">  152.10  152.22</time>
   <energy>
    <i name="alphaZ">      9.72772698 </i>
    <i name="ewald">  23446.01927952 </i>
    <i name="hartreedc"> -39864.89138914 </i>
    <i name="XCdc">    574.30150237 </i>
    <i name="pawpsdc">  16736.90180252 </i>
    <i name="pawaedc"> -18131.72264054 </i>
    <i name="eentropy">     -0.00776521 </i>
    <i name="bandstr">   -884.53571840 </i>
    <i name="atom">  18082.44932260 </i>
    <i name="e_fr_energy">    -31.75787929 </i>
    <i name="e_wo_entrp">    -31.75011408 </i>
    <i name="e_0_energy">    -31.75529089 </i>
   </energy>
  </scstep>
  <scstep>
   <time name="dav">  152.92  153.04</time>
   <time name="total">  176.11  176.27</time>
   <energy>
    <i name="e_fr_energy">    -31.82296992 </i>
    <i name="e_wo_entrp">    -31.81321943 </i>
    <i name="e_0_energy">    -31.81971976 </i>
   </energy>
  </scstep>
  <scstep>
   <time name="dav">  134.68  135.55</time>
   <time name="total">  158.51  159.40</time>
   <energy>
    <i name="e_fr_energy">    -31.81925782 </i>
    <i name="e_wo_entrp">    -31.81019576 </i>
    <i name="e_0_energy">    -31.81623713 </i>
   </energy>
  </scstep>
  <scstep>
   <time name="dav">  148.49  149.58</time>
   <time name="total">  177.52  178.77</time>
   <energy>
    <i name="e_fr_energy">    -31.81910229 </i>
    <i name="e_wo_entrp">    -31.81002581 </i>
    <i name="e_0_energy">    -31.81607680 </i>
   </energy>
  </scstep>
  <scstep>
   <time name="dav">  130.11  130.35</time>
   <time name="total">  155.47  155.91</time>
   <energy>
    <i name="e_fr_energy">    -31.81843872 </i>
    <i name="e_wo_entrp">    -31.80926213 </i>
    <i name="e_0_energy">    -31.81537986 </i>
   </energy>
  </scstep>
  <scstep>
   <time name="dav">  185.95  186.05</time>
   <time name="total">  217.30  217.42</time>
   <energy>
    <i name="e_fr_energy">    -31.81808115 </i>
    <i name="e_wo_entrp">    -31.80873352 </i>
    <i name="e_0_energy">    -31.81496527 </i>
   </energy>
  </scstep>
  <scstep>
   <time name="dav">  141.60  141.68</time>
   <time name="total">  152.32  152.41</time>
   <energy>
    <i name="alphaZ">      9.72772698 </i>
    <i name="ewald">  23446.01927952 </i>
    <i name="hartreedc"> -39865.00372280 </i>
    <i name="XCdc">    574.29878294 </i>
    <i name="pawpsdc">  16733.30284928 </i>
    <i name="pawaedc"> -18127.98433832 </i>
    <i name="eentropy">     -0.00940515 </i>
    <i name="bandstr">   -884.61848737 </i>
    <i name="atom">  18082.44932260 </i>
    <i name="e_fr_energy">    -31.81799232 </i>
    <i name="e_wo_entrp">    -31.80858717 </i>
    <i name="e_0_energy">    -31.81485727 </i>
   </energy>
  </scstep>
  <structure>
   <crystal>
    <varray name="basis" >
     <v>      24.26492113       0.00000000       0.00000000 </v>
     <v>       0.00000000      23.76782089       0.00000000 </v>
     <v>       0.00000000       0.00000000      22.03024387 </v>
    </varray>
    <i name="volume">  12705.37695969 </i>
    <varray name="rec_basis" >
     <v>       0.04121176       0.00000000       0.00000000 </v>
     <v>       0.00000000       0.04207369       0.00000000 </v>
     <v>       0.00000000       0.00000000       0.04539214 </v>
    </varray>
   </crystal>
   <varray name="positions" >
    <v>       0.55884738       0.49159202       0.47117276 </v>
    <v>       0.54188351       0.58077809       0.53614307 </v>
    <v>       0.49405948       0.56212784       0.44178267 </v>
    <v>       0.44100434       0.57071216       0.53766522 </v>
    <v>       0.34293866       0.56090831       0.53686393 </v>
    <v>       0.39309328       0.53798419       0.44418805 </v>
    <v>       0.64780458       0.46398433       0.49514198 </v>
    <v>       0.62719231       0.56669640       0.48738772 </v>
    <v>       0.49688612       0.48835546       0.56097250 </v>
    <v>       0.46235370       0.46655508       0.45346259 </v>
    <v>       0.39453600       0.47751295       0.53574657 </v>
    <v>       0.59431580       0.50068656       0.57509228 </v>
    <v>       0.45327854       0.40057198       0.53456452 </v>
   </varray>
  </structure>
  <varray name="forces" >
   <v>      -0.09857548       0.12054866       0.07749007 </v>
   <v>       0.04065027      -0.10000883       0.09618825 </v>
   <v>      -0.01976505       0.09552636      -0.07596453 </v>
   <v>       0.02625013      -0.04493538      -0.07602278 </v>
   <v>       0.00858124       0.11690695      -0.00223649 </v>
   <v>       0.07388157       0.02469094       0.01921762 </v>
   <v>       0.07417233       0.05917912      -0.00640744 </v>
   <v>      -0.10199035      -0.11142972      -0.06930799 </v>
   <v>      -0.00595821      -0.09727563      -0.03812688 </v>
   <v>      -0.00644086      -0.02390437       0.07568462 </v>
   <v>       0.02107660      -0.02177375      -0.02754010 </v>
   <v>       0.02977375       0.15005304       0.00403222 </v>
   <v>      -0.04165595      -0.16757739       0.02299343 </v>
  </varray>
  <energy>
   <i name="e_fr_energy">    -31.81799232 </i>
   <i name="e_wo_entrp">    -31.80858717 </i>
   <i name="e_0_energy">    -31.81485727 </i>
  </energy>
  <time name="totalsc"> 1258.98 1263.90</time>
 </calculation>
 <calculation>
  <scstep>
   <time name="dav">  135.72  135.80</time>
   <time name="total">  165.33  165.44</time>
   <energy>
    <i name="alphaZ">      9.72772698 </i>
    <i name="ewald">  23435.35242084 </i>
    <i name="hartreedc"> -39855.06908403 </i>
    <i name="XCdc">    574.28758307 </i>
    <i name="pawpsdc">  16733.51131930 </i>
    <i name="pawaedc"> -18128.24937598 </i>
    <i name="eentropy">     -0.00719592 </i>
    <i name="bandstr">   -883.78544240 </i>
    <i name="atom">  18082.44932260 </i>
    <i name="e_fr_energy">    -31.78272556 </i>
    <i name="e_wo_entrp">    -31.77552964 </i>
    <i name="e_0_energy">    -31.78032692 </i>
   </energy>
  </scstep>
  <scstep>
   <time name="dav">  169.10  170.02</time>
   <time name="total">  190.48  191.41</time>
   <energy>
    <i name="e_fr_energy">    -31.82722397 </i>
    <i name="e_wo_entrp">    -31.81901773 </i>
    <i name="e_0_energy">    -31.82448856 </i>
   </energy>
  </scstep>
  <scstep>
   <time name="dav">  140.71  140.79</time>
   <time name="total">  169.45  169.54</time>
   <energy>
    <i name="e_fr_energy">    -31.82496891 </i>
    <i name="e_wo_entrp">    -31.81722023 </i>
    <i name="e_0_energy">    -31.82238602 </i>
   </energy>
  </scstep>
  <scstep>
   <time name="dav">  140.40  140.48</time>
   <time name="total">  169.37  171.27</time>
   <energy>
    <i name="e_fr_energy">    -31.82485516 </i>
    <i name="e_wo_entrp">    -31.81707690 </i>
    <i name="e_0_energy">    -31.82226241 </i>
   </energy>
  </scstep>
  <scstep>
   <time name="dav">  134.39  134.48</time>
   <time name="total">  166.34  166.45</time>
   <energy>
    <i name="e_fr_energy">    -31.82446940 </i>
    <i name="e_wo_entrp">    -31.81657277 </i>
    <i name="e_0_energy">    -31.82183719 </i>
   </energy>
  </scstep>
  <scstep>
   <time name="dav">  184.28  184.38</time>
   <time name="total">  216.47  216.59</time>
   <energy>
    <i name="e_fr_energy">    -31.82431179 </i>
    <i name="e_wo_entrp">    -31.81622095 </i>
    <i name="e_0_energy">    -31.82161484 </i>
   </energy>
  </scstep>
  <scstep>
   <time name="dav">  129.92  129.98</time>
   <time name="total">  143.63  143.70</time>
   <energy>
    <i name="alphaZ">      9.72772698 </i>
    <i name="ewald">  23435.35242084 </i>
    <i name="hartreedc"> -39855.22418635 </i>
    <i name="XCdc">    574.28694524 </i>
    <i name="pawpsdc">  16731.05477271 </i>
    <i name="pawaedc"> -18125.66937148 </i>
    <i name="eentropy">     -0.00816105 </i>
    <i name="bandstr">   -883.79373891 </i>
    <i name="atom">  18082.44932260 </i>
    <i name="e_fr_energy">    -31.82426942 </i>
    <i name="e_wo_entrp">    -31.81610837 </i>
    <i name="e_0_energy">    -31.82154907 </i>
   </energy>
  </scstep>
  <structure>
   <crystal>
    <varray name="basis" >
     <v>      24.26492113       0.00000000       0.00000000 </v>
     <v>       0.00000000      23.76782089       0.00000000 </v>
     <v>       0.00000000       0.00000000      22.03024387 </v>
    </varray>
    <i name="volume">  12705.37695969 </i>
    <varray name="rec_basis" >
     <v>       0.04121176       0.00000000       0.00000000 </v>
     <v>       0.00000000       0.04207369       0.00000000 </v>
     <v>       0.00000000       0.00000000       0.04539214 </v>
    </varray>
   </crystal>
   <varray name="positions" >
    <v>       0.55891716       0.49199136       0.47117500 </v>
    <v>       0.54218562       0.58089553       0.53654736 </v>
    <v>       0.49452493       0.56268316       0.44116521 </v>
    <v>       0.44171862       0.57008305       0.53773608 </v>
    <v>       0.34341047       0.56094952       0.53716530 </v>
    <v>       0.39349537       0.53802374       0.44378111 </v>
    <v>       0.64684480       0.46430248       0.49508133 </v>
    <v>       0.62651332       0.56709630       0.48680225 </v>
    <v>       0.49678983       0.48787607       0.56147668 </v>
    <v>       0.46284037       0.46609425       0.45354871 </v>
    <v>       0.39444285       0.47741044       0.53561104 </v>
    <v>       0.59424528       0.50095193       0.57526062 </v>
    <v>       0.45226509       0.40010753       0.53483315 </v>
   </varray>
  </structure>
  <varray name="forces" >
   <v>      -0.24700302       0.14034669       0.06119890 </v>
   <v>      -0.03991576      -0.11778650       0.08283983 </v>
   <v>      -0.01549702       0.02370893      -0.01785800 </v>
   <v>      -0.03726432      -0.02586080      -0.11010066 </v>
   <v>       0.04394357       0.12025956      -0.03191300 </v>
   <v>       0.11530330       0.00142741       0.07872637 </v>
   <v>       0.21349612       0.00358723      -0.00968717 </v>
   <v>      -0.05430523      -0.10046326      -0.09189678 </v>
   <v>       0.03152436      -0.12281320      -0.07290824 </v>
   <v>      -0.03495256       0.07407615       0.10375238 </v>
   <v>       0.03274636       0.00522821      -0.05400473 </v>
   <v>       0.01648097       0.15704943       0.04523372 </v>
   <v>      -0.02455677      -0.15875983       0.01661737 </v>
  </varray>
  <energy>
   <i name="e_fr_energy">    -31.82426942 </i>
   <i name="e_wo_entrp">    -31.81610837 </i>
   <i name="e_0_energy">    -31.82154907 </i>
  </energy>
  <time name="totalsc"> 1290.08 1294.16</time>
 </calculation>
 <calculation>
  <scstep>
   <time name="dav">  135.50  135.95</time>
   <time name="total">  159.47  159.94</time>
   <energy>
    <i name="alphaZ">      9.72772698 </i>
    <i name="ewald">  23471.67410958 </i>
    <i name="hartreedc"> -39891.60477719 </i>
    <i name="XCdc">    574.34188239 </i>
    <i name="pawpsdc">  16731.23770972 </i>
    <i name="pawaedc"> -18125.90858185 </i>
    <i name="eentropy">     -0.00681830 </i>
    <i name="bandstr">   -883.67978128 </i>
    <i name="atom">  18082.44932260 </i>
    <i name="e_fr_energy">    -31.76920736 </i>
    <i name="e_wo_entrp">    -31.76238906 </i>
    <i name="e_0_energy">    -31.76693459 </i>
   </energy>
  </scstep>
  <scstep>
   <time name="dav">  156.39  156.48</time>
   <time name="total">  189.30  189.41</time>
   <energy>
    <i name="e_fr_energy">    -31.85679263 </i>
    <i name="e_wo_entrp">    -31.84908091 </i>
    <i name="e_0_energy">    -31.85422206 </i>
   </energy>
  </scstep>
  <scstep>
   <time name="dav">  134.18  134.25</time>
   <time name="total">  167.49  167.58</time>
   <energy>
    <i name="e_fr_energy">    -31.85227795 </i>
    <i name="e_wo_entrp">    -31.84523207 </i>
    <i name="e_0_energy">    -31.84992932 </i>
   </energy>
  </scstep>
  <scstep>
   <time name="dav">  149.54  149.67</time>
   <time name="total">  175.42  175.60</time>
   <energy>
    <i name="e_fr_energy">    -31.85190791 </i>
    <i name="e_wo_entrp">    -31.84482036 </i>
    <i name="e_0_energy">    -31.84954539 </i>
   </energy>
  </scstep>
  <scstep>
   <time name="dav">  123.86  123.93</time>
   <time name="total">  151.60  151.68</time>
   <energy>
    <i name="e_fr_energy">    -31.85118036 </i>
    <i name="e_wo_entrp">    -31.84405792 </i>
    <i name="e_0_energy">    -31.84880621 </i>
   </energy>
  </scstep>
  <scstep>
   <time name="dav">  164.62  164.71</time>
   <time name="total">  196.64  196.75</time>
   <energy>
    <i name="e_fr_energy">    -31.85076808 </i>
    <i name="e_wo_entrp">    -31.84348301 </i>
    <i name="e_0_energy">    -31.84833973 </i>
   </energy>
  </scstep>
  <scstep>
   <time name="dav">  135.28  135.37</time>
   <time name="total">  164.47  164.57</time>
   <energy>
    <i name="e_fr_energy">    -31.85066783 </i>
    <i name="e_wo_entrp">    -31.84340143 </i>
    <i name="e_0_energy">    -31.84824570 </i>
   </energy>
  </scstep>
  <scstep>
   <time name="dav">  128.23  128.50</time>
   <time name="total">  141.93  142.30</time>
   <energy>
    <i name="alphaZ">      9.72772698 </i>
    <i name="ewald">  23471.67410958 </i>
    <i name="hartreedc"> -39891.79719750 </i>
    <i name="XCdc">    574.32769194 </i>
    <i name="pawpsdc">  16735.32653756 </i>
    <i name="pawaedc"> -18130.06722886 </i>
    <i name="eentropy">     -0.00719362 </i>
    <i name="bandstr">   -883.48450509 </i>
    <i name="atom">  18082.44932260 </i>
    <i name="e_fr_energy">    -31.85073641 </i>
    <i name="e_wo_entrp">    -31.84354279 </i>
    <i name="e_0_energy">    -31.84833853 </i>
   </energy>
  </scstep>
  <structure>
   <crystal>
    <varray name="basis" >
     <v>      24.26492113       0.00000000       0.00000000 </v>
     <v>       0.00000000      23.76782089       0.00000000 </v>
     <v>       0.00000000       0.00000000      22.03024387 </v>
    </varray>
    <i name="volume">  12705.37695969 </i>
    <varray name="rec_basis" >
     <v>       0.04121176       0.00000000       0.00000000 </v>
     <v>       0.00000000       0.04207369       0.00000000 </v>
     <v>       0.00000000       0.00000000       0.04539214 </v>
    </varray>
   </crystal>
   <varray name="positions" >
    <v>       0.55785205       0.49301828       0.47148547 </v>
    <v>       0.54228400       0.58045463       0.53734082 </v>
    <v>       0.49488694       0.56331040       0.44050094 </v>
    <v>       0.44221248       0.56937715       0.53724719 </v>
    <v>       0.34405034       0.56154953       0.53728479 </v>
    <v>       0.39439684       0.53806719       0.44379933 </v>
    <v>       0.64692885       0.46461514       0.49497610 </v>
    <v>       0.62563335       0.56699901       0.48579464 </v>
    <v>       0.49684450       0.48685658       0.56157824 </v>
    <v>       0.46313310       0.46601162       0.45415162 </v>
[...]
       <r>    -1.2893     5.9071    79.7219 </r>
       <r>    -1.2403     7.3490    80.0816 </r>
       <r>    -1.1914     8.5706    80.5011 </r>
       <r>    -1.1424     9.2902    80.9559 </r>
       <r>    -1.0935     9.2630    81.4093 </r>
       <r>    -1.0445     8.4999    81.8253 </r>
       <r>    -0.9956     7.3086    82.1831 </r>
       <r>    -0.9466     6.1072    82.4820 </r>
       <r>    -0.8977     5.2030    82.7367 </r>
       <r>    -0.8487     4.7071    82.9671 </r>
       <r>    -0.7998     4.5733    83.1910 </r>
       <r>    -0.7508     4.6692    83.4195 </r>
       <r>    -0.7019     4.8481    83.6568 </r>
       <r>    -0.6529     5.0008    83.9016 </r>
       <r>    -0.6040     5.0458    84.1486 </r>
       <r>    -0.5550     4.8702    84.3870 </r>
       <r>    -0.5061     4.3346    84.5991 </r>
       <r>    -0.4571     3.4092    84.7660 </r>
       <r>    -0.4082     2.3292    84.8800 </r>
       <r>    -0.3592     1.5745    84.9571 </r>
       <r>    -0.3103     1.6262    85.0367 </r>
       <r>    -0.2613     2.6648    85.1671 </r>
       <r>    -0.2124     4.4386    85.3844 </r>
       <r>    -0.1634     6.4024    85.6978 </r>
       <r>    -0.1145     8.0221    86.0905 </r>
       <r>    -0.0655     9.0266    86.5323 </r>
       <r>    -0.0166     9.4522    86.9950 </r>
       <r>     0.0324     9.5265    87.4613 </r>
       <r>     0.0813     9.5520    87.9288 </r>
       <r>     0.1303     9.8519    88.4111 </r>
       <r>     0.1792    10.6589    88.9328 </r>
       <r>     0.2281    11.8783    89.5143 </r>
       <r>     0.2771    12.9253    90.1469 </r>
       <r>     0.3260    12.9426    90.7805 </r>
       <r>     0.3750    11.3719    91.3371 </r>
       <r>     0.4239     8.4207    91.7493 </r>
       <r>     0.4729     4.9790    91.9930 </r>
       <r>     0.5218     2.0549    92.0936 </r>
       <r>     0.5708     0.2159    92.1041 </r>
       <r>     0.6197    -0.5610    92.0767 </r>
       <r>     0.6687    -0.6535    92.0447 </r>
       <r>     0.7176    -0.4684    92.0218 </r>
       <r>     0.7666    -0.2595    92.0091 </r>
       <r>     0.8155    -0.1185    92.0033 </r>
       <r>     0.8645    -0.0458    92.0010 </r>
       <r>     0.9134    -0.0152    92.0003 </r>
       <r>     0.9624    -0.0044    92.0001 </r>
       <r>     1.0113    -0.0011    92.0000 </r>
       <r>     1.0603    -0.0002    92.0000 </r>
       <r>     1.1092    -0.0000    92.0000 </r>
       <r>     1.1582    -0.0000    92.0000 </r>
       <r>     1.2071    -0.0000    92.0000 </r>
       <r>     1.2561    -0.0000    92.0000 </r>
       <r>     1.3050    -0.0000    92.0000 </r>
       <r>     1.3540    -0.0000    92.0000 </r>
       <r>     1.4029    -0.0000    92.0000 </r>
       <r>     1.4519    -0.0000    92.0000 </r>
       <r>     1.5008    -0.0000    92.0000 </r>
       <r>     1.5498    -0.0000    92.0000 </r>
       <r>     1.5987    -0.0000    92.0000 </r>
       <r>     1.6477     0.0000    92.0000 </r>
       <r>     1.6966     0.0000    92.0000 </r>
       <r>     1.7456     0.0000    92.0000 </r>
       <r>     1.7945     0.0000    92.0000 </r>
       <r>     1.8435     0.0000    92.0000 </r>
       <r>     1.8924     0.0000    92.0000 </r>
       <r>     1.9414     0.0000    92.0000 </r>
       <r>     1.9903     0.0000    92.0000 </r>
       <r>     2.0392     0.0000    92.0000 </r>
       <r>     2.0882     0.0000    92.0000 </r>
       <r>     2.1371     0.0000    92.0000 </r>
       <r>     2.1861     0.0000    92.0000 </r>
       <r>     2.2350     0.0000    92.0000 </r>
       <r>     2.2840     0.0000    92.0000 </r>
       <r>     2.3329     0.0000    92.0000 </r>
      </set>
      <set comment="spin 2">
       <r>   -12.3517     0.0000     0.0000 </r>
       <r>   -12.3027     0.0000     0.0000 </r>
       <r>   -12.2538     0.0000     0.0000 </r>
       <r>   -12.2048     0.0000     0.0000 </r>
       <r>   -12.1559     0.0000     0.0000 </r>
       <r>   -12.1069     0.0000     0.0000 </r>
       <r>   -12.0580     0.0000     0.0000 </r>
       <r>   -12.0090     0.0000     0.0000 </r>
       <r>   -11.9601    -0.0000    -0.0000 </r>
       <r>   -11.9111    -0.0000    -0.0000 </r>
       <r>   -11.8622    -0.0000    -0.0000 </r>
       <r>   -11.8132    -0.0000    -0.0000 </r>
       <r>   -11.7643    -0.0000    -0.0000 </r>
       <r>   -11.7153    -0.0000    -0.0000 </r>
       <r>   -11.6664    -0.0000    -0.0000 </r>
       <r>   -11.6174    -0.0000    -0.0000 </r>
       <r>   -11.5685    -0.0000    -0.0000 </r>
       <r>   -11.5195    -0.0000    -0.0000 </r>
       <r>   -11.4706    -0.0000    -0.0000 </r>
       <r>   -11.4216    -0.0000    -0.0000 </r>
       <r>   -11.3727    -0.0000    -0.0000 </r>
       <r>   -11.3237    -0.0000    -0.0000 </r>
       <r>   -11.2748    -0.0000    -0.0000 </r>
       <r>   -11.2258    -0.0000    -0.0000 </r>
       <r>   -11.1769    -0.0000    -0.0000 </r>
       <r>   -11.1279    -0.0000    -0.0000 </r>
       <r>   -11.0790    -0.0000    -0.0000 </r>
       <r>   -11.0300    -0.0001    -0.0000 </r>
       <r>   -10.9811    -0.0006    -0.0000 </r>
       <r>   -10.9321    -0.0024    -0.0002 </r>
       <r>   -10.8832    -0.0081    -0.0006 </r>
       <r>   -10.8342    -0.0232    -0.0017 </r>
       <r>   -10.7853    -0.0568    -0.0045 </r>
       <r>   -10.7363    -0.1161    -0.0102 </r>
       <r>   -10.6874    -0.1905    -0.0195 </r>
       <r>   -10.6384    -0.2244    -0.0305 </r>
       <r>   -10.5895    -0.0978    -0.0353 </r>
       <r>   -10.5406     0.3450    -0.0184 </r>
       <r>   -10.4916     1.1967     0.0402 </r>
       <r>   -10.4427     2.3574     0.1556 </r>
       <r>   -10.3937     3.4882     0.3263 </r>
       <r>   -10.3448     4.1434     0.5292 </r>
       <r>   -10.2958     4.0294     0.7264 </r>
       <r>   -10.2469     3.1989     0.8830 </r>
       <r>   -10.1979     2.0150     0.9816 </r>
       <r>   -10.1490     0.9166     1.0265 </r>
       <r>   -10.1000     0.1803     1.0353 </r>
       <r>   -10.0511    -0.1588     1.0275 </r>
       <r>   -10.0021    -0.2247     1.0165 </r>
       <r>    -9.9532    -0.1702     1.0082 </r>
       <r>    -9.9042    -0.0968     1.0035 </r>
       <r>    -9.8553    -0.0449     1.0013 </r>
       <r>    -9.8063    -0.0178     1.0004 </r>
       <r>    -9.7574    -0.0068     1.0001 </r>
       <r>    -9.7084    -0.0051     0.9998 </r>
       <r>    -9.6595    -0.0114     0.9992 </r>
       <r>    -9.6105    -0.0303     0.9978 </r>
       <r>    -9.5616    -0.0705     0.9943 </r>
       <r>    -9.5126    -0.1363     0.9876 </r>
       <r>    -9.4637    -0.2078     0.9775 </r>
       <r>    -9.4147    -0.2121     0.9671 </r>
       <r>    -9.3658    -0.0139     0.9664 </r>
       <r>    -9.3168     0.5379     0.9927 </r>
       <r>    -9.2679     1.4950     1.0659 </r>
       <r>    -9.2189     2.6897     1.1976 </r>
       <r>    -9.1700     3.7329     1.3803 </r>
       <r>    -9.1210     4.1935     1.5856 </r>
       <r>    -9.0721     3.8615     1.7746 </r>
       <r>    -9.0231     2.8893     1.9160 </r>
       <r>    -8.9742     1.6882     1.9986 </r>
       <r>    -8.9252     0.6704     2.0315 </r>
       <r>    -8.8763     0.0436     2.0336 </r>
       <r>    -8.8274    -0.2190     2.0229 </r>
       <r>    -8.7784    -0.2702     2.0096 </r>
       <r>    -8.7295    -0.2614     1.9968 </r>
       <r>    -8.6805    -0.2688     1.9837 </r>
       <r>    -8.6316    -0.2703     1.9705 </r>
       <r>    -8.5826    -0.1542     1.9629 </r>
       <r>    -8.5337     0.2353     1.9744 </r>
       <r>    -8.4847     1.0001     2.0234 </r>
       <r>    -8.4358     2.0744     2.1249 </r>
       <r>    -8.3868     3.1971     2.2814 </r>
       <r>    -8.3379     4.0458     2.4794 </r>
       <r>    -8.2889     4.4549     2.6975 </r>
       <r>    -8.2400     4.5159     2.9186 </r>
       <r>    -8.1910     4.4480     3.1363 </r>
       <r>    -8.1421     4.3739     3.3504 </r>
       <r>    -8.0931     4.2534     3.5586 </r>
       <r>    -8.0442     4.0319     3.7559 </r>
       <r>    -7.9952     3.7902     3.9415 </r>
       <r>    -7.9463     3.6812     4.1216 </r>
       <r>    -7.8973     3.7289     4.3042 </r>
       <r>    -7.8484     3.7679     4.4886 </r>
       <r>    -7.7994     3.6438     4.6670 </r>
       <r>    -7.7505     3.4678     4.8367 </r>
       <r>    -7.7015     3.6278     5.0143 </r>
       <r>    -7.6526     4.5073     5.2349 </r>
       <r>    -7.6036     6.1574     5.5363 </r>
       <r>    -7.5547     8.2010     5.9377 </r>
       <r>    -7.5057    10.0317     6.4288 </r>
       <r>    -7.4568    11.1475     6.9744 </r>
       <r>    -7.4078    11.3928     7.5321 </r>
       <r>    -7.3589    10.9719     8.0691 </r>
       <r>    -7.3099    10.2730     8.5720 </r>
       <r>    -7.2610     9.6823     9.0459 </r>
       <r>    -7.2120     9.5441     9.5131 </r>
       <r>    -7.1631    10.2228    10.0135 </r>
       <r>    -7.1141    12.0455    10.6031 </r>
       <r>    -7.0652    15.0104    11.3378 </r>
       <r>    -7.0163    18.4705    12.2420 </r>
       <r>    -6.9673    21.2044    13.2799 </r>
       <r>    -6.9184    22.0419    14.3588 </r>
       <r>    -6.8694    20.6718    15.3707 </r>
       <r>    -6.8205    17.9649    16.2500 </r>
       <r>    -6.7715    15.4798    17.0077 </r>
       <r>    -6.7226    14.5117    17.7181 </r>
       <r>    -6.6736    15.4123    18.4725 </r>
       <r>    -6.6247    17.6111    19.3345 </r>
       <r>    -6.5757    20.1445    20.3206 </r>
       <r>    -6.5268    22.1808    21.4063 </r>
       <r>    -6.4778    23.2358    22.5436 </r>
       <r>    -6.4289    23.1641    23.6775 </r>
       <r>    -6.3799    22.1450    24.7615 </r>
       <r>    -6.3310    20.7067    25.7750 </r>
       <r>    -6.2820    19.6258    26.7357 </r>
       <r>    -6.2331    19.5927    27.6947 </r>
       <r>    -6.1841    20.7971    28.7127 </r>
       <r>    -6.1352    22.7624    29.8269 </r>
       <r>    -6.0862    24.6263    31.0323 </r>
       <r>    -6.0373    25.7118    32.2909 </r>
       <r>    -5.9883    25.9871    33.5629 </r>
       <r>    -5.9394    26.0741    34.8392 </r>
       <r>    -5.8904    26.8112    36.1516 </r>
       <r>    -5.8415    28.7062    37.5567 </r>
       <r>    -5.7925    31.6598    39.1064 </r>
       <r>    -5.7436    35.0672    40.8229 </r>
       <r>    -5.6946    38.1201    42.6888 </r>
       <r>    -5.6457    40.1078    44.6520 </r>
       <r>    -5.5967    40.6733    46.6430 </r>
       <r>    -5.5478    40.0181    48.6018 </r>
       <r>    -5.4988    38.9189    50.5068 </r>
       <r>    -5.4499    38.4078    52.3868 </r>
       <r>    -5.4009    39.2055    54.3059 </r>
       <r>    -5.3520    41.2519    56.3251 </r>
       <r>    -5.3030    43.6360    58.4610 </r>
       <r>    -5.2541    44.9546    60.6615 </r>
       <r>    -5.2052    43.8970    62.8102 </r>
       <r>    -5.1562    39.8031    64.7585 </r>
       <r>    -5.1073    32.9764    66.3727 </r>
       <r>    -5.0583    24.5988    67.5767 </r>
       <r>    -5.0094    16.2690    68.3731 </r>
       <r>    -4.9604     9.4016    68.8333 </r>
       <r>    -4.9115     4.7982    69.0681 </r>
       <r>    -4.8625     2.5301    69.1920 </r>
       <r>    -4.8136     2.0688    69.2932 </r>
       <r>    -4.7646     2.5558    69.4183 </r>
       <r>    -4.7157     3.1574    69.5729 </r>
       <r>    -4.6667     3.4069    69.7397 </r>
       <r>    -4.6178     3.3407    69.9032 </r>
       <r>    -4.5688     3.2980    70.0646 </r>
       <r>    -4.5199     3.5201    70.2369 </r>
       <r>    -4.4709     3.8863    70.4271 </r>
       <r>    -4.4220     4.0117    70.6235 </r>
       <r>    -4.3730     3.5875    70.7991 </r>
       <r>    -4.3241     2.6373    70.9282 </r>
       <r>    -4.2751     1.4778    71.0005 </r>
       <r>    -4.2262     0.4723    71.0237 </r>
       <r>    -4.1772    -0.1750    71.0151 </r>
       <r>    -4.1283    -0.4333    70.9939 </r>
       <r>    -4.0793    -0.3242    70.9780 </r>
       <r>    -4.0304     0.1712    70.9864 </r>
       <r>    -3.9814     1.0721    71.0389 </r>
       <r>    -3.9325     2.2623    71.1496 </r>
       <r>    -3.8835     3.4098    71.3165 </r>
       <r>    -3.8346     4.0690    71.5157 </r>
       <r>    -3.7856     3.9340    71.7083 </r>
       <r>    -3.7367     3.0553    71.8578 </r>
       <r>    -3.6877     1.8434    71.9480 </r>
       <r>    -3.6388     0.8599    71.9901 </r>
       <r>    -3.5898     0.5467    72.0169 </r>
       <r>    -3.5409     1.0395    72.0678 </r>
       <r>    -3.4919     2.1131    72.1712 </r>
       <r>    -3.4430     3.2638    72.3310 </r>
       <r>    -3.3941     3.9234    72.5230 </r>
       <r>    -3.3451     3.7434    72.7062 </r>
       <r>    -3.2962     2.7984    72.8432 </r>
       <r>    -3.2472     1.5785    72.9205 </r>
       <r>    -3.1983     0.7729    72.9583 </r>
       <r>    -3.1493     0.9646    73.0055 </r>
       <r>    -3.1004     2.3514    73.1206 </r>
       <r>    -3.0514     4.5837    73.3450 </r>
       <r>    -3.0025     6.8238    73.6790 </r>
       <r>    -2.9535     8.0964    74.0753 </r>
       <r>    -2.9046     7.8012    74.4572 </r>
       <r>    -2.8556     6.0530    74.7535 </r>
       <r>    -2.8067     3.5954    74.9295 </r>
       <r>    -2.7577     1.3771    74.9969 </r>
       <r>    -2.7088     0.1333    75.0034 </r>
       <r>    -2.6598     0.2078    75.0136 </r>
       <r>    -2.6109     1.5596    75.0899 </r>
       <r>    -2.5619     3.7838    75.2751 </r>
       <r>    -2.5130     6.1425    75.5758 </r>
       <r>    -2.4640     7.7492    75.9551 </r>
       <r>    -2.4151     7.9473    76.3441 </r>
       <r>    -2.3661     6.6604    76.6701 </r>
       <r>    -2.3172     4.4267    76.8868 </r>
       <r>    -2.2682     2.0824    76.9887 </r>
       <r>    -2.2193     0.3602    77.0064 </r>
       <r>    -2.1703    -0.3117    76.9911 </r>
       <r>    -2.1214     0.2128    77.0015 </r>
       <r>    -2.0724     1.8433    77.0918 </r>
       <r>    -2.0235     4.1952    77.2971 </r>
       <r>    -1.9745     6.5452    77.6175 </r>
       <r>    -1.9256     8.0189    78.0100 </r>
       <r>    -1.8766     8.0130    78.4022 </r>
       <r>    -1.8277     6.5542    78.7230 </r>
       <r>    -1.7787     4.2763    78.9324 </r>
       <r>    -1.7298     2.0185    79.0312 </r>
       <r>    -1.6808     0.3739    79.0495 </r>
       <r>    -1.6319    -0.4851    79.0257 </r>
       <r>    -1.5830    -0.6678    78.9930 </r>
       <r>    -1.5340    -0.3315    78.9768 </r>
       <r>    -1.4851     0.4315    78.9979 </r>
       <r>    -1.4361     1.5532    79.0740 </r>
       <r>    -1.3872     2.9230    79.2170 </r>
       <r>    -1.3382     4.4064    79.4327 </r>
       <r>    -1.2893     5.9070    79.7219 </r>
       <r>    -1.2403     7.3490    80.0816 </r>
       <r>    -1.1914     8.5706    80.5011 </r>
       <r>    -1.1424     9.2902    80.9559 </r>
       <r>    -1.0935     9.2630    81.4093 </r>
       <r>    -1.0445     8.4999    81.8253 </r>
       <r>    -0.9956     7.3086    82.1831 </r>
       <r>    -0.9466     6.1072    82.4820 </r>
       <r>    -0.8977     5.2030    82.7367 </r>
       <r>    -0.8487     4.7071    82.9671 </r>
       <r>    -0.7998     4.5732    83.1910 </r>
       <r>    -0.7508     4.6692    83.4195 </r>
       <r>    -0.7019     4.8481    83.6568 </r>
       <r>    -0.6529     5.0008    83.9016 </r>
       <r>    -0.6040     5.0458    84.1486 </r>
       <r>    -0.5550     4.8703    84.3870 </r>
       <r>    -0.5061     4.3346    84.5991 </r>
       <r>    -0.4571     3.4093    84.7660 </r>
       <r>    -0.4082     2.3293    84.8800 </r>
       <r>    -0.3592     1.5745    84.9571 </r>
       <r>    -0.3103     1.6261    85.0367 </r>
       <r>    -0.2613     2.6647    85.1671 </r>
       <r>    -0.2124     4.4384    85.3844 </r>
       <r>    -0.1634     6.4022    85.6978 </r>
       <r>    -0.1145     8.0220    86.0904 </r>
       <r>    -0.0655     9.0265    86.5323 </r>
       <r>    -0.0166     9.4522    86.9949 </r>
       <r>     0.0324     9.5264    87.4612 </r>
       <r>     0.0813     9.5516    87.9288 </r>
       <r>     0.1303     9.8509    88.4110 </r>
       <r>     0.1792    10.6573    88.9326 </r>
       <r>     0.2281    11.8765    89.5140 </r>
       <r>     0.2771    12.9240    90.1466 </r>
       <r>     0.3260    12.9424    90.7801 </r>
       <r>     0.3750    11.3731    91.3368 </r>
       <r>     0.4239     8.4226    91.7491 </r>
       <r>     0.4729     4.9811    91.9929 </r>
       <r>     0.5218     2.0564    92.0935 </r>
       <r>     0.5708     0.2167    92.1042 </r>
       <r>     0.6197    -0.5607    92.0767 </r>
       <r>     0.6687    -0.6535    92.0447 </r>
       <r>     0.7176    -0.4685    92.0218 </r>
       <r>     0.7666    -0.2596    92.0091 </r>
       <r>     0.8155    -0.1185    92.0033 </r>
       <r>     0.8645    -0.0459    92.0010 </r>
       <r>     0.9134    -0.0153    92.0003 </r>
       <r>     0.9624    -0.0044    92.0001 </r>
       <r>     1.0113    -0.0011    92.0000 </r>
       <r>     1.0603    -0.0002    92.0000 </r>
       <r>     1.1092    -0.0000    92.0000 </r>
       <r>     1.1582    -0.0000    92.0000 </r>
       <r>     1.2071    -0.0000    92.0000 </r>
       <r>     1.2561    -0.0000    92.0000 </r>
       <r>     1.3050    -0.0000    92.0000 </r>
       <r>     1.3540    -0.0000    92.0000 </r>
       <r>     1.4029    -0.0000    92.0000 </r>
       <r>     1.4519    -0.0000    92.0000 </r>
       <r>     1.5008    -0.0000    92.0000 </r>
       <r>     1.5498    -0.0000    92.0000 </r>
       <r>     1.5987    -0.0000    92.0000 </r>
       <r>     1.6477     0.0000    92.0000 </r>
       <r>     1.6966     0.0000    92.0000 </r>
       <r>     1.7456     0.0000    92.0000 </r>
       <r>     1.7945     0.0000    92.0000 </r>
       <r>     1.8435     0.0000    92.0000 </r>
       <r>     1.8924     0.0000    92.0000 </r>
       <r>     1.9414     0.0000    92.0000 </r>
       <r>     1.9903     0.0000    92.0000 </r>
       <r>     2.0392     0.0000    92.0000 </r>
       <r>     2.0882     0.0000    92.0000 </r>
       <r>     2.1371     0.0000    92.0000 </r>
       <r>     2.1861     0.0000    92.0000 </r>
       <r>     2.2350     0.0000    92.0000 </r>
       <r>     2.2840     0.0000    92.0000 </r>
       <r>     2.3329     0.0000    92.0000 </r>
      </set>
     </set>
    </array>
   </total>
  </dos>
 </calculation>
 <structure name="finalpos" >
  <crystal>
   <varray name="basis" >
    <v>      24.26492113       0.00000000       0.00000000 </v>
    <v>       0.00000000      23.76782089       0.00000000 </v>
    <v>       0.00000000       0.00000000      22.03024387 </v>
   </varray>
   <i name="volume">  12705.37695969 </i>
   <varray name="rec_basis" >
    <v>       0.04121176       0.00000000       0.00000000 </v>
    <v>       0.00000000       0.04207369       0.00000000 </v>
    <v>       0.00000000       0.00000000       0.04539214 </v>
   </varray>
  </crystal>
  <varray name="positions" >
   <v>       0.56525591       0.47752642       0.47548059 </v>
   <v>       0.55334646       0.56028279       0.54089389 </v>
   <v>       0.50121805       0.55159242       0.44327402 </v>
   <v>       0.45279980       0.57000200       0.53925349 </v>
   <v>       0.35321691       0.57630027       0.53347248 </v>
   <v>       0.40173495       0.54091180       0.44460692 </v>
   <v>       0.64693569       0.52634538       0.51809002 </v>
   <v>       0.59726728       0.57357513       0.44104879 </v>
   <v>       0.49447616       0.47631173       0.55925693 </v>
   <v>       0.46252588       0.45963141       0.45626696 </v>
   <v>       0.39409823       0.48606169       0.53695202 </v>
   <v>       0.59109026       0.47279926       0.58387050 </v>
   <v>       0.43422814       0.39712505       0.53771723 </v>
  </varray>
 </structure>
</modeling>
