unknown system                          
            1
    24.264921    0.000000    0.000000
     0.000000   23.767821    0.000000
     0.000000    0.000000   22.030244
   Cu
    13
Direct configuration=     1
   0.55872802  0.49012792  0.47105125
   0.54134841  0.58034474  0.53660976
   0.49067965  0.56326797  0.44195005
   0.43825616  0.57381374  0.53664635
   0.33915105  0.56290189  0.53551509
   0.39021269  0.53951648  0.44525984
   0.65374213  0.46397183  0.49538903
   0.63013814  0.56155029  0.48984078
   0.49508211  0.49003223  0.55841220
   0.46032176  0.46548461  0.45284653
   0.39423074  0.47779358  0.53775322
   0.59732419  0.50126325  0.57516512
   0.45897867  0.39839683  0.53374463
Direct configuration=     2
   0.55892569  0.49038978  0.47150095
   0.54163851  0.58001446  0.53631814
   0.49099971  0.56280384  0.44217737
   0.43837729  0.57352584  0.53672947
   0.33954467  0.56263613  0.53563785
   0.39069043  0.53916802  0.44531378
   0.65303290  0.46392747  0.49541414
   0.62955900  0.56211241  0.48978090
   0.49565660  0.48995626  0.55850406
   0.46033322  0.46592796  0.45312285
   0.39453248  0.47763720  0.53731239
   0.59661165  0.50123392  0.57464392
   0.45829157  0.39913206  0.53372801
Direct configuration=     3
   0.55941777  0.49104166  0.47262045
   0.54236068  0.57919226  0.53559218
   0.49179648  0.56164844  0.44274326
   0.43867883  0.57280914  0.53693641
   0.34052455  0.56197452  0.53594347
   0.39187974  0.53830054  0.44544806
   0.65126731  0.46381705  0.49547667
   0.62811728  0.56351179  0.48963185
   0.49708674  0.48976713  0.55873273
   0.46036176  0.46703165  0.45381073
   0.39528365  0.47724790  0.53621499
   0.59483782  0.50116090  0.57334642
   0.45658108  0.40096238  0.53368665
Direct configuration=     4
   0.55930567  0.49089315  0.47236541
   0.54219616  0.57937957  0.53575757
   0.49161497  0.56191166  0.44261434
   0.43861014  0.57297242  0.53688926
   0.34030132  0.56212524  0.53587385
   0.39160880  0.53849816  0.44541747
   0.65166954  0.46384221  0.49546242
   0.62844572  0.56319299  0.48966580
   0.49676093  0.48981021  0.55868063
   0.46035526  0.46678022  0.45365402
   0.39511252  0.47733659  0.53646499
   0.59524192  0.50117753  0.57364201
   0.45697075  0.40054541  0.53369607
Direct configuration=     5
   0.55914049  0.49096116  0.47200076
   0.54199094  0.57976350  0.53572818
   0.49219147  0.56177570  0.44258513
   0.43908081  0.57251163  0.53710021
   0.34093433  0.56173902  0.53606631
   0.39191547  0.53832699  0.44519037
   0.65083944  0.46376989  0.49538672
   0.62831023  0.56411635  0.48918372
   0.49683413  0.48954072  0.55919648
   0.46078797  0.46687909  0.45356431
   0.39497052  0.47742766  0.53629510
   0.59498504  0.50093127  0.57402323
   0.45621287  0.40072238  0.53386333
Direct configuration=     6
   0.55876421  0.49111608  0.47117009
   0.54152345  0.58063812  0.53566122
   0.49350475  0.56146597  0.44251857
   0.44015303  0.57146195  0.53758076
   0.34237634  0.56085920  0.53650474
   0.39261405  0.53793705  0.44467305
   0.64894848  0.46360514  0.49521427
   0.62800157  0.56621978  0.48808552
   0.49700087  0.48892682  0.56037159
   0.46177368  0.46710431  0.45335994
   0.39464703  0.47763511  0.53590809
   0.59439984  0.50037029  0.57489165
   0.45448640  0.40112552  0.53424436
Direct configuration=     7
   0.55884738  0.49159202  0.47117276
   0.54188351  0.58077809  0.53614307
   0.49405948  0.56212784  0.44178267
   0.44100434  0.57071216  0.53766522
   0.34293866  0.56090831  0.53686393
   0.39309328  0.53798419  0.44418805
   0.64780458  0.46398433  0.49514198
   0.62719231  0.56669640  0.48738772
   0.49688612  0.48835546  0.56097250
   0.46235370  0.46655508  0.45346259
   0.39453600  0.47751295  0.53574657
   0.59431580  0.50068656  0.57509228
   0.45327854  0.40057198  0.53456452
Direct configuration=     8
   0.55891716  0.49199136  0.47117500
   0.54218562  0.58089553  0.53654736
   0.49452493  0.56268316  0.44116521
   0.44171862  0.57008305  0.53773608
   0.34341047  0.56094952  0.53716530
   0.39349537  0.53802374  0.44378111
   0.64684480  0.46430248  0.49508133
   0.62651332  0.56709630  0.48680225
   0.49678983  0.48787607  0.56147668
   0.46284037  0.46609425  0.45354871
   0.39444285  0.47741044  0.53561104
   0.59424528  0.50095193  0.57526062
   0.45226509  0.40010753  0.53483315
Direct configuration=     9
   0.55785205  0.49301828  0.47148547
   0.54228400  0.58045463  0.53734082
   0.49488694  0.56331040  0.44050094
   0.44221248  0.56937715  0.53724719
   0.34405034  0.56154953  0.53728479
   0.39439684  0.53806719  0.44379933
   0.64692885  0.46461514  0.49497610
   0.62563335  0.56699901  0.48579464
   0.49684450  0.48685658  0.56157824
   0.46313310  0.46601162  0.45415162
   0.39450602  0.47733953  0.53521286
   0.59425509  0.50193226  0.57564512
   0.45121015  0.39893405  0.53516674
Direct configuration=    10
   0.55706051  0.49378142  0.47171619
   0.54235711  0.58012697  0.53793047
   0.49515596  0.56377653  0.44000729
   0.44257949  0.56885256  0.53688388
   0.34452585  0.56199542  0.53737359
   0.39506677  0.53809948  0.44381286
   0.64699131  0.46484749  0.49489790
   0.62497941  0.56692672  0.48504584
   0.49688513  0.48609896  0.56165371
   0.46335064  0.46595021  0.45459966
   0.39455297  0.47728682  0.53491696
   0.59426238  0.50266079  0.57593085
   0.45042618  0.39806198  0.53541464
Direct configuration=    11
   0.55737414  0.49421368  0.47254221
   0.54156771  0.57990360  0.53859446
   0.49525900  0.56467369  0.43955569
   0.44305010  0.56825927  0.53626405
   0.34540717  0.56286593  0.53717260
   0.39590198  0.53824151  0.44383190
   0.64663997  0.46573630  0.49485035
   0.62433357  0.56667134  0.48374416
   0.49705266  0.48445250  0.56187654
   0.46313250  0.46588415  0.45541773
   0.39451472  0.47709339  0.53459838
   0.59476395  0.50342845  0.57619958
   0.44919622  0.39704155  0.53553620
Direct configuration=    12
   0.55738190  0.49422437  0.47256264
   0.54154819  0.57989808  0.53861088
   0.49526155  0.56469587  0.43954452
   0.44306174  0.56824460  0.53624872
   0.34542896  0.56288746  0.53716763
   0.39592264  0.53824503  0.44383237
   0.64663128  0.46575828  0.49484917
   0.62431759  0.56666502  0.48371196
   0.49705680  0.48441178  0.56188205
   0.46312711  0.46588252  0.45543796
   0.39451377  0.47708861  0.53459050
   0.59477636  0.50344743  0.57620622
   0.44916581  0.39701631  0.53553920
Direct configuration=    13
   0.55732502  0.49379769  0.47277998
   0.54120807  0.57999089  0.53849918
   0.49550220  0.56472140  0.43978887
   0.44326162  0.56797230  0.53629677
   0.34578246  0.56320862  0.53687097
   0.39567240  0.53841085  0.44346722
   0.64674519  0.46623690  0.49484483
   0.62419631  0.56709533  0.48313052
   0.49739059  0.48356637  0.56215888
   0.46324684  0.46592485  0.45569549
   0.39409803  0.47710548  0.53484154
   0.59510705  0.50354426  0.57645291
   0.44865793  0.39689041  0.53535667
Direct configuration=    14
   0.55726421  0.49334147  0.47301237
   0.54084439  0.58009012  0.53837975
   0.49575952  0.56474869  0.44005014
   0.44347535  0.56768116  0.53634815
   0.34616043  0.56355202  0.53655378
   0.39540483  0.53858816  0.44307678
   0.64686699  0.46674865  0.49484018
   0.62406663  0.56755544  0.48250882
   0.49774749  0.48266242  0.56245488
   0.46337486  0.46597011  0.45597086
   0.39365349  0.47712353  0.53510995
   0.59546063  0.50364779  0.57671669
   0.44811488  0.39675579  0.53516149
Direct configuration=    15
   0.55731097  0.49308077  0.47319663
   0.54100894  0.57998943  0.53832390
   0.49589533  0.56461607  0.44018347
   0.44354008  0.56729238  0.53639667
   0.34626253  0.56382522  0.53636571
   0.39534983  0.53861100  0.44288236
   0.64707316  0.46715060  0.49481212
   0.62377886  0.56780235  0.48215583
   0.49799172  0.48221836  0.56265612
   0.46327344  0.46614275  0.45618881
   0.39345820  0.47717694  0.53523499
   0.59554032  0.50381321  0.57681455
   0.44771034  0.39674626  0.53497269
Direct configuration=    16
   0.55745127  0.49229868  0.47374941
   0.54150256  0.57968736  0.53815635
   0.49630277  0.56421822  0.44058345
   0.44373427  0.56612604  0.53654224
   0.34656883  0.56464483  0.53580152
   0.39518482  0.53867951  0.44229910
   0.64769167  0.46835646  0.49472791
   0.62291556  0.56854306  0.48109683
   0.49872439  0.48088617  0.56325985
   0.46296920  0.46666066  0.45684267
   0.39287231  0.47733719  0.53561008
   0.59577936  0.50430950  0.57710815
   0.44649670  0.39671768  0.53440628
Direct configuration=    17
   0.55773187  0.49073449  0.47485498
   0.54248982  0.57908321  0.53782126
   0.49711764  0.56342251  0.44138340
   0.44412265  0.56379337  0.53683337
   0.34718144  0.56628405  0.53467314
   0.39485481  0.53881653  0.44113258
   0.64892868  0.47076817  0.49455950
   0.62118895  0.57002448  0.47897884
   0.50018973  0.47822181  0.56446729
   0.46236070  0.46769649  0.45815039
   0.39170052  0.47765769  0.53636027
   0.59625746  0.50530207  0.57769534
   0.44406943  0.39666050  0.53327348
Direct configuration=    18
   0.55781774  0.49093786  0.47483849
   0.54112889  0.57920427  0.53907147
   0.49706685  0.56341439  0.44066404
   0.44521333  0.56341689  0.53650694
   0.34676033  0.56627942  0.53470109
   0.39548310  0.53886724  0.44178072
   0.64968997  0.47139710  0.49477343
   0.62121478  0.56924507  0.47816567
   0.49942503  0.47902070  0.56415955
   0.46218275  0.46763766  0.45841958
   0.39151694  0.47792424  0.53616430
   0.59652610  0.50474293  0.57759561
   0.44416790  0.39637758  0.53334294
Direct configuration=    19
   0.55781253  0.49092553  0.47483949
   0.54121145  0.57919693  0.53899562
   0.49706993  0.56341488  0.44070768
   0.44514716  0.56343973  0.53652674
   0.34678588  0.56627970  0.53469940
   0.39544499  0.53886416  0.44174140
   0.64964379  0.47135894  0.49476045
   0.62121321  0.56929235  0.47821500
   0.49947142  0.47897224  0.56417822
   0.46219354  0.46764123  0.45840325
   0.39152807  0.47790806  0.53617619
   0.59650981  0.50477685  0.57760167
   0.44416192  0.39639474  0.53333873
Direct configuration=    20
   0.55788787  0.49108142  0.47495344
   0.54158907  0.57899462  0.53984566
   0.49735759  0.56333171  0.43995440
   0.44476185  0.56318162  0.53619336
   0.34687266  0.56628853  0.53477845
   0.39586044  0.53915652  0.44226175
   0.65036447  0.47201224  0.49490966
   0.62033149  0.56879111  0.47773732
   0.49904311  0.47954533  0.56406605
   0.46229483  0.46741607  0.45853410
   0.39136037  0.47790052  0.53609712
   0.59636295  0.50438317  0.57740339
   0.44410700  0.39638249  0.53344915
Direct configuration=    21
   0.55791235  0.49113206  0.47499046
   0.54171176  0.57892889  0.54012183
   0.49745105  0.56330469  0.43970967
   0.44463667  0.56309777  0.53608505
   0.34690085  0.56629140  0.53480413
   0.39599542  0.53925151  0.44243080
   0.65059861  0.47222449  0.49495814
   0.62004503  0.56862827  0.47758212
   0.49890396  0.47973152  0.56402960
   0.46232774  0.46734292  0.45857661
   0.39130589  0.47789806  0.53607143
   0.59631524  0.50425527  0.57733898
   0.44408915  0.39637850  0.53348502
Direct configuration=    22
   0.55787281  0.49067561  0.47512889
   0.54176092  0.57870369  0.54081026
   0.49819244  0.56309838  0.43957271
   0.44471493  0.56336652  0.53570433
   0.34681977  0.56643242  0.53506758
   0.39624666  0.53964890  0.44239893
   0.65122208  0.47298453  0.49500904
   0.61898052  0.56881468  0.47671972
   0.49864724  0.48006736  0.56411815
   0.46260431  0.46717503  0.45848497
   0.39103819  0.47741840  0.53605816
   0.59618870  0.50353582  0.57741209
   0.44390514  0.39654402  0.53369901
Direct configuration=    23
   0.55775421  0.48930627  0.47554417
   0.54190839  0.57802809  0.54287556
   0.50041663  0.56247944  0.43916183
   0.44494969  0.56417277  0.53456217
   0.34657653  0.56685551  0.53585792
   0.39700038  0.54084106  0.44230331
   0.65309249  0.47526463  0.49516175
   0.61578699  0.56937391  0.47413250
   0.49787709  0.48107487  0.56438379
   0.46343401  0.46667137  0.45821006
   0.39023508  0.47597943  0.53601835
   0.59580910  0.50137746  0.57763145
   0.44335312  0.39704055  0.53434097
Direct configuration=    24
   0.55778649  0.48916875  0.47558914
   0.54191374  0.57797149  0.54301376
   0.50058756  0.56243660  0.43916265
   0.44495131  0.56421916  0.53447591
   0.34658246  0.56686279  0.53591492
   0.39706264  0.54090941  0.44229725
   0.65320358  0.47545940  0.49516952
   0.61554505  0.56942669  0.47392243
   0.49781158  0.48113189  0.56440476
   0.46345595  0.46665989  0.45819449
   0.39017315  0.47595896  0.53599484
   0.59578923  0.50121168  0.57765208
   0.44333096  0.39704865  0.53439211
Direct configuration=    25
   0.55788334  0.48875618  0.47572406
   0.54192977  0.57780168  0.54342833
   0.50110036  0.56230810  0.43916510
   0.44495617  0.56435834  0.53421712
   0.34660025  0.56688463  0.53608591
   0.39724941  0.54111445  0.44227906
   0.65353684  0.47604369  0.49519283
   0.61481924  0.56958505  0.47329219
   0.49761506  0.48130295  0.56446765
   0.46352176  0.46662544  0.45814777
   0.38998738  0.47589757  0.53592430
   0.59572964  0.50071432  0.57771398
   0.44326448  0.39707296  0.53454554
Direct configuration=    26
   0.55807703  0.48793104  0.47599388
   0.54196183  0.57746207  0.54425748
   0.50212596  0.56205109  0.43917000
   0.44496588  0.56463669  0.53369954
   0.34663584  0.56692832  0.53642789
   0.39762295  0.54152453  0.44224268
   0.65420338  0.47721227  0.49523945
   0.61336761  0.56990178  0.47203172
   0.49722202  0.48164508  0.56459345
   0.46365339  0.46655654  0.45805435
   0.38961584  0.47577477  0.53578322
   0.59561046  0.49971961  0.57783779
   0.44313152  0.39712156  0.53485239
Direct configuration=    27
   0.55846441  0.48628076  0.47653354
   0.54202597  0.57678285  0.54591578
   0.50417714  0.56153708  0.43917981
   0.44498531  0.56519339  0.53266437
   0.34670702  0.56701568  0.53711185
   0.39837002  0.54234469  0.44216991
   0.65553644  0.47954943  0.49533269
   0.61046435  0.57053522  0.46951079
   0.49643595  0.48232934  0.56484504
   0.46391665  0.46641875  0.45786751
   0.38887275  0.47552919  0.53550107
   0.59537209  0.49773019  0.57808539
   0.44286560  0.39721877  0.53546610
Direct configuration=    28
   0.55923917  0.48298021  0.47761286
   0.54215423  0.57542442  0.54923237
   0.50827952  0.56050905  0.43919942
   0.44502417  0.56630679  0.53059404
   0.34684936  0.56719041  0.53847977
   0.39986418  0.54398500  0.44202439
   0.65820258  0.48422377  0.49551916
   0.60465783  0.57180212  0.46446891
   0.49486379  0.48369786  0.56534823
   0.46444317  0.46614316  0.45749382
   0.38738658  0.47503802  0.53493677
   0.59489536  0.49375135  0.57858059
   0.44233377  0.39741320  0.53669351
Direct configuration=    29
   0.55861526  0.48563812  0.47674369
   0.54205094  0.57651836  0.54656154
   0.50497591  0.56133691  0.43918363
   0.44499288  0.56541018  0.53226126
   0.34673473  0.56704970  0.53737820
   0.39866095  0.54266407  0.44214158
   0.65605556  0.48045956  0.49536900
   0.60933377  0.57078190  0.46852910
   0.49612984  0.48259580  0.56494302
   0.46401917  0.46636509  0.45779475
   0.38858338  0.47543356  0.53539120
   0.59527927  0.49695548  0.57818181
   0.44276205  0.39725663  0.53570509
Direct configuration=    30
   0.55901665  0.48491652  0.47702962
   0.54211939  0.57619343  0.54685724
   0.50549528  0.56119252  0.43945918
   0.44499775  0.56546693  0.53208235
   0.34690492  0.56692023  0.53749580
   0.39890339  0.54269360  0.44203776
   0.65611879  0.48142285  0.49539975
   0.60843823  0.57094642  0.46770992
   0.49583309  0.48258633  0.56493913
   0.46379362  0.46655675  0.45790013
   0.38848135  0.47600307  0.53511475
   0.59526225  0.49638031  0.57828110
   0.44282901  0.39718639  0.53587711
Direct configuration=    31
   0.56022082  0.48275172  0.47788740
   0.54232474  0.57521867  0.54774434
   0.50705339  0.56075935  0.44028583
   0.44501236  0.56563719  0.53154561
   0.34741547  0.56653181  0.53784861
   0.39963070  0.54278218  0.44172630
   0.65630848  0.48431272  0.49549202
   0.60575161  0.57143999  0.46525238
   0.49494284  0.48255790  0.56492748
   0.46311697  0.46713173  0.45821630
   0.38817525  0.47771162  0.53428542
   0.59521119  0.49465481  0.57857899
   0.44302989  0.39697567  0.53639318
Direct configuration=    32
   0.56049836  0.48225276  0.47808510
   0.54237207  0.57499400  0.54794880
   0.50741251  0.56065951  0.44047636
   0.44501573  0.56567644  0.53142189
   0.34753314  0.56644228  0.53792993
   0.39979833  0.54280260  0.44165451
   0.65635221  0.48497878  0.49551328
   0.60513238  0.57155375  0.46468595
   0.49473765  0.48255135  0.56492479
   0.46296101  0.46726425  0.45828917
   0.38810470  0.47810542  0.53409427
   0.59519942  0.49425710  0.57864765
   0.44307619  0.39692710  0.53651213
Direct configuration=    33
   0.56050440  0.48145996  0.47825234
   0.54254463  0.57445990  0.54786657
   0.50733279  0.56031924  0.44100860
   0.44532712  0.56578161  0.53164912
   0.34751007  0.56664331  0.53793572
   0.39981844  0.54268513  0.44117191
   0.65623504  0.48619412  0.49553850
   0.60470530  0.57165944  0.46403198
   0.49463448  0.48217268  0.56479880
   0.46281697  0.46756921  0.45863985
   0.38862796  0.47838564  0.53369794
   0.59512984  0.49385637  0.57903506
   0.44300665  0.39727875  0.53655746
Direct configuration=    34
   0.56052253  0.47908154  0.47875407
   0.54306232  0.57285760  0.54761988
   0.50709364  0.55929844  0.44260531
   0.44626130  0.56609714  0.53233081
   0.34744086  0.56724640  0.53795311
   0.39987874  0.54233272  0.43972408
   0.65588356  0.48984011  0.49561416
   0.60342407  0.57197650  0.46207005
   0.49432497  0.48103665  0.56442081
   0.46238484  0.46848410  0.45969188
   0.39019773  0.47922630  0.53250895
   0.59492113  0.49265415  0.58019730
   0.44279802  0.39833370  0.53669344
Direct configuration=    35
   0.56034047  0.47855691  0.47887865
   0.54370089  0.57197490  0.54729013
   0.50622972  0.55877508  0.44298916
   0.44597461  0.56638323  0.53259870
   0.34768216  0.56763516  0.53761368
   0.39972839  0.54244357  0.43951109
   0.65560986  0.49154440  0.49579158
   0.60352715  0.57192071  0.46153244
   0.49483649  0.48054293  0.56466953
   0.46277915  0.46843479  0.45938293
   0.39042861  0.47984801  0.53245602
   0.59474009  0.49215794  0.58079840
   0.44261612  0.39824773  0.53667155
Direct configuration=    36
   0.56003331  0.47767183  0.47908882
   0.54477821  0.57048573  0.54673383
   0.50477223  0.55789216  0.44363673
   0.44549095  0.56686587  0.53305064
   0.34808926  0.56829101  0.53704104
   0.39947474  0.54263058  0.43915177
   0.65514811  0.49441964  0.49609088
   0.60370106  0.57182658  0.46062548
   0.49569945  0.47971001  0.56508912
   0.46344438  0.46835160  0.45886173
   0.39081811  0.48089686  0.53236672
   0.59443466  0.49132079  0.58181248
   0.44230924  0.39810269  0.53663461
Direct configuration=    37
   0.56039466  0.47768404  0.47926764
   0.54534175  0.56936823  0.54599743
   0.50394718  0.55777034  0.44374248
   0.44578416  0.56719393  0.53357866
   0.34807223  0.56918336  0.53636670
   0.39937665  0.54278651  0.43942772
   0.65491521  0.49623465  0.49682239
   0.60336643  0.57209152  0.45953605
   0.49598082  0.47924765  0.56533274
   0.46335578  0.46737890  0.45836857
   0.39120242  0.48112659  0.53257439
   0.59457441  0.49028921  0.58274790
   0.44188198  0.39811041  0.53642117
Direct configuration=    38
   0.56097129  0.47770353  0.47955301
   0.54624102  0.56758498  0.54482233
   0.50263061  0.55757594  0.44391123
   0.44625206  0.56771744  0.53442124
   0.34804506  0.57060731  0.53529063
   0.39922013  0.54303534  0.43986806
   0.65454358  0.49913096  0.49798968
   0.60283245  0.57251430  0.45779759
   0.49642982  0.47850984  0.56572149
   0.46321441  0.46582672  0.45758162
   0.39181568  0.48149319  0.53290579
   0.59479742  0.48864308  0.58424059
   0.44120018  0.39812273  0.53608059
Direct configuration=    39
   0.56212453  0.47774249  0.48012374
   0.54803956  0.56401849  0.54247212
   0.49999748  0.55718714  0.44424873
   0.44718784  0.56876446  0.53610640
   0.34799070  0.57345522  0.53313850
   0.39890708  0.54353299  0.44074874
   0.65380030  0.50492356  0.50032426
   0.60176450  0.57335985  0.45432069
   0.49732782  0.47703423  0.56649899
   0.46293166  0.46272236  0.45600772
   0.39304220  0.48222639  0.53356858
   0.59524345  0.48535081  0.58722596
   0.43983659  0.39814737  0.53539942
Direct configuration=    40
   0.56154773  0.47772300  0.47983829
   0.54714000  0.56580230  0.54364759
   0.50131446  0.55738160  0.44407992
   0.44671980  0.56824078  0.53526355
   0.34801789  0.57203082  0.53421491
   0.39906366  0.54328409  0.44030826
   0.65417205  0.50202635  0.49915660
   0.60229864  0.57293694  0.45605969
   0.49687868  0.47777227  0.56611011
   0.46307308  0.46427503  0.45679492
   0.39242875  0.48185968  0.53323708
   0.59502037  0.48699746  0.58573280
   0.44051860  0.39813505  0.53574011
Direct configuration=    41
   0.56165682  0.47790978  0.47989816
   0.54753264  0.56493122  0.54323911
   0.50096929  0.55713738  0.44399326
   0.44699558  0.56836895  0.53579556
   0.34816982  0.57249177  0.53367752
   0.39917555  0.54321174  0.44076252
   0.65416589  0.50319099  0.50015275
   0.60171732  0.57341197  0.45481789
   0.49674054  0.47749990  0.56594406
   0.46303469  0.46378388  0.45655245
   0.39259768  0.48237188  0.53338392
   0.59518390  0.48616246  0.58630714
   0.44025400  0.39799344  0.53565951
Direct configuration=    42
   0.56198409  0.47847010  0.48007777
   0.54871056  0.56231798  0.54201367
   0.49993381  0.55640471  0.44373327
   0.44782290  0.56875343  0.53739157
   0.34862560  0.57387462  0.53206536
   0.39951121  0.54299471  0.44212530
   0.65414742  0.50668492  0.50314118
   0.59997334  0.57483706  0.45109250
   0.49632613  0.47668280  0.56544592
   0.46291952  0.46231043  0.45582504
   0.39310446  0.48390849  0.53382441
   0.59567449  0.48365748  0.58803015
   0.43946019  0.39756862  0.53541770
Direct configuration=    43
   0.56263864  0.47959074  0.48043699
   0.55106638  0.55709149  0.53956278
   0.49786283  0.55493938  0.44321329
   0.44947754  0.56952241  0.54058359
   0.34953716  0.57664032  0.52884104
   0.40018255  0.54256065  0.44485086
   0.65411046  0.51367277  0.50911803
   0.59648537  0.57768724  0.44364172
   0.49549730  0.47504861  0.56444962
   0.46268919  0.45936355  0.45437023
   0.39411802  0.48698172  0.53470541
   0.59665567  0.47864750  0.59147618
   0.43787259  0.39671898  0.53493410
Direct configuration=    44
   0.56209860  0.47866615  0.48014061
   0.54912269  0.56140363  0.54158490
   0.49957150  0.55614836  0.44364230
   0.44811237  0.56888796  0.53794999
   0.34878507  0.57435846  0.53150128
   0.39962866  0.54291877  0.44260212
   0.65414095  0.50790740  0.50418679
   0.59936314  0.57533569  0.44978903
   0.49618113  0.47639691  0.56527162
   0.46287922  0.46179489  0.45557053
   0.39328178  0.48444614  0.53397854
   0.59584614  0.48278101  0.58863302
   0.43918245  0.39741998  0.53533310
Direct configuration=    45
   0.56224022  0.47870941  0.47980820
   0.54978933  0.56094725  0.54164819
   0.49976939  0.55555053  0.44343114
   0.44863200  0.56896398  0.53852545
   0.34907290  0.57457060  0.53132547
   0.40001316  0.54254265  0.44295228
   0.65342889  0.50937732  0.50554899
   0.59872817  0.57543051  0.44857136
   0.49566418  0.47622561  0.56456970
   0.46297892  0.46195397  0.45568153
   0.39343541  0.48470285  0.53419826
   0.59570234  0.48207661  0.58850336
   0.43873880  0.39741407  0.53541991
Direct configuration=    46
   0.56266506  0.47883920  0.47881095
   0.55178925  0.55957810  0.54183806
   0.50036304  0.55375704  0.44279764
   0.45019092  0.56919205  0.54025183
   0.34993638  0.57520701  0.53079803
   0.40116664  0.54141429  0.44400275
   0.65129271  0.51378706  0.50963559
   0.59682329  0.57571497  0.44491834
   0.49411332  0.47571171  0.56246396
   0.46327800  0.46243120  0.45601453
   0.39389632  0.48547299  0.53485743
   0.59527093  0.47996342  0.58811438
   0.43740784  0.39739632  0.53568035
Direct configuration=    47
   0.56279781  0.47887976  0.47849933
   0.55241418  0.55915027  0.54189740
   0.50054855  0.55319661  0.44259968
   0.45067804  0.56926332  0.54079129
   0.35020620  0.57540587  0.53063322
   0.40152708  0.54106170  0.44433100
   0.65062520  0.51516501  0.51091256
   0.59622805  0.57580386  0.44377684
   0.49362870  0.47555112  0.56180596
   0.46337146  0.46258033  0.45611858
   0.39404035  0.48571364  0.53506341
   0.59513613  0.47930309  0.58799283
   0.43699195  0.39739077  0.53576174
Direct configuration=    48
   0.56321828  0.47840276  0.47764431
   0.55327587  0.55918588  0.54190923
   0.50089106  0.55286911  0.44252210
   0.45152628  0.56941486  0.54117725
   0.35074927  0.57557890  0.53075079
   0.40185531  0.54089494  0.44439334
   0.64931057  0.51781911  0.51219555
   0.59589515  0.57549159  0.44282792
   0.49371541  0.47570390  0.56111889
   0.46337707  0.46214580  0.45630031
   0.39394162  0.48571947  0.53565541
   0.59421630  0.47799201  0.58782047
   0.43622155  0.39724702  0.53586826
Direct configuration=    49
   0.56440699  0.47705421  0.47522703
   0.55571197  0.55928655  0.54194270
   0.50185938  0.55194323  0.44230278
   0.45392434  0.56984326  0.54226841
   0.35228458  0.57606808  0.53108319
   0.40278326  0.54042350  0.44456957
   0.64559391  0.52532262  0.51582275
   0.59495401  0.57460876  0.44014519
   0.49396053  0.47613582  0.55917645
   0.46339291  0.46091734  0.45681408
   0.39366249  0.48573597  0.53732907
   0.59161581  0.47428541  0.58733321
   0.43404352  0.39684060  0.53616942
Direct configuration=    50
   0.56397232  0.47754733  0.47611094
   0.55482118  0.55924974  0.54193046
   0.50150530  0.55228180  0.44238298
   0.45304746  0.56968661  0.54186941
   0.35172317  0.57588920  0.53096164
   0.40244394  0.54059589  0.44450513
   0.64695295  0.52257886  0.51449642
   0.59529815  0.57493158  0.44112617
   0.49387090  0.47597788  0.55988673
   0.46338712  0.46136655  0.45662621
   0.39376456  0.48572994  0.53671707
   0.59256672  0.47564078  0.58751138
   0.43483994  0.39698921  0.53605929
Direct configuration=    51
   0.56407932  0.47742594  0.47589336
   0.55504046  0.55925880  0.54193348
   0.50159246  0.55219845  0.44236324
   0.45326331  0.56972517  0.54196763
   0.35186137  0.57593323  0.53099156
   0.40252747  0.54055346  0.44452099
   0.64661841  0.52325427  0.51482291
   0.59521344  0.57485212  0.44088469
   0.49389296  0.47601676  0.55971188
   0.46338854  0.46125597  0.45667246
   0.39373943  0.48573142  0.53686772
   0.59233264  0.47530713  0.58746752
   0.43464389  0.39695263  0.53608640
Direct configuration=    52
   0.56437312  0.47714232  0.47588625
   0.55440544  0.55961311  0.54158932
   0.50101810  0.55229641  0.44293357
   0.45330102  0.56965496  0.54124037
   0.35241414  0.57586351  0.53133434
   0.40254567  0.54082245  0.44456514
   0.64648768  0.52412919  0.51511790
   0.59615712  0.57473073  0.44092629
   0.49466082  0.47614786  0.55997170
   0.46310928  0.46050253  0.45648838
   0.39370007  0.48593698  0.53702385
   0.59160550  0.47469640  0.58686359
   0.43441575  0.39692891  0.53624313
Direct configuration=    53
   0.56455041  0.47697118  0.47588197
   0.55402223  0.55982692  0.54138165
   0.50067150  0.55235552  0.44327773
   0.45332378  0.56961258  0.54080151
   0.35274770  0.57582144  0.53154119
   0.40255665  0.54098477  0.44459179
   0.64640880  0.52465715  0.51529591
   0.59672658  0.57465748  0.44095139
   0.49512419  0.47622697  0.56012848
   0.46294076  0.46004787  0.45637730
   0.39367632  0.48606103  0.53711806
   0.59116671  0.47432786  0.58649915
   0.43427808  0.39691459  0.53633771
Direct configuration=    54
   0.56464000  0.47706996  0.47588147
   0.55361439  0.56014183  0.54096061
   0.50101306  0.55228972  0.44371265
   0.45303950  0.56960013  0.54028273
   0.35303081  0.57599268  0.53206285
   0.40233753  0.54106462  0.44448396
   0.64645810  0.52490716  0.51588013
   0.59688961  0.57446433  0.44101035
   0.49492076  0.47603279  0.55997815
   0.46278332  0.45972781  0.45639846
   0.39403757  0.48591107  0.53712544
   0.59120573  0.47409343  0.58576720
   0.43422334  0.39716982  0.53663985
Direct configuration=    55
   0.56471877  0.47715682  0.47588103
   0.55325581  0.56041870  0.54059044
   0.50131335  0.55223186  0.44409502
   0.45278957  0.56958919  0.53982662
   0.35327971  0.57614324  0.53252150
   0.40214489  0.54113482  0.44438915
   0.64650144  0.52512697  0.51639377
   0.59703295  0.57429451  0.44106218
   0.49474192  0.47586207  0.55984597
   0.46264490  0.45944642  0.45641707
   0.39435517  0.48577923  0.53713192
   0.59124003  0.47388732  0.58512367
   0.43417521  0.39739421  0.53690550
Direct configuration=    56
   0.56482322  0.47726948  0.47579614
   0.55311089  0.56058792  0.54056735
   0.50137547  0.55187196  0.44407980
   0.45250610  0.56969887  0.53943525
   0.35343174  0.57624263  0.53317143
   0.40201798  0.54099954  0.44435516
   0.64669111  0.52549857  0.51716342
   0.59721710  0.57405485  0.44103247
   0.49463531  0.47586873  0.55962070
   0.46262333  0.45961723  0.45621285
   0.39436529  0.48611212  0.53701396
   0.59122814  0.47361362  0.58429776
   0.43416802  0.39702983  0.53743755
Direct configuration=    57
   0.56486860  0.47731842  0.47575927
   0.55304794  0.56066142  0.54055732
   0.50140245  0.55171563  0.44407319
   0.45238297  0.56974652  0.53926524
   0.35349777  0.57628581  0.53345375
   0.40196286  0.54094077  0.44434040
   0.64677351  0.52565999  0.51749775
   0.59729710  0.57395075  0.44101957
   0.49458900  0.47587162  0.55952285
   0.46261396  0.45969143  0.45612414
   0.39436968  0.48625673  0.53696272
   0.59122298  0.47349473  0.58393899
   0.43416489  0.39687154  0.53766867
Direct configuration=    58