   8   8   0   0
  0.1344462E+04  0.2214546E-08  0.2196991E-08  0.2210678E-08  0.5000000E-15
   1.0000000000000000E-004
  CAR 
 unknown system                          
      2.09187099    -12.40450531  301     -5.07090363      1.00000000
    -12.405  0.0000E+00  0.0000E+00  0.0000E+00  0.0000E+00
    -12.356  0.0000E+00  0.0000E+00  0.0000E+00  0.0000E+00
    -12.308  0.0000E+00  0.0000E+00  0.0000E+00  0.0000E+00
    -12.260  0.0000E+00  0.0000E+00  0.0000E+00  0.0000E+00
    -12.211  0.0000E+00  0.0000E+00  0.0000E+00  0.0000E+00
    -12.163  0.0000E+00  0.0000E+00  0.0000E+00  0.0000E+00
    -12.115  0.0000E+00  0.0000E+00  0.0000E+00  0.0000E+00
    -12.066  0.0000E+00  0.0000E+00  0.0000E+00  0.0000E+00
    -12.018 -0.2568E-29 -0.2563E-29 -0.1241E-30 -0.1238E-30
    -11.970 -0.1133E-27 -0.1131E-27 -0.5599E-29 -0.5588E-29
    -11.921 -0.4532E-26 -0.4523E-26 -0.2246E-27 -0.2242E-27
    -11.873 -0.1611E-24 -0.1608E-24 -0.8007E-26 -0.7993E-26
    -11.825 -0.5086E-23 -0.5077E-23 -0.2538E-24 -0.2533E-24
    -11.776 -0.1427E-21 -0.1424E-21 -0.7148E-23 -0.7136E-23
    -11.728 -0.3555E-20 -0.3549E-20 -0.1789E-21 -0.1786E-21
    -11.680 -0.7867E-19 -0.7855E-19 -0.3980E-20 -0.3974E-20
    -11.631 -0.1546E-17 -0.1543E-17 -0.7867E-19 -0.7855E-19
    -11.583 -0.2581E-16 -0.2577E-16 -0.1326E-17 -0.1324E-17
    -11.535 -0.4047E-15 -0.4041E-15 -0.2088E-16 -0.2085E-16
    -11.486 -0.5538E-14 -0.5531E-14 -0.2885E-15 -0.2881E-15
    -11.438 -0.6725E-13 -0.6716E-13 -0.3538E-14 -0.3534E-14
    -11.390 -0.7236E-12 -0.7227E-12 -0.3850E-13 -0.3846E-13
    -11.341 -0.6896E-11 -0.6888E-11 -0.3717E-12 -0.3713E-12
    -11.293 -0.5817E-10 -0.5810E-10 -0.3182E-11 -0.3179E-11
    -11.245 -0.4339E-09 -0.4335E-09 -0.2415E-10 -0.2412E-10
    -11.196 -0.2860E-08 -0.2857E-08 -0.1623E-09 -0.1622E-09
    -11.148 -0.1663E-07 -0.1662E-07 -0.9660E-09 -0.9652E-09
    -11.100 -0.8522E-07 -0.8515E-07 -0.5084E-08 -0.5080E-08
    -11.052 -0.3839E-06 -0.3836E-06 -0.2363E-07 -0.2362E-07
    -11.003 -0.1516E-05 -0.1515E-05 -0.9689E-07 -0.9682E-07
    -10.955 -0.5229E-05 -0.5226E-05 -0.3495E-06 -0.3493E-06
    -10.907 -0.1566E-04 -0.1565E-04 -0.1106E-05 -0.1106E-05
    -10.858 -0.4036E-04 -0.4034E-04 -0.3057E-05 -0.3055E-05
    -10.810 -0.8822E-04 -0.8819E-04 -0.7320E-05 -0.7317E-05
    -10.762 -0.1589E-03 -0.1589E-03 -0.1500E-04 -0.1499E-04
    -10.713 -0.2207E-03 -0.2207E-03 -0.2566E-04 -0.2566E-04
    -10.665 -0.1855E-03 -0.1856E-03 -0.3463E-04 -0.3463E-04
    -10.617  0.8906E-04  0.8883E-04 -0.3032E-04 -0.3033E-04
    -10.568  0.7364E-03  0.7360E-03  0.5259E-05  0.5229E-05
    -10.520  0.1762E-02  0.1761E-02  0.9041E-04  0.9035E-04
    -10.472  0.2948E-02  0.2947E-02  0.2328E-03  0.2328E-03
    -10.423  0.3888E-02  0.3888E-02  0.4207E-03  0.4206E-03
    -10.375  0.4192E-02  0.4192E-02  0.6233E-03  0.6232E-03
    -10.327  0.3724E-02  0.3725E-02  0.8033E-03  0.8032E-03
    -10.278  0.2691E-02  0.2692E-02  0.9333E-03  0.9333E-03
    -10.230  0.1511E-02  0.1511E-02  0.1006E-02  0.1006E-02
    -10.182  0.5581E-03  0.5585E-03  0.1033E-02  0.1033E-02
    -10.133  0.5512E-08  0.1936E-06  0.1033E-02  0.1033E-02
    -10.085 -0.2083E-03 -0.2083E-03  0.1023E-02  0.1023E-02
    -10.037 -0.2113E-03 -0.2114E-03  0.1013E-02  0.1013E-02
     -9.988 -0.1423E-03 -0.1423E-03  0.1006E-02  0.1006E-02
     -9.940 -0.7539E-04 -0.7541E-04  0.1002E-02  0.1002E-02
     -9.892 -0.3320E-04 -0.3321E-04  0.1001E-02  0.1001E-02
     -9.843 -0.1245E-04 -0.1245E-04  0.1000E-02  0.1000E-02
     -9.795 -0.4026E-05 -0.4029E-05  0.1000E-02  0.1000E-02
     -9.747 -0.1133E-05 -0.1133E-05  0.1000E-02  0.1000E-02
     -9.699 -0.2785E-06 -0.2787E-06  0.1000E-02  0.1000E-02
     -9.650 -0.6008E-07 -0.6013E-07  0.1000E-02  0.1000E-02
     -9.602 -0.1143E-07 -0.1144E-07  0.1000E-02  0.1000E-02
     -9.554 -0.2163E-08 -0.2165E-08  0.1000E-02  0.1000E-02
     -9.505 -0.2152E-08 -0.2150E-08  0.1000E-02  0.1000E-02
     -9.457 -0.1208E-07 -0.1206E-07  0.1000E-02  0.1000E-02
     -9.409 -0.6839E-07 -0.6832E-07  0.1000E-02  0.1000E-02
     -9.360 -0.3421E-06 -0.3417E-06  0.1000E-02  0.1000E-02
     -9.312 -0.1504E-05 -0.1502E-05  0.9999E-03  0.9999E-03
     -9.264 -0.5790E-05 -0.5786E-05  0.9996E-03  0.9996E-03
     -9.215 -0.1946E-04 -0.1944E-04  0.9987E-03  0.9987E-03
     -9.167 -0.5670E-04 -0.5667E-04  0.9959E-03  0.9959E-03
     -9.119 -0.1419E-03 -0.1418E-03  0.9891E-03  0.9891E-03
     -9.070 -0.3000E-03 -0.2999E-03  0.9746E-03  0.9746E-03
     -9.022 -0.5185E-03 -0.5183E-03  0.9495E-03  0.9496E-03
     -8.974 -0.6753E-03 -0.6753E-03  0.9169E-03  0.9169E-03
     -8.925 -0.4713E-03 -0.4716E-03  0.8941E-03  0.8941E-03
     -8.877  0.5361E-03  0.5351E-03  0.9200E-03  0.9200E-03
     -8.829  0.2705E-02  0.2703E-02  0.1051E-02  0.1051E-02
     -8.780  0.5942E-02  0.5939E-02  0.1338E-02  0.1338E-02
     -8.732  0.9461E-02  0.9459E-02  0.1795E-02  0.1795E-02
     -8.684  0.1200E-01  0.1200E-01  0.2375E-02  0.2374E-02
     -8.635  0.1247E-01  0.1247E-01  0.2977E-02  0.2977E-02
     -8.587  0.1064E-01  0.1065E-01  0.3492E-02  0.3491E-02
     -8.539  0.7290E-02  0.7293E-02  0.3844E-02  0.3844E-02
     -8.490  0.3663E-02  0.3665E-02  0.4021E-02  0.4021E-02
     -8.442  0.7976E-03  0.7991E-03  0.4059E-02  0.4059E-02
     -8.394 -0.8445E-03 -0.8438E-03  0.4019E-02  0.4019E-02
     -8.346 -0.1221E-02 -0.1221E-02  0.3960E-02  0.3960E-02
     -8.297 -0.3558E-03 -0.3568E-03  0.3942E-02  0.3942E-02
     -8.249  0.1775E-02  0.1773E-02  0.4028E-02  0.4028E-02
     -8.201  0.4990E-02  0.4987E-02  0.4269E-02  0.4269E-02
     -8.152  0.8561E-02  0.8559E-02  0.4683E-02  0.4683E-02
     -8.104  0.1125E-01  0.1125E-01  0.5227E-02  0.5226E-02
     -8.056  0.1189E-01  0.1189E-01  0.5801E-02  0.5801E-02
     -8.007  0.1018E-01  0.1018E-01  0.6293E-02  0.6293E-02
     -7.959  0.7066E-02  0.7068E-02  0.6635E-02  0.6635E-02
     -7.911  0.4396E-02  0.4398E-02  0.6847E-02  0.6847E-02
     -7.862  0.3976E-02  0.3976E-02  0.7039E-02  0.7039E-02
     -7.814  0.6575E-02  0.6574E-02  0.7357E-02  0.7357E-02
     -7.766  0.1145E-01  0.1145E-01  0.7910E-02  0.7910E-02
     -7.717  0.1669E-01  0.1668E-01  0.8717E-02  0.8716E-02
     -7.669  0.2025E-01  0.2025E-01  0.9695E-02  0.9695E-02
     -7.621  0.2115E-01  0.2115E-01  0.1072E-01  0.1072E-01
     -7.572  0.1978E-01  0.1978E-01  0.1167E-01  0.1167E-01
     -7.524  0.1738E-01  0.1738E-01  0.1251E-01  0.1251E-01
     -7.476  0.1499E-01  0.1499E-01  0.1324E-01  0.1324E-01
     -7.427  0.1303E-01  0.1303E-01  0.1387E-01  0.1387E-01
     -7.379  0.1158E-01  0.1158E-01  0.1443E-01  0.1443E-01
     -7.331  0.1084E-01  0.1084E-01  0.1495E-01  0.1495E-01
     -7.282  0.1106E-01  0.1106E-01  0.1548E-01  0.1548E-01
     -7.234  0.1221E-01  0.1221E-01  0.1607E-01  0.1607E-01
     -7.186  0.1382E-01  0.1382E-01  0.1674E-01  0.1674E-01
     -7.137  0.1530E-01  0.1530E-01  0.1748E-01  0.1748E-01
     -7.089  0.1631E-01  0.1631E-01  0.1827E-01  0.1827E-01
     -7.041  0.1681E-01  0.1681E-01  0.1908E-01  0.1908E-01
     -6.993  0.1698E-01  0.1698E-01  0.1990E-01  0.1990E-01
     -6.944  0.1706E-01  0.1706E-01  0.2073E-01  0.2073E-01
     -6.896  0.1716E-01  0.1716E-01  0.2156E-01  0.2156E-01
     -6.848  0.1717E-01  0.1717E-01  0.2239E-01  0.2239E-01
     -6.799  0.1661E-01  0.1661E-01  0.2319E-01  0.2319E-01
     -6.751  0.1489E-01  0.1489E-01  0.2391E-01  0.2391E-01
     -6.703  0.1183E-01  0.1183E-01  0.2448E-01  0.2448E-01
     -6.654  0.7913E-02  0.7915E-02  0.2486E-01  0.2486E-01
     -6.606  0.4075E-02  0.4077E-02  0.2506E-01  0.2506E-01
     -6.558  0.1129E-02  0.1130E-02  0.2511E-01  0.2511E-01
     -6.509 -0.6551E-03 -0.6542E-03  0.2508E-01  0.2508E-01
     -6.461 -0.1501E-02 -0.1501E-02  0.2501E-01  0.2501E-01
     -6.413 -0.1736E-02 -0.1735E-02  0.2493E-01  0.2493E-01
     -6.364 -0.1375E-02 -0.1376E-02  0.2486E-01  0.2486E-01
     -6.316  0.5009E-05  0.3178E-05  0.2486E-01  0.2486E-01
     -6.268  0.2995E-02  0.2992E-02  0.2500E-01  0.2500E-01
     -6.219  0.7750E-02  0.7745E-02  0.2538E-01  0.2538E-01
     -6.171  0.1345E-01  0.1345E-01  0.2603E-01  0.2603E-01
     -6.123  0.1833E-01  0.1833E-01  0.2691E-01  0.2691E-01
     -6.074  0.2048E-01  0.2048E-01  0.2790E-01  0.2790E-01
     -6.026  0.1893E-01  0.1894E-01  0.2882E-01  0.2882E-01
     -5.978  0.1430E-01  0.1431E-01  0.2951E-01  0.2951E-01
     -5.929  0.8347E-02  0.8353E-02  0.2991E-01  0.2991E-01
     -5.881  0.2920E-02  0.2925E-02  0.3005E-01  0.3005E-01
     -5.833 -0.8292E-03 -0.8266E-03  0.3001E-01  0.3001E-01
     -5.784 -0.2488E-02 -0.2488E-02  0.2989E-01  0.2989E-01
     -5.736 -0.1855E-02 -0.1858E-02  0.2980E-01  0.2980E-01
     -5.688  0.1426E-02  0.1419E-02  0.2987E-01  0.2987E-01
     -5.640  0.7585E-02  0.7575E-02  0.3024E-01  0.3024E-01
     -5.591  0.1601E-01  0.1600E-01  0.3101E-01  0.3101E-01
     -5.543  0.2490E-01  0.2489E-01  0.3222E-01  0.3222E-01
     -5.495  0.3182E-01  0.3182E-01  0.3375E-01  0.3375E-01
     -5.446  0.3510E-01  0.3510E-01  0.3545E-01  0.3545E-01
     -5.398  0.3474E-01  0.3474E-01  0.3713E-01  0.3713E-01
     -5.350  0.3214E-01  0.3215E-01  0.3868E-01  0.3868E-01
     -5.301  0.2887E-01  0.2888E-01  0.4008E-01  0.4008E-01
     -5.253  0.2552E-01  0.2552E-01  0.4131E-01  0.4131E-01
     -5.205  0.2172E-01  0.2173E-01  0.4236E-01  0.4236E-01
     -5.156  0.1701E-01  0.1701E-01  0.4318E-01  0.4318E-01
     -5.108  0.1160E-01  0.1161E-01  0.4374E-01  0.4374E-01
     -5.060  0.6395E-02  0.6401E-02  0.4405E-01  0.4405E-01
     -5.011  0.2370E-02  0.2374E-02  0.4417E-01  0.4417E-01
     -4.963 -0.2127E-04 -0.1887E-04  0.4417E-01  0.4417E-01
     -4.915 -0.9687E-03 -0.9680E-03  0.4412E-01  0.4412E-01
     -4.866 -0.1022E-02 -0.1023E-02  0.4407E-01  0.4407E-01
     -4.818 -0.7239E-03 -0.7244E-03  0.4403E-01  0.4403E-01
     -4.770 -0.4060E-03 -0.4063E-03  0.4401E-01  0.4401E-01
     -4.721 -0.1900E-03 -0.1902E-03  0.4401E-01  0.4401E-01
     -4.673 -0.7595E-04 -0.7606E-04  0.4400E-01  0.4400E-01
     -4.625 -0.2626E-04 -0.2630E-04  0.4400E-01  0.4400E-01
     -4.576 -0.7908E-05 -0.7922E-05  0.4400E-01  0.4400E-01
     -4.528 -0.2085E-05 -0.2089E-05  0.4400E-01  0.4400E-01
     -4.480 -0.4827E-06 -0.4838E-06  0.4400E-01  0.4400E-01
     -4.431 -0.9839E-07 -0.9862E-07  0.4400E-01  0.4400E-01
     -4.383 -0.1768E-07 -0.1773E-07  0.4400E-01  0.4400E-01
     -4.335 -0.2806E-08 -0.2814E-08  0.4400E-01  0.4400E-01
     -4.287 -0.3937E-09 -0.3949E-09  0.4400E-01  0.4400E-01
     -4.238 -0.4887E-10 -0.4903E-10  0.4400E-01  0.4400E-01
     -4.190 -0.5472E-11 -0.5489E-11  0.4400E-01  0.4400E-01
     -4.142 -0.1601E-11 -0.1597E-11  0.4400E-01  0.4400E-01
     -4.093 -0.1011E-10 -0.1005E-10  0.4400E-01  0.4400E-01
     -4.045 -0.8310E-10 -0.8268E-10  0.4400E-01  0.4400E-01
     -3.997 -0.6068E-09 -0.6039E-09  0.4400E-01  0.4400E-01
     -3.948 -0.3914E-08 -0.3897E-08  0.4400E-01  0.4400E-01
     -3.900 -0.2227E-07 -0.2218E-07  0.4400E-01  0.4400E-01
     -3.852 -0.1116E-06 -0.1112E-06  0.4400E-01  0.4400E-01
     -3.803 -0.4917E-06 -0.4899E-06  0.4400E-01  0.4400E-01
     -3.755 -0.1898E-05 -0.1892E-05  0.4400E-01  0.4400E-01
     -3.707 -0.6392E-05 -0.6374E-05  0.4400E-01  0.4400E-01
     -3.658 -0.1868E-04 -0.1864E-04  0.4400E-01  0.4400E-01
     -3.610 -0.4694E-04 -0.4684E-04  0.4400E-01  0.4400E-01
     -3.562 -0.9987E-04 -0.9971E-04  0.4399E-01  0.4399E-01
     -3.513 -0.1748E-03 -0.1746E-03  0.4398E-01  0.4398E-01
     -3.465 -0.2355E-03 -0.2355E-03  0.4397E-01  0.4397E-01
     -3.417 -0.1926E-03 -0.1930E-03  0.4396E-01  0.4396E-01
     -3.368  0.8214E-04  0.8103E-04  0.4397E-01  0.4397E-01
     -3.320  0.6822E-03  0.6802E-03  0.4400E-01  0.4400E-01
     -3.272  0.1565E-02  0.1562E-02  0.4407E-01  0.4407E-01
     -3.223  0.2526E-02  0.2524E-02  0.4420E-01  0.4420E-01
     -3.175  0.3347E-02  0.3346E-02  0.4436E-01  0.4436E-01
     -3.127  0.4049E-02  0.4048E-02  0.4455E-01  0.4455E-01
     -3.079  0.4997E-02  0.4995E-02  0.4480E-01  0.4480E-01
     -3.030  0.6637E-02  0.6634E-02  0.4512E-01  0.4512E-01
     -2.982  0.8982E-02  0.8978E-02  0.4555E-01  0.4555E-01
     -2.934  0.1131E-01  0.1130E-01  0.4610E-01  0.4610E-01
     -2.885  0.1247E-01  0.1247E-01  0.4670E-01  0.4670E-01
     -2.837  0.1166E-01  0.1166E-01  0.4726E-01  0.4726E-01
     -2.789  0.9029E-02  0.9035E-02  0.4770E-01  0.4770E-01
     -2.740  0.5565E-02  0.5571E-02  0.4797E-01  0.4797E-01
     -2.692  0.2450E-02  0.2455E-02  0.4809E-01  0.4809E-01
     -2.644  0.4042E-03  0.4070E-03  0.4811E-01  0.4811E-01
     -2.595 -0.5153E-03 -0.5144E-03  0.4808E-01  0.4808E-01
     -2.547 -0.6744E-03 -0.6745E-03  0.4805E-01  0.4805E-01
     -2.499 -0.5044E-03 -0.5048E-03  0.4802E-01  0.4802E-01
     -2.450 -0.2894E-03 -0.2897E-03  0.4801E-01  0.4801E-01
     -2.402 -0.1431E-03 -0.1433E-03  0.4800E-01  0.4800E-01
     -2.354 -0.8085E-04 -0.8086E-04  0.4800E-01  0.4800E-01
     -2.305 -0.9115E-04 -0.9099E-04  0.4799E-01  0.4799E-01
     -2.257 -0.1684E-03 -0.1680E-03  0.4799E-01  0.4799E-01
     -2.209 -0.3022E-03 -0.3018E-03  0.4797E-01  0.4797E-01
     -2.160 -0.4331E-03 -0.4329E-03  0.4795E-01  0.4795E-01
     -2.112 -0.3970E-03 -0.3976E-03  0.4793E-01  0.4793E-01
     -2.064  0.8295E-04  0.8048E-04  0.4794E-01  0.4794E-01
     -2.015  0.1286E-02  0.1281E-02  0.4800E-01  0.4800E-01
     -1.967  0.3266E-02  0.3259E-02  0.4816E-01  0.4816E-01
     -1.919  0.5637E-02  0.5630E-02  0.4843E-01  0.4843E-01
     -1.870  0.7617E-02  0.7612E-02  0.4880E-01  0.4880E-01
     -1.822  0.8395E-02  0.8395E-02  0.4920E-01  0.4920E-01
     -1.774  0.7623E-02  0.7627E-02  0.4957E-01  0.4957E-01
     -1.726  0.5646E-02  0.5653E-02  0.4984E-01  0.4984E-01
     -1.677  0.3275E-02  0.3282E-02  0.5000E-01  0.5000E-01
     -1.629  0.1293E-02  0.1298E-02  0.5006E-01  0.5006E-01
     -1.581  0.8615E-04  0.8863E-04  0.5007E-01  0.5007E-01
     -1.532 -0.3961E-03 -0.3955E-03  0.5005E-01  0.5005E-01
     -1.484 -0.4332E-03 -0.4335E-03  0.5003E-01  0.5003E-01
     -1.436 -0.3017E-03 -0.3021E-03  0.5001E-01  0.5001E-01
     -1.387 -0.1645E-03 -0.1648E-03  0.5001E-01  0.5001E-01
     -1.339 -0.7715E-04 -0.7724E-04  0.5000E-01  0.5000E-01
     -1.291 -0.4117E-04 -0.4090E-04  0.5000E-01  0.5000E-01
     -1.242 -0.4947E-04 -0.4854E-04  0.5000E-01  0.5000E-01
     -1.194 -0.1088E-03 -0.1067E-03  0.4999E-01  0.4999E-01
     -1.146 -0.2389E-03 -0.2350E-03  0.4998E-01  0.4998E-01
     -1.097 -0.4436E-03 -0.4383E-03  0.4996E-01  0.4996E-01
     -1.049 -0.6471E-03 -0.6438E-03  0.4993E-01  0.4993E-01
     -1.001 -0.6165E-03 -0.6227E-03  0.4990E-01  0.4990E-01
     -0.952  0.5061E-04  0.2439E-04  0.4990E-01  0.4990E-01
     -0.904  0.1769E-02  0.1715E-02  0.4999E-01  0.4998E-01
     -0.856  0.4633E-02  0.4555E-02  0.5021E-01  0.5020E-01
     -0.807  0.8112E-02  0.8031E-02  0.5060E-01  0.5059E-01
     -0.759  0.1112E-01  0.1106E-01  0.5114E-01  0.5113E-01
     -0.711  0.1255E-01  0.1254E-01  0.5175E-01  0.5173E-01
     -0.662  0.1199E-01  0.1203E-01  0.5232E-01  0.5231E-01
     -0.614  0.9997E-02  0.1006E-01  0.5281E-01  0.5280E-01
     -0.566  0.7612E-02  0.7674E-02  0.5318E-01  0.5317E-01
     -0.517  0.5669E-02  0.5714E-02  0.5345E-01  0.5345E-01
     -0.469  0.4346E-02  0.4373E-02  0.5366E-01  0.5366E-01
     -0.421  0.3339E-02  0.3357E-02  0.5382E-01  0.5382E-01
     -0.373  0.2320E-02  0.2337E-02  0.5393E-01  0.5393E-01
     -0.324  0.1231E-02  0.1247E-02  0.5399E-01  0.5399E-01
     -0.276  0.2419E-03  0.2554E-03  0.5400E-01  0.5400E-01
     -0.228 -0.4118E-03 -0.4077E-03  0.5398E-01  0.5399E-01
     -0.179 -0.5224E-03 -0.5353E-03  0.5396E-01  0.5396E-01
     -0.131  0.9508E-04  0.5807E-04  0.5396E-01  0.5396E-01
     -0.083  0.1552E-02  0.1491E-02  0.5404E-01  0.5403E-01
     -0.034  0.3721E-02  0.3648E-02  0.5422E-01  0.5421E-01
      0.014  0.6083E-02  0.6022E-02  0.5451E-01  0.5450E-01
      0.062  0.7831E-02  0.7807E-02  0.5489E-01  0.5488E-01
      0.111  0.8257E-02  0.8281E-02  0.5529E-01  0.5528E-01
      0.159  0.7186E-02  0.7247E-02  0.5564E-01  0.5563E-01
      0.207  0.5090E-02  0.5163E-02  0.5588E-01  0.5588E-01
      0.256  0.2792E-02  0.2852E-02  0.5602E-01  0.5602E-01
      0.304  0.9879E-03  0.1024E-02  0.5607E-01  0.5607E-01
      0.352 -0.4263E-04 -0.2834E-04  0.5606E-01  0.5606E-01
      0.401 -0.4119E-03 -0.4111E-03  0.5604E-01  0.5604E-01
      0.449 -0.4036E-03 -0.4077E-03  0.5602E-01  0.5602E-01
      0.497 -0.2680E-03 -0.2722E-03  0.5601E-01  0.5601E-01
      0.546 -0.1411E-03 -0.1438E-03  0.5600E-01  0.5600E-01
      0.594 -0.6191E-04 -0.6326E-04  0.5600E-01  0.5600E-01
      0.642 -0.2319E-04 -0.2375E-04  0.5600E-01  0.5600E-01
      0.691 -0.7509E-05 -0.7702E-05  0.5600E-01  0.5600E-01
      0.739 -0.2118E-05 -0.2175E-05  0.5600E-01  0.5600E-01
      0.787 -0.5229E-06 -0.5377E-06  0.5600E-01  0.5600E-01
      0.836 -0.1134E-06 -0.1167E-06  0.5600E-01  0.5600E-01
      0.884 -0.2167E-07 -0.2232E-07  0.5600E-01  0.5600E-01
      0.932 -0.3653E-08 -0.3765E-08  0.5600E-01  0.5600E-01
      0.980 -0.5442E-09 -0.5611E-09  0.5600E-01  0.5600E-01
      1.029 -0.7172E-10 -0.7397E-10  0.5600E-01  0.5600E-01
      1.077 -0.8368E-11 -0.8633E-11  0.5600E-01  0.5600E-01
      1.125 -0.8651E-12 -0.8927E-12  0.5600E-01  0.5600E-01
      1.174 -0.7930E-13 -0.8183E-13  0.5600E-01  0.5600E-01
      1.222 -0.6447E-14 -0.6654E-14  0.5600E-01  0.5600E-01
      1.270 -0.4641E-15 -0.4825E-15  0.5600E-01  0.5600E-01
      1.319 -0.3217E-16 -0.3217E-16  0.5600E-01  0.5600E-01
      1.367  0.0000E+00  0.0000E+00  0.5600E-01  0.5600E-01
      1.415  0.0000E+00  0.0000E+00  0.5600E-01  0.5600E-01
      1.464  0.0000E+00  0.0000E+00  0.5600E-01  0.5600E-01
      1.512  0.0000E+00  0.0000E+00  0.5600E-01  0.5600E-01
      1.560  0.0000E+00  0.0000E+00  0.5600E-01  0.5600E-01
      1.609  0.0000E+00  0.0000E+00  0.5600E-01  0.5600E-01
      1.657  0.0000E+00  0.0000E+00  0.5600E-01  0.5600E-01
      1.705  0.0000E+00  0.0000E+00  0.5600E-01  0.5600E-01
      1.754  0.0000E+00  0.0000E+00  0.5600E-01  0.5600E-01
      1.802  0.0000E+00  0.0000E+00  0.5600E-01  0.5600E-01
      1.850  0.0000E+00  0.0000E+00  0.5600E-01  0.5600E-01
      1.899  0.0000E+00  0.0000E+00  0.5600E-01  0.5600E-01
      1.947  0.0000E+00  0.0000E+00  0.5600E-01  0.5600E-01
      1.995  0.0000E+00  0.0000E+00  0.5600E-01  0.5600E-01
      2.044  0.0000E+00  0.0000E+00  0.5600E-01  0.5600E-01
      2.092  0.0000E+00  0.0000E+00  0.5600E-01  0.5600E-01
