    8    8 1000    2
  0.1344462E+04  0.2214546E-08  0.2196991E-08  0.2210678E-08  0.5000000E-15
   1.0000000000000000E-004
  CAR 
 unknown system                          
     88      1     56
 
  0.1262379E-14  0.1262379E-14  0.1262379E-14  0.1000000E+01
    1      -10.404505    -10.404480   1.000000   1.000000
    2       -8.676487     -8.676456   1.000000   1.000000
    3       -8.673494     -8.673463   1.000000   1.000000
    4       -8.671756     -8.671724   1.000000   1.000000
    5       -8.085616     -8.085583   1.000000   1.000000
    6       -8.085046     -8.085013   1.000000   1.000000
    7       -8.082927     -8.082894   1.000000   1.000000
    8       -7.706692     -7.706671   1.000000   1.000000
    9       -7.704984     -7.704963   1.000000   1.000000
   10       -7.669883     -7.669861   1.000000   1.000000
   11       -7.666835     -7.666812   1.000000   1.000000
   12       -7.662929     -7.662906   1.000000   1.000000
   13       -7.473310     -7.473274   1.000000   1.000000
   14       -7.444109     -7.444089   1.000000   1.000000
   15       -7.441493     -7.441475   1.000000   1.000000
   16       -7.203095     -7.203081   1.000000   1.000000
   17       -7.201044     -7.201030   1.000000   1.000000
   18       -7.198958     -7.198945   1.000000   1.000000
   19       -7.015321     -7.015308   1.000000   1.000000
   20       -7.014929     -7.014915   1.000000   1.000000
   21       -7.014546     -7.014533   1.000000   1.000000
   22       -6.888180     -6.888140   1.000000   1.000000
   23       -6.779441     -6.779412   1.000000   1.000000
   24       -6.777727     -6.777699   1.000000   1.000000
   25       -6.776915     -6.776889   1.000000   1.000000
   26       -6.124869     -6.124826   1.000000   1.000000
   27       -6.120489     -6.120446   1.000000   1.000000
   28       -6.078388     -6.078345   1.000000   1.000000
   29       -6.074524     -6.074480   1.000000   1.000000
   30       -6.072774     -6.072730   1.000000   1.000000
   31       -5.532608     -5.532538   1.002609   1.002613
   32       -5.532287     -5.532219   1.002626   1.002629
   33       -5.499572     -5.499499   1.004897   1.004903
   34       -5.498632     -5.498558   1.004980   1.004987
   35       -5.498013     -5.497939   1.005036   1.005042
   36       -5.458879     -5.458829   1.009661   1.009669
   37       -5.456174     -5.456123   1.010068   1.010076
   38       -5.455188     -5.455137   1.010219   1.010227
   39       -5.309590     -5.309547   1.035300   1.035298
   40       -5.306394     -5.306350   1.035091   1.035087
   41       -5.303936     -5.303888   1.034865   1.034860
   42       -5.206490     -5.206422   0.951932   0.951806
   43       -5.204562     -5.204491   0.948313   0.948176
   44       -5.202626     -5.202553   0.944586   0.944443
   45       -3.164682     -3.164563  -0.000000  -0.000000
   46       -2.902893     -2.902801  -0.000000  -0.000000
   47       -2.898156     -2.898063  -0.000000  -0.000000
   48       -2.894317     -2.894225  -0.000000  -0.000000
   49       -1.846489     -1.846342  -0.000000  -0.000000
   50       -1.845942     -1.845793  -0.000000  -0.000000
   51       -0.736934     -0.735859  -0.000000  -0.000000
   52       -0.733128     -0.732021  -0.000000  -0.000000
   53       -0.728761     -0.727585  -0.000000  -0.000000
   54       -0.482881     -0.482155  -0.000000  -0.000000
   55        0.059269      0.062012  -0.000000  -0.000000
   56        0.091695      0.091871  -0.000000  -0.000000
