       N       E                     dE             d eps       ncg     rms          rms(c)
DAV:   1     0.671615364036E+03    0.67162E+03   -0.13631E+04   224   0.710E+02
DAV:   2     0.337286215575E+03   -0.33433E+03   -0.30539E+03   312   0.141E+02
DAV:   3     0.129215270319E+03   -0.20807E+03   -0.20017E+03   368   0.126E+02
DAV:   4     0.116972190461E+02   -0.11752E+03   -0.10746E+03   432   0.844E+01
DAV:   5    -0.191938165462E+02   -0.30891E+02   -0.26413E+02   344   0.632E+01    0.187E+01
DAV:   6    -0.631633243123E+01    0.12877E+02   -0.70501E+01   296   0.722E+01    0.819E+00
DAV:   7    -0.406820098839E+01    0.22481E+01   -0.11766E+01   272   0.784E+01    0.502E+00
DAV:   8    -0.684044786946E+01   -0.27722E+01   -0.19632E+00   344   0.176E+01    0.242E+00
DAV:   9    -0.116965252910E+02   -0.48561E+01   -0.25689E+00   296   0.110E+01    0.160E+00
DAV:  10    -0.137923860833E+02   -0.20959E+01   -0.75136E-01   320   0.108E+01    0.136E+00
DAV:  11    -0.164791655830E+02   -0.26868E+01   -0.12171E+00   288   0.545E+00    0.106E+00
DAV:  12    -0.173296955251E+02   -0.85053E+00   -0.23307E-01   304   0.321E+00    0.740E-01
DAV:  13    -0.184338701623E+02   -0.11042E+01   -0.23889E-01   288   0.361E+00    0.651E-01
DAV:  14    -0.188247951002E+02   -0.39092E+00   -0.50039E-02   320   0.235E+00    0.381E-01
DAV:  15    -0.192064293309E+02   -0.38163E+00   -0.57306E-02   296   0.173E+00    0.285E-01
DAV:  16    -0.194427789037E+02   -0.23635E+00   -0.17127E-02   304   0.162E+00    0.263E-01
DAV:  17    -0.196277157610E+02   -0.18494E+00   -0.59136E-03   304   0.104E+00    0.142E-01
DAV:  18    -0.198238780792E+02   -0.19616E+00   -0.52459E-03   288   0.447E-01    0.844E-02
DAV:  19    -0.198934309689E+02   -0.69553E-01   -0.20888E-03   264   0.580E-01    0.693E-02
DAV:  20    -0.199079700906E+02   -0.14539E-01   -0.33070E-04   200   0.457E-01    0.522E-02
DAV:  21    -0.199206934668E+02   -0.12723E-01   -0.72773E-04   216   0.228E-01    0.300E-02
DAV:  22    -0.199233203491E+02   -0.26269E-02   -0.11633E-04   168   0.141E-01    0.245E-02
DAV:  23    -0.199241693474E+02   -0.84900E-03   -0.11126E-04   168   0.164E-01    0.136E-02
DAV:  24    -0.199244461661E+02   -0.27682E-03   -0.65143E-05   176   0.120E-01    0.100E-02
DAV:  25    -0.199250793339E+02   -0.63317E-03   -0.46160E-05   160   0.107E-01    0.800E-03
DAV:  26    -0.199255104360E+02   -0.43110E-03   -0.41281E-05   160   0.597E-02    0.568E-03
DAV:  27    -0.199265611165E+02   -0.10507E-02   -0.33526E-05   168   0.557E-02    0.523E-03
DAV:  28    -0.199267915785E+02   -0.23046E-03   -0.16730E-05   168   0.445E-02    0.278E-03
DAV:  29    -0.199269691815E+02   -0.17760E-03   -0.88861E-06   136   0.311E-02    0.313E-03
DAV:  30    -0.199270290280E+02   -0.59846E-04   -0.54056E-06   128   0.309E-02
   1 F= -.19927029E+02 E0= -.19963482E+02  d E =-.199270E+02  mag=     0.0010
       N       E                     dE             d eps       ncg     rms          rms(c)
DAV:   1    -0.199270499695E+02   -0.80788E-04   -0.48314E-02   232   0.839E-01    0.246E-02
DAV:   2    -0.199271890902E+02   -0.13912E-03   -0.13319E-03   344   0.297E-01    0.153E-02
DAV:   3    -0.199271925792E+02   -0.34890E-05   -0.20805E-05   160   0.122E-01
   2 F= -.19927193E+02 E0= -.19963642E+02  d E =-.163551E-03  mag=     0.0009
       N       E                     dE             d eps       ncg     rms          rms(c)
DAV:   1    -0.199271999688E+02   -0.10879E-04   -0.12414E-02   248   0.439E-01    0.183E-02
DAV:   2    -0.199272274853E+02   -0.27516E-04   -0.23636E-04   176   0.156E-01
   3 F= -.19927227E+02 E0= -.19963653E+02  d E =-.198457E-03  mag=     0.0008
