<?xml version="1.0" encoding="ISO-8859-1"?>
<modeling>
 <generator>
  <i name="program" type="string">vasp </i>
  <i name="version" type="string">6.1.2  </i>
  <i name="subversion" type="string">22Jul20 (build Aug  2 2021 21:04:21) gamma-only                       parallel </i>
  <i name="platform" type="string">LinuxPGI </i>
  <i name="date" type="string">2021 12 10 </i>
  <i name="time" type="string">03:10:18 </i>
 </generator>
 <incar>
  <i type="int" name="ISPIN">     2</i>
  <i type="int" name="IBRION">     2</i>
  <i type="int" name="NSW">  1000</i>
  <i type="int" name="ISIF">     0</i>
  <i type="int" name="ISYM">     0</i>
  <i name="ENCUT">    400.00000000</i>
  <i type="logical" name="LREAL"> F  </i>
  <i type="int" name="ISMEAR">     1</i>
  <i name="SIGMA">      0.20000000</i>
  <i type="logical" name="LWAVE"> F  </i>
  <i type="logical" name="LCHARG"> F  </i>
  <i type="int" name="KPAR">     1</i>
  <i type="int" name="NCORE">     8</i>
  <i type="string" name="GGA"> PE</i>
  <i type="int" name="ISPIN">     2</i>
 </incar>
 <structure name="primitive_cell" >
  <crystal>
   <varray name="basis" >
    <v>      22.14546168       0.00000000       0.00000000 </v>
    <v>       0.00000000      21.96990740       0.00000000 </v>
    <v>       0.00000000       0.00000000      22.10677943 </v>
   </varray>
   <i name="volume">  10755.69413154 </i>
   <varray name="rec_basis" >
    <v>       0.04515598       0.00000000       0.00000000 </v>
    <v>       0.00000000       0.04551681       0.00000000 </v>
    <v>       0.00000000       0.00000000       0.04523499 </v>
   </varray>
  </crystal>
  <varray name="positions" >
   <v>       0.59463066       0.46159640       0.58306325 </v>
   <v>       0.46426863       0.60129671       0.55501024 </v>
   <v>       0.41501442       0.41592162       0.53354262 </v>
   <v>       0.53110818       0.50051553       0.40535794 </v>
   <v>       0.48379465       0.49163000       0.58654182 </v>
   <v>       0.55243712       0.54141634       0.51104008 </v>
   <v>       0.52299503       0.43194073       0.49788019 </v>
   <v>       0.44622663       0.51434377       0.48161154 </v>
  </varray>
 </structure>
 <varray name="primitive_index" >
  <v type="int" >        1 </v>
  <v type="int" >        2 </v>
  <v type="int" >        3 </v>
  <v type="int" >        4 </v>
  <v type="int" >        5 </v>
  <v type="int" >        6 </v>
  <v type="int" >        7 </v>
  <v type="int" >        8 </v>
 </varray>
 <kpoints>
  <generation param="Gamma">
   <v type="int" name="divisions">       1        1        1 </v>
   <v name="usershift">      0.00000000       0.00000000       0.00000000 </v>
   <v name="genvec1">      1.00000000       0.00000000       0.00000000 </v>
   <v name="genvec2">      0.00000000       1.00000000       0.00000000 </v>
   <v name="genvec3">      0.00000000       0.00000000       1.00000000 </v>
   <v name="shift">      0.00000000       0.00000000       0.00000000 </v>
  </generation>
  <varray name="kpointlist" >
   <v>       0.00000000       0.00000000       0.00000000 </v>
  </varray>
  <varray name="weights" >
   <v>       1.00000000 </v>
  </varray>
 </kpoints>
 <parameters>
  <separator name="general" >
   <i type="string" name="SYSTEM">unknown system</i>
   <i type="logical" name="LCOMPAT"> F  </i>
  </separator>
  <separator name="electronic" >
   <i type="string" name="PREC">normal</i>
   <i name="ENMAX">    400.00000000</i>
   <i name="ENAUG">    586.98000000</i>
   <i name="EDIFF">      0.00010000</i>
   <i type="int" name="IALGO">    38</i>
   <i type="int" name="IWAVPR">    11</i>
   <i type="int" name="NBANDS">    56</i>
   <i type="int" name="NBANDSLOW">    -1</i>
   <i type="int" name="NBANDSHIGH">    -1</i>
   <i name="NELECT">     88.00000000</i>
   <i type="int" name="TURBO">     0</i>
   <i type="int" name="IRESTART">     0</i>
   <i type="int" name="NREBOOT">     0</i>
   <i type="int" name="NMIN">     0</i>
   <i name="EREF">      0.00000000</i>
   <separator name="electronic smearing" >
    <i type="int" name="ISMEAR">     1</i>
    <i name="SIGMA">      0.20000000</i>
    <i name="KSPACING">      0.50000000</i>
    <i type="logical" name="KGAMMA"> T  </i>
    <i type="logical" name="KBLOWUP"> T  </i>
   </separator>
   <separator name="electronic projectors" >
    <i type="logical" name="LREAL"> F  </i>
    <v name="ROPT">      0.00000000      0.00000000</v>
    <i type="int" name="LMAXPAW">  -100</i>
    <i type="int" name="LMAXMIX">     2</i>
    <i type="logical" name="NLSPLINE"> F  </i>
   </separator>
   <separator name="electronic startup" >
    <i type="int" name="ISTART">     0</i>
    <i type="int" name="ICHARG">     2</i>
    <i type="int" name="INIWAV">     1</i>
   </separator>
   <separator name="electronic spin" >
    <i type="int" name="ISPIN">     2</i>
    <i type="logical" name="LNONCOLLINEAR"> F  </i>
    <v name="MAGMOM">      1.00000000      1.00000000      1.00000000      1.00000000      1.00000000      1.00000000      1.00000000      1.00000000</v>
    <i name="NUPDOWN">     -1.00000000</i>
    <i type="logical" name="LSORBIT"> F  </i>
    <v name="SAXIS">      0.00000000      0.00000000      1.00000000</v>
    <i type="logical" name="LSPIRAL"> F  </i>
    <v name="QSPIRAL">      0.00000000      0.00000000      0.00000000</v>
    <i type="logical" name="LZEROZ"> F  </i>
   </separator>
   <separator name="electronic exchange-correlation" >
    <i type="logical" name="LASPH"> F  </i>
    <i type="logical" name="LMETAGGA"> F  </i>
   </separator>
   <separator name="electronic convergence" >
    <i type="int" name="NELM">    60</i>
    <i type="int" name="NELMDL">     0</i>
    <i type="int" name="NELMIN">     2</i>
    <i name="ENINI">    400.00000000</i>
    <separator name="electronic convergence detail" >
     <i type="logical" name="LDIAG"> T  </i>
     <i type="logical" name="LSUBROT"> F  </i>
     <i name="WEIMIN">      0.00100000</i>
     <i name="EBREAK">      0.00000045</i>
     <i name="DEPER">      0.30000000</i>
     <i type="int" name="NRMM">     4</i>
     <i name="TIME">      0.40000000</i>
    </separator>
   </separator>
   <separator name="electronic mixer" >
    <i name="AMIX">      0.40000000</i>
    <i name="BMIX">      1.00000000</i>
    <i name="AMIN">      0.10000000</i>
    <i name="AMIX_MAG">      1.60000000</i>
    <i name="BMIX_MAG">      1.00000000</i>
    <separator name="electronic mixer details" >
     <i type="int" name="IMIX">     4</i>
     <i type="logical" name="MIXFIRST"> F  </i>
     <i type="int" name="MAXMIX">   -45</i>
     <i name="WC">    100.00000000</i>
     <i type="int" name="INIMIX">     1</i>
     <i type="int" name="MIXPRE">     1</i>
     <i type="int" name="MREMOVE">     5</i>
    </separator>
   </separator>
   <separator name="electronic dipolcorrection" >
    <i type="logical" name="LDIPOL"> F  </i>
    <i type="logical" name="LMONO"> F  </i>
    <i type="int" name="IDIPOL">     0</i>
    <i name="EPSILON">      1.00000000</i>
    <v name="DIPOL">   -100.00000000   -100.00000000   -100.00000000</v>
    <i name="EFIELD">      0.00000000</i>
   </separator>
  </separator>
  <separator name="grids" >
   <i type="int" name="NGX">   108</i>
   <i type="int" name="NGY">   108</i>
   <i type="int" name="NGZ">   108</i>
   <i type="int" name="NGXF">   216</i>
   <i type="int" name="NGYF">   216</i>
   <i type="int" name="NGZF">   216</i>
   <i type="logical" name="ADDGRID"> F  </i>
  </separator>
  <separator name="ionic" >
   <i type="int" name="NSW">  1000</i>
   <i type="int" name="IBRION">     2</i>
   <i type="int" name="MDALGO">     0</i>
   <i type="int" name="ISIF">     0</i>
   <i name="PSTRESS">      0.00000000</i>
   <i name="EDIFFG">      0.00100000</i>
   <i type="int" name="NFREE">     1</i>
   <i name="POTIM">      0.50000000</i>
   <i name="SMASS">     -3.00000000</i>
   <i name="SCALEE">      1.00000000</i>
  </separator>
  <separator name="ionic md" >
   <i name="TEBEG">      0.00010000</i>
   <i name="TEEND">      0.00010000</i>
   <i type="int" name="NBLOCK">     1</i>
   <i type="int" name="KBLOCK">  1000</i>
   <i type="int" name="NPACO">   256</i>
   <i name="APACO">     16.00000000</i>
  </separator>
  <separator name="symmetry" >
   <i type="int" name="ISYM">     0</i>
   <i name="SYMPREC">      0.00001000</i>
  </separator>
  <separator name="dos" >
   <i type="int" name="LORBIT">     0</i>
   <v name="RWIGS">     -1.00000000     -1.00000000</v>
   <i type="int" name="NEDOS">   301</i>
   <i name="EMIN">     10.00000000</i>
   <i name="EMAX">    -10.00000000</i>
   <i name="EFERMI">      0.00000000</i>
  </separator>
  <separator name="writing" >
   <i type="int" name="NWRITE">     2</i>
   <i type="logical" name="LWAVE"> F  </i>
   <i type="logical" name="LDOWNSAMPLE"> F  </i>
   <i type="logical" name="LCHARG"> F  </i>
   <i type="logical" name="LPARD"> F  </i>
   <i type="logical" name="LVTOT"> F  </i>
   <i type="logical" name="LVHAR"> F  </i>
   <i type="logical" name="LELF"> F  </i>
   <i type="logical" name="LOPTICS"> F  </i>
   <v name="STM">      0.00000000      0.00000000      0.00000000      0.00000000      0.00000000      0.00000000      0.00000000</v>
  </separator>
  <separator name="performance" >
   <i type="int" name="NPAR">     2</i>
   <i type="int" name="NSIM">     4</i>
   <i type="int" name="NBLK">    -1</i>
   <i type="logical" name="LPLANE"> T  </i>
   <i type="logical" name="LSCALAPACK"> T  </i>
   <i type="logical" name="LSCAAWARE"> F  </i>
   <i type="logical" name="LSCALU"> F  </i>
   <i type="logical" name="LASYNC"> F  </i>
   <i type="logical" name="LORBITALREAL"> F  </i>
  </separator>
  <separator name="miscellaneous" >
   <i type="int" name="IDIOT">     3</i>
   <i type="int" name="PHON_NSTRUCT">    -1</i>
   <i type="logical" name="LMUSIC"> F  </i>
   <v name="POMASS">    196.96600000     63.54600000</v>
   <v name="DARWINR">      0.00000000      0.00000000</v>
   <v name="DARWINV">      1.00000000      1.00000000</v>
   <i type="logical" name="LCORR"> T  </i>
  </separator>
  <i type="logical" name="GGA_COMPAT"> T  </i>
  <i type="logical" name="LBERRY"> F  </i>
  <i type="int" name="ICORELEVEL">     0</i>
  <i type="logical" name="LDAU"> F  </i>
  <i type="int" name="I_CONSTRAINED_M">     0</i>
  <separator name="electronic exchange-correlation" >
   <i type="string" name="GGA">PE</i>
   <i type="int" name="VOSKOWN">     0</i>
   <i type="logical" name="LHFCALC"> F  </i>
   <i type="string" name="PRECFOCK"></i>
   <i type="logical" name="LSYMGRAD"> F  </i>
   <i type="logical" name="LHFONE"> F  </i>
   <i type="logical" name="LRHFCALC"> F  </i>
   <i type="logical" name="LTHOMAS"> F  </i>
   <i type="logical" name="LMODELHF"> F  </i>
   <i type="logical" name="LFOCKACE"> F  </i>
   <i name="ENCUT4O">     -1.00000000</i>
   <i type="int" name="EXXOEP">     0</i>
   <i type="int" name="FOURORBIT">     0</i>
   <i name="AEXX">      0.00000000</i>
   <i name="HFALPHA">      0.00000000</i>
   <i name="MCALPHA">      0.00000000</i>
   <i name="ALDAX">      1.00000000</i>
   <i name="AGGAX">      1.00000000</i>
   <i name="ALDAC">      1.00000000</i>
   <i name="AGGAC">      1.00000000</i>
   <i type="int" name="NKREDX">     1</i>
   <i type="int" name="NKREDY">     1</i>
   <i type="int" name="NKREDZ">     1</i>
   <i type="logical" name="SHIFTRED"> F  </i>
   <i type="logical" name="ODDONLY"> F  </i>
   <i type="logical" name="EVENONLY"> F  </i>
   <i type="int" name="LMAXFOCK">     0</i>
   <i type="int" name="NMAXFOCKAE">     0</i>
   <i type="logical" name="LFOCKAEDFT"> F  </i>
   <i name="HFSCREEN">      0.00000000</i>
   <i name="HFSCREENC">      0.00000000</i>
   <i type="int" name="NBANDSGWLOW">     0</i>
  </separator>
  <separator name="vdW DFT" >
   <i type="logical" name="LUSE_VDW"> F  </i>
   <i name="Zab_VDW">     -0.84910000</i>
   <i name="PARAM1">      0.12340000</i>
   <i name="PARAM2">      1.00000000</i>
   <i name="PARAM3">      0.00000000</i>
  </separator>
  <separator name="model GW" >
   <i type="int" name="MODEL_GW">     0</i>
   <i name="MODEL_EPS0">    806.67705987</i>
   <i name="MODEL_ALPHA">      1.00000000</i>
  </separator>
  <separator name="linear response parameters" >
   <i type="logical" name="LEPSILON"> F  </i>
   <i type="logical" name="LRPA"> F  </i>
   <i type="logical" name="LNABLA"> F  </i>
   <i type="logical" name="LVEL"> F  </i>
   <i type="int" name="KINTER">     0</i>
   <i name="CSHIFT">      0.10000000</i>
   <i name="OMEGAMAX">     -1.00000000</i>
   <i name="DEG_THRESHOLD">      0.00200000</i>
   <i name="RTIME">     -0.10000000</i>
   <i name="WPLASMAI">      0.00000000</i>
   <v name="DFIELD">      0.00000000      0.00000000      0.00000000</v>
   <v name="WPLASMA">      0.00000000      0.00000000      0.00000000      0.00000000      0.00000000      0.00000000      0.00000000      0.00000000      0.00000000</v>
  </separator>
  <separator name="orbital magnetization" >
   <i type="logical" name="NUCIND"> F  </i>
   <v name="MAGPOS">      0.00000000      0.00000000      0.00000000</v>
   <i type="logical" name="LNICSALL"> T  </i>
   <i type="logical" name="ORBITALMAG"> F  </i>
   <i type="logical" name="LMAGBLOCH"> F  </i>
   <i type="logical" name="LCHIMAG"> F  </i>
   <i type="logical" name="LGAUGE"> T  </i>
   <i type="int" name="MAGATOM">     0</i>
   <v name="MAGDIPOL">      0.00000000      0.00000000      0.00000000</v>
   <v name="AVECCONST">      0.00000000      0.00000000      0.00000000</v>
  </separator>
  <separator name="response functions" >
   <i type="logical" name="LFINITE_TEMPERATURE"> F  </i>
   <i type="logical" name="LADDER"> F  </i>
   <i type="logical" name="LRPAFORCE"> F  </i>
   <i type="logical" name="LFXC"> F  </i>
   <i type="logical" name="LHARTREE"> T  </i>
   <i type="int" name="IBSE">     0</i>
   <v type="int" name="KPOINT">    -1     0     0     0</v>
   <i type="logical" name="LTCTC"> F  </i>
   <i type="logical" name="LTCTE"> F  </i>
   <i type="logical" name="LTETE"> F  </i>
   <i type="logical" name="LTRIPLET"> F  </i>
   <i type="logical" name="LFXCEPS"> F  </i>
   <i type="logical" name="LFXHEG"> F  </i>
   <i type="int" name="NATURALO">     2</i>
   <i type="logical" name="LHOLEGF"> F  </i>
   <i type="logical" name="L2ORDER"> F  </i>
   <i type="logical" name="LDMP1"> F  </i>
   <i type="logical" name="LMP2LT"> F  </i>
   <i type="logical" name="LSMP2LT"> F  </i>
   <i type="logical" name="LGWLF"> F  </i>
   <i name="ENCUTGW">     -2.00000000</i>
   <i name="ENCUTGWSOFT">     -2.00000000</i>
   <i name="ENCUTLF">     -1.00000000</i>
   <i type="logical" name="LESF_SPLINES"> F  </i>
   <i type="int" name="LMAXMP2">    -1</i>
   <i name="SCISSOR">      0.00000000</i>
   <i type="int" name="NOMEGA">     0</i>
   <i type="int" name="NOMEGAR">     0</i>
   <i type="int" name="NBANDSGW">    -1</i>
   <i type="int" name="NBANDSO">    -1</i>
   <i type="int" name="NBANDSV">    -1</i>
   <i type="int" name="NELM">     1</i>
   <i type="int" name="NELMHF">     1</i>
   <i type="int" name="DIM">     3</i>
   <i type="int" name="IESPILON">     4</i>
   <i type="int" name="ANTIRES">     0</i>
   <i name="OMEGAMAX">    -30.00000000</i>
   <i name="OMEGAMIN">    -30.00000000</i>
   <i name="OMEGATL">   -200.00000000</i>
   <i type="int" name="OMEGAGRID">     0</i>
   <i name="CSHIFT">     -0.10000000</i>
   <i type="logical" name="LSELFENERGY"> F  </i>
   <i type="logical" name="LSPECTRAL"> F  </i>
   <i type="logical" name="LSPECTRALGW"> F  </i>
   <i type="logical" name="LSINGLES"> F  </i>
   <i type="logical" name="LFERMIGW"> F  </i>
   <i type="logical" name="ODDONLYGW"> F  </i>
   <i type="logical" name="EVENONLYGW"> F  </i>
   <i type="int" name="NKREDLFX">     1</i>
   <i type="int" name="NKREDLFY">     1</i>
   <i type="int" name="NKREDLFZ">     1</i>
   <i type="int" name="MAXMEM">  2800</i>
   <i type="int" name="TELESCOPE">     0</i>
   <i type="int" name="NTAUPAR">    -1</i>
   <i type="int" name="NOMEGAPAR">    -1</i>
   <i name="LAMBDA">      1.00000000</i>
  </separator>
  <separator name="External order field" >
   <i name="OFIELD_KAPPA">      0.00000000</i>
   <v name="OFIELD_K">      0.00000000      0.00000000      0.00000000</v>
   <i name="OFIELD_Q6_NEAR">      0.00000000</i>
   <i name="OFIELD_Q6_FAR">      0.00000000</i>
   <i name="OFIELD_A">      0.00000000</i>
  </separator>
 </parameters>
 <atominfo>
  <atoms>       8 </atoms>
  <types>       2 </types>
  <array name="atoms" >
   <dimension dim="1">ion</dimension>
   <field type="string">element</field>
   <field type="int">atomtype</field>
   <set>
    <rc><c>Au</c><c>   1</c></rc>
    <rc><c>Au</c><c>   1</c></rc>
    <rc><c>Au</c><c>   1</c></rc>
    <rc><c>Au</c><c>   1</c></rc>
    <rc><c>Cu</c><c>   2</c></rc>
    <rc><c>Cu</c><c>   2</c></rc>
    <rc><c>Cu</c><c>   2</c></rc>
    <rc><c>Cu</c><c>   2</c></rc>
   </set>
  </array>
  <array name="atomtypes" >
   <dimension dim="1">type</dimension>
   <field type="int">atomspertype</field>
   <field type="string">element</field>
   <field>mass</field>
   <field>valence</field>
   <field type="string">pseudopotential</field>
   <set>
    <rc><c>   4</c><c>Au</c><c>    196.96600000</c><c>     11.00000000</c><c>  PAW_PBE Au 04Oct2007                  </c></rc>
    <rc><c>   4</c><c>Cu</c><c>     63.54600000</c><c>     11.00000000</c><c>  PAW_PBE Cu 22Jun2005                  </c></rc>
   </set>
  </array>
 </atominfo>
 <structure name="initialpos" >
  <crystal>
   <varray name="basis" >
    <v>      22.14546168       0.00000000       0.00000000 </v>
    <v>       0.00000000      21.96990740       0.00000000 </v>
    <v>       0.00000000       0.00000000      22.10677943 </v>
   </varray>
   <i name="volume">  10755.69413154 </i>
   <varray name="rec_basis" >
    <v>       0.04515598       0.00000000       0.00000000 </v>
    <v>       0.00000000       0.04551681       0.00000000 </v>
    <v>       0.00000000       0.00000000       0.04523499 </v>
   </varray>
  </crystal>
  <varray name="positions" >
   <v>       0.59463066       0.46159640       0.58306325 </v>
   <v>       0.46426863       0.60129671       0.55501024 </v>
   <v>       0.41501442       0.41592162       0.53354262 </v>
   <v>       0.53110818       0.50051553       0.40535794 </v>
   <v>       0.48379465       0.49163000       0.58654182 </v>
   <v>       0.55243712       0.54141634       0.51104008 </v>
   <v>       0.52299503       0.43194073       0.49788019 </v>
   <v>       0.44622663       0.51434377       0.48161154 </v>
  </varray>
 </structure>
 <calculation>
  <scstep>
   <time name="dav">    3.75    3.76</time>
   <time name="total">    5.84    5.85</time>
   <energy>
    <i name="alphaZ">      5.64128824 </i>
    <i name="ewald">   9456.13105998 </i>
    <i name="hartreedc"> -18063.63010649 </i>
    <i name="XCdc">    238.22403785 </i>
    <i name="pawpsdc">   8408.47588452 </i>
    <i name="pawaedc">  -8739.43322972 </i>
    <i name="eentropy">      0.00655476 </i>
    <i name="bandstr">     98.04723903 </i>
    <i name="atom">   9268.15263587 </i>
    <i name="e_fr_energy">    671.61536404 </i>
    <i name="e_wo_entrp">    671.60880928 </i>
    <i name="e_0_energy">    671.61317912 </i>
   </energy>
  </scstep>
  <scstep>
   <time name="dav">    4.75    4.75</time>
   <time name="total">    4.75    4.76</time>
   <energy>
    <i name="e_fr_energy">    337.28621557 </i>
    <i name="e_wo_entrp">    337.34959779 </i>
    <i name="e_0_energy">    337.30734298 </i>
   </energy>
  </scstep>
  <scstep>
   <time name="dav">    5.38    5.39</time>
   <time name="total">    5.39    5.40</time>
   <energy>
    <i name="e_fr_energy">    129.21527032 </i>
    <i name="e_wo_entrp">    129.24883581 </i>
    <i name="e_0_energy">    129.22645881 </i>
   </energy>
  </scstep>
  <scstep>
   <time name="dav">    6.11    6.13</time>
   <time name="total">    6.12    6.13</time>
   <energy>
    <i name="e_fr_energy">     11.69721905 </i>
    <i name="e_wo_entrp">     11.72671998 </i>
    <i name="e_0_energy">     11.70705269 </i>
   </energy>
  </scstep>
  <scstep>
   <time name="dav">    5.08    5.09</time>
   <time name="total">    5.61    5.62</time>
   <energy>
    <i name="e_fr_energy">    -19.19381655 </i>
    <i name="e_wo_entrp">    -19.20597910 </i>
    <i name="e_0_energy">    -19.19787073 </i>
   </energy>
  </scstep>
  <scstep>
   <time name="dav">    4.51    4.52</time>
   <time name="total">    7.08    7.09</time>
   <energy>
    <i name="e_fr_energy">     -6.31633243 </i>
    <i name="e_wo_entrp">     -6.33387821 </i>
    <i name="e_0_energy">     -6.32218102 </i>
   </energy>
  </scstep>
  <scstep>
   <time name="dav">    4.23    4.24</time>
   <time name="total">    6.78    6.80</time>
   <energy>
    <i name="e_fr_energy">     -4.06820099 </i>
    <i name="e_wo_entrp">     -4.08828132 </i>
    <i name="e_0_energy">     -4.07489443 </i>
   </energy>
  </scstep>
  <scstep>
   <time name="dav">    5.03    5.04</time>
   <time name="total">    7.53    7.55</time>
   <energy>
    <i name="e_fr_energy">     -6.84044787 </i>
    <i name="e_wo_entrp">     -6.86027122 </i>
    <i name="e_0_energy">     -6.84705565 </i>
   </energy>
  </scstep>
  <scstep>
   <time name="dav">    4.54    4.55</time>
   <time name="total">    7.10    7.11</time>
   <energy>
    <i name="e_fr_energy">    -11.69652529 </i>
    <i name="e_wo_entrp">    -11.72884366 </i>
    <i name="e_0_energy">    -11.70729808 </i>
   </energy>
  </scstep>
  <scstep>
   <time name="dav">    4.81    4.82</time>
   <time name="total">    7.38    7.39</time>
   <energy>
    <i name="e_fr_energy">    -13.79238608 </i>
    <i name="e_wo_entrp">    -13.85495294 </i>
    <i name="e_0_energy">    -13.81324170 </i>
   </energy>
  </scstep>
  <scstep>
   <time name="dav">    4.42    4.43</time>
   <time name="total">    7.01    7.03</time>
   <energy>
    <i name="e_fr_energy">    -16.47916558 </i>
    <i name="e_wo_entrp">    -16.57964576 </i>
    <i name="e_0_energy">    -16.51265898 </i>
   </energy>
  </scstep>
  <scstep>
   <time name="dav">    4.61    4.62</time>
   <time name="total">    7.19    7.20</time>
   <energy>
    <i name="e_fr_energy">    -17.32969553 </i>
    <i name="e_wo_entrp">    -17.43503740 </i>
    <i name="e_0_energy">    -17.36480948 </i>
   </energy>
  </scstep>
  <scstep>
   <time name="dav">    4.39    4.40</time>
   <time name="total">    6.99    7.00</time>
   <energy>
    <i name="e_fr_energy">    -18.43387016 </i>
    <i name="e_wo_entrp">    -18.54129123 </i>
    <i name="e_0_energy">    -18.46967718 </i>
   </energy>
  </scstep>
  <scstep>
   <time name="dav">    4.79    4.80</time>
   <time name="total">    7.38    7.39</time>
   <energy>
    <i name="e_fr_energy">    -18.82479510 </i>
    <i name="e_wo_entrp">    -18.93398320 </i>
    <i name="e_0_energy">    -18.86119113 </i>
   </energy>
  </scstep>
  <scstep>
   <time name="dav">    4.50    4.51</time>
   <time name="total">    7.10    7.11</time>
   <energy>
    <i name="e_fr_energy">    -19.20642933 </i>
    <i name="e_wo_entrp">    -19.31875209 </i>
    <i name="e_0_energy">    -19.24387025 </i>
   </energy>
  </scstep>
  <scstep>
   <time name="dav">    4.60    4.61</time>
   <time name="total">    7.22    7.24</time>
   <energy>
    <i name="e_fr_energy">    -19.44277890 </i>
    <i name="e_wo_entrp">    -19.55459180 </i>
    <i name="e_0_energy">    -19.48004987 </i>
   </energy>
  </scstep>
  <scstep>
   <time name="dav">    4.61    4.61</time>
   <time name="total">    7.24    7.25</time>
   <energy>
    <i name="e_fr_energy">    -19.62771576 </i>
    <i name="e_wo_entrp">    -19.73867066 </i>
    <i name="e_0_energy">    -19.66470073 </i>
   </energy>
  </scstep>
  <scstep>
   <time name="dav">    4.41    4.42</time>
   <time name="total">    7.01    7.02</time>
   <energy>
    <i name="e_fr_energy">    -19.82387808 </i>
    <i name="e_wo_entrp">    -19.93404848 </i>
    <i name="e_0_energy">    -19.86060155 </i>
   </energy>
  </scstep>
  <scstep>
   <time name="dav">    4.14    4.15</time>
   <time name="total">    6.80    6.81</time>
   <energy>
    <i name="e_fr_energy">    -19.89343097 </i>
    <i name="e_wo_entrp">    -20.00352860 </i>
    <i name="e_0_energy">    -19.93013018 </i>
   </energy>
  </scstep>
  <scstep>
   <time name="dav">    3.43    3.43</time>
   <time name="total">    6.07    6.08</time>
   <energy>
    <i name="e_fr_energy">    -19.90797009 </i>
    <i name="e_wo_entrp">    -20.01798534 </i>
    <i name="e_0_energy">    -19.94464184 </i>
   </energy>
  </scstep>
  <scstep>
   <time name="dav">    3.58    3.59</time>
   <time name="total">    6.22    6.24</time>
   <energy>
    <i name="e_fr_energy">    -19.92069347 </i>
    <i name="e_wo_entrp">    -20.03040492 </i>
    <i name="e_0_energy">    -19.95726395 </i>
   </energy>
  </scstep>
  <scstep>
   <time name="dav">    3.02    3.02</time>
   <time name="total">    5.66    5.67</time>
   <energy>
    <i name="e_fr_energy">    -19.92332035 </i>
    <i name="e_wo_entrp">    -20.03283976 </i>
    <i name="e_0_energy">    -19.95982682 </i>
   </energy>
  </scstep>
  <scstep>
   <time name="dav">    2.99    2.99</time>
   <time name="total">    5.61    5.62</time>
   <energy>
    <i name="e_fr_energy">    -19.92416935 </i>
    <i name="e_wo_entrp">    -20.03356910 </i>
    <i name="e_0_energy">    -19.96063593 </i>
   </energy>
  </scstep>
  <scstep>
   <time name="dav">    3.12    3.13</time>
   <time name="total">    5.74    5.75</time>
   <energy>
    <i name="e_fr_energy">    -19.92444617 </i>
    <i name="e_wo_entrp">    -20.03381413 </i>
    <i name="e_0_energy">    -19.96090215 </i>
   </energy>
  </scstep>
  <scstep>
   <time name="dav">    2.94    2.94</time>
   <time name="total">    5.55    5.56</time>
   <energy>
    <i name="e_fr_energy">    -19.92507933 </i>
    <i name="e_wo_entrp">    -20.03442655 </i>
    <i name="e_0_energy">    -19.96152840 </i>
   </energy>
  </scstep>
  <scstep>
   <time name="dav">    2.94    2.94</time>
   <time name="total">    5.57    5.58</time>
   <energy>
    <i name="e_fr_energy">    -19.92551044 </i>
    <i name="e_wo_entrp">    -20.03489098 </i>
    <i name="e_0_energy">    -19.96197062 </i>
   </energy>
  </scstep>
  <scstep>
   <time name="dav">    3.02    3.02</time>
   <time name="total">    5.65    5.66</time>
   <energy>
    <i name="e_fr_energy">    -19.92656112 </i>
    <i name="e_wo_entrp">    -20.03595240 </i>
    <i name="e_0_energy">    -19.96302488 </i>
   </energy>
  </scstep>
  <scstep>
   <time name="dav">    3.03    3.04</time>
   <time name="total">    5.68    5.69</time>
   <energy>
    <i name="e_fr_energy">    -19.92679158 </i>
    <i name="e_wo_entrp">    -20.03616026 </i>
    <i name="e_0_energy">    -19.96324781 </i>
   </energy>
  </scstep>
  <scstep>
   <time name="dav">    2.66    2.66</time>
   <time name="total">    5.32    5.33</time>
   <energy>
    <i name="e_fr_energy">    -19.92696918 </i>
    <i name="e_wo_entrp">    -20.03635002 </i>
    <i name="e_0_energy">    -19.96342946 </i>
   </energy>
  </scstep>
  <scstep>
   <time name="dav">    2.56    2.56</time>
   <time name="total">    4.60    4.61</time>
   <energy>
    <i name="alphaZ">      5.64128824 </i>
    <i name="ewald">   9456.13105998 </i>
    <i name="hartreedc"> -18045.95468990 </i>
    <i name="XCdc">    234.47180793 </i>
    <i name="pawpsdc">   8967.31070093 </i>
    <i name="pawaedc">  -9311.31328451 </i>
    <i name="eentropy">      0.10936006 </i>
    <i name="bandstr">   -594.47590762 </i>
    <i name="atom">   9268.15263587 </i>
    <i name="e_fr_energy">    -19.92702903 </i>
    <i name="e_wo_entrp">    -20.03638909 </i>
    <i name="e_0_energy">    -19.96348238 </i>
   </energy>
  </scstep>
  <structure>
   <crystal>
    <varray name="basis" >
     <v>      22.14546168       0.00000000       0.00000000 </v>
     <v>       0.00000000      21.96990740       0.00000000 </v>
     <v>       0.00000000       0.00000000      22.10677943 </v>
    </varray>
    <i name="volume">  10755.69413154 </i>
    <varray name="rec_basis" >
     <v>       0.04515598       0.00000000       0.00000000 </v>
     <v>       0.00000000       0.04551681       0.00000000 </v>
     <v>       0.00000000       0.00000000       0.04523499 </v>
    </varray>
   </crystal>
   <varray name="positions" >
    <v>       0.59463066       0.46159640       0.58306325 </v>
    <v>       0.46426863       0.60129671       0.55501024 </v>
    <v>       0.41501442       0.41592162       0.53354262 </v>
    <v>       0.53110818       0.50051553       0.40535794 </v>
    <v>       0.48379465       0.49163000       0.58654182 </v>
    <v>       0.55243712       0.54141634       0.51104008 </v>
    <v>       0.52299503       0.43194073       0.49788019 </v>
    <v>       0.44622663       0.51434377       0.48161154 </v>
   </varray>
  </structure>
  <varray name="forces" >
   <v>      -0.01548849       0.01127318      -0.02115937 </v>
   <v>       0.01902733      -0.00114615       0.00694024 </v>
   <v>      -0.00405275       0.00180601      -0.00247350 </v>
   <v>      -0.00038656      -0.00004019       0.03095367 </v>
   <v>       0.00323123      -0.00017322       0.00211442 </v>
   <v>      -0.01502062       0.00007043      -0.01133317 </v>
   <v>       0.01658638       0.00668423       0.00413235 </v>
   <v>      -0.00389652      -0.01847429      -0.00917464 </v>
  </varray>
  <energy>
   <i name="e_fr_energy">    -19.92702903 </i>
   <i name="e_wo_entrp">    -20.03638909 </i>
   <i name="e_0_energy">    -19.96348238 </i>
  </energy>
  <time name="totalsc">  196.31  196.69</time>
 </calculation>
 <calculation>
  <scstep>
   <time name="dav">    3.76    3.77</time>
   <time name="total">    6.27    6.29</time>
   <energy>
    <i name="alphaZ">      5.64128824 </i>
    <i name="ewald">   9459.36256680 </i>
    <i name="hartreedc"> -18049.14182976 </i>
    <i name="XCdc">    234.47988199 </i>
    <i name="pawpsdc">   8967.33125091 </i>
    <i name="pawaedc">  -9311.33371880 </i>
    <i name="eentropy">      0.10922899 </i>
    <i name="bandstr">   -594.52835421 </i>
    <i name="atom">   9268.15263587 </i>
    <i name="e_fr_energy">    -19.92704997 </i>
    <i name="e_wo_entrp">    -20.03627896 </i>
    <i name="e_0_energy">    -19.96345963 </i>
   </energy>
  </scstep>
  <scstep>
   <time name="dav">    5.04    5.05</time>
   <time name="total">    7.57    7.58</time>
   <energy>
    <i name="e_fr_energy">    -19.92718909 </i>
    <i name="e_wo_entrp">    -20.03639107 </i>
    <i name="e_0_energy">    -19.96358975 </i>
   </energy>
  </scstep>
  <scstep>
   <time name="dav">    2.94    2.95</time>
   <time name="total">    4.96    4.97</time>
   <energy>
    <i name="alphaZ">      5.64128824 </i>
    <i name="ewald">   9459.36256680 </i>
    <i name="hartreedc"> -18049.14069622 </i>
    <i name="XCdc">    234.47880494 </i>
    <i name="pawpsdc">   8967.91958730 </i>
    <i name="pawaedc">  -9311.93305258 </i>
    <i name="eentropy">      0.10934689 </i>
    <i name="bandstr">   -594.51767382 </i>
    <i name="atom">   9268.15263587 </i>
    <i name="e_fr_energy">    -19.92719258 </i>
    <i name="e_wo_entrp">    -20.03653947 </i>
    <i name="e_0_energy">    -19.96364154 </i>
   </energy>
  </scstep>
  <structure>
   <crystal>
    <varray name="basis" >
     <v>      22.14546168       0.00000000       0.00000000 </v>
     <v>       0.00000000      21.96990740       0.00000000 </v>
     <v>       0.00000000       0.00000000      22.10677943 </v>
    </varray>
    <i name="volume">  10755.69413154 </i>
    <varray name="rec_basis" >
     <v>       0.04515598       0.00000000       0.00000000 </v>
     <v>       0.00000000       0.04551681       0.00000000 </v>
     <v>       0.00000000       0.00000000       0.04523499 </v>
    </varray>
   </crystal>
   <varray name="positions" >
    <v>       0.59459692       0.46162116       0.58301707 </v>
    <v>       0.46431008       0.60129419       0.55502539 </v>
    <v>       0.41500559       0.41592559       0.53353723 </v>
    <v>       0.53110734       0.50051544       0.40542549 </v>
    <v>       0.48380169       0.49162962       0.58654643 </v>
    <v>       0.55240440       0.54141649       0.51101535 </v>
    <v>       0.52303116       0.43195541       0.49788921 </v>
    <v>       0.44621814       0.51430320       0.48159152 </v>
   </varray>
  </structure>
  <varray name="forces" >
   <v>      -0.00085409       0.00691427      -0.00665661 </v>
   <v>       0.00906071      -0.00277009       0.00221303 </v>
   <v>       0.00219480       0.00109095      -0.00043586 </v>
   <v>       0.00283533       0.00016060       0.00606399 </v>
   <v>      -0.00268387      -0.00034083       0.00159152 </v>
   <v>      -0.00869604       0.00744360      -0.00636744 </v>
   <v>       0.00575054      -0.00239330       0.00435153 </v>
   <v>      -0.00760737      -0.01010520      -0.00076016 </v>
  </varray>
  <energy>
   <i name="e_fr_energy">    -19.92719258 </i>
   <i name="e_wo_entrp">    -20.03653947 </i>
   <i name="e_0_energy">    -19.96364154 </i>
  </energy>
  <time name="totalsc">   25.76   25.83</time>
 </calculation>
 <calculation>
  <scstep>
   <time name="dav">    3.94    3.95</time>
   <time name="total">    6.46    6.47</time>
   <energy>
    <i name="alphaZ">      5.64128824 </i>
    <i name="ewald">   9460.98665398 </i>
    <i name="hartreedc"> -18050.73284429 </i>
    <i name="XCdc">    234.48241589 </i>
    <i name="pawpsdc">   8968.01566461 </i>
    <i name="pawaedc">  -9312.02946421 </i>
    <i name="eentropy">      0.10927370 </i>
    <i name="bandstr">   -594.55282375 </i>
    <i name="atom">   9268.15263587 </i>
    <i name="e_fr_energy">    -19.92719997 </i>
    <i name="e_wo_entrp">    -20.03647367 </i>
    <i name="e_0_energy">    -19.96362454 </i>
   </energy>
  </scstep>
  <scstep>
   <time name="dav">    3.13    3.13</time>
   <time name="total">    5.15    5.16</time>
   <energy>
    <i name="alphaZ">      5.64128824 </i>
    <i name="ewald">   9460.98665398 </i>
    <i name="hartreedc"> -18050.71948027 </i>
    <i name="XCdc">    234.48143436 </i>
    <i name="pawpsdc">   8968.36369018 </i>
    <i name="pawaedc">  -9312.38313044 </i>
    <i name="eentropy">      0.10927737 </i>
    <i name="bandstr">   -594.55959676 </i>
    <i name="atom">   9268.15263587 </i>
    <i name="e_fr_energy">    -19.92722749 </i>
    <i name="e_wo_entrp">    -20.03650485 </i>
    <i name="e_0_energy">    -19.96365327 </i>
   </energy>
  </scstep>
  <structure>
   <crystal>
    <varray name="basis" >
     <v>      22.14546168       0.00000000       0.00000000 </v>
     <v>       0.00000000      21.96990740       0.00000000 </v>
     <v>       0.00000000       0.00000000      22.10677943 </v>
    </varray>
    <i name="volume">  10755.69413154 </i>
    <varray name="rec_basis" >
     <v>       0.04515598       0.00000000       0.00000000 </v>
     <v>       0.00000000       0.04551681       0.00000000 </v>
     <v>       0.00000000       0.00000000       0.04523499 </v>
    </varray>
   </crystal>
   <varray name="positions" >
    <v>       0.59457997       0.46163359       0.58299388 </v>
    <v>       0.46433090       0.60129293       0.55503299 </v>
    <v>       0.41500116       0.41592758       0.53353452 </v>
    <v>       0.53110692       0.50051540       0.40545942 </v>
    <v>       0.48380523       0.49162943       0.58654875 </v>
    <v>       0.55238796       0.54141657       0.51100293 </v>
    <v>       0.52304931       0.43196278       0.49789374 </v>
    <v>       0.44621387       0.51428282       0.48158146 </v>
   </varray>
  </structure>
  <varray name="forces" >
   <v>       0.01757359      -0.00453702       0.01722142 </v>
   <v>      -0.01085210       0.00099988      -0.00199065 </v>
   <v>       0.00668062      -0.00051696       0.00375706 </v>
   <v>       0.00479391       0.00127576      -0.03069128 </v>
   <v>      -0.00501966       0.00086467       0.00333039 </v>
   <v>      -0.00573565       0.01041549      -0.00203437 </v>
   <v>       0.00098893      -0.00350937       0.00598007 </v>
   <v>      -0.00842964      -0.00499245       0.00442736 </v>
  </varray>
  <energy>
   <i name="e_fr_energy">    -19.92722749 </i>
   <i name="e_wo_entrp">    -20.03650485 </i>
   <i name="e_0_energy">    -19.96365327 </i>
  </energy>
  <time name="totalsc">   18.12   18.15</time>
  <eigenvalues>
   <array>
    <dimension dim="1">band</dimension>
    <dimension dim="2">kpoint</dimension>
    <dimension dim="3">spin</dimension>
    <field>eigene</field>
    <field>occ</field>
    <set>
     <set comment="spin 1">
      <set comment="kpoint 1">
       <r>  -10.4045    1.0000 </r>
       <r>   -8.6765    1.0000 </r>
       <r>   -8.6735    1.0000 </r>
       <r>   -8.6718    1.0000 </r>
       <r>   -8.0856    1.0000 </r>
       <r>   -8.0850    1.0000 </r>
       <r>   -8.0829    1.0000 </r>
       <r>   -7.7067    1.0000 </r>
       <r>   -7.7050    1.0000 </r>
       <r>   -7.6699    1.0000 </r>
       <r>   -7.6668    1.0000 </r>
       <r>   -7.6629    1.0000 </r>
       <r>   -7.4733    1.0000 </r>
       <r>   -7.4441    1.0000 </r>
       <r>   -7.4415    1.0000 </r>
       <r>   -7.2031    1.0000 </r>
       <r>   -7.2010    1.0000 </r>
       <r>   -7.1990    1.0000 </r>
       <r>   -7.0153    1.0000 </r>
       <r>   -7.0149    1.0000 </r>
       <r>   -7.0145    1.0000 </r>
       <r>   -6.8882    1.0000 </r>
       <r>   -6.7794    1.0000 </r>
       <r>   -6.7777    1.0000 </r>
       <r>   -6.7769    1.0000 </r>
       <r>   -6.1249    1.0000 </r>
       <r>   -6.1205    1.0000 </r>
       <r>   -6.0784    1.0000 </r>
       <r>   -6.0745    1.0000 </r>
       <r>   -6.0728    1.0000 </r>
       <r>   -5.5326    1.0026 </r>
       <r>   -5.5323    1.0026 </r>
       <r>   -5.4996    1.0049 </r>
       <r>   -5.4986    1.0050 </r>
       <r>   -5.4980    1.0050 </r>
       <r>   -5.4589    1.0097 </r>
       <r>   -5.4562    1.0101 </r>
       <r>   -5.4552    1.0102 </r>
       <r>   -5.3096    1.0353 </r>
       <r>   -5.3064    1.0351 </r>
       <r>   -5.3039    1.0349 </r>
       <r>   -5.2065    0.9519 </r>
       <r>   -5.2046    0.9483 </r>
       <r>   -5.2026    0.9446 </r>
       <r>   -3.1647   -0.0000 </r>
       <r>   -2.9029   -0.0000 </r>
       <r>   -2.8982   -0.0000 </r>
       <r>   -2.8943   -0.0000 </r>
       <r>   -1.8465   -0.0000 </r>
       <r>   -1.8459   -0.0000 </r>
       <r>   -0.7369   -0.0000 </r>
       <r>   -0.7331   -0.0000 </r>
       <r>   -0.7288   -0.0000 </r>
       <r>   -0.4829   -0.0000 </r>
       <r>    0.0593   -0.0000 </r>
       <r>    0.0917   -0.0000 </r>
      </set>
     </set>
     <set comment="spin 2">
      <set comment="kpoint 1">
       <r>  -10.4045    1.0000 </r>
       <r>   -8.6765    1.0000 </r>
       <r>   -8.6735    1.0000 </r>
       <r>   -8.6717    1.0000 </r>
       <r>   -8.0856    1.0000 </r>
       <r>   -8.0850    1.0000 </r>
       <r>   -8.0829    1.0000 </r>
       <r>   -7.7067    1.0000 </r>
       <r>   -7.7050    1.0000 </r>
       <r>   -7.6699    1.0000 </r>
       <r>   -7.6668    1.0000 </r>
       <r>   -7.6629    1.0000 </r>
       <r>   -7.4733    1.0000 </r>
       <r>   -7.4441    1.0000 </r>
       <r>   -7.4415    1.0000 </r>
       <r>   -7.2031    1.0000 </r>
       <r>   -7.2010    1.0000 </r>
       <r>   -7.1989    1.0000 </r>
       <r>   -7.0153    1.0000 </r>
       <r>   -7.0149    1.0000 </r>
       <r>   -7.0145    1.0000 </r>
       <r>   -6.8881    1.0000 </r>
       <r>   -6.7794    1.0000 </r>
       <r>   -6.7777    1.0000 </r>
       <r>   -6.7769    1.0000 </r>
       <r>   -6.1248    1.0000 </r>
       <r>   -6.1204    1.0000 </r>
       <r>   -6.0783    1.0000 </r>
       <r>   -6.0745    1.0000 </r>
       <r>   -6.0727    1.0000 </r>
       <r>   -5.5325    1.0026 </r>
       <r>   -5.5322    1.0026 </r>
       <r>   -5.4995    1.0049 </r>
       <r>   -5.4986    1.0050 </r>
       <r>   -5.4979    1.0050 </r>
       <r>   -5.4588    1.0097 </r>
       <r>   -5.4561    1.0101 </r>
       <r>   -5.4551    1.0102 </r>
       <r>   -5.3095    1.0353 </r>
       <r>   -5.3063    1.0351 </r>
       <r>   -5.3039    1.0349 </r>
       <r>   -5.2064    0.9518 </r>
       <r>   -5.2045    0.9482 </r>
       <r>   -5.2026    0.9444 </r>
       <r>   -3.1646   -0.0000 </r>
       <r>   -2.9028   -0.0000 </r>
       <r>   -2.8981   -0.0000 </r>
       <r>   -2.8942   -0.0000 </r>
       <r>   -1.8463   -0.0000 </r>
       <r>   -1.8458   -0.0000 </r>
       <r>   -0.7359   -0.0000 </r>
       <r>   -0.7320   -0.0000 </r>
       <r>   -0.7276   -0.0000 </r>
       <r>   -0.4822   -0.0000 </r>
       <r>    0.0620   -0.0000 </r>
       <r>    0.0919   -0.0000 </r>
      </set>
     </set>
    </set>
   </array>
  </eigenvalues>
  <separator name="orbital magnetization" >
   <v name="MAGDIPOLOUT">      0.00000000      0.00000000      0.00000000</v>
  </separator>
  <dos>
   <i name="efermi">     -5.07090363 </i>
   <total>
    <array>
     <dimension dim="1">gridpoints</dimension>
     <dimension dim="2">spin</dimension>
     <field>energy</field>
     <field>total</field>
     <field>integrated</field>
     <set>
      <set comment="spin 1">
       <r>   -12.4045     0.0000     0.0000 </r>
       <r>   -12.3562     0.0000     0.0000 </r>
       <r>   -12.3079     0.0000     0.0000 </r>
       <r>   -12.2595     0.0000     0.0000 </r>
       <r>   -12.2112     0.0000     0.0000 </r>
       <r>   -12.1629     0.0000     0.0000 </r>
       <r>   -12.1146     0.0000     0.0000 </r>
       <r>   -12.0663     0.0000     0.0000 </r>
       <r>   -12.0179    -0.0000    -0.0000 </r>
       <r>   -11.9696    -0.0000    -0.0000 </r>
       <r>   -11.9213    -0.0000    -0.0000 </r>
       <r>   -11.8730    -0.0000    -0.0000 </r>
       <r>   -11.8247    -0.0000    -0.0000 </r>
       <r>   -11.7763    -0.0000    -0.0000 </r>
       <r>   -11.7280    -0.0000    -0.0000 </r>
       <r>   -11.6797    -0.0000    -0.0000 </r>
       <r>   -11.6314    -0.0000    -0.0000 </r>
       <r>   -11.5830    -0.0000    -0.0000 </r>
       <r>   -11.5347    -0.0000    -0.0000 </r>
       <r>   -11.4864    -0.0000    -0.0000 </r>
       <r>   -11.4381    -0.0000    -0.0000 </r>
       <r>   -11.3898    -0.0000    -0.0000 </r>
       <r>   -11.3414    -0.0000    -0.0000 </r>
       <r>   -11.2931    -0.0000    -0.0000 </r>
       <r>   -11.2448    -0.0000    -0.0000 </r>
       <r>   -11.1965    -0.0000    -0.0000 </r>
       <r>   -11.1482    -0.0000    -0.0000 </r>
       <r>   -11.0998    -0.0001    -0.0000 </r>
       <r>   -11.0515    -0.0004    -0.0000 </r>
       <r>   -11.0032    -0.0015    -0.0001 </r>
       <r>   -10.9549    -0.0052    -0.0003 </r>
       <r>   -10.9065    -0.0157    -0.0011 </r>
       <r>   -10.8582    -0.0404    -0.0031 </r>
       <r>   -10.8099    -0.0882    -0.0073 </r>
       <r>   -10.7616    -0.1589    -0.0150 </r>
       <r>   -10.7133    -0.2207    -0.0257 </r>
       <r>   -10.6649    -0.1855    -0.0346 </r>
       <r>   -10.6166     0.0891    -0.0303 </r>
       <r>   -10.5683     0.7364     0.0053 </r>
       <r>   -10.5200     1.7621     0.0904 </r>
       <r>   -10.4717     2.9477     0.2328 </r>
       <r>   -10.4233     3.8881     0.4207 </r>
       <r>   -10.3750     4.1924     0.6233 </r>
       <r>   -10.3267     3.7241     0.8033 </r>
       <r>   -10.2784     2.6914     0.9333 </r>
       <r>   -10.2300     1.5106     1.0063 </r>
       <r>   -10.1817     0.5581     1.0333 </r>
       <r>   -10.1334     0.0000     1.0333 </r>
       <r>   -10.0851    -0.2083     1.0232 </r>
       <r>   -10.0368    -0.2113     1.0130 </r>
       <r>    -9.9884    -0.1423     1.0061 </r>
       <r>    -9.9401    -0.0754     1.0025 </r>
       <r>    -9.8918    -0.0332     1.0009 </r>
       <r>    -9.8435    -0.0124     1.0003 </r>
       <r>    -9.7952    -0.0040     1.0001 </r>
       <r>    -9.7468    -0.0011     1.0000 </r>
       <r>    -9.6985    -0.0003     1.0000 </r>
       <r>    -9.6502    -0.0001     1.0000 </r>
       <r>    -9.6019    -0.0000     1.0000 </r>
       <r>    -9.5536    -0.0000     1.0000 </r>
       <r>    -9.5052    -0.0000     1.0000 </r>
       <r>    -9.4569    -0.0000     1.0000 </r>
       <r>    -9.4086    -0.0001     1.0000 </r>
       <r>    -9.3603    -0.0003     1.0000 </r>
       <r>    -9.3119    -0.0015     0.9999 </r>
       <r>    -9.2636    -0.0058     0.9996 </r>
       <r>    -9.2153    -0.0195     0.9987 </r>
       <r>    -9.1670    -0.0567     0.9959 </r>
       <r>    -9.1187    -0.1419     0.9891 </r>
       <r>    -9.0703    -0.3000     0.9746 </r>
       <r>    -9.0220    -0.5185     0.9495 </r>
       <r>    -8.9737    -0.6753     0.9169 </r>
       <r>    -8.9254    -0.4713     0.8941 </r>
       <r>    -8.8771     0.5361     0.9200 </r>
       <r>    -8.8287     2.7053     1.0508 </r>
       <r>    -8.7804     5.9416     1.3379 </r>
       <r>    -8.7321     9.4608     1.7950 </r>
       <r>    -8.6838    11.9979     2.3748 </r>
       <r>    -8.6354    12.4689     2.9773 </r>
       <r>    -8.5871    10.6443     3.4916 </r>
       <r>    -8.5388     7.2902     3.8439 </r>
       <r>    -8.4905     3.6627     4.0209 </r>
       <r>    -8.4422     0.7976     4.0594 </r>
       <r>    -8.3938    -0.8445     4.0186 </r>
       <r>    -8.3455    -1.2210     3.9596 </r>
       <r>    -8.2972    -0.3558     3.9424 </r>
       <r>    -8.2489     1.7753     4.0282 </r>
       <r>    -8.2006     4.9899     4.2693 </r>
       <r>    -8.1522     8.5614     4.6830 </r>
       <r>    -8.1039    11.2521     5.2268 </r>
       <r>    -8.0556    11.8939     5.8015 </r>
       <r>    -8.0073    10.1811     6.2934 </r>
       <r>    -7.9589     7.0656     6.6349 </r>
       <r>    -7.9106     4.3962     6.8473 </r>
       <r>    -7.8623     3.9760     7.0394 </r>
       <r>    -7.8140     6.5751     7.3571 </r>
       <r>    -7.7657    11.4497     7.9104 </r>
       <r>    -7.7173    16.6856     8.7167 </r>
       <r>    -7.6690    20.2539     9.6954 </r>
       <r>    -7.6207    21.1476    10.7172 </r>
       <r>    -7.5724    19.7806    11.6731 </r>
       <r>    -7.5241    17.3781    12.5128 </r>
       <r>    -7.4757    14.9884    13.2371 </r>
       <r>    -7.4274    13.0278    13.8666 </r>
       <r>    -7.3791    11.5812    14.4262 </r>
       <r>    -7.3308    10.8383    14.9499 </r>
       <r>    -7.2825    11.0596    15.4843 </r>
       <r>    -7.2341    12.2094    16.0743 </r>
       <r>    -7.1858    13.8226    16.7422 </r>
       <r>    -7.1375    15.3049    17.4818 </r>
       <r>    -7.0892    16.3062    18.2697 </r>
       <r>    -7.0408    16.8083    19.0819 </r>
       <r>    -6.9925    16.9850    19.9026 </r>
       <r>    -6.9442    17.0565    20.7268 </r>
       <r>    -6.8959    17.1608    21.5561 </r>
       <r>    -6.8476    17.1713    22.3858 </r>
       <r>    -6.7992    16.6097    23.1884 </r>
       <r>    -6.7509    14.8935    23.9081 </r>
       <r>    -6.7026    11.8312    24.4798 </r>
       <r>    -6.6543     7.9129    24.8621 </r>
       <r>    -6.6060     4.0752    25.0591 </r>
       <r>    -6.5576     1.1289    25.1136 </r>
       <r>    -6.5093    -0.6551    25.0819 </r>
       <r>    -6.4610    -1.5011    25.0094 </r>
       <r>    -6.4127    -1.7355    24.9256 </r>
       <r>    -6.3643    -1.3754    24.8591 </r>
       <r>    -6.3160     0.0050    24.8593 </r>
       <r>    -6.2677     2.9951    25.0041 </r>
       <r>    -6.2194     7.7503    25.3786 </r>
       <r>    -6.1711    13.4522    26.0286 </r>
       <r>    -6.1227    18.3346    26.9145 </r>
       <r>    -6.0744    20.4790    27.9041 </r>
       <r>    -6.0261    18.9329    28.8190 </r>
       <r>    -5.9778    14.3038    29.5102 </r>
       <r>    -5.9295     8.3473    29.9135 </r>
       <r>    -5.8811     2.9202    30.0546 </r>
       <r>    -5.8328    -0.8292    30.0145 </r>
       <r>    -5.7845    -2.4880    29.8943 </r>
       <r>    -5.7362    -1.8549    29.8047 </r>
       <r>    -5.6879     1.4259    29.8736 </r>
       <r>    -5.6395     7.5849    30.2401 </r>
       <r>    -5.5912    16.0141    31.0139 </r>
       <r>    -5.5429    24.8987    32.2171 </r>
       <r>    -5.4946    31.8245    33.7549 </r>
       <r>    -5.4462    35.1021    35.4510 </r>
       <r>    -5.3979    34.7355    37.1295 </r>
       <r>    -5.3496    32.1413    38.6826 </r>
       <r>    -5.3013    28.8719    40.0777 </r>
       <r>    -5.2530    25.5216    41.3110 </r>
       <r>    -5.2046    21.7217    42.3606 </r>
       <r>    -5.1563    17.0084    43.1825 </r>
       <r>    -5.1080    11.5990    43.7429 </r>
       <r>    -5.0597     6.3950    44.0520 </r>
       <r>    -5.0114     2.3699    44.1665 </r>
       <r>    -4.9630    -0.0213    44.1654 </r>
       <r>    -4.9147    -0.9687    44.1186 </r>
       <r>    -4.8664    -1.0225    44.0692 </r>
       <r>    -4.8181    -0.7239    44.0342 </r>
       <r>    -4.7697    -0.4060    44.0146 </r>
       <r>    -4.7214    -0.1900    44.0055 </r>
       <r>    -4.6731    -0.0760    44.0018 </r>
       <r>    -4.6248    -0.0263    44.0005 </r>
       <r>    -4.5765    -0.0079    44.0001 </r>
       <r>    -4.5281    -0.0021    44.0000 </r>
       <r>    -4.4798    -0.0005    44.0000 </r>
       <r>    -4.4315    -0.0001    44.0000 </r>
       <r>    -4.3832    -0.0000    44.0000 </r>
       <r>    -4.3349    -0.0000    44.0000 </r>
       <r>    -4.2865    -0.0000    44.0000 </r>
       <r>    -4.2382    -0.0000    44.0000 </r>
       <r>    -4.1899    -0.0000    44.0000 </r>
       <r>    -4.1416    -0.0000    44.0000 </r>
       <r>    -4.0932    -0.0000    44.0000 </r>
       <r>    -4.0449    -0.0000    44.0000 </r>
       <r>    -3.9966    -0.0000    44.0000 </r>
       <r>    -3.9483    -0.0000    44.0000 </r>
       <r>    -3.9000    -0.0000    44.0000 </r>
       <r>    -3.8516    -0.0001    44.0000 </r>
       <r>    -3.8033    -0.0005    44.0000 </r>
       <r>    -3.7550    -0.0019    43.9999 </r>
       <r>    -3.7067    -0.0064    43.9996 </r>
       <r>    -3.6584    -0.0187    43.9987 </r>
       <r>    -3.6100    -0.0469    43.9964 </r>
       <r>    -3.5617    -0.0999    43.9916 </r>
       <r>    -3.5134    -0.1748    43.9831 </r>
       <r>    -3.4651    -0.2355    43.9717 </r>
       <r>    -3.4168    -0.1926    43.9624 </r>
       <r>    -3.3684     0.0821    43.9664 </r>
       <r>    -3.3201     0.6822    43.9994 </r>
       <r>    -3.2718     1.5647    44.0750 </r>
       <r>    -3.2235     2.5259    44.1970 </r>
       <r>    -3.1751     3.3472    44.3588 </r>
       <r>    -3.1268     4.0488    44.5544 </r>
       <r>    -3.0785     4.9965    44.7959 </r>
       <r>    -3.0302     6.6374    45.1166 </r>
       <r>    -2.9819     8.9824    45.5506 </r>
       <r>    -2.9335    11.3076    46.0970 </r>
       <r>    -2.8852    12.4664    46.6994 </r>
       <r>    -2.8369    11.6598    47.2628 </r>
       <r>    -2.7886     9.0288    47.6991 </r>
       <r>    -2.7403     5.5646    47.9680 </r>
       <r>    -2.6919     2.4499    48.0864 </r>
       <r>    -2.6436     0.4042    48.1059 </r>
       <r>    -2.5953    -0.5153    48.0810 </r>
       <r>    -2.5470    -0.6744    48.0484 </r>
       <r>    -2.4986    -0.5044    48.0241 </r>
       <r>    -2.4503    -0.2894    48.0101 </r>
       <r>    -2.4020    -0.1431    48.0032 </r>
       <r>    -2.3537    -0.0808    47.9993 </r>
       <r>    -2.3054    -0.0912    47.9948 </r>
       <r>    -2.2570    -0.1684    47.9867 </r>
       <r>    -2.2087    -0.3022    47.9721 </r>
       <r>    -2.1604    -0.4331    47.9512 </r>
       <r>    -2.1121    -0.3970    47.9320 </r>
       <r>    -2.0638     0.0829    47.9360 </r>
       <r>    -2.0154     1.2863    47.9982 </r>
       <r>    -1.9671     3.2656    48.1560 </r>
       <r>    -1.9188     5.6368    48.4283 </r>
       <r>    -1.8705     7.6168    48.7964 </r>
       <r>    -1.8222     8.3946    49.2020 </r>
       <r>    -1.7738     7.6227    49.5704 </r>
       <r>    -1.7255     5.6460    49.8432 </r>
       <r>    -1.6772     3.2746    50.0014 </r>
       <r>    -1.6289     1.2927    50.0639 </r>
       <r>    -1.5805     0.0862    50.0681 </r>
       <r>    -1.5322    -0.3961    50.0489 </r>
       <r>    -1.4839    -0.4332    50.0280 </r>
       <r>    -1.4356    -0.3017    50.0134 </r>
       <r>    -1.3873    -0.1645    50.0055 </r>
       <r>    -1.3389    -0.0772    50.0017 </r>
       <r>    -1.2906    -0.0412    49.9997 </r>
       <r>    -1.2423    -0.0495    49.9973 </r>
       <r>    -1.1940    -0.1088    49.9921 </r>
       <r>    -1.1457    -0.2389    49.9805 </r>
       <r>    -1.0973    -0.4436    49.9591 </r>
       <r>    -1.0490    -0.6471    49.9278 </r>
       <r>    -1.0007    -0.6165    49.8980 </r>
       <r>    -0.9524     0.0506    49.9005 </r>
       <r>    -0.9040     1.7692    49.9860 </r>
       <r>    -0.8557     4.6327    50.2098 </r>
       <r>    -0.8074     8.1118    50.6018 </r>
       <r>    -0.7591    11.1166    51.1390 </r>
       <r>    -0.7108    12.5478    51.7453 </r>
       <r>    -0.6624    11.9948    52.3249 </r>
       <r>    -0.6141     9.9971    52.8080 </r>
       <r>    -0.5658     7.6123    53.1758 </r>
       <r>    -0.5175     5.6691    53.4498 </r>
       <r>    -0.4692     4.3458    53.6598 </r>
       <r>    -0.4208     3.3385    53.8211 </r>
       <r>    -0.3725     2.3203    53.9332 </r>
       <r>    -0.3242     1.2307    53.9927 </r>
       <r>    -0.2759     0.2419    54.0044 </r>
       <r>    -0.2275    -0.4118    53.9845 </r>
       <r>    -0.1792    -0.5224    53.9592 </r>
       <r>    -0.1309     0.0951    53.9638 </r>
       <r>    -0.0826     1.5525    54.0388 </r>
       <r>    -0.0343     3.7210    54.2186 </r>
       <r>     0.0141     6.0831    54.5126 </r>
       <r>     0.0624     7.8309    54.8910 </r>
       <r>     0.1107     8.2573    55.2900 </r>
       <r>     0.1590     7.1862    55.6372 </r>
       <r>     0.2073     5.0905    55.8832 </r>
       <r>     0.2557     2.7920    56.0181 </r>
       <r>     0.3040     0.9879    56.0658 </r>
       <r>     0.3523    -0.0426    56.0638 </r>
       <r>     0.4006    -0.4119    56.0439 </r>
       <r>     0.4489    -0.4036    56.0244 </r>
       <r>     0.4973    -0.2680    56.0114 </r>
       <r>     0.5456    -0.1411    56.0046 </r>
       <r>     0.5939    -0.0619    56.0016 </r>
       <r>     0.6422    -0.0232    56.0005 </r>
       <r>     0.6906    -0.0075    56.0001 </r>
       <r>     0.7389    -0.0021    56.0000 </r>
       <r>     0.7872    -0.0005    56.0000 </r>
       <r>     0.8355    -0.0001    56.0000 </r>
       <r>     0.8838    -0.0000    56.0000 </r>
       <r>     0.9322    -0.0000    56.0000 </r>
       <r>     0.9805    -0.0000    56.0000 </r>
       <r>     1.0288    -0.0000    56.0000 </r>
       <r>     1.0771    -0.0000    56.0000 </r>
       <r>     1.1254    -0.0000    56.0000 </r>
       <r>     1.1738    -0.0000    56.0000 </r>
       <r>     1.2221    -0.0000    56.0000 </r>
       <r>     1.2704    -0.0000    56.0000 </r>
       <r>     1.3187    -0.0000    56.0000 </r>
       <r>     1.3671     0.0000    56.0000 </r>
       <r>     1.4154     0.0000    56.0000 </r>
       <r>     1.4637     0.0000    56.0000 </r>
       <r>     1.5120     0.0000    56.0000 </r>
       <r>     1.5603     0.0000    56.0000 </r>
       <r>     1.6087     0.0000    56.0000 </r>
       <r>     1.6570     0.0000    56.0000 </r>
       <r>     1.7053     0.0000    56.0000 </r>
       <r>     1.7536     0.0000    56.0000 </r>
       <r>     1.8019     0.0000    56.0000 </r>
       <r>     1.8503     0.0000    56.0000 </r>
       <r>     1.8986     0.0000    56.0000 </r>
       <r>     1.9469     0.0000    56.0000 </r>
       <r>     1.9952     0.0000    56.0000 </r>
       <r>     2.0435     0.0000    56.0000 </r>
       <r>     2.0919     0.0000    56.0000 </r>
      </set>
      <set comment="spin 2">
       <r>   -12.4045     0.0000     0.0000 </r>
       <r>   -12.3562     0.0000     0.0000 </r>
       <r>   -12.3079     0.0000     0.0000 </r>
       <r>   -12.2595     0.0000     0.0000 </r>
       <r>   -12.2112     0.0000     0.0000 </r>
       <r>   -12.1629     0.0000     0.0000 </r>
       <r>   -12.1146     0.0000     0.0000 </r>
       <r>   -12.0663     0.0000     0.0000 </r>
       <r>   -12.0179    -0.0000    -0.0000 </r>
       <r>   -11.9696    -0.0000    -0.0000 </r>
       <r>   -11.9213    -0.0000    -0.0000 </r>
       <r>   -11.8730    -0.0000    -0.0000 </r>
       <r>   -11.8247    -0.0000    -0.0000 </r>
       <r>   -11.7763    -0.0000    -0.0000 </r>
       <r>   -11.7280    -0.0000    -0.0000 </r>
       <r>   -11.6797    -0.0000    -0.0000 </r>
       <r>   -11.6314    -0.0000    -0.0000 </r>
       <r>   -11.5830    -0.0000    -0.0000 </r>
       <r>   -11.5347    -0.0000    -0.0000 </r>
       <r>   -11.4864    -0.0000    -0.0000 </r>
       <r>   -11.4381    -0.0000    -0.0000 </r>
       <r>   -11.3898    -0.0000    -0.0000 </r>
       <r>   -11.3414    -0.0000    -0.0000 </r>
       <r>   -11.2931    -0.0000    -0.0000 </r>
       <r>   -11.2448    -0.0000    -0.0000 </r>
       <r>   -11.1965    -0.0000    -0.0000 </r>
       <r>   -11.1482    -0.0000    -0.0000 </r>
       <r>   -11.0998    -0.0001    -0.0000 </r>
       <r>   -11.0515    -0.0004    -0.0000 </r>
       <r>   -11.0032    -0.0015    -0.0001 </r>
       <r>   -10.9549    -0.0052    -0.0003 </r>
       <r>   -10.9065    -0.0157    -0.0011 </r>
       <r>   -10.8582    -0.0403    -0.0031 </r>
       <r>   -10.8099    -0.0882    -0.0073 </r>
       <r>   -10.7616    -0.1589    -0.0150 </r>
       <r>   -10.7133    -0.2207    -0.0257 </r>
       <r>   -10.6649    -0.1856    -0.0346 </r>
       <r>   -10.6166     0.0888    -0.0303 </r>
       <r>   -10.5683     0.7360     0.0052 </r>
       <r>   -10.5200     1.7615     0.0903 </r>
       <r>   -10.4717     2.9471     0.2328 </r>
       <r>   -10.4233     3.8878     0.4206 </r>
       <r>   -10.3750     4.1925     0.6232 </r>
       <r>   -10.3267     3.7245     0.8032 </r>
       <r>   -10.2784     2.6920     0.9333 </r>
       <r>   -10.2300     1.5112     1.0063 </r>
       <r>   -10.1817     0.5585     1.0333 </r>
       <r>   -10.1334     0.0002     1.0333 </r>
       <r>   -10.0851    -0.2083     1.0232 </r>
       <r>   -10.0368    -0.2114     1.0130 </r>
       <r>    -9.9884    -0.1423     1.0061 </r>
       <r>    -9.9401    -0.0754     1.0025 </r>
       <r>    -9.8918    -0.0332     1.0009 </r>
       <r>    -9.8435    -0.0125     1.0003 </r>
       <r>    -9.7952    -0.0040     1.0001 </r>
       <r>    -9.7468    -0.0011     1.0000 </r>
       <r>    -9.6985    -0.0003     1.0000 </r>
       <r>    -9.6502    -0.0001     1.0000 </r>
       <r>    -9.6019    -0.0000     1.0000 </r>
       <r>    -9.5536    -0.0000     1.0000 </r>
       <r>    -9.5052    -0.0000     1.0000 </r>
       <r>    -9.4569    -0.0000     1.0000 </r>
       <r>    -9.4086    -0.0001     1.0000 </r>
       <r>    -9.3603    -0.0003     1.0000 </r>
       <r>    -9.3119    -0.0015     0.9999 </r>
       <r>    -9.2636    -0.0058     0.9996 </r>
       <r>    -9.2153    -0.0194     0.9987 </r>
       <r>    -9.1670    -0.0567     0.9959 </r>
       <r>    -9.1187    -0.1418     0.9891 </r>
       <r>    -9.0703    -0.2999     0.9746 </r>
       <r>    -9.0220    -0.5183     0.9496 </r>
       <r>    -8.9737    -0.6753     0.9169 </r>
       <r>    -8.9254    -0.4716     0.8941 </r>
       <r>    -8.8771     0.5351     0.9200 </r>
       <r>    -8.8287     2.7035     1.0506 </r>
       <r>    -8.7804     5.9393     1.3376 </r>
       <r>    -8.7321     9.4587     1.7947 </r>
       <r>    -8.6838    11.9969     2.3744 </r>
       <r>    -8.6354    12.4694     2.9769 </r>
       <r>    -8.5871    10.6461     3.4914 </r>
       <r>    -8.5388     7.2926     3.8437 </r>
       <r>    -8.4905     3.6649     4.0208 </r>
       <r>    -8.4422     0.7991     4.0594 </r>
       <r>    -8.3938    -0.8438     4.0187 </r>
       <r>    -8.3455    -1.2212     3.9597 </r>
       <r>    -8.2972    -0.3568     3.9424 </r>
       <r>    -8.2489     1.7735     4.0281 </r>
       <r>    -8.2006     4.9874     4.2691 </r>
       <r>    -8.1522     8.5591     4.6827 </r>
       <r>    -8.1039    11.2508     5.2264 </r>
       <r>    -8.0556    11.8942     5.8011 </r>
       <r>    -8.0073    10.1828     6.2931 </r>
       <r>    -7.9589     7.0679     6.6347 </r>
       <r>    -7.9106     4.3978     6.8472 </r>
       <r>    -7.8623     3.9761     7.0393 </r>
       <r>    -7.8140     6.5736     7.3570 </r>
       <r>    -7.7657    11.4473     7.9101 </r>
       <r>    -7.7173    16.6833     8.7163 </r>
       <r>    -7.6690    20.2526     9.6949 </r>
       <r>    -7.6207    21.1475    10.7168 </r>
       <r>    -7.5724    19.7812    11.6726 </r>
       <r>    -7.5241    17.3791    12.5124 </r>
       <r>    -7.4757    14.9894    13.2367 </r>
       <r>    -7.4274    13.0288    13.8663 </r>
       <r>    -7.3791    11.5823    14.4259 </r>
       <r>    -7.3308    10.8392    14.9497 </r>
       <r>    -7.2825    11.0601    15.4841 </r>
       <r>    -7.2341    12.2094    16.0741 </r>
       <r>    -7.1858    13.8224    16.7420 </r>
       <r>    -7.1375    15.3046    17.4816 </r>
       <r>    -7.0892    16.3057    18.2695 </r>
       <r>    -7.0408    16.8076    19.0817 </r>
       <r>    -6.9925    16.9839    19.9023 </r>
       <r>    -6.9442    17.0551    20.7265 </r>
       <r>    -6.8959    17.1594    21.5556 </r>
       <r>    -6.8476    17.1704    22.3853 </r>
       <r>    -6.7992    16.6098    23.1879 </r>
       <r>    -6.7509    14.8949    23.9077 </r>
       <r>    -6.7026    11.8335    24.4795 </r>
       <r>    -6.6543     7.9155    24.8620 </r>
       <r>    -6.6060     4.0774    25.0590 </r>
       <r>    -6.5576     1.1304    25.1136 </r>
       <r>    -6.5093    -0.6542    25.0820 </r>
       <r>    -6.4610    -1.5007    25.0095 </r>
       <r>    -6.4127    -1.7355    24.9256 </r>
       <r>    -6.3643    -1.3760    24.8591 </r>
       <r>    -6.3160     0.0032    24.8593 </r>
       <r>    -6.2677     2.9916    25.0038 </r>
       <r>    -6.2194     7.7454    25.3781 </r>
       <r>    -6.1711    13.4471    26.0279 </r>
       <r>    -6.1227    18.3312    26.9137 </r>
       <r>    -6.0744    20.4787    27.9032 </r>
       <r>    -6.0261    18.9359    28.8182 </r>
       <r>    -5.9778    14.3089    29.5097 </r>
       <r>    -5.9295     8.3528    29.9133 </r>
       <r>    -5.8811     2.9247    30.0546 </r>
       <r>    -5.8328    -0.8266    30.0147 </r>
       <r>    -5.7845    -2.4877    29.8945 </r>
       <r>    -5.7362    -1.8576    29.8047 </r>
       <r>    -5.6879     1.4194    29.8733 </r>
       <r>    -5.6395     7.5748    30.2393 </r>
       <r>    -5.5912    16.0022    31.0126 </r>
       <r>    -5.5429    24.8884    32.2152 </r>
       <r>    -5.4946    31.8189    33.7527 </r>
       <r>    -5.4462    35.1022    35.4489 </r>
       <r>    -5.3979    34.7394    37.1276 </r>
       <r>    -5.3496    32.1461    38.6809 </r>
       <r>    -5.3013    28.8758    40.0762 </r>
       <r>    -5.2530    25.5249    41.3096 </r>
       <r>    -5.2046    21.7256    42.3594 </r>
       <r>    -5.1563    17.0139    43.1815 </r>
       <r>    -5.1080    11.6056    43.7423 </r>
       <r>    -5.0597     6.4012    44.0517 </r>
       <r>    -5.0114     2.3744    44.1664 </r>
       <r>    -4.9630    -0.0189    44.1655 </r>
       <r>    -4.9147    -0.9680    44.1187 </r>
       <r>    -4.8664    -1.0227    44.0693 </r>
       <r>    -4.8181    -0.7244    44.0343 </r>
       <r>    -4.7697    -0.4063    44.0147 </r>
       <r>    -4.7214    -0.1902    44.0055 </r>
       <r>    -4.6731    -0.0761    44.0018 </r>
       <r>    -4.6248    -0.0263    44.0005 </r>
       <r>    -4.5765    -0.0079    44.0001 </r>
       <r>    -4.5281    -0.0021    44.0000 </r>
       <r>    -4.4798    -0.0005    44.0000 </r>
       <r>    -4.4315    -0.0001    44.0000 </r>
       <r>    -4.3832    -0.0000    44.0000 </r>
       <r>    -4.3349    -0.0000    44.0000 </r>
       <r>    -4.2865    -0.0000    44.0000 </r>
       <r>    -4.2382    -0.0000    44.0000 </r>
       <r>    -4.1899    -0.0000    44.0000 </r>
       <r>    -4.1416    -0.0000    44.0000 </r>
       <r>    -4.0932    -0.0000    44.0000 </r>
       <r>    -4.0449    -0.0000    44.0000 </r>
       <r>    -3.9966    -0.0000    44.0000 </r>
       <r>    -3.9483    -0.0000    44.0000 </r>
       <r>    -3.9000    -0.0000    44.0000 </r>
       <r>    -3.8516    -0.0001    44.0000 </r>
       <r>    -3.8033    -0.0005    44.0000 </r>
       <r>    -3.7550    -0.0019    43.9999 </r>
       <r>    -3.7067    -0.0064    43.9996 </r>
       <r>    -3.6584    -0.0186    43.9987 </r>
       <r>    -3.6100    -0.0468    43.9964 </r>
       <r>    -3.5617    -0.0997    43.9916 </r>
       <r>    -3.5134    -0.1746    43.9831 </r>
       <r>    -3.4651    -0.2355    43.9718 </r>
       <r>    -3.4168    -0.1930    43.9624 </r>
       <r>    -3.3684     0.0810    43.9664 </r>
       <r>    -3.3201     0.6802    43.9992 </r>
       <r>    -3.2718     1.5622    44.0747 </r>
       <r>    -3.2235     2.5236    44.1967 </r>
       <r>    -3.1751     3.3455    44.3583 </r>
       <r>    -3.1268     4.0475    44.5539 </r>
       <r>    -3.0785     4.9947    44.7952 </r>
       <r>    -3.0302     6.6341    45.1158 </r>
       <r>    -2.9819     8.9782    45.5497 </r>
       <r>    -2.9335    11.3042    46.0959 </r>
       <r>    -2.8852    12.4661    46.6983 </r>
       <r>    -2.8369    11.6633    47.2619 </r>
       <r>    -2.7886     9.0350    47.6984 </r>
       <r>    -2.7403     5.5712    47.9676 </r>
       <r>    -2.6919     2.4550    48.0863 </r>
       <r>    -2.6436     0.4070    48.1059 </r>
       <r>    -2.5953    -0.5144    48.0811 </r>
       <r>    -2.5470    -0.6745    48.0485 </r>
       <r>    -2.4986    -0.5048    48.0241 </r>
       <r>    -2.4503    -0.2897    48.0101 </r>
       <r>    -2.4020    -0.1433    48.0032 </r>
       <r>    -2.3537    -0.0809    47.9993 </r>
       <r>    -2.3054    -0.0910    47.9949 </r>
       <r>    -2.2570    -0.1680    47.9867 </r>
       <r>    -2.2087    -0.3018    47.9722 </r>
       <r>    -2.1604    -0.4329    47.9512 </r>
       <r>    -2.1121    -0.3976    47.9320 </r>
       <r>    -2.0638     0.0805    47.9359 </r>
       <r>    -2.0154     1.2814    47.9978 </r>
       <r>    -1.9671     3.2586    48.1553 </r>
       <r>    -1.9188     5.6297    48.4273 </r>
       <r>    -1.8705     7.6122    48.7952 </r>
       <r>    -1.8222     8.3946    49.2008 </r>
       <r>    -1.7738     7.6273    49.5694 </r>
       <r>    -1.7255     5.6531    49.8425 </r>
       <r>    -1.6772     3.2816    50.0011 </r>
       <r>    -1.6289     1.2977    50.0638 </r>
       <r>    -1.5805     0.0886    50.0681 </r>
       <r>    -1.5322    -0.3955    50.0490 </r>
       <r>    -1.4839    -0.4335    50.0280 </r>
       <r>    -1.4356    -0.3021    50.0134 </r>
       <r>    -1.3873    -0.1648    50.0055 </r>
       <r>    -1.3389    -0.0772    50.0017 </r>
       <r>    -1.2906    -0.0409    49.9998 </r>
       <r>    -1.2423    -0.0485    49.9974 </r>
       <r>    -1.1940    -0.1067    49.9923 </r>
       <r>    -1.1457    -0.2350    49.9809 </r>
       <r>    -1.0973    -0.4383    49.9597 </r>
       <r>    -1.0490    -0.6438    49.9286 </r>
       <r>    -1.0007    -0.6227    49.8985 </r>
       <r>    -0.9524     0.0244    49.8997 </r>
       <r>    -0.9040     1.7154    49.9826 </r>
       <r>    -0.8557     4.5555    50.2027 </r>
       <r>    -0.8074     8.0312    50.5908 </r>
       <r>    -0.7591    11.0618    51.1253 </r>
       <r>    -0.7108    12.5399    51.7313 </r>
       <r>    -0.6624    12.0333    52.3127 </r>
       <r>    -0.6141    10.0607    52.7989 </r>
       <r>    -0.5658     7.6744    53.1697 </r>
       <r>    -0.5175     5.7139    53.4458 </r>
       <r>    -0.4692     4.3731    53.6571 </r>
       <r>    -0.4208     3.3569    53.8193 </r>
       <r>    -0.3725     2.3370    53.9323 </r>
       <r>    -0.3242     1.2474    53.9925 </r>
       <r>    -0.2759     0.2554    54.0049 </r>
       <r>    -0.2275    -0.4077    53.9852 </r>
       <r>    -0.1792    -0.5353    53.9593 </r>
       <r>    -0.1309     0.0581    53.9621 </r>
       <r>    -0.0826     1.4911    54.0342 </r>
       <r>    -0.0343     3.6476    54.2104 </r>
       <r>     0.0141     6.0219    54.5014 </r>
       <r>     0.0624     7.8068    54.8787 </r>
       <r>     0.1107     8.2809    55.2788 </r>
       <r>     0.1590     7.2466    55.6290 </r>
       <r>     0.2073     5.1628    55.8784 </r>
       <r>     0.2557     2.8522    56.0163 </r>
       <r>     0.3040     1.0243    56.0657 </r>
       <r>     0.3523    -0.0283    56.0644 </r>
       <r>     0.4006    -0.4111    56.0445 </r>
       <r>     0.4489    -0.4077    56.0248 </r>
       <r>     0.4973    -0.2722    56.0117 </r>
       <r>     0.5456    -0.1438    56.0047 </r>
       <r>     0.5939    -0.0633    56.0017 </r>
       <r>     0.6422    -0.0237    56.0005 </r>
       <r>     0.6906    -0.0077    56.0001 </r>
       <r>     0.7389    -0.0022    56.0000 </r>
       <r>     0.7872    -0.0005    56.0000 </r>
       <r>     0.8355    -0.0001    56.0000 </r>
       <r>     0.8838    -0.0000    56.0000 </r>
       <r>     0.9322    -0.0000    56.0000 </r>
       <r>     0.9805    -0.0000    56.0000 </r>
       <r>     1.0288    -0.0000    56.0000 </r>
       <r>     1.0771    -0.0000    56.0000 </r>
       <r>     1.1254    -0.0000    56.0000 </r>
       <r>     1.1738    -0.0000    56.0000 </r>
       <r>     1.2221    -0.0000    56.0000 </r>
       <r>     1.2704    -0.0000    56.0000 </r>
       <r>     1.3187    -0.0000    56.0000 </r>
       <r>     1.3671     0.0000    56.0000 </r>
       <r>     1.4154     0.0000    56.0000 </r>
       <r>     1.4637     0.0000    56.0000 </r>
       <r>     1.5120     0.0000    56.0000 </r>
       <r>     1.5603     0.0000    56.0000 </r>
       <r>     1.6087     0.0000    56.0000 </r>
       <r>     1.6570     0.0000    56.0000 </r>
       <r>     1.7053     0.0000    56.0000 </r>
       <r>     1.7536     0.0000    56.0000 </r>
       <r>     1.8019     0.0000    56.0000 </r>
       <r>     1.8503     0.0000    56.0000 </r>
       <r>     1.8986     0.0000    56.0000 </r>
       <r>     1.9469     0.0000    56.0000 </r>
       <r>     1.9952     0.0000    56.0000 </r>
       <r>     2.0435     0.0000    56.0000 </r>
       <r>     2.0919     0.0000    56.0000 </r>
      </set>
     </set>
    </array>
   </total>
  </dos>
 </calculation>
 <structure name="finalpos" >
  <crystal>
   <varray name="basis" >
    <v>      22.14546168       0.00000000       0.00000000 </v>
    <v>       0.00000000      21.96990740       0.00000000 </v>
    <v>       0.00000000       0.00000000      22.10677943 </v>
   </varray>
   <i name="volume">  10755.69413154 </i>
   <varray name="rec_basis" >
    <v>       0.04515598       0.00000000       0.00000000 </v>
    <v>       0.00000000       0.04551681       0.00000000 </v>
    <v>       0.00000000       0.00000000       0.04523499 </v>
   </varray>
  </crystal>
  <varray name="positions" >
   <v>       0.59457997       0.46163359       0.58299388 </v>
   <v>       0.46433090       0.60129293       0.55503299 </v>
   <v>       0.41500116       0.41592758       0.53353452 </v>
   <v>       0.53110692       0.50051540       0.40545942 </v>
   <v>       0.48380523       0.49162943       0.58654875 </v>
   <v>       0.55238796       0.54141657       0.51100293 </v>
   <v>       0.52304931       0.43196278       0.49789374 </v>
   <v>       0.44621387       0.51428282       0.48158146 </v>
  </varray>
 </structure>
</modeling>
