unknown system                          
            1
    22.145462    0.000000    0.000000
     0.000000   21.969907    0.000000
     0.000000    0.000000   22.106779
   Au   Cu
     4     4
Direct configuration=     1
   0.59463066  0.46159640  0.58306325
   0.46426863  0.60129671  0.55501024
   0.41501442  0.41592162  0.53354262
   0.53110818  0.50051553  0.40535794
   0.48379465  0.49163000  0.58654182
   0.55243712  0.54141634  0.51104008
   0.52299503  0.43194073  0.49788019
   0.44622663  0.51434377  0.48161154
Direct configuration=     2
   0.59459692  0.46162116  0.58301707
   0.46431008  0.60129419  0.55502539
   0.41500559  0.41592559  0.53353723
   0.53110734  0.50051544  0.40542549
   0.48380169  0.49162962  0.58654643
   0.55240440  0.54141649  0.51101535
   0.52303116  0.43195541  0.49788921
   0.44621814  0.51430320  0.48159152
Direct configuration=     3
   0.59457997  0.46163359  0.58299388
   0.46433090  0.60129293  0.55503299
   0.41500116  0.41592758  0.53353452
   0.53110692  0.50051540  0.40545942
   0.48380523  0.49162943  0.58654875
   0.55238796  0.54141657  0.51100293
   0.52304931  0.43196278  0.49789374
   0.44621387  0.51428282  0.48158146
