  16  16   0   0
  0.8709723E+03  0.2371109E-08  0.2239030E-08  0.2624901E-08  0.5000000E-15
   1.0000000000000000E-004
  CAR 
 unknown system                          
      2.26468160    -10.85389949  301     -4.16286744      1.00000000
    -10.854  0.0000E+00  0.0000E+00  0.0000E+00  0.0000E+00
    -10.810  0.0000E+00  0.0000E+00  0.0000E+00  0.0000E+00
    -10.766  0.0000E+00  0.0000E+00  0.0000E+00  0.0000E+00
    -10.723  0.0000E+00  0.0000E+00  0.0000E+00  0.0000E+00
    -10.679  0.0000E+00  0.0000E+00  0.0000E+00  0.0000E+00
    -10.635  0.0000E+00  0.0000E+00  0.0000E+00  0.0000E+00
    -10.592  0.0000E+00  0.0000E+00  0.0000E+00  0.0000E+00
    -10.548  0.0000E+00  0.0000E+00  0.0000E+00  0.0000E+00
    -10.504  0.0000E+00  0.0000E+00  0.0000E+00  0.0000E+00
    -10.460 -0.4958E-29  0.0000E+00 -0.2168E-30  0.0000E+00
    -10.417 -0.1492E-27 -0.1580E-29 -0.6741E-29 -0.6910E-31
    -10.373 -0.4199E-26 -0.4912E-28 -0.1903E-27 -0.2217E-29
    -10.329 -0.1073E-24 -0.1427E-26 -0.4880E-26 -0.6461E-28
    -10.285 -0.2487E-23 -0.3762E-25 -0.1136E-24 -0.1710E-26
    -10.242 -0.5233E-22 -0.9002E-24 -0.2402E-23 -0.4107E-25
    -10.198 -0.9992E-21 -0.1955E-22 -0.4610E-22 -0.8961E-24
    -10.154 -0.1731E-19 -0.3854E-21 -0.8032E-21 -0.1775E-22
    -10.111 -0.2722E-18 -0.6893E-20 -0.1270E-19 -0.3192E-21
    -10.067 -0.3881E-17 -0.1119E-18 -0.1824E-18 -0.5211E-20
    -10.023 -0.4892E-16 -0.1647E-17 -0.2321E-17 -0.7722E-19
     -9.979 -0.5695E-15 -0.2072E-16 -0.2722E-16 -0.9831E-18
     -9.936 -0.6044E-14 -0.2586E-15 -0.2915E-15 -0.1229E-16
     -9.892 -0.5806E-13 -0.2826E-14 -0.2831E-14 -0.1359E-15
     -9.848 -0.5052E-12 -0.2803E-13 -0.2492E-13 -0.1362E-14
     -9.804 -0.3979E-11 -0.2519E-12 -0.1989E-12 -0.1238E-13
     -9.761 -0.2837E-10 -0.2050E-11 -0.1439E-11 -0.1020E-12
     -9.717 -0.1829E-09 -0.1510E-10 -0.9435E-11 -0.7623E-12
     -9.673 -0.1065E-08 -0.1006E-09 -0.5602E-10 -0.5161E-11
     -9.629 -0.5605E-08 -0.6058E-09 -0.3011E-09 -0.3165E-10
     -9.586 -0.2660E-07 -0.3296E-08 -0.1465E-08 -0.1758E-09
     -9.542 -0.1138E-06 -0.1618E-07 -0.6439E-08 -0.8833E-09
     -9.498 -0.4376E-06 -0.7160E-07 -0.2557E-07 -0.4014E-08
     -9.455 -0.1510E-05 -0.2851E-06 -0.9162E-07 -0.1648E-07
     -9.411 -0.4666E-05 -0.1020E-05 -0.2957E-06 -0.6109E-07
     -9.367 -0.1285E-04 -0.3268E-05 -0.8574E-06 -0.2040E-06
     -9.323 -0.3132E-04 -0.9348E-05 -0.2227E-05 -0.6128E-06
     -9.280 -0.6702E-04 -0.2374E-04 -0.5158E-05 -0.1651E-05
     -9.236 -0.1237E-03 -0.5308E-04 -0.1057E-04 -0.3972E-05
     -9.192 -0.1909E-03 -0.1031E-03 -0.1892E-04 -0.8480E-05
     -9.148 -0.2270E-03 -0.1696E-03 -0.2884E-04 -0.1589E-04
     -9.105 -0.1485E-03 -0.2229E-03 -0.3534E-04 -0.2564E-04
     -9.061  0.1570E-03 -0.1934E-03 -0.2847E-04 -0.3409E-04
     -9.017  0.7796E-03  0.2577E-04  0.5617E-05 -0.3297E-04
     -8.974  0.1709E-02  0.5403E-03  0.8034E-04 -0.9341E-05
     -8.930  0.2777E-02  0.1383E-02  0.2018E-03  0.5112E-04
     -8.886  0.3677E-02  0.2441E-02  0.3625E-03  0.1579E-03
     -8.842  0.4085E-02  0.3453E-02  0.5412E-03  0.3089E-03
     -8.799  0.3818E-02  0.4091E-02  0.7081E-03  0.4878E-03
     -8.755  0.2943E-02  0.4118E-02  0.8368E-03  0.6678E-03
     -8.711  0.1772E-02  0.3509E-02  0.9143E-03  0.8213E-03
     -8.667  0.7457E-03  0.2460E-02  0.9469E-03  0.9289E-03
     -8.624  0.2839E-03  0.1286E-02  0.9593E-03  0.9851E-03
     -8.580  0.6573E-03  0.2767E-03  0.9881E-03  0.9972E-03
     -8.536  0.1895E-02 -0.3686E-03  0.1071E-02  0.9810E-03
     -8.493  0.3758E-02 -0.5278E-03  0.1235E-02  0.9580E-03
     -8.449  0.5810E-02 -0.1048E-03  0.1489E-02  0.9534E-03
     -8.405  0.7616E-02  0.9622E-03  0.1822E-02  0.9955E-03
     -8.361  0.8963E-02  0.2615E-02  0.2214E-02  0.1110E-02
     -8.318  0.9967E-02  0.4582E-02  0.2650E-02  0.1310E-02
     -8.274  0.1095E-01  0.6408E-02  0.3129E-02  0.1590E-02
     -8.230  0.1215E-01  0.7643E-02  0.3660E-02  0.1925E-02
     -8.186  0.1352E-01  0.8118E-02  0.4251E-02  0.2280E-02
     -8.143  0.1475E-01  0.8078E-02  0.4897E-02  0.2633E-02
     -8.099  0.1546E-01  0.8067E-02  0.5573E-02  0.2986E-02
     -8.055  0.1543E-01  0.8592E-02  0.6248E-02  0.3361E-02
     -8.012  0.1466E-01  0.9805E-02  0.6889E-02  0.3790E-02
     -7.968  0.1337E-01  0.1143E-01  0.7473E-02  0.4290E-02
     -7.924  0.1187E-01  0.1293E-01  0.7992E-02  0.4855E-02
     -7.880  0.1057E-01  0.1385E-01  0.8455E-02  0.5461E-02
     -7.837  0.9863E-02  0.1396E-01  0.8886E-02  0.6071E-02
     -7.793  0.9955E-02  0.1339E-01  0.9321E-02  0.6657E-02
     -7.749  0.1073E-01  0.1243E-01  0.9791E-02  0.7200E-02
     -7.705  0.1176E-01  0.1144E-01  0.1031E-01  0.7700E-02
     -7.662  0.1250E-01  0.1074E-01  0.1085E-01  0.8170E-02
     -7.618  0.1268E-01  0.1051E-01  0.1141E-01  0.8630E-02
     -7.574  0.1243E-01  0.1077E-01  0.1195E-01  0.9100E-02
     -7.531  0.1225E-01  0.1131E-01  0.1249E-01  0.9595E-02
     -7.487  0.1266E-01  0.1177E-01  0.1304E-01  0.1011E-01
     -7.443  0.1388E-01  0.1182E-01  0.1365E-01  0.1063E-01
     -7.399  0.1573E-01  0.1134E-01  0.1433E-01  0.1112E-01
     -7.356  0.1770E-01  0.1053E-01  0.1511E-01  0.1158E-01
     -7.312  0.1922E-01  0.9888E-02  0.1595E-01  0.1202E-01
     -7.268  0.1995E-01  0.9998E-02  0.1682E-01  0.1245E-01
     -7.224  0.1989E-01  0.1123E-01  0.1769E-01  0.1294E-01
     -7.181  0.1928E-01  0.1350E-01  0.1853E-01  0.1353E-01
     -7.137  0.1842E-01  0.1628E-01  0.1934E-01  0.1425E-01
     -7.093  0.1757E-01  0.1876E-01  0.2011E-01  0.1507E-01
     -7.050  0.1693E-01  0.2031E-01  0.2085E-01  0.1595E-01
     -7.006  0.1664E-01  0.2073E-01  0.2158E-01  0.1686E-01
     -6.962  0.1686E-01  0.2029E-01  0.2231E-01  0.1775E-01
     -6.918  0.1758E-01  0.1951E-01  0.2308E-01  0.1860E-01
     -6.875  0.1860E-01  0.1878E-01  0.2389E-01  0.1942E-01
     -6.831  0.1949E-01  0.1825E-01  0.2475E-01  0.2022E-01
     -6.787  0.1979E-01  0.1788E-01  0.2561E-01  0.2100E-01
     -6.743  0.1934E-01  0.1766E-01  0.2646E-01  0.2177E-01
     -6.700  0.1836E-01  0.1761E-01  0.2726E-01  0.2254E-01
     -6.656  0.1740E-01  0.1780E-01  0.2802E-01  0.2332E-01
     -6.612  0.1697E-01  0.1816E-01  0.2876E-01  0.2412E-01
     -6.568  0.1723E-01  0.1843E-01  0.2952E-01  0.2492E-01
     -6.525  0.1788E-01  0.1838E-01  0.3030E-01  0.2573E-01
     -6.481  0.1836E-01  0.1791E-01  0.3110E-01  0.2651E-01
     -6.437  0.1821E-01  0.1725E-01  0.3190E-01  0.2726E-01
     -6.394  0.1723E-01  0.1678E-01  0.3265E-01  0.2800E-01
     -6.350  0.1556E-01  0.1682E-01  0.3333E-01  0.2873E-01
     -6.306  0.1360E-01  0.1734E-01  0.3393E-01  0.2949E-01
     -6.262  0.1186E-01  0.1797E-01  0.3445E-01  0.3028E-01
     -6.219  0.1080E-01  0.1818E-01  0.3492E-01  0.3107E-01
     -6.175  0.1065E-01  0.1764E-01  0.3538E-01  0.3184E-01
     -6.131  0.1124E-01  0.1631E-01  0.3587E-01  0.3256E-01
     -6.087  0.1213E-01  0.1447E-01  0.3641E-01  0.3319E-01
     -6.044  0.1286E-01  0.1255E-01  0.3697E-01  0.3374E-01
     -6.000  0.1320E-01  0.1102E-01  0.3755E-01  0.3422E-01
     -5.956  0.1328E-01  0.1022E-01  0.3813E-01  0.3467E-01
     -5.913  0.1349E-01  0.1031E-01  0.3872E-01  0.3512E-01
     -5.869  0.1416E-01  0.1118E-01  0.3933E-01  0.3561E-01
     -5.825  0.1537E-01  0.1249E-01  0.4001E-01  0.3615E-01
     -5.781  0.1685E-01  0.1381E-01  0.4074E-01  0.3676E-01
     -5.738  0.1813E-01  0.1483E-01  0.4154E-01  0.3741E-01
     -5.694  0.1884E-01  0.1546E-01  0.4236E-01  0.3808E-01
     -5.650  0.1893E-01  0.1584E-01  0.4319E-01  0.3878E-01
     -5.606  0.1877E-01  0.1622E-01  0.4401E-01  0.3948E-01
     -5.563  0.1894E-01  0.1672E-01  0.4484E-01  0.4022E-01
     -5.519  0.1992E-01  0.1731E-01  0.4571E-01  0.4097E-01
     -5.475  0.2184E-01  0.1778E-01  0.4666E-01  0.4175E-01
     -5.432  0.2437E-01  0.1799E-01  0.4773E-01  0.4254E-01
     -5.388  0.2697E-01  0.1803E-01  0.4891E-01  0.4333E-01
     -5.344  0.2911E-01  0.1827E-01  0.5018E-01  0.4412E-01
     -5.300  0.3056E-01  0.1917E-01  0.5152E-01  0.4496E-01
     -5.257  0.3140E-01  0.2101E-01  0.5289E-01  0.4588E-01
     -5.213  0.3191E-01  0.2365E-01  0.5429E-01  0.4692E-01
     -5.169  0.3234E-01  0.2655E-01  0.5570E-01  0.4808E-01
     -5.125  0.3277E-01  0.2901E-01  0.5713E-01  0.4935E-01
     -5.082  0.3307E-01  0.3056E-01  0.5858E-01  0.5068E-01
     -5.038  0.3305E-01  0.3120E-01  0.6002E-01  0.5205E-01
     -4.994  0.3256E-01  0.3126E-01  0.6145E-01  0.5341E-01
     -4.951  0.3160E-01  0.3118E-01  0.6283E-01  0.5478E-01
     -4.907  0.3035E-01  0.3121E-01  0.6416E-01  0.5614E-01
     -4.863  0.2909E-01  0.3126E-01  0.6543E-01  0.5751E-01
     -4.819  0.2811E-01  0.3108E-01  0.6666E-01  0.5887E-01
     -4.776  0.2765E-01  0.3047E-01  0.6787E-01  0.6020E-01
     -4.732  0.2783E-01  0.2940E-01  0.6908E-01  0.6149E-01
     -4.688  0.2868E-01  0.2807E-01  0.7034E-01  0.6271E-01
     -4.644  0.3015E-01  0.2679E-01  0.7166E-01  0.6388E-01
     -4.601  0.3198E-01  0.2587E-01  0.7306E-01  0.6502E-01
     -4.557  0.3364E-01  0.2548E-01  0.7453E-01  0.6613E-01
     -4.513  0.3443E-01  0.2564E-01  0.7603E-01  0.6725E-01
     -4.470  0.3373E-01  0.2619E-01  0.7751E-01  0.6840E-01
     -4.426  0.3131E-01  0.2688E-01  0.7888E-01  0.6957E-01
     -4.382  0.2753E-01  0.2742E-01  0.8008E-01  0.7077E-01
     -4.338  0.2312E-01  0.2757E-01  0.8109E-01  0.7198E-01
     -4.295  0.1882E-01  0.2722E-01  0.8191E-01  0.7317E-01
     -4.251  0.1503E-01  0.2642E-01  0.8257E-01  0.7432E-01
     -4.207  0.1179E-01  0.2540E-01  0.8309E-01  0.7543E-01
     -4.163  0.9003E-02  0.2446E-01  0.8348E-01  0.7650E-01
     -4.120  0.6624E-02  0.2384E-01  0.8377E-01  0.7754E-01
     -4.076  0.4804E-02  0.2359E-01  0.8398E-01  0.7858E-01
     -4.032  0.3719E-02  0.2346E-01  0.8414E-01  0.7960E-01
     -3.989  0.3370E-02  0.2306E-01  0.8429E-01  0.8061E-01
     -3.945  0.3489E-02  0.2199E-01  0.8444E-01  0.8157E-01
     -3.901  0.3639E-02  0.2004E-01  0.8460E-01  0.8245E-01
     -3.857  0.3449E-02  0.1728E-01  0.8475E-01  0.8320E-01
     -3.814  0.2793E-02  0.1403E-01  0.8487E-01  0.8382E-01
     -3.770  0.1817E-02  0.1070E-01  0.8495E-01  0.8429E-01
     -3.726  0.8214E-03  0.7639E-02  0.8499E-01  0.8462E-01
     -3.682  0.1066E-03  0.5035E-02  0.8499E-01  0.8484E-01
     -3.639 -0.1242E-03  0.2939E-02  0.8499E-01  0.8497E-01
     -3.595  0.2109E-03  0.1344E-02  0.8500E-01  0.8503E-01
     -3.551  0.1082E-02  0.2425E-03  0.8505E-01  0.8504E-01
     -3.507  0.2355E-02 -0.3549E-03  0.8515E-01  0.8502E-01
     -3.464  0.3805E-02 -0.4295E-03  0.8532E-01  0.8500E-01
     -3.420  0.5153E-02  0.2098E-04  0.8554E-01  0.8500E-01
     -3.376  0.6132E-02  0.9529E-03  0.8581E-01  0.8505E-01
     -3.333  0.6546E-02  0.2246E-02  0.8609E-01  0.8514E-01
     -3.289  0.6311E-02  0.3693E-02  0.8637E-01  0.8531E-01
     -3.245  0.5468E-02  0.5034E-02  0.8661E-01  0.8553E-01
     -3.201  0.4186E-02  0.6015E-02  0.8679E-01  0.8579E-01
     -3.158  0.2742E-02  0.6450E-02  0.8691E-01  0.8607E-01
     -3.114  0.1474E-02  0.6256E-02  0.8698E-01  0.8635E-01
     -3.070  0.6849E-03  0.5465E-02  0.8701E-01  0.8658E-01
     -3.026  0.5579E-03  0.4241E-02  0.8703E-01  0.8677E-01
     -2.983  0.1079E-02  0.2869E-02  0.8708E-01  0.8689E-01
     -2.939  0.2024E-02  0.1702E-02  0.8717E-01  0.8697E-01
     -2.895  0.3027E-02  0.1059E-02  0.8730E-01  0.8702E-01
     -2.852  0.3718E-02  0.1097E-02  0.8746E-01  0.8706E-01
     -2.808  0.3906E-02  0.1731E-02  0.8763E-01  0.8714E-01
     -2.764  0.3668E-02  0.2655E-02  0.8779E-01  0.8726E-01
     -2.720  0.3299E-02  0.3472E-02  0.8794E-01  0.8741E-01
     -2.677  0.3116E-02  0.3894E-02  0.8807E-01  0.8758E-01
     -2.633  0.3256E-02  0.3885E-02  0.8822E-01  0.8775E-01
     -2.589  0.3614E-02  0.3650E-02  0.8837E-01  0.8791E-01
     -2.545  0.3967E-02  0.3480E-02  0.8855E-01  0.8806E-01
     -2.502  0.4157E-02  0.3533E-02  0.8873E-01  0.8821E-01
     -2.458  0.4196E-02  0.3752E-02  0.8891E-01  0.8838E-01
     -2.414  0.4190E-02  0.3949E-02  0.8910E-01  0.8855E-01
     -2.371  0.4198E-02  0.3994E-02  0.8928E-01  0.8873E-01
     -2.327  0.4151E-02  0.3921E-02  0.8946E-01  0.8890E-01
     -2.283  0.3936E-02  0.3871E-02  0.8963E-01  0.8907E-01
     -2.239  0.3549E-02  0.3925E-02  0.8979E-01  0.8924E-01
     -2.196  0.3152E-02  0.3997E-02  0.8993E-01  0.8941E-01
     -2.152  0.2974E-02  0.3905E-02  0.9006E-01  0.8958E-01
     -2.108  0.3120E-02  0.3542E-02  0.9019E-01  0.8974E-01
     -2.064  0.3458E-02  0.3012E-02  0.9034E-01  0.8987E-01
     -2.021  0.3696E-02  0.2586E-02  0.9051E-01  0.8998E-01
     -1.977  0.3594E-02  0.2511E-02  0.9066E-01  0.9009E-01
     -1.933  0.3157E-02  0.2820E-02  0.9080E-01  0.9022E-01
     -1.890  0.2657E-02  0.3301E-02  0.9092E-01  0.9036E-01
     -1.846  0.2465E-02  0.3655E-02  0.9103E-01  0.9052E-01
     -1.802  0.2820E-02  0.3725E-02  0.9115E-01  0.9068E-01
     -1.758  0.3694E-02  0.3617E-02  0.9131E-01  0.9084E-01
     -1.715  0.4813E-02  0.3626E-02  0.9152E-01  0.9100E-01
     -1.671  0.5820E-02  0.4016E-02  0.9177E-01  0.9118E-01
     -1.627  0.6452E-02  0.4818E-02  0.9206E-01  0.9139E-01
     -1.583  0.6637E-02  0.5798E-02  0.9235E-01  0.9164E-01
     -1.540  0.6477E-02  0.6596E-02  0.9263E-01  0.9193E-01
     -1.496  0.6145E-02  0.6942E-02  0.9290E-01  0.9223E-01
     -1.452  0.5756E-02  0.6795E-02  0.9315E-01  0.9253E-01
     -1.409  0.5294E-02  0.6330E-02  0.9338E-01  0.9281E-01
     -1.365  0.4646E-02  0.5778E-02  0.9359E-01  0.9306E-01
     -1.321  0.3720E-02  0.5263E-02  0.9375E-01  0.9329E-01
     -1.277  0.2574E-02  0.4724E-02  0.9386E-01  0.9349E-01
     -1.234  0.1461E-02  0.4012E-02  0.9392E-01  0.9367E-01
     -1.190  0.7661E-03  0.3051E-02  0.9396E-01  0.9380E-01
     -1.146  0.8398E-03  0.1975E-02  0.9400E-01  0.9389E-01
     -1.102  0.1829E-02  0.1120E-02  0.9408E-01  0.9394E-01
     -1.059  0.3563E-02  0.8822E-03  0.9423E-01  0.9398E-01
     -1.015  0.5578E-02  0.1521E-02  0.9447E-01  0.9404E-01
     -0.971  0.7308E-02  0.3000E-02  0.9479E-01  0.9418E-01
     -0.928  0.8364E-02  0.4969E-02  0.9516E-01  0.9439E-01
     -0.884  0.8732E-02  0.6903E-02  0.9554E-01  0.9469E-01
     -0.840  0.8715E-02  0.8360E-02  0.9592E-01  0.9506E-01
     -0.796  0.8658E-02  0.9190E-02  0.9630E-01  0.9546E-01
     -0.753  0.8646E-02  0.9532E-02  0.9668E-01  0.9588E-01
     -0.709  0.8435E-02  0.9606E-02  0.9705E-01  0.9630E-01
     -0.665  0.7671E-02  0.9464E-02  0.9738E-01  0.9671E-01
     -0.621  0.6212E-02  0.8928E-02  0.9766E-01  0.9710E-01
     -0.578  0.4304E-02  0.7774E-02  0.9784E-01  0.9744E-01
     -0.534  0.2488E-02  0.6005E-02  0.9795E-01  0.9771E-01
     -0.490  0.1337E-02  0.3970E-02  0.9801E-01  0.9788E-01
     -0.446  0.1197E-02  0.2234E-02  0.9806E-01  0.9798E-01
     -0.403  0.2083E-02  0.1312E-02  0.9815E-01  0.9803E-01
     -0.359  0.3729E-02  0.1446E-02  0.9832E-01  0.9810E-01
     -0.315  0.5728E-02  0.2546E-02  0.9857E-01  0.9821E-01
     -0.272  0.7677E-02  0.4292E-02  0.9890E-01  0.9840E-01
     -0.228  0.9264E-02  0.6294E-02  0.9931E-01  0.9867E-01
     -0.184  0.1029E-01  0.8212E-02  0.9976E-01  0.9903E-01
     -0.140  0.1064E-01  0.9786E-02  0.1002E+00  0.9946E-01
     -0.097  0.1031E-01  0.1082E-01  0.1007E+00  0.9993E-01
     -0.053  0.9420E-02  0.1117E-01  0.1011E+00  0.1004E+00
     -0.009  0.8277E-02  0.1084E-01  0.1014E+00  0.1009E+00
      0.035  0.7317E-02  0.1001E-01  0.1018E+00  0.1013E+00
      0.078  0.6918E-02  0.9075E-02  0.1021E+00  0.1017E+00
      0.122  0.7171E-02  0.8435E-02  0.1024E+00  0.1021E+00
      0.166  0.7766E-02  0.8250E-02  0.1027E+00  0.1025E+00
      0.209  0.8131E-02  0.8314E-02  0.1031E+00  0.1028E+00
      0.253  0.7756E-02  0.8166E-02  0.1034E+00  0.1032E+00
      0.297  0.6489E-02  0.7398E-02  0.1037E+00  0.1035E+00
      0.341  0.4610E-02  0.5926E-02  0.1039E+00  0.1038E+00
      0.384  0.2640E-02  0.4034E-02  0.1040E+00  0.1039E+00
      0.428  0.1049E-02  0.2188E-02  0.1041E+00  0.1040E+00
      0.472  0.5764E-04  0.7725E-03  0.1041E+00  0.1041E+00
      0.516 -0.3768E-03 -0.6407E-04  0.1041E+00  0.1041E+00
      0.559 -0.4431E-03 -0.3988E-03  0.1040E+00  0.1040E+00
      0.603 -0.3426E-03 -0.4203E-03  0.1040E+00  0.1040E+00
      0.647 -0.2117E-03 -0.3111E-03  0.1040E+00  0.1040E+00
      0.690 -0.1107E-03 -0.1872E-03  0.1040E+00  0.1040E+00
      0.734 -0.5035E-04 -0.9612E-04  0.1040E+00  0.1040E+00
      0.778 -0.2017E-04 -0.4308E-04  0.1040E+00  0.1040E+00
      0.822 -0.7181E-05 -0.1706E-04  0.1040E+00  0.1040E+00
      0.865 -0.2283E-05 -0.6014E-05  0.1040E+00  0.1040E+00
      0.909 -0.6509E-06 -0.1897E-05  0.1040E+00  0.1040E+00
      0.953 -0.1668E-06 -0.5369E-06  0.1040E+00  0.1040E+00
      0.997 -0.3850E-07 -0.1367E-06  0.1040E+00  0.1040E+00
      1.040 -0.8016E-08 -0.3140E-07  0.1040E+00  0.1040E+00
      1.084 -0.1507E-08 -0.6507E-08  0.1040E+00  0.1040E+00
      1.128 -0.2562E-09 -0.1219E-08  0.1040E+00  0.1040E+00
      1.171 -0.3939E-10 -0.2064E-09  0.1040E+00  0.1040E+00
      1.215 -0.5483E-11 -0.3164E-10  0.1040E+00  0.1040E+00
      1.259 -0.6912E-12 -0.4391E-11  0.1040E+00  0.1040E+00
      1.303 -0.7895E-13 -0.5520E-12  0.1040E+00  0.1040E+00
      1.346 -0.8170E-14 -0.6289E-13  0.1040E+00  0.1040E+00
      1.390 -0.7667E-15 -0.6494E-14  0.1040E+00  0.1040E+00
      1.434 -0.6601E-16 -0.6043E-15  0.1040E+00  0.1040E+00
      1.478 -0.5078E-17 -0.5586E-16  0.1040E+00  0.1040E+00
      1.521  0.0000E+00 -0.5078E-17  0.1040E+00  0.1040E+00
      1.565  0.0000E+00  0.0000E+00  0.1040E+00  0.1040E+00
      1.609  0.0000E+00  0.0000E+00  0.1040E+00  0.1040E+00
      1.652  0.0000E+00  0.0000E+00  0.1040E+00  0.1040E+00
      1.696  0.0000E+00  0.0000E+00  0.1040E+00  0.1040E+00
      1.740  0.0000E+00  0.0000E+00  0.1040E+00  0.1040E+00
      1.784  0.0000E+00  0.0000E+00  0.1040E+00  0.1040E+00
      1.827  0.0000E+00  0.0000E+00  0.1040E+00  0.1040E+00
      1.871  0.0000E+00  0.0000E+00  0.1040E+00  0.1040E+00
      1.915  0.0000E+00  0.0000E+00  0.1040E+00  0.1040E+00
      1.959  0.0000E+00  0.0000E+00  0.1040E+00  0.1040E+00
      2.002  0.0000E+00  0.0000E+00  0.1040E+00  0.1040E+00
      2.046  0.0000E+00  0.0000E+00  0.1040E+00  0.1040E+00
      2.090  0.0000E+00  0.0000E+00  0.1040E+00  0.1040E+00
      2.133  0.0000E+00  0.0000E+00  0.1040E+00  0.1040E+00
      2.177  0.0000E+00  0.0000E+00  0.1040E+00  0.1040E+00
      2.221  0.0000E+00  0.0000E+00  0.1040E+00  0.1040E+00
      2.265  0.0000E+00  0.0000E+00  0.1040E+00  0.1040E+00
