   16   16 1000    2
  0.8709723E+03  0.2371109E-08  0.2239030E-08  0.2624901E-08  0.5000000E-15
   1.0000000000000000E-004
  CAR 
 unknown system                          
    160      1    104
 
  0.1262379E-14  0.1262379E-14  0.1262379E-14  0.1000000E+01
    1       -8.853899     -8.795888   1.000000   1.000000
    2       -8.412993     -8.252827   1.000000   1.000000
    3       -8.380460     -8.210599   1.000000   1.000000
    4       -8.194709     -8.011168   1.000000   1.000000
    5       -8.184599     -7.940850   1.000000   1.000000
    6       -8.104419     -7.892308   1.000000   1.000000
    7       -8.056683     -7.809474   1.000000   1.000000
    8       -7.943884     -7.732521   1.000000   1.000000
    9       -7.919200     -7.631716   1.000000   1.000000
   10       -7.730710     -7.513977   1.000000   1.000000
   11       -7.682920     -7.461801   1.000000   1.000000
   12       -7.652698     -7.389046   1.000000   1.000000
   13       -7.526020     -7.267852   1.000000   1.000000
   14       -7.449876     -7.144407   1.000000   1.000000
   15       -7.345946     -7.097550   1.000000   1.000000
   16       -7.329682     -7.075458   1.000000   1.000000
   17       -7.316373     -7.053830   1.000000   1.000000
   18       -7.249139     -6.999088   1.000000   1.000000
   19       -7.169144     -6.894941   1.000000   1.000000
   20       -7.131881     -6.878584   1.000000   1.000000
   21       -7.078823     -6.811286   1.000000   1.000000
   22       -7.016084     -6.778332   1.000000   1.000000
   23       -6.946198     -6.696063   1.000000   1.000000
   24       -6.880461     -6.635066   1.000000   1.000000
   25       -6.834944     -6.592490   1.000000   1.000000
   26       -6.780942     -6.523718   1.000000   1.000000
   27       -6.745404     -6.480185   1.000000   1.000000
   28       -6.738826     -6.470181   1.000000   1.000000
   29       -6.604772     -6.325321   1.000000   1.000000
   30       -6.537822     -6.296436   1.000000   1.000000
   31       -6.510778     -6.245561   1.000000   1.000000
   32       -6.488872     -6.218302   1.000000   1.000000
   33       -6.388009     -6.130516   1.000000   1.000000
   34       -6.353568     -6.082289   1.000000   1.000000
   35       -6.282054     -5.978211   1.000000   1.000000
   36       -6.107026     -5.851132   1.000000   1.000000
   37       -6.102580     -5.797475   1.000000   1.000000
   38       -6.021040     -5.741447   1.000000   1.000000
   39       -5.930342     -5.669949   1.000000   1.000000
   40       -5.855261     -5.615007   1.000000   1.000000
   41       -5.765217     -5.509735   1.000000   1.000000
   42       -5.732818     -5.505071   1.000000   1.000000
   43       -5.715560     -5.449511   1.000000   1.000000
   44       -5.639680     -5.368401   1.000000   1.000000
   45       -5.601110     -5.357425   1.000000   1.000000
   46       -5.515531     -5.252141   1.000000   1.000000
   47       -5.468612     -5.219150   1.000000   1.000000
   48       -5.421830     -5.165025   1.000000   1.000000
   49       -5.393290     -5.145899   1.000000   1.000000
   50       -5.387813     -5.128659   1.000000   1.000000
   51       -5.325903     -5.098928   1.000000   1.000000
   52       -5.303260     -5.070671   1.000000   1.000000
   53       -5.281758     -5.027066   1.000000   1.000000
   54       -5.240980     -5.002046   1.000000   1.000000
   55       -5.200592     -4.951478   1.000000   1.000000
   56       -5.182416     -4.908993   1.000000   1.000001
   57       -5.122721     -4.889661   1.000000   1.000002
   58       -5.116093     -4.867899   1.000000   1.000004
   59       -5.081684     -4.832962   1.000000   1.000012
   60       -5.067074     -4.812840   1.000000   1.000022
   61       -5.023344     -4.761932   1.000000   1.000096
   62       -4.986494     -4.725922   1.000000   1.000253
   63       -4.967393     -4.701606   1.000000   1.000467
   64       -4.934572     -4.677986   1.000000   1.000821
   65       -4.899174     -4.611280   1.000001   1.003388
   66       -4.863448     -4.580989   1.000004   1.005901
   67       -4.838375     -4.546129   1.000010   1.010378
   68       -4.773617     -4.493299   1.000069   1.020675
   69       -4.745956     -4.458350   1.000149   1.028646
   70       -4.711285     -4.418054   1.000367   1.035081
   71       -4.696488     -4.408746   1.000529   1.035455
   72       -4.659649     -4.355490   1.001244   1.020864
   73       -4.592708     -4.297687   1.004794   0.950502
   74       -4.566380     -4.280186   1.007550   0.913906
   75       -4.555118     -4.268123   1.009043   0.884188
   76       -4.519975     -4.221879   1.014994   0.738054
   77       -4.492702     -4.147490   1.020811   0.435145
   78       -4.475702     -4.121647   1.024724   0.329621
   79       -4.436955     -4.068792   1.032797   0.146605
   80       -4.435920     -4.032800   1.032963   0.058674
   81       -4.399427     -3.994519   1.035171   0.000031
   82       -4.294826     -3.931105   0.945045  -0.034726
   83       -4.256235     -3.910162   0.851344  -0.035238
   84       -4.171923     -3.867849   0.538276  -0.028747
   85       -3.911348     -3.731511  -0.035299  -0.004664
   86       -3.423341     -3.246753  -0.000001  -0.000000
   87       -3.271025     -3.091290  -0.000000  -0.000000
   88       -2.848290     -2.702278  -0.000000  -0.000000
   89       -2.558746     -2.427545  -0.000000  -0.000000
   90       -2.315610     -2.170698  -0.000000  -0.000000
   91       -2.021967     -1.856464  -0.000000  -0.000000
   92       -1.710979     -1.591312  -0.000000  -0.000000
   93       -1.567994     -1.470819  -0.000000  -0.000000
   94       -1.377937     -1.267904  -0.000000  -0.000000
   95       -0.970673     -0.873730  -0.000000  -0.000000
   96       -0.936501     -0.833714  -0.000000  -0.000000
   97       -0.730017     -0.641408  -0.000000  -0.000000
   98       -0.685281     -0.613474  -0.000000  -0.000000
   99       -0.315338     -0.246135  -0.000000  -0.000000
  100       -0.206138     -0.130895  -0.000000  -0.000000
  101       -0.115165     -0.036930  -0.000000  -0.000000
  102       -0.026639      0.018049  -0.000000  -0.000000
  103        0.191481      0.216705  -0.000000  -0.000000
  104        0.223540      0.264682  -0.000000  -0.000000
