       N       E                     dE             d eps       ncg     rms          rms(c)
DAV:   1     0.142862692184E+04    0.14286E+04   -0.27522E+04   416   0.739E+02
DAV:   2     0.717920701425E+03   -0.71071E+03   -0.63824E+03   800   0.904E+01
DAV:   3     0.124836741571E+03   -0.59308E+03   -0.55458E+03   680   0.845E+01
DAV:   4    -0.425025108015E+02   -0.16734E+03   -0.15150E+03   560   0.485E+01
DAV:   5    -0.637419434033E+02   -0.21239E+02   -0.17743E+02   584   0.169E+01    0.266E+01
DAV:   6    -0.572702879764E+02    0.64717E+01   -0.37192E+01   440   0.136E+01    0.141E+01
DAV:   7    -0.552073178431E+02    0.20630E+01   -0.22979E+01   440   0.323E+01    0.279E+01
DAV:   8    -0.514633836981E+02    0.37439E+01   -0.39901E+01   464   0.256E+01    0.205E+01
DAV:   9    -0.470701150383E+02    0.43933E+01   -0.14191E+01   464   0.184E+01    0.112E+01
DAV:  10    -0.473444740128E+02   -0.27436E+00   -0.50743E+00   456   0.131E+01    0.648E+00
DAV:  11    -0.492297708901E+02   -0.18853E+01   -0.21294E+00   448   0.764E+00    0.621E+00
DAV:  12    -0.501696024948E+02   -0.93983E+00   -0.66023E-01   456   0.500E+00    0.354E+00
DAV:  13    -0.515242255309E+02   -0.13546E+01   -0.50278E-01   440   0.342E+00    0.325E+00
DAV:  14    -0.531705501921E+02   -0.16463E+01   -0.54538E-01   440   0.306E+00    0.270E+00
DAV:  15    -0.540041666425E+02   -0.83362E+00   -0.23673E-01   472   0.259E+00    0.229E+00
DAV:  16    -0.550174604276E+02   -0.10133E+01   -0.27404E-01   440   0.244E+00    0.173E+00
DAV:  17    -0.559086849229E+02   -0.89122E+00   -0.17569E-01   440   0.167E+00    0.139E+00
DAV:  18    -0.564311481246E+02   -0.52246E+00   -0.71494E-02   456   0.117E+00    0.108E+00
DAV:  19    -0.571421433341E+02   -0.71100E+00   -0.98059E-02   424   0.979E-01    0.897E-01
DAV:  20    -0.577043713901E+02   -0.56223E+00   -0.61863E-02   464   0.891E-01    0.755E-01
DAV:  21    -0.583621820697E+02   -0.65781E+00   -0.60810E-02   424   0.743E-01    0.830E-01
DAV:  22    -0.587827003298E+02   -0.42052E+00   -0.30510E-02   488   0.676E-01    0.608E-01
DAV:  23    -0.595162011248E+02   -0.73350E+00   -0.76044E-02   424   0.691E-01    0.453E-01
DAV:  24    -0.600533000517E+02   -0.53710E+00   -0.54743E-02   456   0.600E-01    0.373E-01
DAV:  25    -0.603560165438E+02   -0.30272E+00   -0.17473E-02   464   0.449E-01    0.280E-01
DAV:  26    -0.607127106648E+02   -0.35669E+00   -0.13484E-02   480   0.334E-01    0.229E-01
DAV:  27    -0.609720895818E+02   -0.25938E+00   -0.76808E-03   496   0.299E-01    0.196E-01
DAV:  28    -0.611653582842E+02   -0.19327E+00   -0.58147E-03   472   0.244E-01    0.112E-01
DAV:  29    -0.612585902718E+02   -0.93232E-01   -0.20971E-03   472   0.143E-01    0.114E-01
DAV:  30    -0.613114341241E+02   -0.52844E-01   -0.10372E-03   432   0.124E-01    0.644E-02
DAV:  31    -0.613697304933E+02   -0.58296E-01   -0.11538E-03   456   0.786E-02    0.411E-02
DAV:  32    -0.614036977366E+02   -0.33967E-01   -0.54613E-04   392   0.570E-02    0.408E-02
DAV:  33    -0.614199970326E+02   -0.16299E-01   -0.20090E-04   320   0.534E-02    0.285E-02
DAV:  34    -0.614367004307E+02   -0.16703E-01   -0.27616E-04   368   0.353E-02    0.165E-02
DAV:  35    -0.614440014138E+02   -0.73010E-02   -0.51246E-05   304   0.194E-02    0.150E-02
DAV:  36    -0.614480079004E+02   -0.40065E-02   -0.35288E-05   288   0.184E-02    0.132E-02
DAV:  37    -0.614513840472E+02   -0.33761E-02   -0.21347E-05   296   0.144E-02    0.918E-03
DAV:  38    -0.614542647773E+02   -0.28807E-02   -0.21650E-05   272   0.105E-02    0.677E-03
DAV:  39    -0.614557227336E+02   -0.14580E-02   -0.13242E-05   288   0.974E-03    0.567E-03
DAV:  40    -0.614570490849E+02   -0.13264E-02   -0.86654E-06   288   0.757E-03    0.295E-03
DAV:  41    -0.614579632087E+02   -0.91412E-03   -0.47183E-06   272   0.406E-03    0.206E-03
DAV:  42    -0.614585075622E+02   -0.54435E-03   -0.27230E-06   280   0.302E-03    0.148E-03
DAV:  43    -0.614587906329E+02   -0.28307E-03   -0.14162E-06   264   0.227E-03    0.108E-03
DAV:  44    -0.614589916795E+02   -0.20105E-03   -0.10280E-06   264   0.179E-03    0.795E-04
DAV:  45    -0.614591410257E+02   -0.14935E-03   -0.77935E-07   272   0.152E-03    0.526E-04
DAV:  46    -0.614592466849E+02   -0.10566E-03   -0.60908E-07   272   0.129E-03    0.340E-04
DAV:  47    -0.614593080224E+02   -0.61338E-04   -0.35896E-07   280   0.984E-04
   1 F= -.61459308E+02 E0= -.61475365E+02  d E =-.614593E+02  mag=     7.3493
       N       E                     dE             d eps       ncg     rms          rms(c)
DAV:   1    -0.616091797006E+02   -0.14993E+00   -0.18505E+02   416   0.357E+01    0.351E+00
DAV:   2    -0.619077993226E+02   -0.29862E+00   -0.30433E+00   424   0.661E+00    0.414E+00
DAV:   3    -0.618931877332E+02    0.14612E-01   -0.97189E-01   448   0.607E+00    0.352E+00
DAV:   4    -0.618218813719E+02    0.71306E-01   -0.22058E-01   424   0.323E+00    0.186E+00
DAV:   5    -0.618169677264E+02    0.49136E-02   -0.10304E-01   432   0.235E+00    0.177E+00
DAV:   6    -0.618180777744E+02   -0.11100E-02   -0.17216E-01   456   0.221E+00    0.206E+00
DAV:   7    -0.617960006268E+02    0.22077E-01   -0.72457E-02   448   0.160E+00    0.780E-01
DAV:   8    -0.617974514528E+02   -0.14508E-02   -0.23280E-02   456   0.982E-01    0.594E-01
DAV:   9    -0.618000555320E+02   -0.26041E-02   -0.75774E-03   440   0.559E-01    0.260E-01
DAV:  10    -0.618023315613E+02   -0.22760E-02   -0.17249E-03   464   0.287E-01    0.183E-01
DAV:  11    -0.618051715550E+02   -0.28400E-02   -0.91075E-04   424   0.188E-01    0.106E-01
DAV:  12    -0.618069408550E+02   -0.17693E-02   -0.29104E-04   304   0.111E-01    0.410E-02
DAV:  13    -0.618092304188E+02   -0.22896E-02   -0.11885E-04   280   0.440E-02    0.298E-02
DAV:  14    -0.618106683226E+02   -0.14379E-02   -0.53428E-05   288   0.363E-02    0.236E-02
DAV:  15    -0.618125159323E+02   -0.18476E-02   -0.43665E-05   280   0.246E-02    0.207E-02
DAV:  16    -0.618139243363E+02   -0.14084E-02   -0.33218E-05   280   0.217E-02    0.179E-02
DAV:  17    -0.618151065537E+02   -0.11822E-02   -0.25560E-05   280   0.180E-02    0.114E-02
DAV:  18    -0.618164997850E+02   -0.13932E-02   -0.28062E-05   280   0.131E-02    0.113E-02
DAV:  19    -0.618185687232E+02   -0.20689E-02   -0.47439E-05   288   0.141E-02    0.960E-03
DAV:  20    -0.618203966944E+02   -0.18280E-02   -0.65051E-05   296   0.130E-02    0.709E-03
DAV:  21    -0.618212199841E+02   -0.82329E-03   -0.26543E-05   312   0.110E-02    0.519E-03
DAV:  22    -0.618220258523E+02   -0.80587E-03   -0.28879E-05   288   0.904E-03    0.352E-03
DAV:  23    -0.618225341016E+02   -0.50825E-03   -0.18259E-05   296   0.768E-03    0.243E-03
DAV:  24    -0.618227901681E+02   -0.25607E-03   -0.11317E-05   288   0.605E-03    0.200E-03
DAV:  25    -0.618230064488E+02   -0.21628E-03   -0.70676E-06   280   0.456E-03    0.117E-03
DAV:  26    -0.618231410501E+02   -0.13460E-03   -0.41132E-06   272   0.339E-03    0.115E-03
DAV:  27    -0.618232671138E+02   -0.12606E-03   -0.26997E-06   264   0.269E-03    0.758E-04
DAV:  28    -0.618233911781E+02   -0.12406E-03   -0.23524E-06   264   0.219E-03    0.581E-04
DAV:  29    -0.618234651870E+02   -0.74009E-04   -0.17010E-06   256   0.191E-03
   2 F= -.61823465E+02 E0= -.61838068E+02  d E =-.364157E+00  mag=     7.1571
       N       E                     dE             d eps       ncg     rms          rms(c)
DAV:   1    -0.618210204661E+02    0.23707E-02   -0.17679E+01   416   0.110E+01    0.100E+00
DAV:   2    -0.618496168547E+02   -0.28596E-01   -0.30285E-01   448   0.205E+00    0.125E+00
DAV:   3    -0.618473911621E+02    0.22257E-02   -0.79811E-02   440   0.180E+00    0.102E+00
DAV:   4    -0.618419688877E+02    0.54223E-02   -0.19687E-02   424   0.917E-01    0.543E-01
DAV:   5    -0.618418837828E+02    0.85105E-04   -0.93951E-03   432   0.662E-01    0.547E-01
DAV:   6    -0.618415508369E+02    0.33295E-03   -0.11618E-02   432   0.608E-01    0.553E-01
DAV:   7    -0.618397426706E+02    0.18082E-02   -0.51116E-03   432   0.457E-01    0.229E-01
DAV:   8    -0.618398951531E+02   -0.15248E-03   -0.17480E-03   424   0.280E-01    0.151E-01
DAV:   9    -0.618401011703E+02   -0.20602E-03   -0.49896E-04   288   0.152E-01    0.741E-02
DAV:  10    -0.618402520214E+02   -0.15085E-03   -0.13123E-04   288   0.780E-02    0.491E-02
DAV:  11    -0.618404484739E+02   -0.19645E-03   -0.78040E-05   280   0.513E-02    0.294E-02
DAV:  12    -0.618405634172E+02   -0.11494E-03   -0.33274E-05   272   0.327E-02    0.105E-02
DAV:  13    -0.618406695685E+02   -0.10615E-03   -0.12168E-05   264   0.150E-02    0.879E-03
DAV:  14    -0.618407447672E+02   -0.75199E-04   -0.49599E-06   264   0.108E-02
   3 F= -.61840745E+02 E0= -.61854610E+02  d E =-.381437E+00  mag=     7.1306
       N       E                     dE             d eps       ncg     rms          rms(c)
DAV:   1    -0.618481078508E+02   -0.74383E-02   -0.66702E+00   416   0.674E+00    0.556E-01
DAV:   2    -0.618665337326E+02   -0.18426E-01   -0.14277E-01   440   0.171E+00    0.143E+00
DAV:   3    -0.618549265573E+02    0.11607E-01   -0.38552E-02   440   0.133E+00    0.337E-01
DAV:   4    -0.618572673038E+02   -0.23407E-02   -0.10454E-02   432   0.610E-01    0.638E-01
DAV:   5    -0.618551883379E+02    0.20790E-02   -0.64833E-03   432   0.492E-01    0.294E-01
DAV:   6    -0.618549332236E+02    0.25511E-03   -0.21777E-03   456   0.284E-01    0.217E-01
DAV:   7    -0.618543614469E+02    0.57178E-03   -0.18460E-03   432   0.270E-01    0.231E-01
DAV:   8    -0.618536127210E+02    0.74873E-03   -0.98180E-04   400   0.220E-01    0.652E-02
DAV:   9    -0.618535829437E+02    0.29777E-04   -0.17214E-04   272   0.791E-02
   4 F= -.61853583E+02 E0= -.61867660E+02  d E =-.128382E-01  mag=     7.1066
       N       E                     dE             d eps       ncg     rms          rms(c)
DAV:   1    -0.618523696409E+02    0.12431E-02   -0.39948E+00   416   0.522E+00    0.440E-01
DAV:   2    -0.618638993188E+02   -0.11530E-01   -0.88862E-02   448   0.137E+00    0.115E+00
DAV:   3    -0.618561613735E+02    0.77379E-02   -0.25580E-02   440   0.107E+00    0.268E-01
DAV:   4    -0.618575734910E+02   -0.14121E-02   -0.68331E-03   432   0.489E-01    0.504E-01
DAV:   5    -0.618562604565E+02    0.13130E-02   -0.39748E-03   432   0.386E-01    0.227E-01
DAV:   6    -0.618560522381E+02    0.20822E-03   -0.12538E-03   416   0.218E-01    0.165E-01
DAV:   7    -0.618556369476E+02    0.41529E-03   -0.10502E-03   392   0.204E-01    0.175E-01
DAV:   8    -0.618551710417E+02    0.46591E-03   -0.57477E-04   320   0.169E-01    0.524E-02
DAV:   9    -0.618552271247E+02   -0.56083E-04   -0.11907E-04   272   0.640E-02
   5 F= -.61855227E+02 E0= -.61869410E+02  d E =-.144824E-01  mag=     7.0772
       N       E                     dE             d eps       ncg     rms          rms(c)
DAV:   1    -0.618571119465E+02   -0.19409E-02   -0.32111E+00   416   0.468E+00    0.258E-01
DAV:   2    -0.618626446669E+02   -0.55327E-02   -0.52169E-02   440   0.874E-01    0.496E-01
DAV:   3    -0.618613079227E+02    0.13367E-02   -0.77173E-03   432   0.584E-01    0.227E-01
DAV:   4    -0.618614656607E+02   -0.15774E-03   -0.19323E-03   424   0.249E-01    0.210E-01
DAV:   5    -0.618612225531E+02    0.24311E-03   -0.97197E-04   288   0.181E-01    0.106E-01
DAV:   6    -0.618612795091E+02   -0.56956E-04   -0.37653E-04   256   0.125E-01
   6 F= -.61861280E+02 E0= -.61875668E+02  d E =-.605238E-02  mag=     7.0590
       N       E                     dE             d eps       ncg     rms          rms(c)
DAV:   1    -0.618469653037E+02    0.14257E-01   -0.15047E+01   416   0.101E+01    0.545E-01
DAV:   2    -0.618708917515E+02   -0.23926E-01   -0.23736E-01   424   0.181E+00    0.976E-01
DAV:   3    -0.618663597063E+02    0.45320E-02   -0.31880E-02   424   0.117E+00    0.507E-01
DAV:   4    -0.618663587539E+02    0.95238E-06   -0.87044E-03   424   0.524E-01    0.453E-01
DAV:   5    -0.618650484787E+02    0.13103E-02   -0.43413E-03   424   0.374E-01    0.214E-01
DAV:   6    -0.618648563423E+02    0.19214E-03   -0.20405E-03   424   0.280E-01    0.233E-01
DAV:   7    -0.618640154239E+02    0.84092E-03   -0.17468E-03   440   0.258E-01    0.175E-01
DAV:   8    -0.618637615115E+02    0.25391E-03   -0.90263E-04   392   0.200E-01    0.102E-01
DAV:   9    -0.618638446651E+02   -0.83154E-04   -0.21928E-04   256   0.948E-02
   7 F= -.61863845E+02 E0= -.61878025E+02  d E =-.861754E-02  mag=     7.0229
       N       E                     dE             d eps       ncg     rms          rms(c)
DAV:   1    -0.618607330488E+02    0.30285E-02   -0.63613E+00   416   0.657E+00    0.429E-01
DAV:   2    -0.618747001410E+02   -0.13967E-01   -0.11498E-01   432   0.145E+00    0.106E+00
DAV:   3    -0.618687855075E+02    0.59146E-02   -0.25114E-02   424   0.105E+00    0.273E-01
DAV:   4    -0.618697821259E+02   -0.99662E-03   -0.49601E-03   424   0.443E-01    0.339E-01
DAV:   5    -0.618692057926E+02    0.57633E-03   -0.18500E-03   424   0.303E-01    0.132E-01
DAV:   6    -0.618697711728E+02   -0.56538E-03   -0.11582E-03   400   0.206E-01    0.219E-01
DAV:   7    -0.618700247810E+02   -0.25361E-03   -0.13898E-03   352   0.205E-01    0.172E-01
DAV:   8    -0.618703973524E+02   -0.37257E-03   -0.66475E-04   312   0.156E-01    0.791E-02
DAV:   9    -0.618707499440E+02   -0.35259E-03   -0.16483E-04   288   0.795E-02    0.384E-02
DAV:  10    -0.618709778158E+02   -0.22787E-03   -0.41376E-05   280   0.430E-02    0.188E-02
DAV:  11    -0.618713191369E+02   -0.34132E-03   -0.15094E-05   264   0.212E-02    0.162E-02
DAV:  12    -0.618716791238E+02   -0.35999E-03   -0.10348E-05   272   0.161E-02    0.108E-02
DAV:  13    -0.618720003704E+02   -0.32125E-03   -0.74928E-06   280   0.117E-02    0.994E-03
DAV:  14    -0.618723670266E+02   -0.36666E-03   -0.71969E-06   264   0.100E-02    0.725E-03
DAV:  15    -0.618727978999E+02   -0.43087E-03   -0.68905E-06   288   0.762E-03    0.596E-03
DAV:  16    -0.618730940900E+02   -0.29619E-03   -0.49188E-06   280   0.637E-03    0.473E-03
DAV:  17    -0.618737012819E+02   -0.60719E-03   -0.10166E-05   280   0.595E-03    0.454E-03
DAV:  18    -0.618740781334E+02   -0.37685E-03   -0.77849E-06   288   0.579E-03    0.366E-03
DAV:  19    -0.618748383041E+02   -0.76017E-03   -0.21747E-05   296   0.707E-03    0.299E-03
DAV:  20    -0.618752399850E+02   -0.40168E-03   -0.17572E-05   296   0.649E-03    0.228E-03
DAV:  21    -0.618754215363E+02   -0.18155E-03   -0.13160E-05   288   0.563E-03    0.133E-03
DAV:  22    -0.618754955119E+02   -0.73976E-04   -0.73473E-06   288   0.411E-03
   8 F= -.61875496E+02 E0= -.61889588E+02  d E =-.116508E-01  mag=     6.9539
       N       E                     dE             d eps       ncg     rms          rms(c)
DAV:   1    -0.618756201705E+02   -0.19863E-03   -0.11000E-02   440   0.273E-01    0.176E-02
DAV:   2    -0.618756670835E+02   -0.46913E-04   -0.16452E-04   256   0.606E-02
   9 F= -.61875667E+02 E0= -.61889752E+02  d E =-.118224E-01  mag=     6.9536
       N       E                     dE             d eps       ncg     rms          rms(c)
DAV:   1    -0.618759515049E+02   -0.33133E-03   -0.10159E+00   416   0.263E+00    0.146E-01
DAV:   2    -0.618773035667E+02   -0.13521E-02   -0.16119E-02   432   0.472E-01    0.203E-01
DAV:   3    -0.618772661603E+02    0.37406E-04   -0.19417E-03   424   0.287E-01    0.117E-01
DAV:   4    -0.618772699678E+02   -0.38075E-05   -0.60295E-04   272   0.147E-01
  10 F= -.61877270E+02 E0= -.61891540E+02  d E =-.160288E-02  mag=     6.9537
       N       E                     dE             d eps       ncg     rms          rms(c)
DAV:   1    -0.618771021159E+02    0.16404E-03   -0.43758E-01   432   0.173E+00    0.111E-01
DAV:   2    -0.618778564561E+02   -0.75434E-03   -0.72110E-03   440   0.333E-01    0.267E-01
DAV:   3    -0.618775473998E+02    0.30906E-03   -0.18596E-03   432   0.244E-01    0.118E-01
DAV:   4    -0.618775732186E+02   -0.25819E-04   -0.28815E-04   272   0.105E-01
  11 F= -.61877573E+02 E0= -.61891555E+02  d E =-.190614E-02  mag=     6.9548
       N       E                     dE             d eps       ncg     rms          rms(c)
DAV:   1    -0.618773468221E+02    0.20058E-03   -0.86054E-01   440   0.242E+00    0.153E-01
DAV:   2    -0.618791806507E+02   -0.18338E-02   -0.15397E-02   432   0.532E-01    0.404E-01
DAV:   3    -0.618781848175E+02    0.99583E-03   -0.34951E-03   416   0.388E-01    0.103E-01
DAV:   4    -0.618783633466E+02   -0.17853E-03   -0.51897E-04   352   0.147E-01    0.104E-01
DAV:   5    -0.618782745214E+02    0.88825E-04   -0.20226E-04   256   0.107E-01
  12 F= -.61878275E+02 E0= -.61892153E+02  d E =-.701303E-03  mag=     6.9577
       N       E                     dE             d eps       ncg     rms          rms(c)
DAV:   1    -0.618773195506E+02    0.10438E-02   -0.10395E+00   432   0.267E+00    0.174E-01
DAV:   2    -0.618793504426E+02   -0.20309E-02   -0.18124E-02   440   0.572E-01    0.428E-01
DAV:   3    -0.618783149011E+02    0.10355E-02   -0.38231E-03   424   0.412E-01    0.112E-01
DAV:   4    -0.618785257027E+02   -0.21080E-03   -0.72630E-04   352   0.151E-01    0.147E-01
DAV:   5    -0.618783885336E+02    0.13717E-03   -0.59457E-04   256   0.144E-01    0.926E-02
DAV:   6    -0.618783503138E+02    0.38220E-04   -0.26834E-04   256   0.102E-01
  13 F= -.61878350E+02 E0= -.61892128E+02  d E =-.777095E-03  mag=     6.9634
