 vasp.6.1.2 22Jul20 (build Feb  1 2022 14:42:14) gamma-only                      
 executed on             LinuxPGI date 2022.02.16  01:13:51
 running on   16 total cores
 distrk:  each k-point on   16 cores,    1 groups
 distr:  one band on NCORE=  16 cores,    1 groups


--------------------------------------------------------------------------------------------------------


 INCAR:
 POTCAR:    PAW_PBE Pd 04Jan2005                  
 -----------------------------------------------------------------------------
|                                                                             |
|           W    W    AA    RRRRR   N    N  II  N    N   GGGG   !!!           |
|           W    W   A  A   R    R  NN   N  II  NN   N  G    G  !!!           |
|           W    W  A    A  R    R  N N  N  II  N N  N  G       !!!           |
|           W WW W  AAAAAA  RRRRR   N  N N  II  N  N N  G  GGG   !            |
|           WW  WW  A    A  R   R   N   NN  II  N   NN  G    G                |
|           W    W  A    A  R    R  N    N  II  N    N   GGGG   !!!           |
|                                                                             |
|     You use a magnetic or noncollinear calculation, but did not specify     |
|     the initial magnetic moment with the MAGMOM tag. Note that a            |
|     default of 1 will be used for all atoms. This ferromagnetic setup       |
|     may break the symmetry of the crystal, in particular it may rule        |
|     out finding an antiferromagnetic solution. Thence, we recommend         |
|     setting the initial magnetic moment manually or verifying carefully     |
|     that this magnetic setup is desired.                                    |
|                                                                             |
 -----------------------------------------------------------------------------

 -----------------------------------------------------------------------------
|                                                                             |
|           W    W    AA    RRRRR   N    N  II  N    N   GGGG   !!!           |
|           W    W   A  A   R    R  NN   N  II  NN   N  G    G  !!!           |
|           W    W  A    A  R    R  N N  N  II  N N  N  G       !!!           |
|           W WW W  AAAAAA  RRRRR   N  N N  II  N  N N  G  GGG   !            |
|           WW  WW  A    A  R   R   N   NN  II  N   NN  G    G                |
|           W    W  A    A  R    R  N    N  II  N    N   GGGG   !!!           |
|                                                                             |
|     For optimal performance we recommend to set                             |
|       NCORE = 4 - approx SQRT(number of cores).                             |
|     NCORE specifies how many cores store one orbital (NPAR=cpu/NCORE).      |
|     This setting can greatly improve the performance of VASP for DFT.       |
|     The default, NCORE=1 might be grossly inefficient on modern             |
|     multi-core architectures or massively parallel machines. Do your        |
|     own testing!!!!                                                         |
|     Unfortunately you need to use the default for GW and RPA                |
|     calculations (for HF NCORE is supported but not extensively tested      |
|     yet).                                                                   |
|                                                                             |
 -----------------------------------------------------------------------------

 POTCAR:    PAW_PBE Pd 04Jan2005                  
   SHA256 =  dd6f6f02930356371984e2b707ff5e456046761dc76b07c1eba30abd15eb3c39 Pd/POTCAR             
   COPYR  = (c) Copyright 04Jan2005 Georg Kresse                                                    
   COPYR  = This file is part of the software VASP. Any use, copying, and all other rights are regul
   COPYR  = If you do not have a valid VASP license, you may not use, copy or distribute this file. 
   VRHFIN =Pd : s1 d9                                                                               
   LEXCH  = PE                                                                                      
   EATOM  =   809.7530 eV,   59.5152 Ry                                                             
                                                                                                    
   TITEL  = PAW_PBE Pd 04Jan2005                                                                    
   LULTRA =        F    use ultrasoft PP ?                                                          
   IUNSCR =        1    unscreen: 0-lin 1-nonlin 2-no                                               
   RPACOR =    2.000    partial core radius                                                         
   POMASS =  106.420; ZVAL   =   10.000    mass and valenz                                          
   RCORE  =    2.600    outmost cutoff radius                                                       
   RWIGS  =    2.710; RWIGS  =    1.434    wigner-seitz radius (au A)                               
   ENMAX  =  250.925; ENMIN  =  188.194 eV                                                          
   ICORE  =        3    local potential                                                             
   LCOR   =        T    correct aug charges                                                         
   LPAW   =        T    paw PP                                                                      
   EAUG   =  416.230                                                                                
   DEXC   =    0.000                                                                                
   RMAX   =    2.653    core radius for proj-oper                                                   
   RAUG   =    1.300    factor for augmentation sphere                                              
   RDEP   =    2.734    radius for radial grids                                                     
   RDEPT  =    2.103    core radius for aug-charge                                                  
                                                                                                    
   Atomic configuration                                                                             
   12 entries                                                                                       
     n  l   j            E        occ.                                                              
     1  0  0.50    -24164.6631   2.0000                                                             
     2  0  0.50     -3530.9218   2.0000                                                             
     2  1  1.50     -3165.6822   6.0000                                                             
     3  0  0.50      -639.4577   2.0000                                                             
     3  1  1.50      -519.4532   6.0000                                                             
     3  2  2.50      -328.9757  10.0000                                                             
     4  0  0.50       -88.7014   2.0000                                                             
     4  1  1.50       -54.4540   6.0000                                                             
     4  2  2.50        -6.6878   9.0000                                                             
     5  0  0.50        -4.3543   1.0000                                                             
     5  1  0.50        -1.3606   0.0000                                                             
     4  3  2.50        -1.3606   0.0000                                                             
   Description                                                                                      
     l       E           TYP  RCUT    TYP  RCUT                                                     
     2     -6.6878251     23  2.400                                                                 
     2     -8.0484077     23  2.400                                                                 
     0     -4.3542939     23  2.400                                                                 
     0      4.3406793     23  2.400                                                                 
     1     -4.0817478     23  2.600                                                                 
     1     15.8380318     23  2.600                                                                 
     3     -4.0817478     23  2.400                                                                 
  local pseudopotential read in
  partial core-charges read in
  partial kinetic energy density read in
  atomic valenz-charges read in
  non local Contribution for L=            2  read in
    real space projection operators read in
  non local Contribution for L=            2  read in
    real space projection operators read in
  non local Contribution for L=            0  read in
    real space projection operators read in
  non local Contribution for L=            0  read in
    real space projection operators read in
  non local Contribution for L=            1  read in
    real space projection operators read in
  non local Contribution for L=            1  read in
    real space projection operators read in
    PAW grid and wavefunctions read in
 
   number of l-projection  operators is LMAX  =            6
   number of lm-projection operators is LMMAX =           18
 
  PAW_PBE Pd 04Jan2005                  :
 energy of atom  1       EATOM= -809.7530
 kinetic energy error for atom=    0.0091 (will be added to EATOM!!)
 
 
 POSCAR: Pd
  positions in cartesian coordinates
  No initial velocities read in
 exchange correlation table for  LEXCH =        8
   RHO(1)=    0.500       N(1)  =     2000
   RHO(2)=  100.500       N(2)  =     4000
 


--------------------------------------------------------------------------------------------------------


 ion  position               nearest neighbor table
   1  0.562  0.552  0.497-   9 2.63   5 2.63  12 2.66   6 2.66   4 2.66   8 2.67   7 2.70   2 2.77
                             3 2.84
   2  0.484  0.471  0.535-  10 2.59  11 2.60   7 2.61  13 2.62   3 2.63   5 2.68   4 2.76   1 2.77
                             6 2.81
   3  0.486  0.485  0.436-   8 2.60  14 2.60  16 2.61   2 2.63   5 2.68  10 2.70   4 2.71   9 2.82
                             1 2.84
   4  0.453  0.579  0.493-  10 2.56   1 2.66   8 2.66  11 2.66   6 2.68   3 2.71   2 2.76
   5  0.575  0.436  0.482-  14 2.62   1 2.63   9 2.65   3 2.68   2 2.68   7 2.74
   6  0.508  0.580  0.582-  13 2.60  12 2.60  15 2.61  11 2.63   1 2.66   4 2.68   2 2.81   7 2.82

   7  0.582  0.481  0.579-  12 2.58  15 2.59   2 2.61   1 2.70  13 2.71   5 2.74   6 2.82
   8  0.517  0.593  0.411-  16 2.60   3 2.60   9 2.63   4 2.66   1 2.67
   9  0.598  0.513  0.408-  14 2.56  16 2.57   1 2.63   8 2.63   5 2.65   3 2.82
  10  0.389  0.487  0.489-   4 2.56  11 2.59   2 2.59   3 2.70
  11  0.406  0.535  0.577-  10 2.59   2 2.60   6 2.63   4 2.66  13 2.66
  12  0.618  0.591  0.578-  15 2.56   7 2.58   6 2.60   1 2.66
  13  0.486  0.484  0.634-  15 2.58   6 2.60   2 2.62  11 2.66   7 2.71
  14  0.552  0.412  0.386-   9 2.56  16 2.58   3 2.60   5 2.62
  15  0.572  0.548  0.659-  12 2.56  13 2.58   7 2.59   6 2.61
  16  0.517  0.509  0.343-   9 2.57  14 2.58   8 2.60   3 2.61
 

IMPORTANT INFORMATION: All symmetrisations will be switched off!
NOSYMM: (Re-)initialisation of all symmetry stuff for point group C_1.


----------------------------------------------------------------------------------------

                                     Primitive cell                                     

  volume of cell :   13935.5564

  direct lattice vectors                    reciprocal lattice vectors
    23.711088412  0.000000000  0.000000000     0.042174361  0.000000000  0.000000000
     0.000000000 22.390301536  0.000000000     0.000000000  0.044662194  0.000000000
     0.000000000  0.000000000 26.249007065     0.000000000  0.000000000  0.038096679

  length of vectors
    23.711088412 22.390301536 26.249007065     0.042174361  0.044662194  0.038096679

  position of ions in fractional coordinates (direct lattice)
     0.562095097  0.551607259  0.496903622
     0.484219277  0.470561250  0.534918555
     0.485718197  0.485267840  0.435544923
     0.453014772  0.579097577  0.493452795
     0.574947634  0.436099008  0.481818683
     0.508275969  0.579937427  0.582445930
     0.582357698  0.481374022  0.578649493
     0.516594878  0.592913125  0.410722204
     0.597691605  0.512839327  0.408007734
     0.388621836  0.487365889  0.489018684
     0.405905430  0.534864802  0.577475101
     0.617511179  0.590604149  0.578464875
     0.485722705  0.483797432  0.634088616
     0.551653032  0.412377021  0.386246798
     0.571978174  0.547783304  0.659000464
     0.516986816  0.508848299  0.342527863

  ion indices of the primitive-cell ions
   primitive index   ion index
                 1           1
                 2           2
                 3           3
                 4           4
                 5           5
                 6           6
                 7           7
                 8           8
                 9           9
                10          10
                11          11
                12          12
                13          13
                14          14
                15          15
                16          16

----------------------------------------------------------------------------------------

 
 
 KPOINTS: KPOINTS created by Atomic Simulation Env

Automatic generation of k-mesh.
Space group operators:
 irot       det(A)        alpha          n_x          n_y          n_z        tau_x        tau_y        tau_z
    1     1.000000     0.000000     1.000000     0.000000     0.000000     0.000000     0.000000     0.000000
 
 Subroutine IBZKPT returns following result:
 ===========================================
 
 Found      1 irreducible k-points:
 
 Following reciprocal coordinates:
            Coordinates               Weight
  0.000000  0.000000  0.000000      1.000000
 
 Following cartesian coordinates:
            Coordinates               Weight
  0.000000  0.000000  0.000000      1.000000
 


--------------------------------------------------------------------------------------------------------




 Dimension of arrays:
   k-points           NKPTS =      1   k-points in BZ     NKDIM =      1   number of bands    NBANDS=    104
   number of dos      NEDOS =    301   number of ions     NIONS =     16
   non local maximal  LDIM  =      6   non local SUM 2l+1 LMDIM =     18
   total plane-waves  NPLWV = ******
   max r-space proj   IRMAX =      1   max aug-charges    IRDMAX=   6187
   dimension x,y,z NGX =   120 NGY =  112 NGZ =  128
   dimension x,y,z NGXF=   240 NGYF=  224 NGZF=  256
   support grid    NGXF=   240 NGYF=  224 NGZF=  256
   ions per type =              16
   NGX,Y,Z   is equivalent  to a cutoff of   8.41,  8.32,  8.11 a.u.
   NGXF,Y,Z  is equivalent  to a cutoff of  16.83, 16.63, 16.21 a.u.

 SYSTEM =  unknown system                          
 POSCAR =  Pd                                      

 Startparameter for this run:
   NWRITE =      2    write-flag & timer
   PREC   = normal    normal or accurate (medium, high low for compatibility)
   ISTART =      0    job   : 0-new  1-cont  2-samecut
   ICHARG =      2    charge: 1-file 2-atom 10-const
   ISPIN  =      2    spin polarized calculation?
   LNONCOLLINEAR =      F non collinear calculations
   LSORBIT =      F    spin-orbit coupling
   INIWAV =      1    electr: 0-lowe 1-rand  2-diag
   LASPH  =      F    aspherical Exc in radial PAW
   METAGGA=      F    non-selfconsistent MetaGGA calc.

 Electronic Relaxation 1
   ENCUT  =  400.0 eV  29.40 Ry    5.42 a.u.  38.67 36.51 42.81*2*pi/ulx,y,z
   ENINI  =  400.0     initial cutoff
   ENAUG  =  416.2 eV  augmentation charge cutoff
   NELM   =     60;   NELMIN=  2; NELMDL=  0     # of ELM steps 
   EDIFF  = 0.1E-03   stopping-criterion for ELM
   LREAL  =      F    real-space projection
   NLSPLINE    = F    spline interpolate recip. space projectors
   LCOMPAT=      F    compatible to vasp.4.4
   GGA_COMPAT  = T    GGA compatible to vasp.4.4-vasp.4.6
   LMAXPAW     = -100 max onsite density
   LMAXMIX     =    2 max onsite mixed and CHGCAR
   VOSKOWN=      0    Vosko Wilk Nusair interpolation
   ROPT   =    0.00000
 Ionic relaxation
   EDIFFG = 0.1E-02   stopping-criterion for IOM
   NSW    =   1000    number of steps for IOM
   NBLOCK =      1;   KBLOCK =   1000    inner block; outer block 
   IBRION =      2    ionic relax: 0-MD 1-quasi-New 2-CG
   NFREE  =      1    steps in history (QN), initial steepest desc. (CG)
   ISIF   =      0    stress and relaxation
   IWAVPR =     11    prediction:  0-non 1-charg 2-wave 3-comb
   ISYM   =      0    0-nonsym 1-usesym 2-fastsym
   LCORR  =      T    Harris-Foulkes like correction to forces

   POTIM  = 0.5000    time-step for ionic-motion
   TEIN   =    0.0    initial temperature
   TEBEG  =    0.0;   TEEND  =   0.0 temperature during run
   SMASS  =  -3.00    Nose mass-parameter (am)
   estimated Nose-frequenzy (Omega)   =  0.10E-29 period in steps = 0.13E+47 mass=  -0.128E-25a.u.
   SCALEE = 1.0000    scale energy and forces
   NPACO  =    256;   APACO  = 16.0  distance and # of slots for P.C.
   PSTRESS=    0.0 pullay stress

  Mass of Ions in am
   POMASS = 106.42
  Ionic Valenz
   ZVAL   =  10.00
  Atomic Wigner-Seitz radii
   RWIGS  =  -1.00
  virtual crystal weights 
   VCA    =   1.00
   NELECT =     160.0000    total number of electrons
   NUPDOWN=      -1.0000    fix difference up-down

 DOS related values:
   EMIN   =  10.00;   EMAX   =-10.00  energy-range for DOS
   EFERMI =   0.00
   ISMEAR =     1;   SIGMA  =   0.20  broadening in eV -4-tet -1-fermi 0-gaus

 Electronic relaxation 2 (details)
   IALGO  =     38    algorithm
   LDIAG  =      T    sub-space diagonalisation (order eigenvalues)
   LSUBROT=      F    optimize rotation matrix (better conditioning)
   TURBO    =      0    0=normal 1=particle mesh
   IRESTART =      0    0=no restart 2=restart with 2 vectors
   NREBOOT  =      0    no. of reboots
   NMIN     =      0    reboot dimension
   EREF     =   0.00    reference energy to select bands
   IMIX   =      4    mixing-type and parameters
     AMIX     =   0.40;   BMIX     =  1.00
     AMIX_MAG =   1.60;   BMIX_MAG =  1.00
     AMIN     =   0.10
     WC   =   100.;   INIMIX=   1;  MIXPRE=   1;  MAXMIX= -45

 Intra band minimization:
   WEIMIN = 0.0010     energy-eigenvalue tresh-hold
   EBREAK =  0.24E-06  absolut break condition
   DEPER  =   0.30     relativ break condition  

   TIME   =   0.40     timestep for ELM

  volume/ion in A,a.u.               =     870.97      5877.61
  Fermi-wavevector in a.u.,A,eV,Ry     =   0.369323  0.697920  1.855831  0.136400
  Thomas-Fermi vector in A             =   1.295858
 
 Write flags
   LWAVE        =      F    write WAVECAR
   LDOWNSAMPLE  =      F    k-point downsampling of WAVECAR
   LCHARG       =      F    write CHGCAR
   LVTOT        =      F    write LOCPOT, total local potential
   LVHAR        =      F    write LOCPOT, Hartree potential only
   LELF         =      F    write electronic localiz. function (ELF)
   LORBIT       =      0    0 simple, 1 ext, 2 COOP (PROOUT), +10 PAW based schemes


 Dipole corrections
   LMONO  =      F    monopole corrections only (constant potential shift)
   LDIPOL =      F    correct potential (dipole corrections)
   IDIPOL =      0    1-x, 2-y, 3-z, 4-all directions 
   EPSILON=  1.0000000 bulk dielectric constant

 Exchange correlation treatment:
   GGA     =    PE    GGA type
   LEXCH   =     8    internal setting for exchange type
   VOSKOWN=      0    Vosko Wilk Nusair interpolation
   LHFCALC =     F    Hartree Fock is set to
   LHFONE  =     F    Hartree Fock one center treatment
   AEXX    =    0.0000 exact exchange contribution

 Linear response parameters
   LEPSILON=     F    determine dielectric tensor
   LRPA    =     F    only Hartree local field effects (RPA)
   LNABLA  =     F    use nabla operator in PAW spheres
   LVEL    =     F    velocity operator in full k-point grid
   LINTERFAST=   F  fast interpolation
   KINTER  =     0    interpolate to denser k-point grid
   CSHIFT  =0.1000    complex shift for real part using Kramers Kronig
   OMEGAMAX=  -1.0    maximum frequency
   DEG_THRESHOLD= 0.2000000E-02 threshold for treating states as degnerate
   RTIME   =   -0.100 relaxation time in fs
  (WPLASMAI=    0.000 imaginary part of plasma frequency in eV, 0.658/RTIME)
   DFIELD  = 0.0000000 0.0000000 0.0000000 field for delta impulse in time
 
 Orbital magnetization related:
   ORBITALMAG=     F  switch on orbital magnetization
   LCHIMAG   =     F  perturbation theory with respect to B field
   DQ        =  0.001000  dq finite difference perturbation B field
   LLRAUG    =     F  two centre corrections for induced B field



--------------------------------------------------------------------------------------------------------


 conjugate gradient relaxation of ions
 charge density and potential will be updated during run
 spin polarized calculation
 Variant of blocked Davidson
 Davidson routine will perform the subspace rotation
 perform sub-space diagonalisation
    after iterative eigenvector-optimisation
 modified Broyden-mixing scheme, WC =      100.0
 initial mixing is a Kerker type mixing with AMIX =  0.4000 and BMIX =      1.0000
 Hartree-type preconditioning will be used
 using additional bands            24
 reciprocal scheme for non local part
 use partial core corrections
 calculate Harris-corrections to forces 
   (improved forces if not selfconsistent)
 use gradient corrections 
 use of overlap-Matrix (Vanderbilt PP)
 Methfessel and Paxton  Order N= 1 SIGMA  =   0.20


--------------------------------------------------------------------------------------------------------


  energy-cutoff  :      400.00
  volume of cell :    13935.56
      direct lattice vectors                 reciprocal lattice vectors
    23.711088412  0.000000000  0.000000000     0.042174361  0.000000000  0.000000000
     0.000000000 22.390301536  0.000000000     0.000000000  0.044662194  0.000000000
     0.000000000  0.000000000 26.249007065     0.000000000  0.000000000  0.038096679

  length of vectors
    23.711088412 22.390301536 26.249007065     0.042174361  0.044662194  0.038096679


 
 k-points in units of 2pi/SCALE and weight: KPOINTS created by Atomic Simulation Env
   0.00000000  0.00000000  0.00000000       1.000
 
 k-points in reciprocal lattice and weights: KPOINTS created by Atomic Simulation Env
   0.00000000  0.00000000  0.00000000       1.000
 
 position of ions in fractional coordinates (direct lattice) 
   0.56209510  0.55160726  0.49690362
   0.48421928  0.47056125  0.53491856
   0.48571820  0.48526784  0.43554492
   0.45301477  0.57909758  0.49345279
   0.57494763  0.43609901  0.48181868
   0.50827597  0.57993743  0.58244593
   0.58235770  0.48137402  0.57864949
   0.51659488  0.59291313  0.41072220
   0.59769161  0.51283933  0.40800773
   0.38862184  0.48736589  0.48901868
   0.40590543  0.53486480  0.57747510
   0.61751118  0.59060415  0.57846487
   0.48572270  0.48379743  0.63408862
   0.55165303  0.41237702  0.38624680
   0.57197817  0.54778330  0.65900046
   0.51698682  0.50884830  0.34252786
 
 position of ions in cartesian coordinates  (Angst):
  13.32788655 12.35065286 13.04322667
  11.48136610 10.53600827 14.04108094
  11.51690711 10.86529327 11.43262176
  10.74147330 12.96616937 12.95264589
  13.63263418  9.76438829 12.64726201
  12.05177643 12.98497385 15.28862733
  13.80833486 10.77810950 15.18897462
  12.24902683 13.27550366 10.78105004
  14.17191849 11.48262716 10.70979788
   9.21464671 10.91226920 12.83625490
   9.62445955 11.97578419 15.15814800
  14.64186217 13.22380498 15.18412859
  11.51701400 10.83237038 16.64419656
  13.08029382  9.23324585 10.13859492
  13.56222506 12.26503336 17.29810784
  12.25832011 11.39326685  8.99101629
 


--------------------------------------------------------------------------------------------------------


 use parallel FFT for orbitals z direction half grid
 k-point   1 :   0.0000 0.0000 0.0000  plane waves:  126621

 maximum and minimum number of plane-waves per node :      7916     7908

 maximum number of plane-waves:    126621
 maximum index in each direction: 
   IXMAX=   38   IYMAX=   36   IZMAX=   42
   IXMIN=  -38   IYMIN=  -36   IZMIN=    0


 parallel 3D FFT for wavefunctions:
    minimum data exchange during FFTs selected (reduces bandwidth)
 parallel 3D FFT for charge:
    minimum data exchange during FFTs selected (reduces bandwidth)


 total amount of memory used by VASP MPI-rank0   162622. kBytes
=======================================================================

   base      :      30000. kBytes
   nonl-proj :       3165. kBytes
   fftplans  :      31567. kBytes
   grid      :      71511. kBytes
   one-center:         15. kBytes
   wavefun   :      26364. kBytes
 
     INWAV:  cpu time    0.0000: real time    0.0000
 Broyden mixing: mesh for mixing (old mesh)
   NGX = 77   NGY = 73   NGZ = 85
  (NGX  =240   NGY  =224   NGZ  =256)
  gives a total of 477785 points

 initial charge density was supplied:
 charge density of overlapping atoms calculated
 number of electron     160.0000000 magnetization      16.0000000
 keeping initial charge density in first step


--------------------------------------------------------------------------------------------------------


 Maximum index for augmentation-charges           387 (set IRDMAX)


--------------------------------------------------------------------------------------------------------


 First call to EWALD:  gamma=   0.074
 Maximum number of real-space cells 3x 3x 3
 Maximum number of reciprocal cells 3x 3x 3

    FEWALD:  cpu time    0.0029: real time    0.0029


--------------------------------------- Iteration      1(   1)  ---------------------------------------


    POTLOK:  cpu time    2.2306: real time    2.2588
    SETDIJ:  cpu time    0.0262: real time    0.0262
     EDDAV:  cpu time    8.7558: real time    8.8831
       DOS:  cpu time    0.0035: real time    0.0035
    --------------------------------------------
      LOOP:  cpu time   11.0162: real time   11.1716

 eigenvalue-minimisations  :   416
 total energy-change (2. order) : 0.1428627E+04  (-0.2752207E+04)
 number of electron     160.0000000 magnetization      16.0000000
 augmentation part      160.0000000 magnetization      16.0000000

 Free energy of the ion-electron system (eV)
  ---------------------------------------------------
  alpha Z        PSCENC =        11.97286794
  Ewald energy   TEWEN  =     25522.17128242
  -Hartree energ DENC   =    -37820.07200114
  -exchange      EXHF   =         0.00000000
  -V(xc)+E(xc)   XCENC  =      -479.59690396
  PAW double counting   =     12906.36685261   -11910.91650437
  entropy T*S    EENTRO =         0.00745343
  eigenvalues    EBANDS =       242.79159364
  atomic energy  EATOM  =     12955.90228127
  Solvation  Ediel_sol  =         0.00000000
  ---------------------------------------------------
  free energy    TOTEN  =      1428.62692184 eV

  energy without entropy =     1428.61946841  energy(sigma->0) =     1428.62443737


--------------------------------------------------------------------------------------------------------




--------------------------------------- Iteration      1(   2)  ---------------------------------------


     EDDAV:  cpu time   14.9470: real time   15.0235
       DOS:  cpu time    0.0027: real time    0.0027
    --------------------------------------------
      LOOP:  cpu time   14.9497: real time   15.0262

 eigenvalue-minimisations  :   800
 total energy-change (2. order) :-0.7107062E+03  (-0.6382426E+03)
 number of electron     160.0000000 magnetization      16.0000000
 augmentation part      160.0000000 magnetization      16.0000000

 Free energy of the ion-electron system (eV)
  ---------------------------------------------------
  alpha Z        PSCENC =        11.97286794
  Ewald energy   TEWEN  =     25522.17128242
  -Hartree energ DENC   =    -37820.07200114
  -exchange      EXHF   =         0.00000000
  -V(xc)+E(xc)   XCENC  =      -479.59690396
  PAW double counting   =     12906.36685261   -11910.91650437
  entropy T*S    EENTRO =        -0.02606153
  eigenvalues    EBANDS =      -467.88111182
  atomic energy  EATOM  =     12955.90228127
  Solvation  Ediel_sol  =         0.00000000
  ---------------------------------------------------
  free energy    TOTEN  =       717.92070142 eV

  energy without entropy =      717.94676296  energy(sigma->0) =      717.92938860


--------------------------------------------------------------------------------------------------------




--------------------------------------- Iteration      1(   3)  ---------------------------------------


     EDDAV:  cpu time   13.1122: real time   13.2364
       DOS:  cpu time    0.0060: real time    0.0060
    --------------------------------------------
      LOOP:  cpu time   13.1182: real time   13.2425

 eigenvalue-minimisations  :   680
 total energy-change (2. order) :-0.5930840E+03  (-0.5545845E+03)
 number of electron     160.0000000 magnetization      16.0000000
 augmentation part      160.0000000 magnetization      16.0000000

 Free energy of the ion-electron system (eV)
  ---------------------------------------------------
  alpha Z        PSCENC =        11.97286794
  Ewald energy   TEWEN  =     25522.17128242
  -Hartree energ DENC   =    -37820.07200114
  -exchange      EXHF   =         0.00000000
  -V(xc)+E(xc)   XCENC  =      -479.59690396
  PAW double counting   =     12906.36685261   -11910.91650437
  entropy T*S    EENTRO =        -0.01787524
  eigenvalues    EBANDS =     -1060.97325796
  atomic energy  EATOM  =     12955.90228127
  Solvation  Ediel_sol  =         0.00000000
  ---------------------------------------------------
  free energy    TOTEN  =       124.83674157 eV

  energy without entropy =      124.85461681  energy(sigma->0) =      124.84269998


--------------------------------------------------------------------------------------------------------




--------------------------------------- Iteration      1(   4)  ---------------------------------------


     EDDAV:  cpu time   11.3192: real time   11.5651
       DOS:  cpu time    0.0039: real time    0.0039
    --------------------------------------------
      LOOP:  cpu time   11.3231: real time   11.5690

 eigenvalue-minimisations  :   560
 total energy-change (2. order) :-0.1673393E+03  (-0.1514967E+03)
 number of electron     160.0000000 magnetization      16.0000000
 augmentation part      160.0000000 magnetization      16.0000000

 Free energy of the ion-electron system (eV)
  ---------------------------------------------------
  alpha Z        PSCENC =        11.97286794
  Ewald energy   TEWEN  =     25522.17128242
  -Hartree energ DENC   =    -37820.07200114
  -exchange      EXHF   =         0.00000000
  -V(xc)+E(xc)   XCENC  =      -479.59690396
  PAW double counting   =     12906.36685261   -11910.91650437
  entropy T*S    EENTRO =        -0.04699172
  eigenvalues    EBANDS =     -1228.28339385
  atomic energy  EATOM  =     12955.90228127
  Solvation  Ediel_sol  =         0.00000000
  ---------------------------------------------------
  free energy    TOTEN  =       -42.50251080 eV

  energy without entropy =      -42.45551908  energy(sigma->0) =      -42.48684689


--------------------------------------------------------------------------------------------------------




--------------------------------------- Iteration      1(   5)  ---------------------------------------


     EDDAV:  cpu time   11.0463: real time   11.0666
       DOS:  cpu time    0.0175: real time    0.0175
    CHARGE:  cpu time    0.8275: real time    0.8287
    MIXING:  cpu time    0.0397: real time    0.0403
    --------------------------------------------
      LOOP:  cpu time   11.9309: real time   11.9531

 eigenvalue-minimisations  :   584
 total energy-change (2. order) :-0.2123943E+02  (-0.1774339E+02)
 number of electron     159.9999968 magnetization      15.2768298
 augmentation part       67.6844705 magnetization      11.6822795

 Broyden mixing:
  rms(total) = 0.26550E+01    rms(broyden)= 0.26549E+01
  rms(prec ) = 0.26990E+01
  weight for this iteration     100.00

 Free energy of the ion-electron system (eV)
  ---------------------------------------------------
  alpha Z        PSCENC =        11.97286794
  Ewald energy   TEWEN  =     25522.17128242
  -Hartree energ DENC   =    -37820.07200114
  -exchange      EXHF   =         0.00000000
  -V(xc)+E(xc)   XCENC  =      -479.59690396
  PAW double counting   =     12906.36685261   -11910.91650437
  entropy T*S    EENTRO =        -0.04737322
  eigenvalues    EBANDS =     -1249.52244496
  atomic energy  EATOM  =     12955.90228127
  Solvation  Ediel_sol  =         0.00000000
  ---------------------------------------------------
  free energy    TOTEN  =       -63.74194340 eV

  energy without entropy =      -63.69457018  energy(sigma->0) =      -63.72615233


--------------------------------------------------------------------------------------------------------




--------------------------------------- Iteration      1(   6)  ---------------------------------------


    POTLOK:  cpu time    2.8136: real time    2.8176
    SETDIJ:  cpu time    0.0573: real time    0.0573
     EDDAV:  cpu time    9.6721: real time    9.6874
       DOS:  cpu time    0.0133: real time    0.0133
    CHARGE:  cpu time    1.2462: real time    1.2473
    MIXING:  cpu time    0.0471: real time    0.0472
    --------------------------------------------
      LOOP:  cpu time   13.8496: real time   13.8701

 eigenvalue-minimisations  :   440
 total energy-change (2. order) : 0.6471655E+01  (-0.3719167E+01)
 number of electron     159.9999970 magnetization      14.6003208
 augmentation part       68.4882717 magnetization       9.7042080

 Broyden mixing:
  rms(total) = 0.14111E+01    rms(broyden)= 0.14110E+01
  rms(prec ) = 0.14584E+01
  weight for this iteration     100.00

 eigenvalues of (default mixing * dielectric matrix)
  average eigenvalue GAMMA=   0.8902
  0.8902

 Free energy of the ion-electron system (eV)
  ---------------------------------------------------
  alpha Z        PSCENC =        11.97286794
  Ewald energy   TEWEN  =     25522.17128242
  -Hartree energ DENC   =    -37887.15129209
  -exchange      EXHF   =         0.00000000
  -V(xc)+E(xc)   XCENC  =      -477.13071779
  PAW double counting   =     13857.28258615   -12872.76695818
  entropy T*S    EENTRO =         0.01899407
  eigenvalues    EBANDS =     -1167.56933177
  atomic energy  EATOM  =     12955.90228127
  Solvation  Ediel_sol  =         0.00000000
  ---------------------------------------------------
  free energy    TOTEN  =       -57.27028798 eV

  energy without entropy =      -57.28928205  energy(sigma->0) =      -57.27661933


--------------------------------------------------------------------------------------------------------




--------------------------------------- Iteration      1(   7)  ---------------------------------------


    POTLOK:  cpu time    2.2474: real time    2.2509
    SETDIJ:  cpu time    0.0254: real time    0.0254
     EDDAV:  cpu time    9.4337: real time    9.4487
       DOS:  cpu time    0.0067: real time    0.0068
    CHARGE:  cpu time    0.8333: real time    0.8344
    MIXING:  cpu time    0.0537: real time    0.0537
    --------------------------------------------
      LOOP:  cpu time   12.6002: real time   12.6200

 eigenvalue-minimisations  :   440
 total energy-change (2. order) : 0.2062970E+01  (-0.2297910E+01)
 number of electron     159.9999954 magnetization      14.1586010
 augmentation part       67.9671828 magnetization      10.7712270

 Broyden mixing:
  rms(total) = 0.27949E+01    rms(broyden)= 0.27947E+01
  rms(prec ) = 0.31539E+01
  weight for this iteration     100.00

 eigenvalues of (default mixing * dielectric matrix)
  average eigenvalue GAMMA=   0.7626
  1.2195  0.3058

 Free energy of the ion-electron system (eV)
  ---------------------------------------------------
  alpha Z        PSCENC =        11.97286794
  Ewald energy   TEWEN  =     25522.17128242
  -Hartree energ DENC   =    -37941.79235989
  -exchange      EXHF   =         0.00000000
  -V(xc)+E(xc)   XCENC  =      -469.95248857
  PAW double counting   =     14438.44930760   -13458.77556733
  entropy T*S    EENTRO =         0.02638538
  eigenvalues    EBANDS =     -1113.20902667
  atomic energy  EATOM  =     12955.90228127
  Solvation  Ediel_sol  =         0.00000000
  ---------------------------------------------------
  free energy    TOTEN  =       -55.20731784 eV

  energy without entropy =      -55.23370322  energy(sigma->0) =      -55.21611297


--------------------------------------------------------------------------------------------------------




--------------------------------------- Iteration      1(   8)  ---------------------------------------


    POTLOK:  cpu time    2.2535: real time    2.2568
    SETDIJ:  cpu time    0.0286: real time    0.0286
     EDDAV:  cpu time    9.3280: real time    9.3421
       DOS:  cpu time    0.0210: real time    0.0210
    CHARGE:  cpu time    0.8401: real time    0.8415
    MIXING:  cpu time    0.0528: real time    0.0528
    --------------------------------------------
      LOOP:  cpu time   12.5239: real time   12.5429

 eigenvalue-minimisations  :   464
 total energy-change (2. order) : 0.3743934E+01  (-0.3990056E+01)
 number of electron     159.9999976 magnetization      13.8778622
 augmentation part       67.9782704 magnetization       9.6561028

 Broyden mixing:
  rms(total) = 0.20512E+01    rms(broyden)= 0.20509E+01
  rms(prec ) = 0.23366E+01
  weight for this iteration     100.00

 eigenvalues of (default mixing * dielectric matrix)
  average eigenvalue GAMMA=   0.6715
  1.4431  0.3804  0.1909

 Free energy of the ion-electron system (eV)
  ---------------------------------------------------
  alpha Z        PSCENC =        11.97286794
  Ewald energy   TEWEN  =     25522.17128242
  -Hartree energ DENC   =    -37976.33613792
  -exchange      EXHF   =         0.00000000
  -V(xc)+E(xc)   XCENC  =      -468.08563889
  PAW double counting   =     14686.70319595   -13709.71336860
  entropy T*S    EENTRO =        -0.01668247
  eigenvalues    EBANDS =     -1074.06118341
  atomic energy  EATOM  =     12955.90228127
  Solvation  Ediel_sol  =         0.00000000
  ---------------------------------------------------
  free energy    TOTEN  =       -51.46338370 eV

  energy without entropy =      -51.44670123  energy(sigma->0) =      -51.45782288


--------------------------------------------------------------------------------------------------------




--------------------------------------- Iteration      1(   9)  ---------------------------------------


    POTLOK:  cpu time    2.2309: real time    2.2366
    SETDIJ:  cpu time    0.0232: real time    0.0232
     EDDAV:  cpu time    9.9246: real time    9.9851
       DOS:  cpu time    0.0077: real time    0.0077
    CHARGE:  cpu time    0.8418: real time    0.8426
    MIXING:  cpu time    0.0537: real time    0.0538
    --------------------------------------------
      LOOP:  cpu time   13.0819: real time   13.1490

 eigenvalue-minimisations  :   464
 total energy-change (2. order) : 0.4393269E+01  (-0.1419140E+01)
 number of electron     159.9999965 magnetization      13.6665855
 augmentation part       68.1882468 magnetization       8.3868862

 Broyden mixing:
  rms(total) = 0.11215E+01    rms(broyden)= 0.11212E+01
  rms(prec ) = 0.12169E+01
  weight for this iteration     100.00

 eigenvalues of (default mixing * dielectric matrix)
  average eigenvalue GAMMA=   0.6195
  1.5944  0.4922  0.2015  0.1897

 Free energy of the ion-electron system (eV)
  ---------------------------------------------------
  alpha Z        PSCENC =        11.97286794
  Ewald energy   TEWEN  =     25522.17128242
  -Hartree energ DENC   =    -37993.25810702
  -exchange      EXHF   =         0.00000000
  -V(xc)+E(xc)   XCENC  =      -467.45368220
  PAW double counting   =     14809.61805083   -13833.96636878
  entropy T*S    EENTRO =        -0.01477648
  eigenvalues    EBANDS =     -1052.04166303
  atomic energy  EATOM  =     12955.90228127
  Solvation  Ediel_sol  =         0.00000000
  ---------------------------------------------------
  free energy    TOTEN  =       -47.07011504 eV

  energy without entropy =      -47.05533856  energy(sigma->0) =      -47.06518955


--------------------------------------------------------------------------------------------------------




--------------------------------------- Iteration      1(  10)  ---------------------------------------


    POTLOK:  cpu time    2.2108: real time    2.2159
    SETDIJ:  cpu time    0.0310: real time    0.0310
     EDDAV:  cpu time    9.2574: real time    9.2709
       DOS:  cpu time    0.0087: real time    0.0087
    CHARGE:  cpu time    0.8388: real time    0.8399
    MIXING:  cpu time    0.0563: real time    0.0563
    --------------------------------------------
      LOOP:  cpu time   12.4030: real time   12.4228

 eigenvalue-minimisations  :   456
 total energy-change (2. order) :-0.2743590E+00  (-0.5074264E+00)
 number of electron     159.9999969 magnetization      13.3826183
 augmentation part       68.2995743 magnetization       8.2616413

 Broyden mixing:
  rms(total) = 0.64776E+00    rms(broyden)= 0.64755E+00
  rms(prec ) = 0.71521E+00
  weight for this iteration     100.00

 eigenvalues of (default mixing * dielectric matrix)
  average eigenvalue GAMMA=   0.6031
  1.7187  0.5601  0.2910  0.2910  0.1549

 Free energy of the ion-electron system (eV)
  ---------------------------------------------------
  alpha Z        PSCENC =        11.97286794
  Ewald energy   TEWEN  =     25522.17128242
  -Hartree energ DENC   =    -38000.72452005
  -exchange      EXHF   =         0.00000000
  -V(xc)+E(xc)   XCENC  =      -468.30376270
  PAW double counting   =     14883.09573106   -13908.09149808
  entropy T*S    EENTRO =        -0.01966323
  eigenvalues    EBANDS =     -1043.34719264
  atomic energy  EATOM  =     12955.90228127
  Solvation  Ediel_sol  =         0.00000000
  ---------------------------------------------------
  free energy    TOTEN  =       -47.34447401 eV

  energy without entropy =      -47.32481079  energy(sigma->0) =      -47.33791960


--------------------------------------------------------------------------------------------------------




--------------------------------------- Iteration      1(  11)  ---------------------------------------


    POTLOK:  cpu time    2.2384: real time    2.2418
    SETDIJ:  cpu time    0.0245: real time    0.0245
     EDDAV:  cpu time    9.1849: real time    9.2003
       DOS:  cpu time    0.0089: real time    0.0089
    CHARGE:  cpu time    0.8238: real time    0.8250
    MIXING:  cpu time    0.0626: real time    0.0627
    --------------------------------------------
      LOOP:  cpu time   12.3431: real time   12.3632

 eigenvalue-minimisations  :   448
 total energy-change (2. order) :-0.1885297E+01  (-0.2129390E+00)
 number of electron     159.9999967 magnetization      13.2718256
 augmentation part       68.1923206 magnetization       8.1291970

 Broyden mixing:
  rms(total) = 0.62075E+00    rms(broyden)= 0.62061E+00
  rms(prec ) = 0.66920E+00
  weight for this iteration     100.00

 eigenvalues of (default mixing * dielectric matrix)
  average eigenvalue GAMMA=   0.5274
  1.7019  0.3830  0.3649  0.3649  0.1750  0.1750

 Free energy of the ion-electron system (eV)
  ---------------------------------------------------
  alpha Z        PSCENC =        11.97286794
  Ewald energy   TEWEN  =     25522.17128242
  -Hartree energ DENC   =    -38013.88649013
  -exchange      EXHF   =         0.00000000
  -V(xc)+E(xc)   XCENC  =      -469.55894221
  PAW double counting   =     14951.30287295   -13976.68929493
  entropy T*S    EENTRO =         0.02069098
  eigenvalues    EBANDS =     -1030.46503918
  atomic energy  EATOM  =     12955.90228127
  Solvation  Ediel_sol  =         0.00000000
  ---------------------------------------------------
  free energy    TOTEN  =       -49.22977089 eV

  energy without entropy =      -49.25046187  energy(sigma->0) =      -49.23666788


--------------------------------------------------------------------------------------------------------




--------------------------------------- Iteration      1(  12)  ---------------------------------------


    POTLOK:  cpu time    2.2403: real time    2.2435
    SETDIJ:  cpu time    0.0295: real time    0.0295
     EDDAV:  cpu time    9.3238: real time    9.3377
       DOS:  cpu time    0.0067: real time    0.0067
    CHARGE:  cpu time    0.8345: real time    0.8357
    MIXING:  cpu time    0.0698: real time    0.0699
    --------------------------------------------
      LOOP:  cpu time   12.5046: real time   12.5231

 eigenvalue-minimisations  :   456
 total energy-change (2. order) :-0.9398316E+00  (-0.6602334E-01)
 number of electron     159.9999966 magnetization      13.0884695
 augmentation part       68.1871467 magnetization       8.2444886

 Broyden mixing:
  rms(total) = 0.35377E+00    rms(broyden)= 0.35368E+00
  rms(prec ) = 0.37537E+00
  weight for this iteration     100.00

 eigenvalues of (default mixing * dielectric matrix)
  average eigenvalue GAMMA=   0.5440
  1.6594  0.6081  0.6081  0.2678  0.2678  0.2379  0.1592

 Free energy of the ion-electron system (eV)
  ---------------------------------------------------
  alpha Z        PSCENC =        11.97286794
  Ewald energy   TEWEN  =     25522.17128242
  -Hartree energ DENC   =    -38017.46276181
  -exchange      EXHF   =         0.00000000
  -V(xc)+E(xc)   XCENC  =      -470.29371348
  PAW double counting   =     14961.67366274   -13987.08744061
  entropy T*S    EENTRO =         0.00305493
  eigenvalues    EBANDS =     -1027.04883590
  atomic energy  EATOM  =     12955.90228127
  Solvation  Ediel_sol  =         0.00000000
  ---------------------------------------------------
  free energy    TOTEN  =       -50.16960249 eV

  energy without entropy =      -50.17265743  energy(sigma->0) =      -50.17062081


--------------------------------------------------------------------------------------------------------




--------------------------------------- Iteration      1(  13)  ---------------------------------------


    POTLOK:  cpu time    2.2347: real time    2.2409
    SETDIJ:  cpu time    0.0261: real time    0.0261
     EDDAV:  cpu time    9.2893: real time    9.3069
       DOS:  cpu time    0.0087: real time    0.0087
    CHARGE:  cpu time    0.8477: real time    0.8488
    MIXING:  cpu time    0.0724: real time    0.0724
    --------------------------------------------
      LOOP:  cpu time   12.4788: real time   12.5039

 eigenvalue-minimisations  :   440
 total energy-change (2. order) :-0.1354623E+01  (-0.5027799E-01)
 number of electron     159.9999964 magnetization      12.7918628
 augmentation part       68.1294542 magnetization       8.0281638

 Broyden mixing:
  rms(total) = 0.32539E+00    rms(broyden)= 0.32534E+00
  rms(prec ) = 0.34672E+00
  weight for this iteration     100.00

 eigenvalues of (default mixing * dielectric matrix)
  average eigenvalue GAMMA=   0.5685
  1.6208  0.8429  0.8429  0.3043  0.2823  0.2823  0.2181  0.1545

 Free energy of the ion-electron system (eV)
  ---------------------------------------------------
  alpha Z        PSCENC =        11.97286794
  Ewald energy   TEWEN  =     25522.17128242
  -Hartree energ DENC   =    -38023.94336981
  -exchange      EXHF   =         0.00000000
  -V(xc)+E(xc)   XCENC  =      -471.28026283
  PAW double counting   =     14971.13657171   -13996.60936577
  entropy T*S    EENTRO =         0.03774889
  eigenvalues    EBANDS =     -1020.91197936
  atomic energy  EATOM  =     12955.90228127
  Solvation  Ediel_sol  =         0.00000000
  ---------------------------------------------------
  free energy    TOTEN  =       -51.52422553 eV

  energy without entropy =      -51.56197442  energy(sigma->0) =      -51.53680849


--------------------------------------------------------------------------------------------------------




--------------------------------------- Iteration      1(  14)  ---------------------------------------


    POTLOK:  cpu time    2.2499: real time    2.2566
    SETDIJ:  cpu time    0.0260: real time    0.0260
     EDDAV:  cpu time    9.1646: real time    9.1797
       DOS:  cpu time    0.0074: real time    0.0074
    CHARGE:  cpu time    0.8299: real time    0.8312
    MIXING:  cpu time    0.0776: real time    0.0777
    --------------------------------------------
      LOOP:  cpu time   12.3554: real time   12.3786

 eigenvalue-minimisations  :   440
 total energy-change (2. order) :-0.1646325E+01  (-0.5453758E-01)
 number of electron     159.9999964 magnetization      12.4978030
 augmentation part       68.1371534 magnetization       7.9892019

 Broyden mixing:
  rms(total) = 0.26993E+00    rms(broyden)= 0.26989E+00
  rms(prec ) = 0.29741E+00
  weight for this iteration     100.00

 eigenvalues of (default mixing * dielectric matrix)
  average eigenvalue GAMMA=   0.6322
  1.8355  1.0016  1.0016  0.6275  0.3386  0.2696  0.2696  0.1587  0.1868

 Free energy of the ion-electron system (eV)
  ---------------------------------------------------
  alpha Z        PSCENC =        11.97286794
  Ewald energy   TEWEN  =     25522.17128242
  -Hartree energ DENC   =    -38031.65929357
  -exchange      EXHF   =         0.00000000
  -V(xc)+E(xc)   XCENC  =      -472.49530145
  PAW double counting   =     14980.96896908   -14006.62543837
  entropy T*S    EENTRO =         0.04658239
  eigenvalues    EBANDS =     -1013.45249990
  atomic energy  EATOM  =     12955.90228127
  Solvation  Ediel_sol  =         0.00000000
  ---------------------------------------------------
  free energy    TOTEN  =       -53.17055019 eV

  energy without entropy =      -53.21713258  energy(sigma->0) =      -53.18607765


--------------------------------------------------------------------------------------------------------




--------------------------------------- Iteration      1(  15)  ---------------------------------------


    POTLOK:  cpu time    2.9690: real time    3.0435
    SETDIJ:  cpu time    0.0291: real time    0.0291
     EDDAV:  cpu time    9.5335: real time    9.5451
       DOS:  cpu time    0.0057: real time    0.0057
    CHARGE:  cpu time    0.7831: real time    0.7841
    MIXING:  cpu time    0.0883: real time    0.0884
    --------------------------------------------
      LOOP:  cpu time   13.4087: real time   13.4958

 eigenvalue-minimisations  :   472
 total energy-change (2. order) :-0.8336165E+00  (-0.2367334E-01)
 number of electron     159.9999965 magnetization      12.1250479
 augmentation part       68.1442863 magnetization       7.6809243

 Broyden mixing:
  rms(total) = 0.22917E+00    rms(broyden)= 0.22914E+00
  rms(prec ) = 0.25297E+00
  weight for this iteration     100.00

 eigenvalues of (default mixing * dielectric matrix)
  average eigenvalue GAMMA=   0.6487
  2.0078  1.0904  1.0904  0.7162  0.4006  0.2685  0.2685  0.2977  0.1574  0.1898

 Free energy of the ion-electron system (eV)
  ---------------------------------------------------
  alpha Z        PSCENC =        11.97286794
  Ewald energy   TEWEN  =     25522.17128242
  -Hartree energ DENC   =    -38038.21653356
  -exchange      EXHF   =         0.00000000
  -V(xc)+E(xc)   XCENC  =      -473.16791993
  PAW double counting   =     14996.90368827   -14022.88558641
  entropy T*S    EENTRO =         0.04573798
  eigenvalues    EBANDS =     -1006.72998463
  atomic energy  EATOM  =     12955.90228127
  Solvation  Ediel_sol  =         0.00000000
  ---------------------------------------------------
  free energy    TOTEN  =       -54.00416664 eV

  energy without entropy =      -54.04990462  energy(sigma->0) =      -54.01941264


--------------------------------------------------------------------------------------------------------




--------------------------------------- Iteration      1(  16)  ---------------------------------------


    POTLOK:  cpu time    2.2851: real time    2.3083
    SETDIJ:  cpu time    0.0277: real time    0.0277
     EDDAV:  cpu time    9.0172: real time    9.0279
       DOS:  cpu time    0.0077: real time    0.0077
    CHARGE:  cpu time    0.7923: real time    0.7933
    MIXING:  cpu time    0.0843: real time    0.0844
    --------------------------------------------
      LOOP:  cpu time   12.2143: real time   12.2493

 eigenvalue-minimisations  :   440
 total energy-change (2. order) :-0.1013294E+01  (-0.2740362E-01)
 number of electron     159.9999965 magnetization      11.8467673
 augmentation part       68.1561510 magnetization       7.5563749

 Broyden mixing:
  rms(total) = 0.17270E+00    rms(broyden)= 0.17266E+00
  rms(prec ) = 0.18422E+00
  weight for this iteration     100.00

 eigenvalues of (default mixing * dielectric matrix)
  average eigenvalue GAMMA=   0.6339
  2.1347  1.0754  0.8348  0.8348  0.6000  0.3800  0.2651  0.2651  0.2376  0.1576
  0.1883

 Free energy of the ion-electron system (eV)
  ---------------------------------------------------
  alpha Z        PSCENC =        11.97286794
  Ewald energy   TEWEN  =     25522.17128242
  -Hartree energ DENC   =    -38046.30493615
  -exchange      EXHF   =         0.00000000
  -V(xc)+E(xc)   XCENC  =      -473.93569895
  PAW double counting   =     15008.54758850   -14034.81892836
  entropy T*S    EENTRO =         0.03032542
  eigenvalues    EBANDS =      -998.58224253
  atomic energy  EATOM  =     12955.90228127
  Solvation  Ediel_sol  =         0.00000000
  ---------------------------------------------------
  free energy    TOTEN  =       -55.01746043 eV

  energy without entropy =      -55.04778585  energy(sigma->0) =      -55.02756890


--------------------------------------------------------------------------------------------------------




--------------------------------------- Iteration      1(  17)  ---------------------------------------


    POTLOK:  cpu time    2.2571: real time    2.2635
    SETDIJ:  cpu time    0.0264: real time    0.0265
     EDDAV:  cpu time    9.6765: real time    9.6880
       DOS:  cpu time    0.0086: real time    0.0087
    CHARGE:  cpu time    0.8058: real time    0.8068
    MIXING:  cpu time    0.0944: real time    0.0944
    --------------------------------------------
      LOOP:  cpu time   12.8688: real time   12.8878

 eigenvalue-minimisations  :   440
 total energy-change (2. order) :-0.8912245E+00  (-0.1756876E-01)
 number of electron     159.9999966 magnetization      11.6685921
 augmentation part       68.1470945 magnetization       7.4866366

 Broyden mixing:
  rms(total) = 0.13854E+00    rms(broyden)= 0.13852E+00
  rms(prec ) = 0.14541E+00
  weight for this iteration     100.00

 eigenvalues of (default mixing * dielectric matrix)
  average eigenvalue GAMMA=   0.6291
  2.1823  1.3807  0.7524  0.7524  0.6196  0.4705  0.2730  0.2730  0.1576  0.1878
  0.2496  0.2496

 Free energy of the ion-electron system (eV)
  ---------------------------------------------------
  alpha Z        PSCENC =        11.97286794
  Ewald energy   TEWEN  =     25522.17128242
  -Hartree energ DENC   =    -38052.34333483
  -exchange      EXHF   =         0.00000000
  -V(xc)+E(xc)   XCENC  =      -474.59571501
  PAW double counting   =     15010.16663696   -14036.53559315
  entropy T*S    EENTRO =         0.03082621
  eigenvalues    EBANDS =      -992.67793674
  atomic energy  EATOM  =     12955.90228127
  Solvation  Ediel_sol  =         0.00000000
  ---------------------------------------------------
  free energy    TOTEN  =       -55.90868492 eV

  energy without entropy =      -55.93951113  energy(sigma->0) =      -55.91896033


--------------------------------------------------------------------------------------------------------




--------------------------------------- Iteration      1(  18)  ---------------------------------------


    POTLOK:  cpu time    2.2656: real time    2.2677
    SETDIJ:  cpu time    0.0264: real time    0.0264
     EDDAV:  cpu time    9.5875: real time    9.6085
       DOS:  cpu time    0.0072: real time    0.0072
    CHARGE:  cpu time    0.8647: real time    0.8658
    MIXING:  cpu time    0.1207: real time    0.1209
    --------------------------------------------
      LOOP:  cpu time   12.8721: real time   12.8966

 eigenvalue-minimisations  :   456
 total energy-change (2. order) :-0.5224632E+00  (-0.7149376E-02)
 number of electron     159.9999966 magnetization      11.3623859
 augmentation part       68.1338190 magnetization       7.2538967

 Broyden mixing:
  rms(total) = 0.10831E+00    rms(broyden)= 0.10830E+00
  rms(prec ) = 0.11352E+00
  weight for this iteration     100.00

 eigenvalues of (default mixing * dielectric matrix)
  average eigenvalue GAMMA=   0.6670
  2.2202  1.5282  0.8933  0.8933  0.7052  0.7052  0.2696  0.2696  0.3130  0.3130
  0.1576  0.1883  0.2152

 Free energy of the ion-electron system (eV)
  ---------------------------------------------------
  alpha Z        PSCENC =        11.97286794
  Ewald energy   TEWEN  =     25522.17128242
  -Hartree energ DENC   =    -38055.70991363
  -exchange      EXHF   =         0.00000000
  -V(xc)+E(xc)   XCENC  =      -474.98053558
  PAW double counting   =     15007.04061971   -14033.42802887
  entropy T*S    EENTRO =         0.02878883
  eigenvalues    EBANDS =      -989.42851022
  atomic energy  EATOM  =     12955.90228127
  Solvation  Ediel_sol  =         0.00000000
  ---------------------------------------------------
  free energy    TOTEN  =       -56.43114812 eV

  energy without entropy =      -56.45993696  energy(sigma->0) =      -56.44074440


--------------------------------------------------------------------------------------------------------




--------------------------------------- Iteration      1(  19)  ---------------------------------------


    POTLOK:  cpu time    2.2637: real time    2.2679
    SETDIJ:  cpu time    0.0296: real time    0.0297
     EDDAV:  cpu time   11.2381: real time   11.2535
       DOS:  cpu time    0.0117: real time    0.0117
    CHARGE:  cpu time    0.7832: real time    0.7841
    MIXING:  cpu time    0.1230: real time    0.1232
    --------------------------------------------
      LOOP:  cpu time   14.4494: real time   14.4701

 eigenvalue-minimisations  :   424
 total energy-change (2. order) :-0.7109952E+00  (-0.9805877E-02)
 number of electron     159.9999965 magnetization      11.0467190
 augmentation part       68.1349476 magnetization       7.0557146

 Broyden mixing:
  rms(total) = 0.89700E-01    rms(broyden)= 0.89694E-01
  rms(prec ) = 0.94081E-01
  weight for this iteration     100.00

 eigenvalues of (default mixing * dielectric matrix)
  average eigenvalue GAMMA=   0.6823
  2.3371  1.3977  0.9564  0.9564  0.9930  0.7544  0.4303  0.3567  0.2686  0.2686
  0.2746  0.1576  0.1880  0.2136

 Free energy of the ion-electron system (eV)
  ---------------------------------------------------
  alpha Z        PSCENC =        11.97286794
  Ewald energy   TEWEN  =     25522.17128242
  -Hartree energ DENC   =    -38059.65340544
  -exchange      EXHF   =         0.00000000
  -V(xc)+E(xc)   XCENC  =      -475.54764217
  PAW double counting   =     14997.03261677   -14023.45096514
  entropy T*S    EENTRO =         0.03061172
  eigenvalues    EBANDS =      -985.59979071
  atomic energy  EATOM  =     12955.90228127
  Solvation  Ediel_sol  =         0.00000000
  ---------------------------------------------------
  free energy    TOTEN  =       -57.14214333 eV

  energy without entropy =      -57.17275506  energy(sigma->0) =      -57.15234724


--------------------------------------------------------------------------------------------------------




--------------------------------------- Iteration      1(  20)  ---------------------------------------


    POTLOK:  cpu time    2.2634: real time    2.2673
    SETDIJ:  cpu time    0.0288: real time    0.0288
     EDDAV:  cpu time   10.8689: real time   11.3708
       DOS:  cpu time    0.0081: real time    0.0081
    CHARGE:  cpu time    0.8192: real time    0.8197
    MIXING:  cpu time    0.1310: real time    0.1311
    --------------------------------------------
      LOOP:  cpu time   14.1195: real time   14.6258

 eigenvalue-minimisations  :   464
 total energy-change (2. order) :-0.5622281E+00  (-0.6186301E-02)
 number of electron     159.9999966 magnetization      10.6434416
 augmentation part       68.1339148 magnetization       6.7467280

 Broyden mixing:
  rms(total) = 0.75500E-01    rms(broyden)= 0.75492E-01
  rms(prec ) = 0.78323E-01
  weight for this iteration     100.00

 eigenvalues of (default mixing * dielectric matrix)
  average eigenvalue GAMMA=   0.7044
  2.6139  1.5813  0.8953  0.8953  0.9038  0.9038  0.7357  0.3396  0.3396  0.2683
  0.2683  0.1576  0.2608  0.1881  0.2139

 Free energy of the ion-electron system (eV)
  ---------------------------------------------------
  alpha Z        PSCENC =        11.97286794
  Ewald energy   TEWEN  =     25522.17128242
  -Hartree energ DENC   =    -38063.48032211
  -exchange      EXHF   =         0.00000000
  -V(xc)+E(xc)   XCENC  =      -476.02148095
  PAW double counting   =     14988.76165060   -14015.22506224
  entropy T*S    EENTRO =         0.02959123
  eigenvalues    EBANDS =      -981.81517955
  atomic energy  EATOM  =     12955.90228127
  Solvation  Ediel_sol  =         0.00000000
  ---------------------------------------------------
  free energy    TOTEN  =       -57.70437139 eV

  energy without entropy =      -57.73396262  energy(sigma->0) =      -57.71423513


--------------------------------------------------------------------------------------------------------




--------------------------------------- Iteration      1(  21)  ---------------------------------------


    POTLOK:  cpu time    2.2734: real time    2.2772
    SETDIJ:  cpu time    0.0279: real time    0.0279
     EDDAV:  cpu time    8.6335: real time    8.6445
       DOS:  cpu time    0.0039: real time    0.0039
    CHARGE:  cpu time    0.8235: real time    0.8240
    MIXING:  cpu time    0.1347: real time    0.1348
    --------------------------------------------
      LOOP:  cpu time   11.8969: real time   11.9123

 eigenvalue-minimisations  :   424
 total energy-change (2. order) :-0.6578107E+00  (-0.6080995E-02)
 number of electron     159.9999965 magnetization      10.3445798
 augmentation part       68.1407504 magnetization       6.5635362

 Broyden mixing:
  rms(total) = 0.82998E-01    rms(broyden)= 0.82992E-01
  rms(prec ) = 0.87908E-01
  weight for this iteration     100.00

 eigenvalues of (default mixing * dielectric matrix)
  average eigenvalue GAMMA=   0.7154
  2.7909  1.6128  0.8954  0.8954  0.9904  0.9904  0.8080  0.4599  0.3661  0.2690
  0.2690  0.1576  0.2878  0.2534  0.1881  0.2120

 Free energy of the ion-electron system (eV)
  ---------------------------------------------------
  alpha Z        PSCENC =        11.97286794
  Ewald energy   TEWEN  =     25522.17128242
  -Hartree energ DENC   =    -38068.09688816
  -exchange      EXHF   =         0.00000000
  -V(xc)+E(xc)   XCENC  =      -476.56890622
  PAW double counting   =     14978.02977432   -14004.51168924
  entropy T*S    EENTRO =         0.03879881
  eigenvalues    EBANDS =      -977.29970321
  atomic energy  EATOM  =     12955.90228127
  Solvation  Ediel_sol  =         0.00000000
  ---------------------------------------------------
  free energy    TOTEN  =       -58.36218207 eV

  energy without entropy =      -58.40098088  energy(sigma->0) =      -58.37511501


--------------------------------------------------------------------------------------------------------




--------------------------------------- Iteration      1(  22)  ---------------------------------------


    POTLOK:  cpu time    2.4421: real time    2.5592
    SETDIJ:  cpu time    0.0259: real time    0.0259
     EDDAV:  cpu time    9.7449: real time    9.7670
       DOS:  cpu time    0.0058: real time    0.0058
    CHARGE:  cpu time    0.8216: real time    0.8239
    MIXING:  cpu time    0.1513: real time    0.1534
    --------------------------------------------
      LOOP:  cpu time   13.1915: real time   13.3351

 eigenvalue-minimisations  :   488
 total energy-change (2. order) :-0.4205183E+00  (-0.3051003E-02)
 number of electron     159.9999965 magnetization       9.7703259
 augmentation part       68.1393864 magnetization       6.0499831

 Broyden mixing:
  rms(total) = 0.60812E-01    rms(broyden)= 0.60807E-01
  rms(prec ) = 0.64078E-01
  weight for this iteration     100.00

 eigenvalues of (default mixing * dielectric matrix)
  average eigenvalue GAMMA=   0.7815
  3.4763  1.9531  1.0995  1.0995  0.9310  0.9310  0.8545  0.6235  0.3692  0.2689
  0.2689  0.1576  0.3165  0.2880  0.1882  0.2466  0.2123

 Free energy of the ion-electron system (eV)
  ---------------------------------------------------
  alpha Z        PSCENC =        11.97286794
  Ewald energy   TEWEN  =     25522.17128242
  -Hartree energ DENC   =    -38071.15551040
  -exchange      EXHF   =         0.00000000
  -V(xc)+E(xc)   XCENC  =      -476.93158598
  PAW double counting   =     14970.59898863   -13997.07016869
  entropy T*S    EENTRO =         0.03536853
  eigenvalues    EBANDS =      -974.30622404
  atomic energy  EATOM  =     12955.90228127
  Solvation  Ediel_sol  =         0.00000000
  ---------------------------------------------------
  free energy    TOTEN  =       -58.78270033 eV

  energy without entropy =      -58.81806886  energy(sigma->0) =      -58.79448984


--------------------------------------------------------------------------------------------------------




--------------------------------------- Iteration      1(  23)  ---------------------------------------


    POTLOK:  cpu time    2.2212: real time    2.2305
    SETDIJ:  cpu time    0.0276: real time    0.0276
     EDDAV:  cpu time    8.8509: real time    8.9148
       DOS:  cpu time    0.0053: real time    0.0053
    CHARGE:  cpu time    1.2159: real time    1.2181
    MIXING:  cpu time    0.1436: real time    0.1443
    --------------------------------------------
      LOOP:  cpu time   12.4645: real time   12.5407

 eigenvalue-minimisations  :   424
 total energy-change (2. order) :-0.7335008E+00  (-0.7604411E-02)
 number of electron     159.9999966 magnetization       9.2081491
 augmentation part       68.1406606 magnetization       5.6058021

 Broyden mixing:
  rms(total) = 0.45314E-01    rms(broyden)= 0.45305E-01
  rms(prec ) = 0.47165E-01
  weight for this iteration     100.00

 eigenvalues of (default mixing * dielectric matrix)
  average eigenvalue GAMMA=   0.8604
  4.5719  2.1565  1.1404  1.1404  0.9148  0.9148  0.8708  0.8708  0.6126  0.3588
  0.2689  0.2689  0.3241  0.1576  0.2729  0.1882  0.2120  0.2425

 Free energy of the ion-electron system (eV)
  ---------------------------------------------------
  alpha Z        PSCENC =        11.97286794
  Ewald energy   TEWEN  =     25522.17128242
  -Hartree energ DENC   =    -38076.11747176
  -exchange      EXHF   =         0.00000000
  -V(xc)+E(xc)   XCENC  =      -477.57816314
  PAW double counting   =     14955.10361397   -13981.50355185
  entropy T*S    EENTRO =         0.03911128
  eigenvalues    EBANDS =      -969.50617127
  atomic energy  EATOM  =     12955.90228127
  Solvation  Ediel_sol  =         0.00000000
  ---------------------------------------------------
  free energy    TOTEN  =       -59.51620112 eV

  energy without entropy =      -59.55531241  energy(sigma->0) =      -59.52923822


--------------------------------------------------------------------------------------------------------




--------------------------------------- Iteration      1(  24)  ---------------------------------------


    POTLOK:  cpu time    2.5090: real time    2.5186
    SETDIJ:  cpu time    0.0255: real time    0.0259
     EDDAV:  cpu time    9.2910: real time    9.3166
       DOS:  cpu time    0.0041: real time    0.0042
    CHARGE:  cpu time    0.7940: real time    0.7955
    MIXING:  cpu time    0.1714: real time    0.1717
    --------------------------------------------
      LOOP:  cpu time   12.7950: real time   12.8323

 eigenvalue-minimisations  :   456
 total energy-change (2. order) :-0.5370989E+00  (-0.5474303E-02)
 number of electron     159.9999966 magnetization       8.8746314
 augmentation part       68.1432282 magnetization       5.3880422

 Broyden mixing:
  rms(total) = 0.37278E-01    rms(broyden)= 0.37270E-01
  rms(prec ) = 0.39237E-01
  weight for this iteration     100.00

 eigenvalues of (default mixing * dielectric matrix)
  average eigenvalue GAMMA=   0.9137
  5.6476  2.2051  1.3010  1.3010  0.9254  0.9254  0.8511  0.8511  0.6038  0.4561
  0.3596  0.2689  0.2689  0.3235  0.1576  0.1882  0.2724  0.2121  0.2425

 Free energy of the ion-electron system (eV)
  ---------------------------------------------------
  alpha Z        PSCENC =        11.97286794
  Ewald energy   TEWEN  =     25522.17128242
  -Hartree energ DENC   =    -38079.28819182
  -exchange      EXHF   =         0.00000000
  -V(xc)+E(xc)   XCENC  =      -478.07727544
  PAW double counting   =     14944.43925622   -13970.76419786
  entropy T*S    EENTRO =         0.04136358
  eigenvalues    EBANDS =      -966.45068636
  atomic energy  EATOM  =     12955.90228127
  Solvation  Ediel_sol  =         0.00000000
  ---------------------------------------------------
  free energy    TOTEN  =       -60.05330005 eV

  energy without entropy =      -60.09466363  energy(sigma->0) =      -60.06708791


--------------------------------------------------------------------------------------------------------




--------------------------------------- Iteration      1(  25)  ---------------------------------------


    POTLOK:  cpu time    2.2579: real time    2.2653
    SETDIJ:  cpu time    0.0230: real time    0.0231
     EDDAV:  cpu time    9.3618: real time    9.3921
       DOS:  cpu time    0.0042: real time    0.0042
    CHARGE:  cpu time    0.7877: real time    0.7890
    MIXING:  cpu time    0.1574: real time    0.1576
    --------------------------------------------
      LOOP:  cpu time   12.5920: real time   12.6312

 eigenvalue-minimisations  :   464
 total energy-change (2. order) :-0.3027165E+00  (-0.1747257E-02)
 number of electron     159.9999966 magnetization       8.5316605
 augmentation part       68.1449237 magnetization       5.1140663

 Broyden mixing:
  rms(total) = 0.27996E-01    rms(broyden)= 0.27989E-01
  rms(prec ) = 0.29234E-01
  weight for this iteration     100.00

 eigenvalues of (default mixing * dielectric matrix)
  average eigenvalue GAMMA=   0.9730
  6.8033  2.2772  1.4814  1.4278  0.9297  0.9297  0.8384  0.8384  0.6559  0.6559
  0.3659  0.2689  0.2689  0.3238  0.3238  0.1576  0.1882  0.2700  0.2121  0.2429

 Free energy of the ion-electron system (eV)
  ---------------------------------------------------
  alpha Z        PSCENC =        11.97286794
  Ewald energy   TEWEN  =     25522.17128242
  -Hartree energ DENC   =    -38080.70688887
  -exchange      EXHF   =         0.00000000
  -V(xc)+E(xc)   XCENC  =      -478.36772325
  PAW double counting   =     14941.88458563   -13968.16870169
  entropy T*S    EENTRO =         0.04435963
  eigenvalues    EBANDS =      -965.08807963
  atomic energy  EATOM  =     12955.90228127
  Solvation  Ediel_sol  =         0.00000000
  ---------------------------------------------------
  free energy    TOTEN  =       -60.35601654 eV

  energy without entropy =      -60.40037617  energy(sigma->0) =      -60.37080309


--------------------------------------------------------------------------------------------------------




--------------------------------------- Iteration      1(  26)  ---------------------------------------


    POTLOK:  cpu time    2.2707: real time    2.2767
    SETDIJ:  cpu time    0.0220: real time    0.0222
     EDDAV:  cpu time   10.6700: real time   10.8125
       DOS:  cpu time    0.0102: real time    0.0102
    CHARGE:  cpu time    0.8518: real time    0.8531
    MIXING:  cpu time    0.1707: real time    0.1727
    --------------------------------------------
      LOOP:  cpu time   13.9954: real time   14.1475

 eigenvalue-minimisations  :   480
 total energy-change (2. order) :-0.3566941E+00  (-0.1348385E-02)
 number of electron     159.9999966 magnetization       8.2552206
 augmentation part       68.1456301 magnetization       4.8926665

 Broyden mixing:
  rms(total) = 0.22861E-01    rms(broyden)= 0.22858E-01
  rms(prec ) = 0.24382E-01
  weight for this iteration     100.00

 eigenvalues of (default mixing * dielectric matrix)
  average eigenvalue GAMMA=   1.0189
  7.7902  2.2508  1.9347  1.2369  0.9216  0.9216  0.8959  0.8959  0.6561  0.6561
  0.6353  0.2689  0.2689  0.3470  0.3439  0.1576  0.1882  0.3001  0.2725  0.2121
  0.2424

 Free energy of the ion-electron system (eV)
  ---------------------------------------------------
  alpha Z        PSCENC =        11.97286794
  Ewald energy   TEWEN  =     25522.17128242
  -Hartree energ DENC   =    -38081.34579904
  -exchange      EXHF   =         0.00000000
  -V(xc)+E(xc)   XCENC  =      -478.72183454
  PAW double counting   =     14941.59475430   -13967.82051707
  entropy T*S    EENTRO =         0.04645764
  eigenvalues    EBANDS =      -964.51220359
  atomic energy  EATOM  =     12955.90228127
  Solvation  Ediel_sol  =         0.00000000
  ---------------------------------------------------
  free energy    TOTEN  =       -60.71271066 eV

  energy without entropy =      -60.75916830  energy(sigma->0) =      -60.72819654


--------------------------------------------------------------------------------------------------------




--------------------------------------- Iteration      1(  27)  ---------------------------------------


    POTLOK:  cpu time    2.4672: real time    2.4714
    SETDIJ:  cpu time    0.0245: real time    0.0245
     EDDAV:  cpu time   10.2912: real time   10.3169
       DOS:  cpu time    0.0090: real time    0.0091
    CHARGE:  cpu time    0.8156: real time    0.8171
    MIXING:  cpu time    0.2057: real time    0.2069
    --------------------------------------------
      LOOP:  cpu time   13.8132: real time   13.8459

 eigenvalue-minimisations  :   496
 total energy-change (2. order) :-0.2593789E+00  (-0.7680845E-03)
 number of electron     159.9999966 magnetization       8.0009623
 augmentation part       68.1457604 magnetization       4.6729106

 Broyden mixing:
  rms(total) = 0.19627E-01    rms(broyden)= 0.19622E-01
  rms(prec ) = 0.21280E-01
  weight for this iteration     100.00

 eigenvalues of (default mixing * dielectric matrix)
  average eigenvalue GAMMA=   1.0745
  8.9094  2.3811  2.2021  1.3617  0.9211  0.9211  0.9532  0.8448  0.8448  0.6884
  0.6884  0.1576  0.2689  0.2689  0.3564  0.3564  0.1882  0.3199  0.2121  0.2425
  0.2698  0.2824

 Free energy of the ion-electron system (eV)
  ---------------------------------------------------
  alpha Z        PSCENC =        11.97286794
  Ewald energy   TEWEN  =     25522.17128242
  -Hartree energ DENC   =    -38081.33995632
  -exchange      EXHF   =         0.00000000
  -V(xc)+E(xc)   XCENC  =      -478.98750782
  PAW double counting   =     14943.06474763   -13969.24941469
  entropy T*S    EENTRO =         0.04762665
  eigenvalues    EBANDS =      -964.55401667
  atomic energy  EATOM  =     12955.90228127
  Solvation  Ediel_sol  =         0.00000000
  ---------------------------------------------------
  free energy    TOTEN  =       -60.97208958 eV

  energy without entropy =      -61.01971623  energy(sigma->0) =      -60.98796513


--------------------------------------------------------------------------------------------------------




--------------------------------------- Iteration      1(  28)  ---------------------------------------


    POTLOK:  cpu time    2.4218: real time    2.4353
    SETDIJ:  cpu time    0.0224: real time    0.0224
     EDDAV:  cpu time   10.6524: real time   10.6800
       DOS:  cpu time    0.0086: real time    0.0086
    CHARGE:  cpu time    0.8064: real time    0.8086
    MIXING:  cpu time    0.2171: real time    0.2181
    --------------------------------------------
      LOOP:  cpu time   14.1286: real time   14.1730

 eigenvalue-minimisations  :   472
 total energy-change (2. order) :-0.1932687E+00  (-0.5814736E-03)
 number of electron     159.9999966 magnetization       7.8532062
 augmentation part       68.1468776 magnetization       4.5597544

 Broyden mixing:
  rms(total) = 0.11163E-01    rms(broyden)= 0.11159E-01
  rms(prec ) = 0.12252E-01
  weight for this iteration     100.00

 eigenvalues of (default mixing * dielectric matrix)
  average eigenvalue GAMMA=   1.1221
  9.8114  2.7117  2.2345  1.4696  1.1583  0.9225  0.9225  0.8384  0.8384  0.7032
  0.7032  0.6028  0.1576  0.2689  0.2689  0.1882  0.3549  0.3466  0.3168  0.2121
  0.2424  0.2729  0.2625

 Free energy of the ion-electron system (eV)
  ---------------------------------------------------
  alpha Z        PSCENC =        11.97286794
  Ewald energy   TEWEN  =     25522.17128242
  -Hartree energ DENC   =    -38080.31779017
  -exchange      EXHF   =         0.00000000
  -V(xc)+E(xc)   XCENC  =      -479.19237668
  PAW double counting   =     14945.05098019   -13971.18747438
  entropy T*S    EENTRO =         0.04724776
  eigenvalues    EBANDS =      -965.61237665
  atomic energy  EATOM  =     12955.90228127
  Solvation  Ediel_sol  =         0.00000000
  ---------------------------------------------------
  free energy    TOTEN  =       -61.16535828 eV

  energy without entropy =      -61.21260605  energy(sigma->0) =      -61.18110754


--------------------------------------------------------------------------------------------------------




--------------------------------------- Iteration      1(  29)  ---------------------------------------


    POTLOK:  cpu time    2.2311: real time    2.2373
    SETDIJ:  cpu time    0.0241: real time    0.0241
     EDDAV:  cpu time   10.3911: real time   10.4184
       DOS:  cpu time    0.0077: real time    0.0078
    CHARGE:  cpu time    0.8200: real time    0.8219
    MIXING:  cpu time    0.2092: real time    0.2125
    --------------------------------------------
      LOOP:  cpu time   13.6832: real time   13.7220

 eigenvalue-minimisations  :   472
 total energy-change (2. order) :-0.9323199E-01  (-0.2097139E-03)
 number of electron     159.9999966 magnetization       7.7616865
 augmentation part       68.1497801 magnetization       4.4812925

 Broyden mixing:
  rms(total) = 0.11353E-01    rms(broyden)= 0.11352E-01
  rms(prec ) = 0.12583E-01
  weight for this iteration     100.00

 eigenvalues of (default mixing * dielectric matrix)
  average eigenvalue GAMMA=   1.1367
 10.3357  2.9644  2.2763  1.5805  1.1677  0.9212  0.9212  0.8462  0.8462  0.7639
  0.7639  0.6239  0.1576  0.2689  0.2689  0.3765  0.3765  0.3236  0.3236  0.1882
  0.2121  0.2422  0.2696  0.2615

 Free energy of the ion-electron system (eV)
  ---------------------------------------------------
  alpha Z        PSCENC =        11.97286794
  Ewald energy   TEWEN  =     25522.17128242
  -Hartree energ DENC   =    -38079.01168451
  -exchange      EXHF   =         0.00000000
  -V(xc)+E(xc)   XCENC  =      -479.29794508
[...]
     69      -4.7460      1.00015
     70      -4.7113      1.00037
     71      -4.6965      1.00053
     72      -4.6596      1.00124
     73      -4.5927      1.00479
     74      -4.5664      1.00755
     75      -4.5551      1.00904
     76      -4.5200      1.01499
     77      -4.4927      1.02081
     78      -4.4757      1.02472
     79      -4.4370      1.03280
     80      -4.4359      1.03296
     81      -4.3994      1.03517
     82      -4.2948      0.94504
     83      -4.2562      0.85134
     84      -4.1719      0.53828
     85      -3.9113     -0.03530
     86      -3.4233     -0.00000
     87      -3.2710     -0.00000
     88      -2.8483     -0.00000
     89      -2.5587     -0.00000
     90      -2.3156     -0.00000
     91      -2.0220     -0.00000
     92      -1.7110     -0.00000
     93      -1.5680     -0.00000
     94      -1.3779     -0.00000
     95      -0.9707     -0.00000
     96      -0.9365     -0.00000
     97      -0.7300     -0.00000
     98      -0.6853     -0.00000
     99      -0.3153     -0.00000
    100      -0.2061     -0.00000
    101      -0.1152     -0.00000
    102      -0.0266     -0.00000
    103       0.1915     -0.00000
    104       0.2235     -0.00000

 spin component 2

 k-point     1 :       0.0000    0.0000    0.0000
  band No.  band energies     occupation 
      1      -8.7959      1.00000
      2      -8.2528      1.00000
      3      -8.2106      1.00000
      4      -8.0112      1.00000
      5      -7.9409      1.00000
      6      -7.8923      1.00000
      7      -7.8095      1.00000
      8      -7.7325      1.00000
      9      -7.6317      1.00000
     10      -7.5140      1.00000
     11      -7.4618      1.00000
     12      -7.3890      1.00000
     13      -7.2679      1.00000
     14      -7.1444      1.00000
     15      -7.0976      1.00000
     16      -7.0755      1.00000
     17      -7.0538      1.00000
     18      -6.9991      1.00000
     19      -6.8949      1.00000
     20      -6.8786      1.00000
     21      -6.8113      1.00000
     22      -6.7783      1.00000
     23      -6.6961      1.00000
     24      -6.6351      1.00000
     25      -6.5925      1.00000
     26      -6.5237      1.00000
     27      -6.4802      1.00000
     28      -6.4702      1.00000
     29      -6.3253      1.00000
     30      -6.2964      1.00000
     31      -6.2456      1.00000
     32      -6.2183      1.00000
     33      -6.1305      1.00000
     34      -6.0823      1.00000
     35      -5.9782      1.00000
     36      -5.8511      1.00000
     37      -5.7975      1.00000
     38      -5.7414      1.00000
     39      -5.6699      1.00000
     40      -5.6150      1.00000
     41      -5.5097      1.00000
     42      -5.5051      1.00000
     43      -5.4495      1.00000
     44      -5.3684      1.00000
     45      -5.3574      1.00000
     46      -5.2521      1.00000
     47      -5.2191      1.00000
     48      -5.1650      1.00000
     49      -5.1459      1.00000
     50      -5.1287      1.00000
     51      -5.0989      1.00000
     52      -5.0707      1.00000
     53      -5.0271      1.00000
     54      -5.0020      1.00000
     55      -4.9515      1.00000
     56      -4.9090      1.00000
     57      -4.8897      1.00000
     58      -4.8679      1.00000
     59      -4.8330      1.00001
     60      -4.8128      1.00002
     61      -4.7619      1.00010
     62      -4.7259      1.00025
     63      -4.7016      1.00047
     64      -4.6780      1.00082
     65      -4.6113      1.00339
     66      -4.5810      1.00590
     67      -4.5461      1.01038
     68      -4.4933      1.02068
     69      -4.4584      1.02865
     70      -4.4181      1.03508
     71      -4.4087      1.03545
     72      -4.3555      1.02086
     73      -4.2977      0.95050
     74      -4.2802      0.91391
     75      -4.2681      0.88419
     76      -4.2219      0.73805
     77      -4.1475      0.43515
     78      -4.1216      0.32962
     79      -4.0688      0.14660
     80      -4.0328      0.05867
     81      -3.9945      0.00003
     82      -3.9311     -0.03473
     83      -3.9102     -0.03524
     84      -3.8678     -0.02875
     85      -3.7315     -0.00466
     86      -3.2468     -0.00000
     87      -3.0913     -0.00000
     88      -2.7023     -0.00000
     89      -2.4275     -0.00000
     90      -2.1707     -0.00000
     91      -1.8565     -0.00000
     92      -1.5913     -0.00000
     93      -1.4708     -0.00000
     94      -1.2679     -0.00000
     95      -0.8737     -0.00000
     96      -0.8337     -0.00000
     97      -0.6414     -0.00000
     98      -0.6135     -0.00000
     99      -0.2461     -0.00000
    100      -0.1309     -0.00000
    101      -0.0369     -0.00000
    102       0.0180     -0.00000
    103       0.2167     -0.00000
    104       0.2647     -0.00000


--------------------------------------------------------------------------------------------------------


 soft charge-density along one line, spin component            1
         0         1         2         3         4         5         6         7         8         9
 total charge-density along one line
 
 soft charge-density along one line, spin component            2
         0         1         2         3         4         5         6         7         8         9
 total charge-density along one line
 
 pseudopotential strength for first ion, spin component:            1
 -8.729  -0.020  -0.016  -0.027  -0.005  -8.688  -0.019  -0.016
 -0.020  -8.855   0.017   0.044   0.001  -0.019  -8.809   0.017
 -0.016   0.017  -8.866  -0.040  -0.012  -0.016   0.017  -8.819
 -0.027   0.044  -0.040  -8.883  -0.018  -0.026   0.042  -0.038
 -0.005   0.001  -0.012  -0.018  -8.766  -0.005   0.001  -0.012
 -8.688  -0.019  -0.016  -0.026  -0.005  -8.626  -0.018  -0.015
 -0.019  -8.809   0.017   0.042   0.001  -0.018  -8.741   0.016
 -0.016   0.017  -8.819  -0.038  -0.012  -0.015   0.016  -8.751
 -0.026   0.042  -0.038  -8.835  -0.017  -0.025   0.040  -0.036
 -0.005   0.001  -0.012  -0.017  -8.723  -0.005   0.001  -0.011
 -0.014   0.005   0.033   0.014   0.001  -0.013   0.005   0.032
 -0.024   0.008   0.056   0.023   0.001  -0.023   0.008   0.055
  0.010  -0.004  -0.004   0.002  -0.007   0.010  -0.004  -0.004
  0.002   0.010  -0.005   0.010   0.000   0.002   0.010  -0.004
  0.011   0.002  -0.005  -0.003   0.010   0.010   0.002  -0.005
  0.012  -0.005  -0.005   0.002  -0.008   0.012  -0.005  -0.005
  0.002   0.012  -0.006   0.012   0.001   0.002   0.011  -0.005
  0.012   0.002  -0.007  -0.003   0.011   0.012   0.002  -0.006
 pseudopotential strength for first ion, spin component:            2
 -8.588  -0.023  -0.024  -0.008   0.002  -8.553  -0.022  -0.023
 -0.023  -8.665  -0.022   0.017   0.001  -0.022  -8.627  -0.021
 -0.024  -0.022  -8.698   0.002  -0.010  -0.023  -0.021  -8.659
 -0.008   0.017   0.002  -8.649  -0.019  -0.008   0.016   0.002
  0.002   0.001  -0.010  -0.019  -8.576   0.002   0.001  -0.009
 -8.553  -0.022  -0.023  -0.008   0.002  -8.496  -0.021  -0.022
 -0.022  -8.627  -0.021   0.016   0.001  -0.021  -8.567  -0.020
 -0.023  -0.021  -8.659   0.002  -0.009  -0.022  -0.020  -8.597
 -0.008   0.016   0.002  -8.611  -0.018  -0.008   0.015   0.002
  0.002   0.001  -0.009  -0.018  -8.542   0.002   0.001  -0.009
 -0.009   0.006   0.025   0.008  -0.005  -0.008   0.006   0.024
 -0.015   0.010   0.042   0.013  -0.008  -0.014   0.010   0.041
  0.011  -0.003  -0.005   0.001  -0.009   0.010  -0.003  -0.005
  0.001   0.010  -0.004   0.011  -0.000   0.001   0.009  -0.004
  0.010   0.001  -0.006  -0.004   0.010   0.010   0.001  -0.005
  0.013  -0.004  -0.007   0.001  -0.011   0.012  -0.004  -0.006
  0.001   0.011  -0.005   0.013  -0.000   0.001   0.011  -0.005
  0.012   0.001  -0.007  -0.005   0.013   0.011   0.001  -0.007
 total augmentation occupancy for first ion, spin component:            1
  2.943  -0.051  -0.073  -0.196  -0.061  -1.275  -0.022   0.077   0.048   0.044   0.273  -0.071   0.086  -0.045   0.065   0.003
 -0.051   2.951   0.117   0.199  -0.222  -0.021  -1.629  -0.119  -0.024   0.149  -0.279   0.049  -0.013   0.096  -0.051  -0.002
 -0.073   0.117   3.239  -0.049  -0.153   0.080  -0.120  -1.918  -0.031   0.067  -1.036   0.211  -0.090  -0.030  -0.138  -0.003
 -0.196   0.199  -0.049   2.728   0.061   0.044  -0.026  -0.028  -1.556  -0.077  -0.266   0.070  -0.014   0.090  -0.037  -0.001
 -0.061  -0.222  -0.153   0.061   2.963   0.045   0.154   0.071  -0.080  -1.380   0.070  -0.022  -0.173  -0.020   0.182   0.000
 -1.275  -0.021   0.080   0.044   0.045   1.488   0.076  -0.089   0.061  -0.033  -0.166   0.011  -0.096   0.063  -0.056   0.008
 -0.022  -1.629  -0.120  -0.026   0.154   0.076   2.077   0.136  -0.098  -0.100   0.201  -0.021   0.023  -0.081   0.064  -0.002
  0.077  -0.119  -1.918  -0.028   0.071  -0.089   0.136   2.361   0.063  -0.012   0.711  -0.073   0.117   0.019   0.142  -0.006
  0.048  -0.024  -0.031  -1.556  -0.080   0.061  -0.098   0.063   2.105   0.088   0.171  -0.019   0.045  -0.079   0.050  -0.000
  0.044   0.149   0.067  -0.077  -1.380  -0.033  -0.100  -0.012   0.088   1.627  -0.028   0.005   0.218   0.017  -0.193  -0.013
  0.273  -0.279  -1.036  -0.266   0.070  -0.166   0.201   0.711   0.171  -0.028   2.018  -0.321  -0.094   0.025  -0.083   0.014
 -0.071   0.049   0.211   0.070  -0.022   0.011  -0.021  -0.073  -0.019   0.005  -0.321   0.059   0.023  -0.005   0.021  -0.003
  0.086  -0.013  -0.090  -0.014  -0.173  -0.096   0.023   0.117   0.045   0.218  -0.094   0.023   0.167   0.013  -0.016  -0.009
 -0.045   0.096  -0.030   0.090  -0.020   0.063  -0.081   0.019  -0.079   0.017   0.025  -0.005   0.013   0.261   0.016  -0.000
  0.065  -0.051  -0.138  -0.037   0.182  -0.056   0.064   0.142   0.050  -0.193  -0.083   0.021  -0.016   0.016   0.170   0.000
  0.003  -0.002  -0.003  -0.001   0.000   0.008  -0.002  -0.006  -0.000  -0.013   0.014  -0.003  -0.009  -0.000   0.000   0.001
  0.001   0.002  -0.001   0.001  -0.000  -0.001   0.008  -0.003   0.008   0.000  -0.004   0.001  -0.000  -0.014  -0.001  -0.000
  0.006   0.000  -0.000  -0.003  -0.001   0.005  -0.001  -0.006  -0.002   0.012   0.015  -0.003   0.000  -0.001  -0.009   0.000
 total augmentation occupancy for first ion, spin component:            2
  0.208  -0.008  -0.046   0.155   0.051  -0.092   0.006   0.028  -0.087  -0.027   0.030  -0.018   0.001  -0.006  -0.011   0.001
 -0.008   0.619  -0.345  -0.248   0.001   0.004  -0.320   0.201   0.143   0.003   0.036  -0.015   0.019  -0.010  -0.000  -0.001
 -0.046  -0.345   0.463   0.355   0.001   0.025   0.202  -0.233  -0.202  -0.002  -0.104   0.037  -0.024   0.009  -0.001  -0.000
  0.155  -0.248   0.355   1.026   0.025  -0.087   0.143  -0.205  -0.554  -0.020  -0.109   0.038  -0.044   0.004  -0.026   0.001
  0.051   0.001   0.001   0.025   0.547  -0.026  -0.001  -0.001  -0.016  -0.271  -0.028   0.008  -0.033   0.005   0.010  -0.001
 -0.092   0.004   0.025  -0.087  -0.026   0.009  -0.005  -0.015   0.046   0.013  -0.002   0.002   0.000   0.002   0.007  -0.001
  0.006  -0.320   0.202   0.143  -0.001  -0.005   0.126  -0.113  -0.077  -0.002  -0.020   0.008  -0.012   0.006  -0.002   0.001
  0.028   0.201  -0.233  -0.205  -0.001  -0.015  -0.113   0.078   0.111   0.002   0.042  -0.010   0.012  -0.005  -0.000   0.000
 -0.087   0.143  -0.202  -0.554  -0.016   0.046  -0.077   0.111   0.253   0.011   0.052  -0.014   0.025  -0.002   0.014  -0.001
 -0.027   0.003  -0.002  -0.020  -0.271   0.013  -0.002   0.002   0.011   0.100   0.002   0.003   0.014  -0.004  -0.003   0.001
  0.030   0.036  -0.104  -0.109  -0.028  -0.002  -0.020   0.042   0.052   0.002  -0.001  -0.000   0.014  -0.002   0.003   0.000
 -0.018  -0.015   0.037   0.038   0.008   0.002   0.008  -0.010  -0.014   0.003  -0.000   0.003  -0.002   0.001  -0.001  -0.000
  0.001   0.019  -0.024  -0.044  -0.033   0.000  -0.012   0.012   0.025   0.014   0.014  -0.002   0.004  -0.002   0.001   0.000
 -0.006  -0.010   0.009   0.004   0.005   0.002   0.006  -0.005  -0.002  -0.004  -0.002   0.001  -0.002  -0.005   0.000  -0.000
 -0.011  -0.000  -0.001  -0.026   0.010   0.007  -0.002  -0.000   0.014  -0.003   0.003  -0.001   0.001   0.000  -0.003  -0.000
  0.001  -0.001  -0.000   0.001  -0.001  -0.001   0.001   0.000  -0.001   0.001   0.000  -0.000   0.000  -0.000  -0.000  -0.000
  0.000   0.002  -0.001   0.002  -0.000  -0.000  -0.001   0.000  -0.001   0.000  -0.000   0.000  -0.000   0.000  -0.000   0.000
  0.001   0.001  -0.002  -0.001   0.002  -0.001  -0.000   0.001   0.000  -0.001   0.000  -0.000  -0.000  -0.000   0.000  -0.000


------------------------ aborting loop because EDIFF is reached ----------------------------------------


    CHARGE:  cpu time    0.8423: real time    0.8433
    FORLOC:  cpu time    0.1028: real time    0.1029
    FORNL :  cpu time    4.3650: real time    4.3673
    FORCOR:  cpu time    2.1716: real time    2.1744
    FORHAR:  cpu time    0.3217: real time    0.3220
    MIXING:  cpu time    0.0626: real time    0.0627
    OFIELD:  cpu time    0.0000: real time    0.0000

 VOLUME and BASIS-vectors are now :
 -----------------------------------------------------------------------------
  energy-cutoff  :      400.00
  volume of cell :    13935.56
      direct lattice vectors                 reciprocal lattice vectors
    23.711088412  0.000000000  0.000000000     0.042174361  0.000000000  0.000000000
     0.000000000 22.390301536  0.000000000     0.000000000  0.044662194  0.000000000
     0.000000000  0.000000000 26.249007065     0.000000000  0.000000000  0.038096679

  length of vectors
    23.711088412 22.390301536 26.249007065     0.042174361  0.044662194  0.038096679


 FORCES acting on ions
    electron-ion (+dipol)            ewald-force                    non-local-force                 convergence-correction
 -----------------------------------------------------------------------------------------------
   -.547E+03 -.476E+03 0.117E+03   0.546E+03 0.476E+03 -.116E+03   0.548E+00 0.906E+00 -.294E+00   0.128E+00 -.122E+00 0.415E-02
   0.314E+03 0.700E+03 -.226E+03   -.314E+03 -.698E+03 0.226E+03   -.136E+00 -.205E+01 0.318E+00   0.122E+00 -.104E+00 -.787E-01
   0.488E+03 0.346E+03 0.521E+03   -.486E+03 -.345E+03 -.520E+03   -.157E+01 -.108E+01 -.826E+00   0.115E+00 -.653E-01 -.278E-01
   0.603E+03 -.771E+03 0.175E+03   -.601E+03 0.767E+03 -.174E+03   -.170E+01 0.392E+01 -.652E+00   -.571E-01 0.313E-01 -.643E-01
   -.553E+03 0.820E+03 0.359E+01   0.550E+03 -.816E+03 -.420E+01   0.271E+01 -.417E+01 0.621E+00   0.930E-01 -.549E-01 -.145E-01
   0.160E+03 -.772E+03 -.494E+03   -.159E+03 0.768E+03 0.493E+03   -.111E+01 0.353E+01 0.837E+00   0.107E+00 0.425E-01 -.182E-01
   -.671E+03 0.550E+03 -.464E+03   0.668E+03 -.547E+03 0.463E+03   0.304E+01 -.335E+01 0.143E+01   0.143E+00 -.492E-01 -.900E-01
   0.398E+02 -.848E+03 0.601E+03   -.396E+02 0.842E+03 -.599E+03   -.236E+00 0.588E+01 -.260E+01   0.929E-01 0.311E-01 -.589E-01
   -.856E+03 -.113E+03 0.548E+03   0.851E+03 0.112E+03 -.547E+03   0.578E+01 0.143E+01 -.125E+01   0.762E-01 -.924E-01 0.460E-01
   0.983E+03 0.321E+03 0.223E+03   -.976E+03 -.318E+03 -.221E+03   -.628E+01 -.319E+01 -.255E+01   -.654E-01 -.590E-01 -.228E-01
   0.903E+03 -.176E+03 -.529E+03   -.898E+03 0.175E+03 0.525E+03   -.518E+01 0.151E+01 0.385E+01   -.126E+00 -.484E-02 0.442E-02
   -.802E+03 -.598E+03 -.244E+03   0.796E+03 0.593E+03 0.245E+03   0.588E+01 0.466E+01 -.451E+00   0.150E+00 -.189E-01 -.362E-01
   0.312E+03 0.444E+03 -.888E+03   -.309E+03 -.440E+03 0.884E+03   -.249E+01 -.391E+01 0.470E+01   0.772E-01 -.310E-01 -.155E-01
   -.170E+03 0.807E+03 0.596E+03   0.170E+03 -.800E+03 -.593E+03   0.451E+00 -.694E+01 -.311E+01   0.571E-01 -.747E-02 0.591E-01
   -.339E+03 -.177E+03 -.945E+03   0.337E+03 0.176E+03 0.938E+03   0.202E+01 0.115E+01 0.696E+01   0.155E+00 0.327E-01 -.601E-01
   0.136E+03 -.564E+02 0.101E+04   -.133E+03 0.557E+02 -.998E+03   -.246E+01 0.728E+00 -.726E+01   0.103E+00 -.288E-01 0.377E-01
 -----------------------------------------------------------------------------------------------
   -.456E+00 0.148E+01 0.624E+00   0.369E-12 0.995E-13 0.227E-12   -.730E+00 -.977E+00 -.287E+00   0.117E+01 -.500E+00 -.336E+00
 
 
 POSITION                                       TOTAL-FORCE (eV/Angst)
 -----------------------------------------------------------------------------------
     13.37864     12.38938     13.02669        -0.002100      0.022149      0.004314
     11.47146     10.48832     14.02741        -0.044377     -0.009745      0.013234
     11.43933     10.84739     11.42049        -0.018988      0.009583      0.003413
     10.67455     13.01446     12.93292        -0.032176     -0.009686      0.003168
     13.64110      9.71183     12.72952         0.007291     -0.034597     -0.004783
     12.04122     13.03676     15.26467        -0.003290      0.007234     -0.003497
     13.86312     10.70874     15.17270         0.020405      0.013326      0.012332
     12.24816     13.35920     10.84514         0.018340      0.022652      0.026728
     14.23747     11.49582     10.71865         0.007222     -0.015751      0.005060
      9.16150     10.85669     12.78564         0.010789     -0.006591      0.005237
      9.59172     11.99548     15.15740         0.028586     -0.007412     -0.024420
     14.68087     13.24197     15.12324        -0.026894     -0.033769     -0.020396
     11.51023     10.78697     16.65565         0.002529      0.001951     -0.000107
     13.08016      9.19314     10.18887        -0.003076      0.013884      0.016067
     13.59676     12.28583     17.30984         0.016211      0.016161     -0.028187
     12.26386     11.42751      8.97691         0.019528      0.010612     -0.008164
 -----------------------------------------------------------------------------------
    total drift:                               -0.015039      0.001808      0.001292


--------------------------------------------------------------------------------------------------------



  FREE ENERGIE OF THE ION-ELECTRON SYSTEM (eV)
  ---------------------------------------------------
  free  energy   TOTEN  =       -61.87835031 eV

  energy  without entropy=      -61.91968368  energy(sigma->0) =      -61.89212810
 
 d Force = 0.3580554E-03[ 0.812E-04, 0.635E-03]  d Energy = 0.7579241E-04 0.282E-03
 d Force =-0.6911729E+01[-0.691E+01,-0.692E+01]  d Ewald  =-0.6911722E+01-0.709E-05


--------------------------------------------------------------------------------------------------------


    POTLOK:  cpu time    2.2706: real time    2.2741


--------------------------------------------------------------------------------------------------------




--------------------------------------------------------------------------------------------------------


  
 reached required accuracy - stopping structural energy minimisation
     LOOP+:  cpu time   78.2367: real time   79.5576
    4ORBIT:  cpu time    0.0000: real time    0.0000

 total amount of memory used by VASP MPI-rank0   162622. kBytes
=======================================================================

   base      :      30000. kBytes
   nonl-proj :       3165. kBytes
   fftplans  :      31567. kBytes
   grid      :      71511. kBytes
   one-center:         15. kBytes
   wavefun   :      26364. kBytes
 
  
  
 General timing and accounting informations for this job:
 ========================================================
  
                  Total CPU time used (sec):     2077.390
                            User time (sec):     2053.290
                          System time (sec):       24.100
                         Elapsed time (sec):     2098.118
  
                   Maximum memory used (kb):      347788.
                   Average memory used (kb):           0.
  
                          Minor page faults:      4001774
                          Major page faults:        64633
                 Voluntary context switches:         9769
