unknown system                          
            1
    23.711088    0.000000    0.000000
     0.000000   22.390302    0.000000
     0.000000    0.000000   26.249007
   Pd
    16
Direct configuration=     1
   0.56209510  0.55160726  0.49690362
   0.48421928  0.47056125  0.53491856
   0.48571820  0.48526784  0.43554492
   0.45301477  0.57909758  0.49345279
   0.57494763  0.43609901  0.48181868
   0.50827597  0.57993743  0.58244593
   0.58235770  0.48137402  0.57864949
   0.51659488  0.59291313  0.41072220
   0.59769161  0.51283933  0.40800773
   0.38862184  0.48736589  0.48901868
   0.40590543  0.53486480  0.57747510
   0.61751118  0.59060415  0.57846487
   0.48572270  0.48379743  0.63408862
   0.55165303  0.41237702  0.38624680
   0.57197817  0.54778330  0.65900046
   0.51698682  0.50884830  0.34252786
Direct configuration=     2
   0.56341214  0.55294809  0.49661563
   0.48424534  0.46881645  0.53466903
   0.48380190  0.48437692  0.43565422
   0.45250873  0.58068235  0.49307227
   0.57546188  0.43477834  0.48318565
   0.50776282  0.58185177  0.58232122
   0.58343318  0.47949101  0.57815918
   0.51629616  0.59503666  0.41116504
   0.59964112  0.51357889  0.40788787
   0.38760132  0.48641816  0.48816169
   0.40500116  0.53538324  0.57808805
   0.61840473  0.59153326  0.57779802
   0.48490135  0.48251485  0.63506339
   0.55177288  0.41059035  0.38594678
   0.57259342  0.54826208  0.66053758
   0.51645617  0.50907532  0.34096072
Direct configuration=     3
   0.56382046  0.55336378  0.49652634
   0.48425342  0.46827551  0.53459167
   0.48320779  0.48410071  0.43568810
   0.45235184  0.58117368  0.49295429
   0.57562131  0.43436890  0.48360946
   0.50760372  0.58244527  0.58228255
   0.58376662  0.47890722  0.57800716
   0.51620355  0.59569501  0.41130234
   0.60024553  0.51380818  0.40785071
   0.38728493  0.48612433  0.48789600
   0.40472081  0.53554397  0.57827808
   0.61868175  0.59182131  0.57759127
   0.48464670  0.48211721  0.63536560
   0.55181003  0.41003643  0.38585377
   0.57278417  0.54841052  0.66101413
   0.51629166  0.50914570  0.34047486
Direct configuration=     4
   0.56420277  0.55366940  0.49636347
   0.48404142  0.46807960  0.53483065
   0.48311919  0.48398325  0.43516920
   0.45190441  0.58136377  0.49294594
   0.57570398  0.43406289  0.48375497
   0.50773186  0.58253018  0.58240143
   0.58403345  0.47884438  0.57810337
   0.51624776  0.59585494  0.41158705
   0.60016229  0.51369169  0.40771030
   0.38708754  0.48595774  0.48774625
   0.40476836  0.53563948  0.57818023
   0.61857523  0.59171248  0.57745795
   0.48465373  0.48203529  0.63529244
   0.55179054  0.41032179  0.38616653
   0.57283482  0.54844483  0.66078217
   0.51643696  0.50914603  0.34079438
Direct configuration=     5
   0.56449881  0.55390605  0.49623735
   0.48387726  0.46792790  0.53501570
   0.48305058  0.48389229  0.43476739
   0.45155793  0.58151096  0.49293947
   0.57576800  0.43382593  0.48386765
   0.50783109  0.58259593  0.58249349
   0.58424007  0.47879573  0.57817787
   0.51628199  0.59597878  0.41180752
   0.60009783  0.51360148  0.40760157
   0.38693469  0.48582874  0.48763029
   0.40480517  0.53571344  0.57810447
   0.61849275  0.59162820  0.57735471
   0.48465918  0.48197186  0.63523578
   0.55177544  0.41054275  0.38640872
   0.57287404  0.54847140  0.66060255
   0.51654948  0.50914628  0.34104180
Direct configuration=     6
   0.56457639  0.55394447  0.49613146
   0.48383824  0.46800602  0.53483500
   0.48281120  0.48393653  0.43486330
   0.45127140  0.58138926  0.49297777
   0.57564629  0.43382262  0.48411362
   0.50782416  0.58251056  0.58239452
   0.58438617  0.47872603  0.57815553
   0.51631545  0.59608170  0.41218526
   0.60009121  0.51352093  0.40759200
   0.38694212  0.48571635  0.48749022
   0.40489666  0.53581310  0.57791609
   0.61850417  0.59155247  0.57718302
   0.48475237  0.48194509  0.63516342
   0.55184044  0.41058513  0.38673489
   0.57292869  0.54847378  0.66037986
   0.51666935  0.50931370  0.34117038
Direct configuration=     7
   0.56474420  0.55402756  0.49590242
   0.48375382  0.46817500  0.53444415
   0.48229339  0.48403221  0.43507076
   0.45065159  0.58112601  0.49306064
   0.57538302  0.43381548  0.48464566
   0.50780918  0.58232589  0.58218045
   0.58470221  0.47857527  0.57810718
   0.51638783  0.59630432  0.41300233
   0.60007689  0.51334668  0.40757129
   0.38695819  0.48547324  0.48718723
   0.40509456  0.53602869  0.57750861
   0.61852887  0.59138865  0.57681166
   0.48495395  0.48188717  0.63500690
   0.55198103  0.41067680  0.38744041
   0.57304690  0.54847893  0.65989816
   0.51692864  0.50967582  0.34144848
Direct configuration=     8
   0.56466867  0.55387665  0.49604315
   0.48396076  0.46835476  0.53445995
   0.48225795  0.48415116  0.43497949
   0.45046697  0.58118261  0.49300787
   0.57522111  0.43390023  0.48492490
   0.50782092  0.58217993  0.58182261
   0.58472971  0.47842249  0.57800484
   0.51638170  0.59642316  0.41338064
   0.60019710  0.51331599  0.40775011
   0.38659534  0.48515341  0.48698231
   0.40500758  0.53607215  0.57740136
   0.61869669  0.59137101  0.57646788
   0.48513716  0.48180502  0.63476438
   0.55196691  0.41062355  0.38794815
   0.57317828  0.54849384  0.65967532
   0.51700745  0.51001175  0.34167339
Direct configuration=     9
   0.56466553  0.55387037  0.49604900
   0.48396936  0.46836224  0.53446060
   0.48225648  0.48415611  0.43497570
   0.45045929  0.58118496  0.49300568
   0.57521438  0.43390375  0.48493651
   0.50782141  0.58217386  0.58180773
   0.58473085  0.47841614  0.57800059
   0.51638145  0.59642810  0.41339637
   0.60020210  0.51331472  0.40775754
   0.38658025  0.48514011  0.48697379
   0.40500397  0.53607396  0.57739690
   0.61870366  0.59137028  0.57645358
   0.48514478  0.48180161  0.63475430
   0.55196633  0.41062134  0.38796926
   0.57318374  0.54849446  0.65966605
   0.51701073  0.51002572  0.34168273
Direct configuration=    10
   0.56458160  0.55374508  0.49613437
   0.48380090  0.46842323  0.53448350
   0.48232872  0.48423393  0.43495634
   0.45042954  0.58121893  0.49291234
   0.57529203  0.43384224  0.48485423
   0.50786215  0.58221890  0.58172177
   0.58475202  0.47839402  0.57805813
   0.51639272  0.59646796  0.41329383
   0.60030135  0.51338161  0.40793659
   0.38655460  0.48509045  0.48704871
   0.40484696  0.53594576  0.57740751
   0.61881518  0.59139660  0.57638041
   0.48518669  0.48175913  0.63469087
   0.55188565  0.41054349  0.38803304
   0.57325703  0.54853903  0.65963696
   0.51700716  0.51013737  0.34173774
Direct configuration=    11
   0.56452665  0.55366305  0.49619026
   0.48369062  0.46846315  0.53449849
   0.48237602  0.48428487  0.43494366
   0.45041007  0.58124117  0.49285123
   0.57534287  0.43380198  0.48480037
   0.50788882  0.58224839  0.58166550
   0.58476588  0.47837954  0.57809580
   0.51640010  0.59649405  0.41322670
   0.60036633  0.51342540  0.40805380
   0.38653781  0.48505794  0.48709775
   0.40474417  0.53586184  0.57741446
   0.61888819  0.59141384  0.57633251
   0.48521413  0.48173132  0.63464935
   0.55183283  0.41049253  0.38807479
   0.57330500  0.54856820  0.65961791
   0.51700483  0.51021046  0.34177376
Direct configuration=    12
   0.56438805  0.55350766  0.49622998
   0.48374344  0.46844812  0.53445045
   0.48240951  0.48437219  0.43500994
   0.45030624  0.58124737  0.49277988
   0.57532471  0.43377804  0.48487282
   0.50786123  0.58224934  0.58160252
   0.58471927  0.47833004  0.57806418
   0.51647547  0.59656902  0.41319668
   0.60040909  0.51342694  0.40819256
   0.38646288  0.48497493  0.48709422
   0.40463965  0.53580582  0.57742982
   0.61901584  0.59141461  0.57624323
   0.48532009  0.48174970  0.63459008
   0.55174447  0.41053695  0.38811635
   0.57336679  0.54863683  0.65953665
   0.51710757  0.51029018  0.34187698
Direct configuration=    13
   0.56423576  0.55333690  0.49627363
   0.48380148  0.46843159  0.53439766
   0.48244632  0.48446813  0.43508277
   0.45019215  0.58125418  0.49270148
   0.57530476  0.43375174  0.48495243
   0.50783092  0.58225038  0.58153331
   0.58466805  0.47827566  0.57802942
   0.51655828  0.59665139  0.41316370
   0.60045607  0.51342864  0.40834503
   0.38638056  0.48488371  0.48709035
   0.40452480  0.53574426  0.57744670
   0.61915611  0.59141546  0.57614513
   0.48543652  0.48176989  0.63452495
   0.55164738  0.41058576  0.38816202
   0.57343469  0.54871225  0.65944736
   0.51722047  0.51037778  0.34199040
