   7   7   0   0
  0.1727611E+04  0.2286043E-08  0.2357239E-08  0.2244170E-08  0.5000000E-15
   1.0000000000000000E-004
  CAR 
 unknown system                          
      1.19602276    -14.34409075  301     -4.02389673      1.00000000
    -14.344  0.0000E+00  0.0000E+00  0.0000E+00  0.0000E+00
    -14.292  0.0000E+00  0.0000E+00  0.0000E+00  0.0000E+00
    -14.240  0.0000E+00  0.0000E+00  0.0000E+00  0.0000E+00
    -14.189  0.0000E+00  0.0000E+00  0.0000E+00  0.0000E+00
    -14.137  0.0000E+00  0.0000E+00  0.0000E+00  0.0000E+00
    -14.085  0.0000E+00  0.0000E+00  0.0000E+00  0.0000E+00
    -14.033  0.0000E+00  0.0000E+00  0.0000E+00  0.0000E+00
    -13.981 -0.3466E-30  0.0000E+00 -0.1795E-31  0.0000E+00
    -13.930 -0.2146E-28  0.0000E+00 -0.1129E-29  0.0000E+00
    -13.878 -0.1176E-26 -0.1928E-30 -0.6206E-28 -0.9987E-32
    -13.826 -0.5631E-25 -0.1217E-28 -0.2979E-26 -0.6402E-30
    -13.774 -0.2353E-23 -0.6796E-27 -0.1249E-24 -0.3585E-28
    -13.722 -0.8584E-22 -0.3315E-25 -0.4571E-23 -0.1753E-26
    -13.671 -0.2733E-20 -0.1412E-23 -0.1461E-21 -0.7489E-25
    -13.619 -0.7591E-19 -0.5248E-22 -0.4078E-20 -0.2794E-23
    -13.567 -0.1840E-17 -0.1703E-20 -0.9937E-19 -0.9100E-22
    -13.515 -0.3781E-16 -0.4821E-19 -0.2058E-17 -0.2588E-20
    -13.463 -0.6940E-15 -0.1191E-17 -0.3801E-16 -0.6427E-19
    -13.412 -0.1111E-13 -0.2458E-16 -0.6135E-15 -0.1337E-17
    -13.360 -0.1549E-12 -0.4668E-15 -0.8636E-14 -0.2552E-16
    -13.308 -0.1879E-11 -0.7618E-14 -0.1060E-12 -0.4201E-15
    -13.256 -0.1983E-10 -0.1083E-12 -0.1133E-11 -0.6028E-14
    -13.204 -0.1817E-09 -0.1339E-11 -0.1055E-10 -0.7540E-13
    -13.153 -0.1446E-08 -0.1441E-10 -0.8545E-10 -0.8217E-12
    -13.101 -0.9971E-08 -0.1347E-09 -0.6020E-09 -0.7799E-11
    -13.049 -0.5949E-07 -0.1093E-08 -0.3683E-08 -0.6442E-10
    -12.997 -0.3063E-06 -0.7690E-08 -0.1955E-07 -0.4627E-09
    -12.945 -0.1357E-05 -0.4681E-07 -0.8983E-07 -0.2888E-08
    -12.894 -0.5146E-05 -0.2461E-06 -0.3564E-06 -0.1563E-07
    -12.842 -0.1660E-04 -0.1113E-05 -0.1216E-05 -0.7330E-07
    -12.790 -0.4505E-04 -0.4317E-05 -0.3550E-05 -0.2969E-06
    -12.738 -0.1008E-03 -0.1425E-04 -0.8772E-05 -0.1035E-05
    -12.686 -0.1787E-03 -0.3964E-04 -0.1803E-04 -0.3088E-05
    -12.635 -0.2251E-03 -0.9128E-04 -0.2969E-04 -0.7817E-05
    -12.583 -0.1084E-03 -0.1678E-03 -0.3531E-04 -0.1651E-04
    -12.531  0.3536E-03 -0.2246E-03 -0.1699E-04 -0.2814E-04
    -12.479  0.1270E-02 -0.1412E-03  0.4881E-04 -0.3545E-04
    -12.427  0.2511E-02  0.2627E-03  0.1789E-03 -0.2184E-04
    -12.376  0.3655E-02  0.1117E-02  0.3682E-03  0.3603E-04
    -12.324  0.4187E-02  0.2332E-02  0.5851E-03  0.1568E-03
    -12.272  0.3839E-02  0.3522E-02  0.7839E-03  0.3392E-03
    -12.220  0.2789E-02  0.4164E-02  0.9284E-03  0.5549E-03
    -12.168  0.1526E-02  0.3938E-02  0.1007E-02  0.7589E-03
    -12.117  0.5157E-03  0.2960E-02  0.1034E-02  0.9123E-03
    -12.065 -0.4272E-04  0.1694E-02  0.1032E-02  0.1000E-02
    -12.013 -0.2195E-03  0.6302E-03  0.1021E-02  0.1033E-02
    -11.961 -0.1949E-03  0.8496E-05  0.1010E-02  0.1033E-02
    -11.909 -0.1169E-03 -0.2112E-03  0.1004E-02  0.1022E-02
    -11.858 -0.5470E-04 -0.2041E-03  0.1002E-02  0.1012E-02
    -11.806 -0.2099E-04 -0.1276E-03  0.1000E-02  0.1005E-02
    -11.754 -0.6750E-05 -0.6157E-04  0.1000E-02  0.1002E-02
    -11.702 -0.1843E-05 -0.2424E-04  0.1000E-02  0.1001E-02
    -11.650 -0.4302E-06 -0.7983E-05  0.1000E-02  0.1000E-02
    -11.599 -0.8633E-07 -0.2228E-05  0.1000E-02  0.1000E-02
    -11.547 -0.1494E-07 -0.5315E-06  0.1000E-02  0.1000E-02
    -11.495 -0.2237E-08 -0.1089E-06  0.1000E-02  0.1000E-02
    -11.443 -0.2900E-09 -0.1924E-07  0.1000E-02  0.1000E-02
    -11.391 -0.3264E-10 -0.2938E-08  0.1000E-02  0.1000E-02
    -11.340 -0.3190E-11 -0.3886E-09  0.1000E-02  0.1000E-02
    -11.288 -0.2711E-12 -0.4459E-10  0.1000E-02  0.1000E-02
    -11.236 -0.2004E-13 -0.4445E-11  0.1000E-02  0.1000E-02
    -11.184 -0.1290E-14 -0.3851E-12  0.1000E-02  0.1000E-02
    -11.132 -0.7287E-16 -0.2904E-13  0.1000E-02  0.1000E-02
    -11.081 -0.4287E-17 -0.1903E-14  0.1000E-02  0.1000E-02
    -11.029 -0.4102E-20 -0.1115E-15  0.1000E-02  0.1000E-02
    -10.977 -0.1121E-18 -0.4287E-17  0.1000E-02  0.1000E-02
    -10.925 -0.2672E-17 -0.1261E-23  0.1000E-02  0.1000E-02
    -10.873 -0.5342E-16 -0.4706E-22  0.1000E-02  0.1000E-02
    -10.822 -0.9750E-15 -0.1533E-20  0.1000E-02  0.1000E-02
    -10.770 -0.1535E-13 -0.4359E-19  0.1000E-02  0.1000E-02
    -10.718 -0.2105E-12 -0.1081E-17  0.1000E-02  0.1000E-02
    -10.666 -0.2512E-11 -0.2232E-16  0.1000E-02  0.1000E-02
    -10.614 -0.2606E-10 -0.4283E-15  0.1000E-02  0.1000E-02
    -10.563 -0.2349E-09 -0.7005E-14  0.1000E-02  0.1000E-02
    -10.511 -0.1837E-08 -0.1000E-12  0.1000E-02  0.1000E-02
    -10.459 -0.1245E-07 -0.1242E-11  0.1000E-02  0.1000E-02
    -10.407 -0.7298E-07 -0.1342E-10  0.1000E-02  0.1000E-02
    -10.355 -0.3691E-06 -0.1260E-09  0.1000E-02  0.1000E-02
    -10.304 -0.1605E-05 -0.1027E-08  0.9999E-03  0.1000E-02
    -10.252 -0.5975E-05 -0.7258E-08  0.9996E-03  0.1000E-02
    -10.200 -0.1889E-04 -0.4438E-07  0.9986E-03  0.1000E-02
    -10.148 -0.5015E-04 -0.2344E-06  0.9960E-03  0.1000E-02
    -10.096 -0.1094E-03 -0.1065E-05  0.9903E-03  0.9999E-03
    -10.045 -0.1878E-03 -0.4150E-05  0.9806E-03  0.9997E-03
     -9.993 -0.2231E-03 -0.1377E-04  0.9691E-03  0.9990E-03
     -9.941 -0.7472E-04 -0.3852E-04  0.9652E-03  0.9970E-03
     -9.889  0.4393E-03 -0.8924E-04  0.9879E-03  0.9924E-03
     -9.837  0.1408E-02 -0.1654E-03  0.1061E-02  0.9838E-03
     -9.786  0.2664E-02 -0.2241E-03  0.1199E-02  0.9722E-03
     -9.734  0.3760E-02 -0.1475E-03  0.1394E-02  0.9646E-03
     -9.682  0.4192E-02  0.2439E-03  0.1611E-02  0.9772E-03
     -9.630  0.3742E-02  0.1084E-02  0.1805E-02  0.1033E-02
     -9.578  0.2638E-02  0.2293E-02  0.1941E-02  0.1152E-02
     -9.527  0.1383E-02  0.3490E-02  0.2013E-02  0.1333E-02
     -9.475  0.4204E-03  0.4155E-02  0.2035E-02  0.1548E-02
     -9.423 -0.9458E-04  0.3954E-02  0.2030E-02  0.1753E-02
     -9.371 -0.2661E-03  0.2983E-02  0.2016E-02  0.1908E-02
     -9.319 -0.2966E-03  0.1688E-02  0.2001E-02  0.1995E-02
     -9.268 -0.3425E-03  0.5419E-03  0.1983E-02  0.2023E-02
     -9.216 -0.4385E-03 -0.2209E-03  0.1960E-02  0.2012E-02
     -9.164 -0.4531E-03 -0.6047E-03  0.1937E-02  0.1980E-02
     -9.112 -0.8123E-04 -0.6364E-03  0.1932E-02  0.1947E-02
     -9.060  0.1044E-02 -0.1732E-03  0.1987E-02  0.1938E-02
     -9.009  0.3063E-02  0.1058E-02  0.2145E-02  0.1993E-02
     -8.957  0.5580E-02  0.3153E-02  0.2434E-02  0.2156E-02
     -8.905  0.7667E-02  0.5692E-02  0.2831E-02  0.2451E-02
     -8.853  0.8354E-02  0.7740E-02  0.3264E-02  0.2852E-02
     -8.801  0.7291E-02  0.8345E-02  0.3642E-02  0.3285E-02
     -8.750  0.5013E-02  0.7204E-02  0.3902E-02  0.3658E-02
     -8.698  0.2542E-02  0.4890E-02  0.4033E-02  0.3911E-02
     -8.646  0.7133E-03  0.2433E-02  0.4070E-02  0.4037E-02
     -8.594 -0.2109E-03  0.6461E-03  0.4059E-02  0.4070E-02
     -8.542 -0.4469E-03 -0.2368E-03  0.4036E-02  0.4058E-02
     -8.491 -0.3565E-03 -0.4480E-03  0.4018E-02  0.4035E-02
     -8.439 -0.2018E-03 -0.3492E-03  0.4007E-02  0.4017E-02
     -8.387 -0.9046E-04 -0.1949E-03  0.4002E-02  0.4007E-02
     -8.335 -0.3345E-04 -0.8645E-04  0.4001E-02  0.4002E-02
     -8.283 -0.1041E-04 -0.3167E-04  0.4000E-02  0.4001E-02
     -8.232 -0.2755E-05 -0.9766E-05  0.4000E-02  0.4000E-02
     -8.180 -0.6247E-06 -0.2563E-05  0.4000E-02  0.4000E-02
     -8.128 -0.1219E-06 -0.5762E-06  0.4000E-02  0.4000E-02
     -8.076 -0.2053E-07 -0.1115E-06  0.4000E-02  0.4000E-02
     -8.024 -0.2993E-08 -0.1863E-07  0.4000E-02  0.4000E-02
     -7.973 -0.3783E-09 -0.2694E-08  0.4000E-02  0.4000E-02
     -7.921 -0.4151E-10 -0.3377E-09  0.4000E-02  0.4000E-02
     -7.869 -0.3960E-11 -0.3676E-10  0.4000E-02  0.4000E-02
     -7.817 -0.3286E-12 -0.3477E-11  0.4000E-02  0.4000E-02
     -7.765 -0.2468E-13 -0.2861E-12  0.4000E-02  0.4000E-02
     -7.714 -0.1640E-13 -0.2049E-13  0.4000E-02  0.4000E-02
     -7.662 -0.2048E-12 -0.1277E-14  0.4000E-02  0.4000E-02
     -7.610 -0.2447E-11 -0.7288E-16  0.4000E-02  0.4000E-02
     -7.558 -0.2542E-10 -0.4396E-17  0.4000E-02  0.4000E-02
     -7.506 -0.2295E-09 -0.2605E-17  0.4000E-02  0.4000E-02
     -7.455 -0.1798E-08 -0.5207E-16  0.4000E-02  0.4000E-02
     -7.403 -0.1220E-07 -0.9528E-15  0.4000E-02  0.4000E-02
     -7.351 -0.7165E-07 -0.1502E-13  0.4000E-02  0.4000E-02
     -7.299 -0.3630E-06 -0.2061E-12  0.4000E-02  0.4000E-02
     -7.247 -0.1581E-05 -0.2462E-11  0.4000E-02  0.4000E-02
     -7.196 -0.5895E-05 -0.2557E-10  0.4000E-02  0.4000E-02
     -7.144 -0.1867E-04 -0.2308E-09  0.3999E-02  0.4000E-02
     -7.092 -0.4967E-04 -0.1807E-08  0.3996E-02  0.4000E-02
     -7.040 -0.1086E-03 -0.1226E-07  0.3990E-02  0.4000E-02
     -6.988 -0.1870E-03 -0.7197E-07  0.3981E-02  0.4000E-02
     -6.937 -0.2234E-03 -0.3644E-06  0.3969E-02  0.4000E-02
     -6.885 -0.7799E-04 -0.1587E-05  0.3965E-02  0.4000E-02
     -6.833  0.4313E-03 -0.5914E-05  0.3987E-02  0.4000E-02
     -6.781  0.1395E-02 -0.1873E-04  0.4060E-02  0.3999E-02
     -6.729  0.2650E-02 -0.4979E-04  0.4197E-02  0.3996E-02
     -6.678  0.3750E-02 -0.1089E-03  0.4391E-02  0.3990E-02
     -6.626  0.4191E-02 -0.1873E-03  0.4608E-02  0.3981E-02
     -6.574  0.3747E-02 -0.2239E-03  0.4802E-02  0.3969E-02
     -6.522  0.2636E-02 -0.7981E-04  0.4939E-02  0.3965E-02
     -6.470  0.1351E-02  0.4233E-03  0.5009E-02  0.3987E-02
     -6.419  0.3144E-03  0.1366E-02  0.5025E-02  0.4058E-02
     -6.367 -0.3240E-03  0.2566E-02  0.5009E-02  0.4191E-02
     -6.315 -0.6230E-03  0.3556E-02  0.4976E-02  0.4375E-02
     -6.263 -0.6135E-03  0.3841E-02  0.4944E-02  0.4574E-02
     -6.211 -0.1293E-03  0.3300E-02  0.4938E-02  0.4745E-02
     -6.160  0.1121E-02  0.2415E-02  0.4996E-02  0.4870E-02
     -6.108  0.3231E-02  0.2054E-02  0.5163E-02  0.4976E-02
     -6.056  0.5766E-02  0.2890E-02  0.5462E-02  0.5126E-02
     -6.004  0.7781E-02  0.4846E-02  0.5865E-02  0.5377E-02
     -5.952  0.8334E-02  0.7011E-02  0.6297E-02  0.5740E-02
     -5.901  0.7147E-02  0.8169E-02  0.6667E-02  0.6163E-02
     -5.849  0.4814E-02  0.7620E-02  0.6916E-02  0.6558E-02
     -5.797  0.2369E-02  0.5620E-02  0.7039E-02  0.6849E-02
     -5.745  0.6085E-03  0.3125E-02  0.7070E-02  0.7011E-02
     -5.693 -0.2506E-03  0.1090E-02  0.7058E-02  0.7067E-02
     -5.642 -0.4496E-03 -0.5789E-04  0.7034E-02  0.7064E-02
     -5.590 -0.3524E-03 -0.4364E-03  0.7016E-02  0.7042E-02
     -5.538 -0.2168E-03 -0.4040E-03  0.7005E-02  0.7021E-02
     -5.486 -0.1570E-03 -0.2703E-03  0.6997E-02  0.7007E-02
     -5.434 -0.2030E-03 -0.1980E-03  0.6986E-02  0.6997E-02
     -5.383 -0.3446E-03 -0.2404E-03  0.6968E-02  0.6984E-02
     -5.331 -0.5077E-03 -0.3864E-03  0.6942E-02  0.6964E-02
     -5.279 -0.4843E-03 -0.5413E-03  0.6917E-02  0.6936E-02
     -5.227  0.9874E-04 -0.4599E-03  0.6922E-02  0.6912E-02
     -5.175  0.1656E-02  0.2676E-03  0.7008E-02  0.6926E-02
     -5.124  0.4330E-02  0.2052E-02  0.7232E-02  0.7032E-02
     -5.072  0.7655E-02  0.4951E-02  0.7629E-02  0.7289E-02
     -5.020  0.1054E-01  0.8351E-02  0.8175E-02  0.7722E-02
     -4.968  0.1178E-01  0.1105E-01  0.8785E-02  0.8294E-02
     -4.916  0.1077E-01  0.1186E-01  0.9343E-02  0.8908E-02
     -4.865  0.7974E-02  0.1038E-01  0.9756E-02  0.9446E-02
     -4.813  0.4574E-02  0.7297E-02  0.9993E-02  0.9824E-02
     -4.761  0.1754E-02  0.3893E-02  0.1008E-01  0.1003E-01
     -4.709  0.7891E-04  0.1277E-02  0.1009E-01  0.1009E-01
     -4.657 -0.5629E-03 -0.1392E-03  0.1006E-01  0.1008E-01
     -4.606 -0.6202E-03 -0.5805E-03  0.1003E-01  0.1005E-01
     -4.554 -0.5022E-03 -0.5129E-03  0.1000E-01  0.1003E-01
     -4.502 -0.3947E-03 -0.3099E-03  0.9980E-02  0.1001E-01
     -4.450 -0.2539E-03 -0.1471E-03  0.9967E-02  0.1000E-01
     -4.398  0.1078E-03 -0.5740E-04  0.9972E-02  0.1000E-01
     -4.347  0.8737E-03 -0.1883E-04  0.1002E-01  0.1000E-01
     -4.295  0.2035E-02 -0.5256E-05  0.1012E-01  0.1000E-01
     -4.243  0.3278E-02 -0.1257E-05  0.1029E-01  0.1000E-01
     -4.191  0.4088E-02 -0.2608E-06  0.1050E-01  0.1000E-01
     -4.139  0.4068E-02 -0.6067E-07  0.1072E-01  0.1000E-01
     -4.088  0.3230E-02 -0.9232E-07  0.1088E-01  0.1000E-01
     -4.036  0.1982E-02 -0.4273E-06  0.1099E-01  0.1000E-01
     -3.984  0.8380E-03 -0.1835E-05  0.1103E-01  0.1000E-01
     -3.932  0.1061E-03 -0.6771E-05  0.1103E-01  0.1000E-01
     -3.880 -0.2043E-03 -0.2129E-04  0.1102E-01  0.9998E-02
     -3.829 -0.2663E-03 -0.5657E-04  0.1101E-01  0.9995E-02
     -3.777 -0.2713E-03 -0.1251E-03  0.1100E-01  0.9989E-02
     -3.725 -0.3314E-03 -0.2236E-03  0.1098E-01  0.9977E-02
     -3.673 -0.4368E-03 -0.3011E-03  0.1096E-01  0.9962E-02
     -3.621 -0.4218E-03 -0.2319E-03  0.1093E-01  0.9950E-02
     -3.570  0.3622E-04  0.1681E-03  0.1094E-01  0.9959E-02
     -3.518  0.1282E-02  0.1062E-02  0.1100E-01  0.1001E-01
     -3.466  0.3380E-02  0.2494E-02  0.1118E-01  0.1014E-01
     -3.414  0.5835E-02  0.4353E-02  0.1148E-01  0.1037E-01
     -3.362  0.7682E-02  0.6390E-02  0.1188E-01  0.1070E-01
     -3.311  0.8055E-02  0.8227E-02  0.1230E-01  0.1113E-01
     -3.259  0.6858E-02  0.9384E-02  0.1265E-01  0.1161E-01
     -3.207  0.4903E-02  0.9449E-02  0.1290E-01  0.1210E-01
     -3.155  0.3349E-02  0.8396E-02  0.1308E-01  0.1254E-01
     -3.103  0.2866E-02  0.6755E-02  0.1323E-01  0.1289E-01
     -3.052  0.3248E-02  0.5296E-02  0.1339E-01  0.1316E-01
     -3.000  0.3720E-02  0.4451E-02  0.1359E-01  0.1339E-01
     -2.948  0.3603E-02  0.4033E-02  0.1377E-01  0.1360E-01
     -2.896  0.2769E-02  0.3537E-02  0.1392E-01  0.1378E-01
     -2.844  0.1580E-02  0.2670E-02  0.1400E-01  0.1392E-01
     -2.793  0.5020E-03  0.1563E-02  0.1403E-01  0.1400E-01
     -2.741 -0.2203E-03  0.5607E-03  0.1401E-01  0.1403E-01
     -2.689 -0.5903E-03 -0.1119E-03  0.1398E-01  0.1403E-01
     -2.637 -0.6476E-03 -0.4674E-03  0.1395E-01  0.1400E-01
     -2.585 -0.2635E-03 -0.6189E-03  0.1394E-01  0.1397E-01
     -2.534  0.8443E-03 -0.5630E-03  0.1398E-01  0.1394E-01
     -2.482  0.2828E-02 -0.7223E-04  0.1413E-01  0.1394E-01
     -2.430  0.5352E-02  0.1184E-02  0.1440E-01  0.1400E-01
     -2.378  0.7530E-02  0.3306E-02  0.1479E-01  0.1417E-01
     -2.326  0.8370E-02  0.5842E-02  0.1523E-01  0.1447E-01
     -2.275  0.7451E-02  0.7830E-02  0.1561E-01  0.1488E-01
     -2.223  0.5237E-02  0.8333E-02  0.1588E-01  0.1531E-01
     -2.171  0.2734E-02  0.7093E-02  0.1603E-01  0.1568E-01
     -2.119  0.8133E-03  0.4721E-02  0.1607E-01  0.1592E-01
     -2.067 -0.2214E-03  0.2246E-02  0.1606E-01  0.1604E-01
     -2.016 -0.5658E-03  0.4473E-03  0.1603E-01  0.1606E-01
     -1.964 -0.5682E-03 -0.4641E-03  0.1600E-01  0.1604E-01
     -1.912 -0.4314E-03 -0.6671E-03  0.1598E-01  0.1600E-01
     -1.860 -0.1237E-03 -0.3727E-03  0.1597E-01  0.1598E-01
     -1.808  0.5175E-03  0.3529E-03  0.1600E-01  0.1600E-01
     -1.757  0.1572E-02  0.1480E-02  0.1608E-01  0.1608E-01
     -1.705  0.2845E-02  0.2797E-02  0.1622E-01  0.1622E-01
     -1.653  0.3874E-02  0.3853E-02  0.1643E-01  0.1642E-01
     -1.601  0.4181E-02  0.4181E-02  0.1664E-01  0.1664E-01
     -1.549  0.3610E-02  0.3626E-02  0.1683E-01  0.1683E-01
     -1.498  0.2449E-02  0.2472E-02  0.1696E-01  0.1695E-01
     -1.446  0.1215E-02  0.1236E-02  0.1702E-01  0.1702E-01
     -1.394  0.3152E-03  0.3313E-03  0.1703E-01  0.1704E-01
     -1.342 -0.1394E-03 -0.1228E-03  0.1703E-01  0.1703E-01
     -1.290 -0.2755E-03 -0.2462E-03  0.1701E-01  0.1702E-01
     -1.239 -0.2847E-03 -0.2311E-03  0.1700E-01  0.1700E-01
     -1.187 -0.2855E-03 -0.2156E-03  0.1698E-01  0.1699E-01
     -1.135 -0.2661E-03 -0.2387E-03  0.1697E-01  0.1698E-01
     -1.083 -0.8931E-04 -0.2356E-03  0.1697E-01  0.1697E-01
     -1.031  0.4373E-03 -0.4768E-04  0.1699E-01  0.1697E-01
     -0.980  0.1411E-02  0.5144E-03  0.1706E-01  0.1699E-01
     -0.928  0.2668E-02  0.1525E-02  0.1720E-01  0.1707E-01
     -0.876  0.3763E-02  0.2789E-02  0.1739E-01  0.1722E-01
     -0.824  0.4192E-02  0.3839E-02  0.1761E-01  0.1741E-01
     -0.772  0.3739E-02  0.4187E-02  0.1781E-01  0.1763E-01
     -0.721  0.2633E-02  0.3655E-02  0.1794E-01  0.1782E-01
     -0.669  0.1380E-02  0.2511E-02  0.1801E-01  0.1795E-01
     -0.617  0.4214E-03  0.1270E-02  0.1803E-01  0.1802E-01
     -0.565 -0.8197E-04  0.3536E-03  0.1803E-01  0.1804E-01
     -0.513 -0.2237E-03 -0.1084E-03  0.1802E-01  0.1803E-01
     -0.462 -0.1860E-03 -0.2251E-03  0.1801E-01  0.1802E-01
     -0.410 -0.1077E-03 -0.1787E-03  0.1800E-01  0.1801E-01
     -0.358 -0.4908E-04 -0.1008E-03  0.1800E-01  0.1800E-01
     -0.306 -0.1841E-04 -0.4505E-04  0.1800E-01  0.1800E-01
     -0.254 -0.5798E-05 -0.1660E-04  0.1800E-01  0.1800E-01
     -0.203 -0.1552E-05 -0.5146E-05  0.1800E-01  0.1800E-01
     -0.151 -0.3555E-06 -0.1357E-05  0.1800E-01  0.1800E-01
     -0.099 -0.7003E-07 -0.3063E-06  0.1800E-01  0.1800E-01
     -0.047 -0.1190E-07 -0.5949E-07  0.1800E-01  0.1800E-01
      0.005 -0.1750E-08 -0.9971E-08  0.1800E-01  0.1800E-01
      0.056 -0.2230E-09 -0.1446E-08  0.1800E-01  0.1800E-01
      0.108 -0.2466E-10 -0.1817E-09  0.1800E-01  0.1800E-01
      0.160 -0.2368E-11 -0.1983E-10  0.1800E-01  0.1800E-01
      0.212 -0.1978E-12 -0.1879E-11  0.1800E-01  0.1800E-01
      0.264 -0.1438E-13 -0.1549E-12  0.1800E-01  0.1800E-01
      0.315 -0.9087E-15 -0.1111E-13  0.1800E-01  0.1800E-01
      0.367 -0.5144E-16 -0.6901E-15  0.1800E-01  0.1800E-01
      0.419 -0.4287E-17 -0.4287E-16  0.1800E-01  0.1800E-01
      0.471  0.0000E+00  0.0000E+00  0.1800E-01  0.1800E-01
      0.523  0.0000E+00  0.0000E+00  0.1800E-01  0.1800E-01
      0.574  0.0000E+00  0.0000E+00  0.1800E-01  0.1800E-01
      0.626  0.0000E+00  0.0000E+00  0.1800E-01  0.1800E-01
      0.678  0.0000E+00  0.0000E+00  0.1800E-01  0.1800E-01
      0.730  0.0000E+00  0.0000E+00  0.1800E-01  0.1800E-01
      0.782  0.0000E+00  0.0000E+00  0.1800E-01  0.1800E-01
      0.833  0.0000E+00  0.0000E+00  0.1800E-01  0.1800E-01
      0.885  0.0000E+00  0.0000E+00  0.1800E-01  0.1800E-01
      0.937  0.0000E+00  0.0000E+00  0.1800E-01  0.1800E-01
      0.989  0.0000E+00  0.0000E+00  0.1800E-01  0.1800E-01
      1.041  0.0000E+00  0.0000E+00  0.1800E-01  0.1800E-01
      1.092  0.0000E+00  0.0000E+00  0.1800E-01  0.1800E-01
      1.144  0.0000E+00  0.0000E+00  0.1800E-01  0.1800E-01
      1.196  0.0000E+00  0.0000E+00  0.1800E-01  0.1800E-01
