    7    7 1000    2
  0.1727611E+04  0.2286043E-08  0.2357239E-08  0.2244170E-08  0.5000000E-15
   1.0000000000000000E-004
  CAR 
 unknown system                          
     21      1     18
 
  0.1262379E-14  0.1262379E-14  0.1262379E-14  0.1000000E+01
    1      -12.344091    -12.233288   1.000000   1.000000
    2       -9.708488     -9.486277   1.000000   1.000000
    3       -8.892469     -8.842279   1.000000   1.000000
    4       -8.877488     -8.829077   1.000000   1.000000
    5       -6.651703     -6.289234   1.000000   1.000000
    6       -5.995230     -5.923777   1.000000   1.000000
    7       -5.981133     -5.914015   1.000000   1.000000
    8       -5.049645     -5.004094   1.000000   1.000000
    9       -4.965279     -4.926782   1.000000   1.000000
   10       -4.964050     -4.923513   1.000000   1.000000
   11       -4.192328     -3.393505   1.000061  -0.000039
   12       -3.361206     -3.225596  -0.000015  -0.000000
   13       -3.338446     -3.216788  -0.000007  -0.000000
   14       -3.012656     -2.955153  -0.000000  -0.000000
   15       -2.359783     -2.263946  -0.000000  -0.000000
   16       -2.347304     -2.256079  -0.000000  -0.000000
   17       -1.635268     -1.634342  -0.000000  -0.000000
   18       -0.850821     -0.803977  -0.000000  -0.000000
