       N       E                     dE             d eps       ncg     rms          rms(c)
DAV:   1     0.489909412004E+02    0.48991E+02   -0.30952E+03   104   0.403E+02
DAV:   2    -0.972670559239E+01   -0.58718E+02   -0.57455E+02   124   0.610E+01
DAV:   3    -0.190506986177E+02   -0.93240E+01   -0.93080E+01   104   0.240E+01
DAV:   4    -0.192715796734E+02   -0.22088E+00   -0.22085E+00   112   0.605E+00
DAV:   5    -0.192746298431E+02   -0.30502E-02   -0.30501E-02   100   0.974E-01    0.705E+00
DAV:   6    -0.845067486664E+01    0.10824E+02   -0.20152E+01    72   0.159E+01    0.374E+00
DAV:   7    -0.581622711376E+01    0.26344E+01   -0.53191E+00    74   0.804E+00    0.198E+00
DAV:   8    -0.801912323482E+01   -0.22029E+01   -0.93996E-01    82   0.470E+00    0.155E+00
DAV:   9    -0.113195150394E+02   -0.33004E+01   -0.13200E+00    74   0.417E+00    0.103E+00
DAV:  10    -0.137008432081E+02   -0.23813E+01   -0.97489E-01    82   0.304E+00    0.747E-01
DAV:  11    -0.150941145943E+02   -0.13933E+01   -0.45946E-01    74   0.211E+00    0.574E-01
DAV:  12    -0.164896106037E+02   -0.13955E+01   -0.59473E-01    74   0.246E+00    0.355E-01
DAV:  13    -0.167688523729E+02   -0.27924E+00   -0.92514E-02    74   0.112E+00    0.262E-01
DAV:  14    -0.170447060227E+02   -0.27585E+00   -0.28822E-02    74   0.708E-01    0.174E-01
DAV:  15    -0.175192924068E+02   -0.47459E+00   -0.34449E-02    84   0.551E-01    0.965E-02
DAV:  16    -0.176565417711E+02   -0.13725E+00   -0.79115E-03    74   0.305E-01    0.642E-02
DAV:  17    -0.177193241590E+02   -0.62782E-01   -0.29437E-03    82   0.185E-01    0.379E-02
DAV:  18    -0.177781503120E+02   -0.58826E-01   -0.22444E-03    74   0.135E-01    0.195E-02
DAV:  19    -0.177913071036E+02   -0.13157E-01   -0.19383E-04    92   0.476E-02    0.116E-02
DAV:  20    -0.177966259711E+02   -0.53189E-02   -0.10715E-04    68   0.377E-02    0.730E-03
DAV:  21    -0.177986380129E+02   -0.20120E-02   -0.48311E-05    58   0.249E-02    0.501E-03
DAV:  22    -0.177998837455E+02   -0.12457E-02   -0.32039E-05    60   0.181E-02    0.319E-03
DAV:  23    -0.178007416440E+02   -0.85790E-03   -0.23369E-05    52   0.131E-02    0.200E-03
DAV:  24    -0.178013094605E+02   -0.56782E-03   -0.10363E-05    50   0.802E-03    0.112E-03
DAV:  25    -0.178016054980E+02   -0.29604E-03   -0.36907E-06    44   0.520E-03    0.681E-04
DAV:  26    -0.178016805152E+02   -0.75017E-04   -0.54635E-07    42   0.294E-03
   1 F= -.17801681E+02 E0= -.17803629E+02  d E =-.178017E+02  mag=     1.0008
       N       E                     dE             d eps       ncg     rms          rms(c)
DAV:   1    -0.178020499342E+02   -0.44444E-03   -0.18996E-03    76   0.239E-01    0.127E-02
DAV:   2    -0.178020671385E+02   -0.17204E-04   -0.82282E-05    46   0.516E-02
   2 F= -.17802067E+02 E0= -.17804016E+02  d E =-.386623E-03  mag=     1.0007
       N       E                     dE             d eps       ncg     rms          rms(c)
DAV:   1    -0.178024326535E+02   -0.38272E-03   -0.14070E-02    74   0.647E-01    0.337E-02
DAV:   2    -0.178024884352E+02   -0.55782E-04   -0.80062E-04   112   0.142E-01
   3 F= -.17802488E+02 E0= -.17804438E+02  d E =-.807920E-03  mag=     1.0006
