unknown system                          
            1
    22.860433    0.000000    0.000000
     0.000000   23.572394    0.000000
     0.000000    0.000000   22.441704
   Al
     7
Direct configuration=     1
   0.43555836  0.39586918  0.47720717
   0.48316688  0.55865516  0.55209929
   0.50267360  0.56271164  0.43233517
   0.50170693  0.45049941  0.55554814
   0.41574094  0.50664431  0.47724238
   0.52144793  0.45449228  0.42748529
   0.58117397  0.51221423  0.50476853
Direct configuration=     2
   0.43552490  0.39580621  0.47721583
   0.48312243  0.55868618  0.55213218
   0.50264046  0.56274689  0.43228491
   0.50167374  0.45050256  0.55548680
   0.41583211  0.50663840  0.47726308
   0.52142990  0.45451398  0.42752513
   0.58124506  0.51219199  0.50477803
Direct configuration=     3
   0.43543419  0.39563551  0.47723933
   0.48300192  0.55877029  0.55222135
   0.50255063  0.56284244  0.43214868
   0.50158378  0.45051109  0.55532052
   0.41607928  0.50662240  0.47731919
   0.52138102  0.45457280  0.42763312
   0.58143778  0.51213169  0.50480376
