  13  13   0   0
  0.1036928E+04  0.2329492E-08  0.2418418E-08  0.2392761E-08  0.5000000E-15
   1.0000000000000000E-004
  CAR 
 unknown system                          
      2.35020569    -12.54279627  301     -4.13216973      1.00000000
    -12.543  0.0000E+00  0.0000E+00  0.0000E+00  0.0000E+00
    -12.493  0.0000E+00  0.0000E+00  0.0000E+00  0.0000E+00
    -12.444  0.0000E+00  0.0000E+00  0.0000E+00  0.0000E+00
    -12.394  0.0000E+00  0.0000E+00  0.0000E+00  0.0000E+00
    -12.344  0.0000E+00  0.0000E+00  0.0000E+00  0.0000E+00
    -12.295  0.0000E+00  0.0000E+00  0.0000E+00  0.0000E+00
    -12.245  0.0000E+00  0.0000E+00  0.0000E+00  0.0000E+00
    -12.195  0.0000E+00  0.0000E+00  0.0000E+00  0.0000E+00
    -12.146 -0.5812E-29 -0.2907E-29 -0.2885E-30 -0.1443E-30
    -12.096 -0.2772E-27 -0.1417E-27 -0.1405E-28 -0.7181E-29
    -12.046 -0.1189E-25 -0.6212E-26 -0.6041E-27 -0.3156E-27
    -11.997 -0.4499E-24 -0.2403E-24 -0.2294E-25 -0.1225E-25
    -11.947 -0.1503E-22 -0.8208E-23 -0.7693E-24 -0.4197E-24
    -11.897 -0.4433E-21 -0.2474E-21 -0.2278E-22 -0.1270E-22
    -11.848 -0.1153E-19 -0.6580E-20 -0.5954E-21 -0.3393E-21
    -11.798 -0.2648E-18 -0.1544E-18 -0.1374E-19 -0.8004E-20
    -11.749 -0.5361E-17 -0.3195E-17 -0.2799E-18 -0.1666E-18
    -11.699 -0.9236E-16 -0.5608E-16 -0.4865E-17 -0.2951E-17
    -11.649 -0.1458E-14 -0.9093E-15 -0.7726E-16 -0.4809E-16
    -11.600 -0.2015E-13 -0.1284E-13 -0.1078E-14 -0.6857E-15
    -11.550 -0.2454E-12 -0.1599E-12 -0.1326E-13 -0.8623E-14
    -11.500 -0.2629E-11 -0.1752E-11 -0.1438E-12 -0.9559E-13
    -11.451 -0.2477E-10 -0.1688E-10 -0.1373E-11 -0.9337E-12
    -11.401 -0.2051E-09 -0.1430E-09 -0.1155E-10 -0.8032E-11
    -11.351 -0.1491E-08 -0.1063E-08 -0.8556E-10 -0.6082E-10
    -11.302 -0.9500E-08 -0.6936E-08 -0.5572E-09 -0.4051E-09
    -11.252 -0.5300E-07 -0.3961E-07 -0.3188E-08 -0.2371E-08
    -11.202 -0.2583E-06 -0.1977E-06 -0.1601E-07 -0.1219E-07
    -11.153 -0.1097E-05 -0.8601E-06 -0.7045E-07 -0.5488E-07
    -11.103 -0.4040E-05 -0.3250E-05 -0.2710E-06 -0.2162E-06
    -11.053 -0.1285E-04 -0.1061E-04 -0.9088E-06 -0.7428E-06
    -11.004 -0.3494E-04 -0.2967E-04 -0.2643E-05 -0.2216E-05
    -10.954 -0.8010E-04 -0.7020E-04 -0.6620E-05 -0.5701E-05
    -10.905 -0.1506E-03 -0.1370E-03 -0.1409E-04 -0.1250E-04
    -10.855 -0.2174E-03 -0.2090E-03 -0.2489E-04 -0.2288E-04
    -10.805 -0.1918E-03 -0.2091E-03 -0.3441E-04 -0.3326E-04
    -10.756  0.7733E-04  0.5281E-05 -0.3057E-04 -0.3299E-04
    -10.706  0.7362E-03  0.5895E-03  0.5976E-05 -0.3728E-05
    -10.656  0.1793E-02  0.1586E-02  0.9498E-04  0.7502E-04
    -10.607  0.3007E-02  0.2802E-02  0.2443E-03  0.2141E-03
    -10.557  0.3939E-02  0.3817E-02  0.4398E-03  0.4036E-03
    -10.507  0.4176E-02  0.4195E-02  0.6471E-03  0.6118E-03
    -10.458  0.3608E-02  0.3758E-02  0.8262E-03  0.7984E-03
    -10.408  0.2497E-02  0.2711E-02  0.9502E-03  0.9330E-03
    -10.358  0.1304E-02  0.1500E-02  0.1015E-02  0.1007E-02
    -10.309  0.4030E-03  0.5306E-03  0.1035E-02  0.1034E-02
    -10.259 -0.7774E-04 -0.2205E-04  0.1031E-02  0.1033E-02
    -10.210 -0.2227E-03 -0.2144E-03  0.1020E-02  0.1022E-02
    -10.160 -0.1935E-03 -0.2047E-03  0.1010E-02  0.1012E-02
    -10.110 -0.1183E-03 -0.1313E-03  0.1005E-02  0.1005E-02
    -10.061 -0.5755E-04 -0.6621E-04  0.1002E-02  0.1002E-02
    -10.011 -0.2329E-04 -0.2762E-04  0.1001E-02  0.1001E-02
     -9.961 -0.8002E-05 -0.9756E-05  0.1000E-02  0.1000E-02
     -9.912 -0.2362E-05 -0.2955E-05  0.1000E-02  0.1000E-02
     -9.862 -0.6034E-06 -0.7740E-06  0.1000E-02  0.1000E-02
     -9.812 -0.1359E-06 -0.1776E-06  0.1000E-02  0.1000E-02
     -9.763 -0.3806E-07 -0.4464E-07  0.1000E-02  0.1000E-02
     -9.713 -0.7082E-07 -0.6025E-07  0.1000E-02  0.1000E-02
     -9.663 -0.3184E-06 -0.2646E-06  0.1000E-02  0.1000E-02
     -9.614 -0.1324E-05 -0.1118E-05  0.9999E-03  0.9999E-03
     -9.564 -0.4781E-05 -0.4110E-05  0.9997E-03  0.9997E-03
     -9.515 -0.1489E-04 -0.1305E-04  0.9989E-03  0.9991E-03
     -9.465 -0.3965E-04 -0.3543E-04  0.9970E-03  0.9973E-03
     -9.415 -0.8884E-04 -0.8118E-04  0.9926E-03  0.9933E-03
     -9.366 -0.1627E-03 -0.1528E-03  0.9845E-03  0.9857E-03
     -9.316 -0.2277E-03 -0.2223E-03  0.9732E-03  0.9747E-03
     -9.266 -0.1897E-03 -0.2037E-03  0.9638E-03  0.9646E-03
     -9.217  0.9910E-04  0.4691E-04  0.9687E-03  0.9669E-03
     -9.167  0.7653E-03  0.6651E-03  0.1007E-02  0.9999E-03
     -9.117  0.1790E-02  0.1655E-02  0.1096E-02  0.1082E-02
     -9.068  0.2938E-02  0.2804E-02  0.1241E-02  0.1221E-02
     -9.018  0.3863E-02  0.3761E-02  0.1433E-02  0.1408E-02
     -8.968  0.4340E-02  0.4273E-02  0.1649E-02  0.1620E-02
     -8.919  0.4437E-02  0.4374E-02  0.1869E-02  0.1837E-02
     -8.869  0.4413E-02  0.4330E-02  0.2088E-02  0.2052E-02
     -8.820  0.4433E-02  0.4351E-02  0.2308E-02  0.2268E-02
     -8.770  0.4382E-02  0.4362E-02  0.2526E-02  0.2485E-02
     -8.720  0.3995E-02  0.4085E-02  0.2724E-02  0.2687E-02
     -8.671  0.3148E-02  0.3341E-02  0.2880E-02  0.2853E-02
     -8.621  0.2014E-02  0.2245E-02  0.2980E-02  0.2965E-02
     -8.571  0.9343E-03  0.1129E-02  0.3027E-02  0.3021E-02
     -8.522  0.1736E-03  0.2934E-03  0.3035E-02  0.3035E-02
     -8.472 -0.2198E-03 -0.1677E-03  0.3024E-02  0.3027E-02
     -8.422 -0.3666E-03 -0.3518E-03  0.3006E-02  0.3010E-02
     -8.373 -0.4187E-03 -0.4158E-03  0.2985E-02  0.2989E-02
     -8.323 -0.4407E-03 -0.4469E-03  0.2963E-02  0.2967E-02
     -8.273 -0.3623E-03 -0.3989E-03  0.2945E-02  0.2947E-02
     -8.224 -0.1535E-05 -0.1020E-03  0.2945E-02  0.2942E-02
     -8.174  0.8498E-03  0.6624E-03  0.2988E-02  0.2975E-02
     -8.125  0.2306E-02  0.2042E-02  0.3102E-02  0.3076E-02
     -8.075  0.4288E-02  0.3996E-02  0.3315E-02  0.3275E-02
     -8.025  0.6496E-02  0.6249E-02  0.3637E-02  0.3585E-02
     -7.976  0.8479E-02  0.8333E-02  0.4058E-02  0.3998E-02
     -7.926  0.9769E-02  0.9739E-02  0.4543E-02  0.4482E-02
     -7.876  0.1007E-01  0.1012E-01  0.5043E-02  0.4984E-02
     -7.827  0.9426E-02  0.9489E-02  0.5511E-02  0.5455E-02
     -7.777  0.8216E-02  0.8235E-02  0.5919E-02  0.5864E-02
     -7.727  0.7021E-02  0.6971E-02  0.6268E-02  0.6210E-02
     -7.678  0.6338E-02  0.6231E-02  0.6582E-02  0.6520E-02
     -7.628  0.6374E-02  0.6245E-02  0.6899E-02  0.6830E-02
     -7.578  0.6969E-02  0.6865E-02  0.7245E-02  0.7171E-02
     -7.529  0.7716E-02  0.7680E-02  0.7628E-02  0.7552E-02
     -7.479  0.8245E-02  0.8284E-02  0.8037E-02  0.7963E-02
     -7.430  0.8548E-02  0.8605E-02  0.8461E-02  0.8390E-02
     -7.380  0.9056E-02  0.9027E-02  0.8911E-02  0.8838E-02
     -7.330  0.1033E-01  0.1013E-01  0.9424E-02  0.9341E-02
     -7.281  0.1255E-01  0.1218E-01  0.1005E-01  0.9946E-02
     -7.231  0.1529E-01  0.1488E-01  0.1081E-01  0.1068E-01
     -7.181  0.1774E-01  0.1744E-01  0.1169E-01  0.1155E-01
     -7.132  0.1917E-01  0.1907E-01  0.1264E-01  0.1250E-01
     -7.082  0.1931E-01  0.1942E-01  0.1360E-01  0.1346E-01
     -7.032  0.1844E-01  0.1867E-01  0.1451E-01  0.1439E-01
     -6.983  0.1716E-01  0.1739E-01  0.1536E-01  0.1525E-01
     -6.933  0.1613E-01  0.1625E-01  0.1616E-01  0.1606E-01
     -6.883  0.1576E-01  0.1575E-01  0.1695E-01  0.1684E-01
     -6.834  0.1615E-01  0.1605E-01  0.1775E-01  0.1764E-01
     -6.784  0.1715E-01  0.1702E-01  0.1860E-01  0.1848E-01
     -6.735  0.1842E-01  0.1834E-01  0.1951E-01  0.1939E-01
     -6.685  0.1951E-01  0.1951E-01  0.2048E-01  0.2036E-01
     -6.635  0.1995E-01  0.2005E-01  0.2147E-01  0.2136E-01
     -6.586  0.1952E-01  0.1968E-01  0.2244E-01  0.2233E-01
     -6.536  0.1838E-01  0.1854E-01  0.2335E-01  0.2325E-01
     -6.486  0.1707E-01  0.1716E-01  0.2420E-01  0.2411E-01
     -6.437  0.1621E-01  0.1617E-01  0.2501E-01  0.2491E-01
     -6.387  0.1624E-01  0.1606E-01  0.2581E-01  0.2571E-01
     -6.337  0.1734E-01  0.1704E-01  0.2667E-01  0.2655E-01
     -6.288  0.1940E-01  0.1903E-01  0.2764E-01  0.2750E-01
     -6.238  0.2201E-01  0.2161E-01  0.2873E-01  0.2857E-01
     -6.188  0.2448E-01  0.2412E-01  0.2994E-01  0.2977E-01
     -6.139  0.2609E-01  0.2584E-01  0.3124E-01  0.3105E-01
     -6.089  0.2647E-01  0.2637E-01  0.3255E-01  0.3236E-01
     -6.040  0.2597E-01  0.2599E-01  0.3384E-01  0.3365E-01
     -5.990  0.2553E-01  0.2558E-01  0.3511E-01  0.3492E-01
     -5.940  0.2623E-01  0.2620E-01  0.3641E-01  0.3622E-01
     -5.891  0.2860E-01  0.2842E-01  0.3783E-01  0.3763E-01
     -5.841  0.3233E-01  0.3204E-01  0.3944E-01  0.3922E-01
     -5.791  0.3649E-01  0.3617E-01  0.4125E-01  0.4102E-01
     -5.742  0.3999E-01  0.3972E-01  0.4323E-01  0.4299E-01
     -5.692  0.4220E-01  0.4202E-01  0.4533E-01  0.4507E-01
     -5.642  0.4315E-01  0.4301E-01  0.4747E-01  0.4721E-01
     -5.593  0.4338E-01  0.4322E-01  0.4962E-01  0.4936E-01
     -5.543  0.4352E-01  0.4332E-01  0.5178E-01  0.5151E-01
     -5.493  0.4394E-01  0.4373E-01  0.5397E-01  0.5368E-01
     -5.444  0.4458E-01  0.4442E-01  0.5618E-01  0.5588E-01
     -5.394  0.4496E-01  0.4494E-01  0.5841E-01  0.5811E-01
     -5.345  0.4431E-01  0.4452E-01  0.6061E-01  0.6032E-01
     -5.295  0.4183E-01  0.4232E-01  0.6269E-01  0.6242E-01
     -5.245  0.3700E-01  0.3778E-01  0.6452E-01  0.6430E-01
     -5.196  0.2996E-01  0.3096E-01  0.6601E-01  0.6584E-01
     -5.146  0.2169E-01  0.2276E-01  0.6709E-01  0.6697E-01
     -5.096  0.1375E-01  0.1468E-01  0.6777E-01  0.6770E-01
     -5.047  0.7622E-02  0.8251E-02  0.6815E-01  0.6811E-01
     -4.997  0.4115E-02  0.4390E-02  0.6835E-01  0.6832E-01
     -4.947  0.3044E-02  0.3036E-02  0.6850E-01  0.6847E-01
     -4.898  0.3525E-02  0.3375E-02  0.6868E-01  0.6864E-01
     -4.848  0.4556E-02  0.4392E-02  0.6890E-01  0.6886E-01
     -4.798  0.5475E-02  0.5368E-02  0.6918E-01  0.6913E-01
     -4.749  0.6055E-02  0.6022E-02  0.6948E-01  0.6942E-01
     -4.699  0.6309E-02  0.6344E-02  0.6979E-01  0.6974E-01
     -4.650  0.6263E-02  0.6361E-02  0.7010E-01  0.7006E-01
     -4.600  0.5852E-02  0.6018E-02  0.7039E-01  0.7035E-01
     -4.550  0.4990E-02  0.5225E-02  0.7064E-01  0.7061E-01
     -4.501  0.3711E-02  0.3990E-02  0.7082E-01  0.7081E-01
     -4.451  0.2273E-02  0.2514E-02  0.7094E-01  0.7094E-01
     -4.401  0.1100E-02  0.1152E-02  0.7099E-01  0.7099E-01
     -4.352  0.5999E-03  0.2798E-03  0.7102E-01  0.7101E-01
     -4.302  0.9506E-03  0.1450E-03  0.7107E-01  0.7102E-01
     -4.252  0.1976E-02  0.7792E-03  0.7117E-01  0.7105E-01
     -4.203  0.3184E-02  0.1955E-02  0.7132E-01  0.7115E-01
     -4.153  0.3984E-02  0.3217E-02  0.7152E-01  0.7131E-01
     -4.103  0.3986E-02  0.4031E-02  0.7172E-01  0.7151E-01
     -4.054  0.3211E-02  0.4042E-02  0.7188E-01  0.7171E-01
     -4.004  0.2034E-02  0.3272E-02  0.7198E-01  0.7187E-01
     -3.954  0.9213E-03  0.2090E-02  0.7203E-01  0.7198E-01
     -3.905  0.1712E-03  0.9602E-03  0.7203E-01  0.7203E-01
     -3.855 -0.1814E-03  0.1848E-03  0.7203E-01  0.7203E-01
     -3.806 -0.2747E-03 -0.1966E-03  0.7201E-01  0.7202E-01
     -3.756 -0.2777E-03 -0.3206E-03  0.7200E-01  0.7201E-01
     -3.706 -0.2933E-03 -0.3498E-03  0.7198E-01  0.7199E-01
     -3.657 -0.3215E-03 -0.3613E-03  0.7197E-01  0.7197E-01
     -3.607 -0.2576E-03 -0.3050E-03  0.7196E-01  0.7196E-01
     -3.557  0.7856E-04 -0.2438E-04  0.7196E-01  0.7196E-01
     -3.508  0.8627E-03  0.6628E-03  0.7200E-01  0.7199E-01
     -3.458  0.2145E-02  0.1840E-02  0.7211E-01  0.7208E-01
     -3.408  0.3758E-02  0.3386E-02  0.7229E-01  0.7225E-01
     -3.359  0.5336E-02  0.4975E-02  0.7256E-01  0.7250E-01
     -3.309  0.6446E-02  0.6193E-02  0.7288E-01  0.7280E-01
     -3.259  0.6765E-02  0.6697E-02  0.7322E-01  0.7314E-01
     -3.210  0.6197E-02  0.6345E-02  0.7352E-01  0.7345E-01
     -3.160  0.4908E-02  0.5235E-02  0.7377E-01  0.7371E-01
     -3.111  0.3266E-02  0.3677E-02  0.7393E-01  0.7389E-01
     -3.061  0.1695E-02  0.2076E-02  0.7401E-01  0.7400E-01
     -3.011  0.5019E-03  0.7803E-03  0.7404E-01  0.7404E-01
     -2.962 -0.2135E-03 -0.5503E-04  0.7403E-01  0.7403E-01
     -2.912 -0.5220E-03 -0.4626E-03  0.7400E-01  0.7401E-01
     -2.862 -0.5274E-03 -0.5502E-03  0.7398E-01  0.7398E-01
     -2.813 -0.2552E-03 -0.3704E-03  0.7396E-01  0.7396E-01
     -2.763  0.3439E-03  0.1150E-03  0.7398E-01  0.7397E-01
     -2.713  0.1298E-02  0.9562E-03  0.7404E-01  0.7402E-01
     -2.664  0.2543E-02  0.2119E-02  0.7417E-01  0.7412E-01
     -2.614  0.3971E-02  0.3495E-02  0.7437E-01  0.7430E-01
     -2.564  0.5553E-02  0.5014E-02  0.7464E-01  0.7454E-01
     -2.515  0.7341E-02  0.6719E-02  0.7501E-01  0.7488E-01
     -2.465  0.9266E-02  0.8619E-02  0.7547E-01  0.7531E-01
     -2.416  0.1092E-01  0.1044E-01  0.7601E-01  0.7582E-01
     -2.366  0.1165E-01  0.1158E-01  0.7659E-01  0.7640E-01
     -2.316  0.1093E-01  0.1140E-01  0.7713E-01  0.7697E-01
     -2.267  0.8765E-02  0.9683E-02  0.7757E-01  0.7745E-01
     -2.217  0.5801E-02  0.6881E-02  0.7785E-01  0.7779E-01
     -2.167  0.2930E-02  0.3851E-02  0.7800E-01  0.7798E-01
     -2.118  0.8924E-03  0.1401E-02  0.7804E-01  0.7805E-01
     -2.068  0.3402E-04 -0.2444E-04  0.7805E-01  0.7805E-01
     -2.018  0.3130E-03 -0.3648E-03  0.7806E-01  0.7803E-01
     -1.969  0.1395E-02  0.2057E-03  0.7813E-01  0.7804E-01
     -1.919  0.2745E-02  0.1381E-02  0.7827E-01  0.7811E-01
     -1.869  0.3757E-02  0.2728E-02  0.7845E-01  0.7824E-01
     -1.820  0.3979E-02  0.3728E-02  0.7865E-01  0.7843E-01
     -1.770  0.3330E-02  0.3964E-02  0.7882E-01  0.7863E-01
     -1.721  0.2158E-02  0.3370E-02  0.7892E-01  0.7879E-01
     -1.671  0.1049E-02  0.2313E-02  0.7898E-01  0.7891E-01
     -1.621  0.5320E-03  0.1415E-02  0.7900E-01  0.7898E-01
     -1.572  0.8546E-03  0.1198E-02  0.7904E-01  0.7904E-01
     -1.522  0.1912E-02  0.1814E-02  0.7914E-01  0.7913E-01
     -1.472  0.3337E-02  0.3006E-02  0.7930E-01  0.7928E-01
     -1.423  0.4675E-02  0.4300E-02  0.7954E-01  0.7949E-01
     -1.373  0.5569E-02  0.5268E-02  0.7981E-01  0.7975E-01
     -1.323  0.5861E-02  0.5691E-02  0.8010E-01  0.8003E-01
     -1.274  0.5596E-02  0.5555E-02  0.8038E-01  0.8031E-01
     -1.224  0.4991E-02  0.5006E-02  0.8063E-01  0.8056E-01
     -1.174  0.4392E-02  0.4325E-02  0.8085E-01  0.8077E-01
     -1.125  0.4166E-02  0.3884E-02  0.8105E-01  0.8097E-01
     -1.075  0.4506E-02  0.3984E-02  0.8128E-01  0.8116E-01
     -1.026  0.5290E-02  0.4662E-02  0.8154E-01  0.8139E-01
     -0.976  0.6147E-02  0.5634E-02  0.8185E-01  0.8167E-01
     -0.926  0.6699E-02  0.6479E-02  0.8218E-01  0.8200E-01
     -0.877  0.6793E-02  0.6907E-02  0.8252E-01  0.8234E-01
     -0.827  0.6517E-02  0.6882E-02  0.8284E-01  0.8268E-01
     -0.777  0.6029E-02  0.6525E-02  0.8314E-01  0.8300E-01
     -0.728  0.5374E-02  0.5922E-02  0.8341E-01  0.8330E-01
     -0.678  0.4490E-02  0.5056E-02  0.8363E-01  0.8355E-01
     -0.628  0.3397E-02  0.3921E-02  0.8380E-01  0.8374E-01
     -0.579  0.2346E-02  0.2699E-02  0.8391E-01  0.8388E-01
     -0.529  0.1760E-02  0.1786E-02  0.8400E-01  0.8397E-01
     -0.479  0.1977E-02  0.1592E-02  0.8410E-01  0.8405E-01
     -0.430  0.3041E-02  0.2299E-02  0.8425E-01  0.8416E-01
     -0.380  0.4700E-02  0.3760E-02  0.8448E-01  0.8435E-01
     -0.331  0.6552E-02  0.5607E-02  0.8481E-01  0.8462E-01
     -0.281  0.8175E-02  0.7395E-02  0.8521E-01  0.8499E-01
     -0.231  0.9209E-02  0.8704E-02  0.8567E-01  0.8542E-01
     -0.182  0.9462E-02  0.9234E-02  0.8614E-01  0.8588E-01
     -0.132  0.9043E-02  0.8960E-02  0.8659E-01  0.8633E-01
     -0.082  0.8363E-02  0.8234E-02  0.8701E-01  0.8674E-01
     -0.033  0.7915E-02  0.7607E-02  0.8740E-01  0.8711E-01
      0.017  0.8020E-02  0.7478E-02  0.8780E-01  0.8749E-01
      0.067  0.8746E-02  0.7882E-02  0.8823E-01  0.8788E-01
      0.116  0.9991E-02  0.8661E-02  0.8873E-01  0.8831E-01
      0.166  0.1149E-01  0.9729E-02  0.8930E-01  0.8879E-01
      0.216  0.1274E-01  0.1104E-01  0.8993E-01  0.8934E-01
      0.265  0.1304E-01  0.1228E-01  0.9058E-01  0.8995E-01
      0.315  0.1185E-01  0.1276E-01  0.9117E-01  0.9058E-01
      0.364  0.9245E-02  0.1179E-01  0.9162E-01  0.9117E-01
      0.414  0.5931E-02  0.9306E-02  0.9192E-01  0.9163E-01
      0.464  0.2873E-02  0.5986E-02  0.9206E-01  0.9192E-01
      0.513  0.7445E-03  0.2866E-02  0.9210E-01  0.9207E-01
      0.563 -0.3209E-03  0.6945E-03  0.9208E-01  0.9210E-01
      0.613 -0.6039E-03 -0.3727E-03  0.9205E-01  0.9208E-01
      0.662 -0.5007E-03 -0.6337E-03  0.9203E-01  0.9205E-01
      0.712 -0.3046E-03 -0.5087E-03  0.9201E-01  0.9203E-01
      0.762 -0.1501E-03 -0.3014E-03  0.9200E-01  0.9201E-01
      0.811 -0.6216E-04 -0.1447E-03  0.9200E-01  0.9200E-01
      0.861 -0.2204E-04 -0.5836E-04  0.9200E-01  0.9200E-01
      0.911 -0.6761E-05 -0.2013E-04  0.9200E-01  0.9200E-01
      0.960 -0.1804E-05 -0.5998E-05  0.9200E-01  0.9200E-01
      1.010 -0.4205E-06 -0.1554E-05  0.9200E-01  0.9200E-01
      1.059 -0.8586E-07 -0.3513E-06  0.9200E-01  0.9200E-01
      1.109 -0.1538E-07 -0.6955E-07  0.9200E-01  0.9200E-01
      1.159 -0.2421E-08 -0.1208E-07  0.9200E-01  0.9200E-01
      1.208 -0.3353E-09 -0.1844E-08  0.9200E-01  0.9200E-01
      1.258 -0.4086E-10 -0.2475E-09  0.9200E-01  0.9200E-01
      1.308 -0.4386E-11 -0.2924E-10  0.9200E-01  0.9200E-01
      1.357 -0.4149E-12 -0.3045E-11  0.9200E-01  0.9200E-01
      1.407 -0.3459E-13 -0.2794E-12  0.9200E-01  0.9200E-01
      1.457 -0.2545E-14 -0.2261E-13  0.9200E-01  0.9200E-01
      1.506 -0.1655E-15 -0.1606E-14  0.9200E-01  0.9200E-01
      1.556 -0.8946E-17 -0.1073E-15  0.9200E-01  0.9200E-01
      1.606  0.0000E+00 -0.4473E-17  0.9200E-01  0.9200E-01
      1.655  0.0000E+00  0.0000E+00  0.9200E-01  0.9200E-01
      1.705  0.0000E+00  0.0000E+00  0.9200E-01  0.9200E-01
      1.754  0.0000E+00  0.0000E+00  0.9200E-01  0.9200E-01
      1.804  0.0000E+00  0.0000E+00  0.9200E-01  0.9200E-01
      1.854  0.0000E+00  0.0000E+00  0.9200E-01  0.9200E-01
      1.903  0.0000E+00  0.0000E+00  0.9200E-01  0.9200E-01
      1.953  0.0000E+00  0.0000E+00  0.9200E-01  0.9200E-01
      2.003  0.0000E+00  0.0000E+00  0.9200E-01  0.9200E-01
      2.052  0.0000E+00  0.0000E+00  0.9200E-01  0.9200E-01
      2.102  0.0000E+00  0.0000E+00  0.9200E-01  0.9200E-01
      2.152  0.0000E+00  0.0000E+00  0.9200E-01  0.9200E-01
      2.201  0.0000E+00  0.0000E+00  0.9200E-01  0.9200E-01
      2.251  0.0000E+00  0.0000E+00  0.9200E-01  0.9200E-01
      2.301  0.0000E+00  0.0000E+00  0.9200E-01  0.9200E-01
      2.350  0.0000E+00  0.0000E+00  0.9200E-01  0.9200E-01
