   13   13 1000    2
  0.1036928E+04  0.2329492E-08  0.2418418E-08  0.2392761E-08  0.5000000E-15
   1.0000000000000000E-004
  CAR 
 unknown system                          
    143      1     92
 
  0.1262379E-14  0.1262379E-14  0.1262379E-14  0.1000000E+01
    1      -10.542796    -10.534107   1.000000   1.000000
    2       -9.010675     -9.004524   1.000000   1.000000
    3       -8.767598     -8.757984   1.000000   1.000000
    4       -8.038787     -8.030291   1.000000   1.000000
    5       -7.911782     -7.905455   1.000000   1.000000
    6       -7.862159     -7.858034   1.000000   1.000000
    7       -7.690879     -7.679543   1.000000   1.000000
    8       -7.516784     -7.506226   1.000000   1.000000
    9       -7.467889     -7.461378   1.000000   1.000000
   10       -7.293088     -7.284881   1.000000   1.000000
   11       -7.239229     -7.234221   1.000000   1.000000
   12       -7.193790     -7.185634   1.000000   1.000000
   13       -7.140940     -7.130789   1.000000   1.000000
   14       -7.076768     -7.071459   1.000000   1.000000
   15       -7.064549     -7.058531   1.000000   1.000000
   16       -6.982354     -6.975170   1.000000   1.000000
   17       -6.888232     -6.882753   1.000000   1.000000
   18       -6.867249     -6.860315   1.000000   1.000000
   19       -6.774174     -6.764757   1.000000   1.000000
   20       -6.739220     -6.733598   1.000000   1.000000
   21       -6.664333     -6.660123   1.000000   1.000000
   22       -6.628854     -6.622339   1.000000   1.000000
   23       -6.607602     -6.602036   1.000000   1.000000
   24       -6.548303     -6.542676   1.000000   1.000000
   25       -6.449464     -6.443888   1.000000   1.000000
   26       -6.418040     -6.412752   1.000000   1.000000
   27       -6.349470     -6.341625   1.000000   1.000000
   28       -6.279769     -6.270714   1.000000   1.000000
   29       -6.238726     -6.232798   1.000000   1.000000
   30       -6.196806     -6.191644   1.000000   1.000000
   31       -6.164042     -6.158371   1.000000   1.000000
   32       -6.127207     -6.121286   1.000000   1.000000
   33       -6.104696     -6.095507   1.000000   1.000000
   34       -6.062019     -6.054333   1.000000   1.000000
   35       -6.046756     -6.037644   1.000000   1.000000
   36       -5.967615     -5.960633   1.000000   1.000000
   37       -5.929916     -5.921509   1.000000   1.000000
   38       -5.882339     -5.876233   1.000000   1.000000
   39       -5.871843     -5.865579   1.000000   1.000000
   40       -5.829868     -5.824602   1.000000   1.000000
   41       -5.803739     -5.797840   1.000000   1.000000
   42       -5.776040     -5.769076   1.000000   1.000000
   43       -5.753942     -5.748090   1.000000   1.000000
   44       -5.728728     -5.722844   1.000000   1.000000
   45       -5.720229     -5.714358   1.000000   1.000000
   46       -5.697326     -5.692735   1.000000   1.000000
   47       -5.679866     -5.672656   1.000000   1.000000
   48       -5.639019     -5.635127   1.000000   1.000000
   49       -5.634474     -5.627007   1.000000   1.000000
   50       -5.584598     -5.579037   1.000000   1.000000
   51       -5.565172     -5.559208   1.000000   1.000000
   52       -5.544263     -5.536155   1.000000   1.000000
   53       -5.533575     -5.528208   1.000000   1.000000
   54       -5.495038     -5.486724   1.000000   1.000000
   55       -5.488600     -5.481932   1.000000   1.000000
   56       -5.466471     -5.461554   1.000000   1.000000
   57       -5.422717     -5.415109   1.000000   1.000000
   58       -5.405608     -5.398922   1.000000   1.000000
   59       -5.385229     -5.377785   1.000000   1.000000
   60       -5.365836     -5.359018   1.000000   1.000000
   61       -5.334915     -5.330148   1.000000   1.000000
   62       -5.331540     -5.325044   1.000000   1.000000
   63       -5.304445     -5.297564   1.000000   1.000000
   64       -5.275806     -5.268516   1.000000   1.000000
   65       -5.245580     -5.239799   1.000000   1.000000
   66       -5.229488     -5.224680   1.000000   1.000000
   67       -5.187724     -5.180427   1.000000   1.000000
   68       -5.164787     -5.156693   1.000000   1.000000
   69       -4.909807     -4.901228   1.000000   1.000000
   70       -4.742893     -4.734176   1.000069   1.000088
   71       -4.577236     -4.570756   1.003613   1.004082
   72       -4.157066     -4.105366   0.604444   0.387704
   73       -3.362938     -3.353034  -0.000000  -0.000000
   74       -3.219945     -3.206499  -0.000000  -0.000000
   75       -2.602131     -2.585926  -0.000000  -0.000000
   76       -2.418696     -2.406675  -0.000000  -0.000000
   77       -2.387393     -2.364056  -0.000000  -0.000000
   78       -2.303347     -2.291055  -0.000000  -0.000000
   79       -1.858028     -1.804188  -0.000000  -0.000000
   80       -1.430788     -1.421426  -0.000000  -0.000000
   81       -1.259724     -1.243791  -0.000000  -0.000000
   82       -1.020576     -0.994264  -0.000000  -0.000000
   83       -0.886808     -0.860151  -0.000000  -0.000000
   84       -0.704896     -0.686499  -0.000000  -0.000000
   85       -0.377016     -0.349956  -0.000000  -0.000000
   86       -0.220359     -0.195502  -0.000000  -0.000000
   87       -0.184665     -0.155784  -0.000000  -0.000000
   88       -0.004073      0.049070  -0.000000  -0.000000
   89        0.084151      0.108294  -0.000000  -0.000000
   90        0.231759      0.287074  -0.000000  -0.000000
   91        0.248275      0.303957  -0.000000  -0.000000
   92        0.310049      0.350206  -0.000000  -0.000000
