       N       E                     dE             d eps       ncg     rms          rms(c)
DAV:   1     0.977242597531E+03    0.97724E+03   -0.24992E+04   368   0.742E+02
DAV:   2     0.268564760580E+03   -0.70868E+03   -0.64210E+03   384   0.210E+02
DAV:   3     0.148690385343E+02   -0.25370E+03   -0.24171E+03   464   0.139E+02
DAV:   4    -0.343596837029E+02   -0.49229E+02   -0.45263E+02   440   0.116E+02
DAV:   5    -0.366609833844E+02   -0.23013E+01   -0.22807E+01   504   0.239E+01    0.276E+01
DAV:   6    -0.194429454387E+02    0.17218E+02   -0.12168E+02   404   0.900E+01    0.117E+01
DAV:   7    -0.152474984339E+02    0.41954E+01   -0.28938E+01   440   0.650E+01    0.445E+00
DAV:   8    -0.142713051988E+02    0.97619E+00   -0.59467E+00   440   0.494E+01    0.412E+00
DAV:   9    -0.150121205345E+02   -0.74082E+00   -0.12908E+00   480   0.269E+01    0.248E+00
DAV:  10    -0.182412189627E+02   -0.32291E+01   -0.16116E+00   504   0.116E+01    0.195E+00
DAV:  11    -0.200223480003E+02   -0.17811E+01   -0.59550E-01   472   0.107E+01    0.162E+00
DAV:  12    -0.210326188180E+02   -0.10103E+01   -0.24945E-01   496   0.364E+00    0.151E+00
DAV:  13    -0.228328254158E+02   -0.18002E+01   -0.52888E-01   480   0.423E+00    0.130E+00
DAV:  14    -0.257146391864E+02   -0.28818E+01   -0.11824E+00   512   0.647E+00    0.105E+00
DAV:  15    -0.273149935286E+02   -0.16004E+01   -0.45198E-01   456   0.542E+00    0.997E-01
DAV:  16    -0.275715069371E+02   -0.25651E+00   -0.55445E-02   448   0.205E+00    0.944E-01
DAV:  17    -0.282333282117E+02   -0.66182E+00   -0.93026E-02   584   0.316E+00    0.841E-01
DAV:  18    -0.295178894572E+02   -0.12846E+01   -0.36693E-01   504   0.316E+00    0.558E-01
DAV:  19    -0.304127351477E+02   -0.89485E+00   -0.23638E-01   504   0.289E+00    0.441E-01
DAV:  20    -0.308714078922E+02   -0.45867E+00   -0.75491E-02   464   0.322E+00    0.352E-01
DAV:  21    -0.312397126442E+02   -0.36830E+00   -0.35133E-02   508   0.196E+00    0.252E-01
DAV:  22    -0.317194955997E+02   -0.47978E+00   -0.31233E-02   496   0.129E+00    0.172E-01
DAV:  23    -0.320089519802E+02   -0.28946E+00   -0.11988E-02   520   0.126E+00    0.116E-01
DAV:  24    -0.321355135363E+02   -0.12656E+00   -0.33124E-03   512   0.778E-01    0.979E-02
DAV:  25    -0.322225804011E+02   -0.87067E-01   -0.19410E-03   464   0.596E-01    0.532E-02
DAV:  26    -0.322615131213E+02   -0.38933E-01   -0.11984E-03   464   0.454E-01    0.470E-02
DAV:  27    -0.322779498213E+02   -0.16437E-01   -0.39063E-04   268   0.273E-01    0.384E-02
DAV:  28    -0.322859581393E+02   -0.80083E-02   -0.56306E-04   372   0.280E-01    0.228E-02
DAV:  29    -0.322875017562E+02   -0.15436E-02   -0.17058E-04   296   0.146E-01    0.201E-02
DAV:  30    -0.322890067673E+02   -0.15050E-02   -0.14527E-04   280   0.108E-01    0.159E-02
DAV:  31    -0.322902835191E+02   -0.12768E-02   -0.92808E-05   288   0.111E-01    0.110E-02
DAV:  32    -0.322917148903E+02   -0.14314E-02   -0.78244E-05   272   0.931E-02    0.105E-02
DAV:  33    -0.322931867952E+02   -0.14719E-02   -0.80785E-05   264   0.812E-02    0.810E-03
DAV:  34    -0.322938592436E+02   -0.67245E-03   -0.48559E-05   280   0.627E-02    0.652E-03
DAV:  35    -0.322946831963E+02   -0.82395E-03   -0.35695E-05   248   0.524E-02    0.580E-03
DAV:  36    -0.322955252000E+02   -0.84200E-03   -0.30840E-05   248   0.415E-02    0.455E-03
DAV:  37    -0.322959307340E+02   -0.40553E-03   -0.21059E-05   256   0.366E-02    0.400E-03
DAV:  38    -0.322960544553E+02   -0.12372E-03   -0.12089E-05   232   0.265E-02    0.291E-03
DAV:  39    -0.322961407708E+02   -0.86316E-04   -0.72840E-06   248   0.202E-02
   1 F= -.32296141E+02 E0= -.32299554E+02  d E =-.322961E+02  mag=     0.5302
       N       E                     dE             d eps       ncg     rms          rms(c)
DAV:   1    -0.323260513640E+02   -0.29997E-01   -0.22105E+01   396   0.162E+01    0.458E-01
DAV:   2    -0.323665361962E+02   -0.40485E-01   -0.45790E-01   552   0.691E+00    0.519E-01
DAV:   3    -0.323640922417E+02    0.24440E-02   -0.36309E-02   432   0.450E+00    0.251E-01
DAV:   4    -0.323641195086E+02   -0.27267E-04   -0.73556E-03   456   0.104E+00    0.204E-01
DAV:   5    -0.323638464651E+02    0.27304E-03   -0.14416E-03   408   0.407E-01    0.145E-01
DAV:   6    -0.323636226765E+02    0.22379E-03   -0.14612E-03   512   0.926E-01    0.905E-02
DAV:   7    -0.323634146607E+02    0.20802E-03   -0.57835E-04   432   0.730E-01    0.306E-02
DAV:   8    -0.323634193542E+02   -0.46935E-05   -0.25908E-04   264   0.213E-01
   2 F= -.32363419E+02 E0= -.32367547E+02  d E =-.672786E-01  mag=     0.5219
       N       E                     dE             d eps       ncg     rms          rms(c)
DAV:   1    -0.321708361840E+02    0.19258E+00   -0.13165E+02   408   0.417E+01    0.117E+00
DAV:   2    -0.324395254590E+02   -0.26869E+00   -0.30142E+00   560   0.183E+01    0.128E+00
DAV:   3    -0.324174998908E+02    0.22026E-01   -0.16864E-01   416   0.113E+01    0.576E-01
DAV:   4    -0.324184687938E+02   -0.96890E-03   -0.48031E-02   416   0.227E+00    0.486E-01
DAV:   5    -0.324166337906E+02    0.18350E-02   -0.73931E-03   408   0.115E+00    0.351E-01
DAV:   6    -0.324153699903E+02    0.12638E-02   -0.10333E-02   516   0.237E+00    0.208E-01
DAV:   7    -0.324147796042E+02    0.59039E-03   -0.37327E-03   472   0.173E+00    0.684E-02
DAV:   8    -0.324149524206E+02   -0.17282E-03   -0.16150E-03   520   0.604E-01    0.586E-02
DAV:   9    -0.324150506800E+02   -0.98259E-04   -0.36990E-04   344   0.256E-01
   3 F= -.32415051E+02 E0= -.32416403E+02  d E =-.118910E+00  mag=     0.5067
       N       E                     dE             d eps       ncg     rms          rms(c)
DAV:   1    -0.324087473573E+02    0.62051E-02   -0.55951E+00   396   0.813E+00    0.144E-01
DAV:   2    -0.324192502438E+02   -0.10503E-01   -0.10741E-01   544   0.201E+00    0.198E-01
DAV:   3    -0.324189437846E+02    0.30646E-03   -0.22361E-03   432   0.852E-01    0.131E-01
DAV:   4    -0.324189451609E+02   -0.13764E-05   -0.62785E-04   376   0.484E-01
   4 F= -.32418945E+02 E0= -.32420989E+02  d E =-.122804E+00  mag=     0.5030
       N       E                     dE             d eps       ncg     rms          rms(c)
DAV:   1    -0.324187472874E+02    0.19650E-03   -0.17184E+01   392   0.144E+01    0.282E-01
DAV:   2    -0.324517771018E+02   -0.33030E-01   -0.34009E-01   548   0.397E+00    0.375E-01
DAV:   3    -0.324504074313E+02    0.13697E-02   -0.11156E-02   416   0.218E+00    0.226E-01
DAV:   4    -0.324501725119E+02    0.23492E-03   -0.25203E-03   488   0.794E-01    0.190E-01
DAV:   5    -0.324497724873E+02    0.40002E-03   -0.82152E-04   408   0.514E-01    0.131E-01
DAV:   6    -0.324495483170E+02    0.22417E-03   -0.15934E-03   592   0.794E-01    0.655E-02
DAV:   7    -0.324495050781E+02    0.43239E-04   -0.36454E-04   336   0.500E-01
   5 F= -.32449505E+02 E0= -.32450538E+02  d E =-.305599E-01  mag=     0.4928
       N       E                     dE             d eps       ncg     rms          rms(c)
DAV:   1    -0.321761340670E+02    0.27341E+00   -0.15941E+02   392   0.470E+01    0.912E-01
DAV:   2    -0.325135822000E+02   -0.33745E+00   -0.34855E+00   556   0.141E+01    0.122E+00
DAV:   3    -0.324983610080E+02    0.15221E-01   -0.12969E-01   416   0.848E+00    0.670E-01
DAV:   4    -0.324972547272E+02    0.11063E-02   -0.30704E-02   432   0.206E+00    0.593E-01
DAV:   5    -0.324932995550E+02    0.39552E-02   -0.87103E-03   440   0.165E+00    0.426E-01
DAV:   6    -0.324898908768E+02    0.34087E-02   -0.16480E-02   608   0.251E+00    0.200E-01
DAV:   7    -0.324893368247E+02    0.55405E-03   -0.37023E-03   544   0.140E+00    0.849E-02
DAV:   8    -0.324893865315E+02   -0.49707E-04   -0.16561E-03   448   0.515E-01    0.617E-02
DAV:   9    -0.324894349690E+02   -0.48438E-04   -0.49186E-04   376   0.370E-01
   6 F= -.32489435E+02 E0= -.32487320E+02  d E =-.704898E-01  mag=     0.4702
       N       E                     dE             d eps       ncg     rms          rms(c)
DAV:   1    -0.324669216804E+02    0.22465E-01   -0.26486E+01   396   0.179E+01    0.377E-01
DAV:   2    -0.325184448303E+02   -0.51523E-01   -0.53813E-01   544   0.525E+00    0.481E-01
DAV:   3    -0.325161446184E+02    0.23002E-02   -0.20504E-02   408   0.306E+00    0.288E-01
DAV:   4    -0.325158311681E+02    0.31345E-03   -0.43253E-03   488   0.925E-01    0.243E-01
DAV:   5    -0.325151295195E+02    0.70165E-03   -0.12228E-03   416   0.580E-01    0.171E-01
DAV:   6    -0.325146464351E+02    0.48308E-03   -0.25613E-03   556   0.108E+00    0.832E-02
DAV:   7    -0.325145719775E+02    0.74458E-04   -0.87853E-04   488   0.654E-01
   7 F= -.32514572E+02 E0= -.32510777E+02  d E =-.251370E-01  mag=     0.4524
       N       E                     dE             d eps       ncg     rms          rms(c)
DAV:   1    -0.324381173930E+02    0.76529E-01   -0.48174E+01   392   0.244E+01    0.523E-01
DAV:   2    -0.325339294619E+02   -0.95812E-01   -0.10013E+00   544   0.716E+00    0.645E-01
DAV:   3    -0.325296081445E+02    0.43213E-02   -0.37110E-02   416   0.426E+00    0.377E-01
DAV:   4    -0.325291056859E+02    0.50246E-03   -0.83738E-03   480   0.128E+00    0.317E-01
DAV:   5    -0.325278980004E+02    0.12077E-02   -0.23823E-03   464   0.755E-01    0.221E-01
DAV:   6    -0.325270184054E+02    0.87959E-03   -0.43210E-03   556   0.139E+00    0.107E-01
DAV:   7    -0.325268604695E+02    0.15794E-03   -0.13350E-03   512   0.858E-01    0.338E-02
DAV:   8    -0.325269135876E+02   -0.53118E-04   -0.35167E-04   296   0.249E-01
   8 F= -.32526914E+02 E0= -.32521346E+02  d E =-.374786E-01  mag=     0.4296
       N       E                     dE             d eps       ncg     rms          rms(c)
DAV:   1    -0.324860842013E+02    0.40776E-01   -0.36393E+01   392   0.210E+01    0.510E-01
DAV:   2    -0.325571906700E+02   -0.71106E-01   -0.76403E-01   544   0.760E+00    0.623E-01
DAV:   3    -0.325529292988E+02    0.42614E-02   -0.38218E-02   404   0.458E+00    0.330E-01
DAV:   4    -0.325527319748E+02    0.19732E-03   -0.90138E-03   432   0.113E+00    0.279E-01
DAV:   5    -0.325518425246E+02    0.88945E-03   -0.20629E-03   416   0.633E-01    0.191E-01
DAV:   6    -0.325512893920E+02    0.55313E-03   -0.33705E-03   580   0.122E+00    0.104E-01
DAV:   7    -0.325511410237E+02    0.14837E-03   -0.95624E-04   456   0.861E-01    0.320E-02
DAV:   8    -0.325512111250E+02   -0.70101E-04   -0.36359E-04   312   0.262E-01
   9 F= -.32551211E+02 E0= -.32544450E+02  d E =-.242975E-01  mag=     0.4064
       N       E                     dE             d eps       ncg     rms          rms(c)
DAV:   1    -0.320375308097E+02    0.51361E+00   -0.35057E+02   456   0.750E+01    0.165E+00
DAV:   2    -0.326675307782E+02   -0.63000E+00   -0.69071E+00   552   0.323E+01    0.236E+00
DAV:   3    -0.325952374665E+02    0.72293E-01   -0.49439E-01   412   0.185E+01    0.922E-01
DAV:   4    -0.325989087241E+02   -0.36713E-02   -0.13626E-01   432   0.335E+00    0.720E-01
DAV:   5    -0.325959517080E+02    0.29570E-02   -0.23483E-02   416   0.328E+00    0.645E-01
DAV:   6    -0.325904818903E+02    0.54698E-02   -0.25422E-02   604   0.305E+00    0.411E-01
DAV:   7    -0.325878170014E+02    0.26649E-02   -0.83104E-03   512   0.217E+00    0.197E-01
DAV:   8    -0.325874756519E+02    0.34135E-03   -0.52284E-03   584   0.128E+00    0.852E-02
DAV:   9    -0.325876121960E+02   -0.13654E-03   -0.15470E-03   496   0.519E-01    0.625E-02
DAV:  10    -0.325877134378E+02   -0.10124E-03   -0.41525E-04   360   0.318E-01    0.377E-02
DAV:  11    -0.325878652635E+02   -0.15183E-03   -0.19307E-04   248   0.251E-01    0.237E-02
DAV:  12    -0.325880037230E+02   -0.13846E-03   -0.55110E-05   256   0.165E-01    0.171E-02
DAV:  13    -0.325882016349E+02   -0.19791E-03   -0.37691E-05   240   0.781E-02    0.135E-02
DAV:  14    -0.325883492045E+02   -0.14757E-03   -0.30348E-05   248   0.663E-02    0.100E-02
DAV:  15    -0.325885969666E+02   -0.24776E-03   -0.25560E-05   240   0.607E-02    0.891E-03
DAV:  16    -0.325890725596E+02   -0.47559E-03   -0.42290E-05   244   0.447E-02    0.960E-03
DAV:  17    -0.325894556544E+02   -0.38309E-03   -0.34992E-05   248   0.533E-02    0.926E-03
DAV:  18    -0.325897427344E+02   -0.28708E-03   -0.28109E-05   240   0.432E-02    0.825E-03
DAV:  19    -0.325899977881E+02   -0.25505E-03   -0.23472E-05   232   0.350E-02    0.914E-03
DAV:  20    -0.325902932057E+02   -0.29542E-03   -0.19171E-05   224   0.463E-02    0.607E-03
DAV:  21    -0.325906231749E+02   -0.32997E-03   -0.26534E-05   248   0.321E-02    0.579E-03
DAV:  22    -0.325908848301E+02   -0.26166E-03   -0.25828E-05   288   0.399E-02    0.685E-03
DAV:  23    -0.325910651882E+02   -0.18036E-03   -0.17501E-05   264   0.464E-02    0.543E-03
DAV:  24    -0.325913476250E+02   -0.28244E-03   -0.29622E-05   268   0.282E-02    0.859E-03
DAV:  25    -0.325915968034E+02   -0.24918E-03   -0.29285E-05   288   0.499E-02    0.449E-03
DAV:  26    -0.325918746310E+02   -0.27783E-03   -0.68151E-05   280   0.461E-02    0.100E-02
DAV:  27    -0.325919442498E+02   -0.69619E-04   -0.28443E-05   272   0.376E-02
  10 F= -.32591944E+02 E0= -.32582296E+02  d E =-.650307E-01  mag=     0.2134
       N       E                     dE             d eps       ncg     rms          rms(c)
DAV:   1    -0.325390649833E+02    0.52810E-01   -0.31388E+01   400   0.195E+01    0.455E-01
DAV:   2    -0.325997864012E+02   -0.60721E-01   -0.64771E-01   556   0.692E+00    0.572E-01
DAV:   3    -0.325962707137E+02    0.35157E-02   -0.31431E-02   424   0.408E+00    0.313E-01
DAV:   4    -0.325960802483E+02    0.19047E-03   -0.73195E-03   432   0.999E-01    0.269E-01
DAV:   5    -0.325952504386E+02    0.82981E-03   -0.17728E-03   440   0.615E-01    0.183E-01
DAV:   6    -0.325947413719E+02    0.50907E-03   -0.32997E-03   588   0.119E+00    0.932E-02
DAV:   7    -0.325945814652E+02    0.15991E-03   -0.89691E-04   432   0.802E-01    0.285E-02
DAV:   8    -0.325945783330E+02    0.31322E-05   -0.27449E-04   248   0.229E-01
  11 F= -.32594578E+02 E0= -.32584758E+02  d E =-.676647E-01  mag=     0.2066
       N       E                     dE             d eps       ncg     rms          rms(c)
DAV:   1    -0.325783880963E+02    0.16193E-01   -0.17758E+01   396   0.146E+01    0.328E-01
DAV:   2    -0.326117300150E+02   -0.33342E-01   -0.35432E-01   548   0.468E+00    0.418E-01
DAV:   3    -0.326100225671E+02    0.17074E-02   -0.17188E-02   416   0.277E+00    0.238E-01
DAV:   4    -0.326098245967E+02    0.19797E-03   -0.36287E-03   464   0.832E-01    0.198E-01
DAV:   5    -0.326093739793E+02    0.45062E-03   -0.97294E-04   384   0.434E-01    0.135E-01
DAV:   6    -0.326091216057E+02    0.25237E-03   -0.16914E-03   516   0.896E-01    0.768E-02
DAV:   7    -0.326090386519E+02    0.82954E-04   -0.62105E-04   440   0.607E-01
  12 F= -.32609039E+02 E0= -.32599240E+02  d E =-.144603E-01  mag=     0.1992
       N       E                     dE             d eps       ncg     rms          rms(c)
DAV:   1    -0.323302404010E+02    0.27888E+00   -0.16465E+02   392   0.479E+01    0.997E-01
DAV:   2    -0.326704436236E+02   -0.34020E+00   -0.35560E+00   552   0.159E+01    0.128E+00
DAV:   3    -0.326521674427E+02    0.18276E-01   -0.14773E-01   400   0.928E+00    0.669E-01
DAV:   4    -0.326518842622E+02    0.28318E-03   -0.39138E-02   416   0.212E+00    0.593E-01
DAV:   5    -0.326479285611E+02    0.39557E-02   -0.86502E-03   424   0.162E+00    0.427E-01
DAV:   6    -0.326447300139E+02    0.31985E-02   -0.15659E-02   588   0.250E+00    0.190E-01
DAV:   7    -0.326443076870E+02    0.42233E-03   -0.40228E-03   544   0.148E+00    0.797E-02
DAV:   8    -0.326443859443E+02   -0.78257E-04   -0.15197E-03   456   0.423E-01    0.677E-02
DAV:   9    -0.326443965790E+02   -0.10635E-04   -0.33204E-04   320   0.339E-01
  13 F= -.32644397E+02 E0= -.32634878E+02  d E =-.498182E-01  mag=     0.1872
       N       E                     dE             d eps       ncg     rms          rms(c)
DAV:   1    -0.321609107617E+02    0.48348E+00   -0.74227E+02   536   0.123E+02    0.219E+00
DAV:   2    -0.327894517968E+02   -0.62854E+00   -0.75690E+00   560   0.414E+01    0.308E+00
DAV:   3    -0.326699153767E+02    0.11954E+00   -0.87395E-01   428   0.233E+01    0.112E+00
DAV:   4    -0.326655379370E+02    0.43774E-02   -0.27325E-01   524   0.769E+00    0.684E-01
DAV:   5    -0.326665065725E+02   -0.96864E-03   -0.11903E-01   432   0.669E+00    0.407E-01
DAV:   6    -0.326660772010E+02    0.42937E-03   -0.37169E-02   432   0.462E+00    0.151E-01
DAV:   7    -0.326665485202E+02   -0.47132E-03   -0.68713E-03   560   0.116E+00    0.120E-01
DAV:   8    -0.326666236035E+02   -0.75083E-04   -0.21696E-03   432   0.103E+00    0.675E-02
DAV:   9    -0.326669425214E+02   -0.31892E-03   -0.10287E-03   464   0.638E-01    0.596E-02
DAV:  10    -0.326670299590E+02   -0.87438E-04   -0.22604E-04   288   0.410E-01
  14 F= -.32667030E+02 E0= -.32657337E+02  d E =-.724516E-01  mag=     0.1738
       N       E                     dE             d eps       ncg     rms          rms(c)
DAV:   1    -0.325974873866E+02    0.69455E-01   -0.48134E+01   388   0.244E+01    0.509E-01
DAV:   2    -0.326912467793E+02   -0.93759E-01   -0.97529E-01   576   0.754E+00    0.653E-01
DAV:   3    -0.326871749131E+02    0.40719E-02   -0.38825E-02   432   0.422E+00    0.389E-01
DAV:   4    -0.326867205250E+02    0.45439E-03   -0.89350E-03   432   0.124E+00    0.341E-01
DAV:   5    -0.326851392240E+02    0.15813E-02   -0.31260E-03   512   0.806E-01    0.214E-01
DAV:   6    -0.326845440597E+02    0.59516E-03   -0.44799E-03   580   0.141E+00    0.979E-02
DAV:   7    -0.326845237944E+02    0.20265E-04   -0.13269E-03   488   0.889E-01    0.318E-02
DAV:   8    -0.326846403545E+02   -0.11656E-03   -0.26582E-04   264   0.246E-01    0.298E-02
DAV:   9    -0.326847065587E+02   -0.66204E-04   -0.11989E-04   264   0.185E-01
  15 F= -.32684707E+02 E0= -.32674346E+02  d E =-.176766E-01  mag=     0.1644
       N       E                     dE             d eps       ncg     rms          rms(c)
DAV:   1    -0.322206029795E+02    0.46404E+00   -0.47345E+02   496   0.910E+01    0.159E+00
DAV:   2    -0.327725582694E+02   -0.55196E+00   -0.61161E+00   572   0.300E+01    0.224E+00
DAV:   3    -0.327152877861E+02    0.57270E-01   -0.47020E-01   432   0.167E+01    0.961E-01
DAV:   4    -0.327146312742E+02    0.65651E-03   -0.13830E-01   456   0.359E+00    0.706E-01
DAV:   5    -0.327075759719E+02    0.70553E-02   -0.41122E-02   448   0.434E+00    0.444E-01
DAV:   6    -0.327051606194E+02    0.24154E-02   -0.21764E-02   576   0.361E+00    0.194E-01
DAV:   7    -0.327050306799E+02    0.12994E-03   -0.56680E-03   608   0.113E+00    0.103E-01
DAV:   8    -0.327051255879E+02   -0.94908E-04   -0.19820E-03   472   0.703E-01    0.675E-02
DAV:   9    -0.327052667948E+02   -0.14121E-03   -0.72038E-04   408   0.489E-01    0.589E-02
DAV:  10    -0.327053495877E+02   -0.82793E-04   -0.22659E-04   300   0.318E-01
  16 F= -.32705350E+02 E0= -.32691694E+02  d E =-.383196E-01  mag=     0.1577
       N       E                     dE             d eps       ncg     rms          rms(c)
DAV:   1    -0.326851159936E+02    0.20151E-01   -0.39750E+01   392   0.221E+01    0.458E-01
DAV:   2    -0.327629143697E+02   -0.77798E-01   -0.80926E-01   576   0.671E+00    0.578E-01
DAV:   3    -0.327598285935E+02    0.30858E-02   -0.31403E-02   428   0.365E+00    0.354E-01
DAV:   4    -0.327594436704E+02    0.38492E-03   -0.67266E-03   432   0.111E+00    0.309E-01
DAV:   5    -0.327582182856E+02    0.12254E-02   -0.24388E-03   508   0.722E-01    0.199E-01
DAV:   6    -0.327577283062E+02    0.48998E-03   -0.39548E-03   648   0.127E+00    0.935E-02
DAV:   7    -0.327576742018E+02    0.54104E-04   -0.89800E-04   432   0.821E-01
  17 F= -.32757674E+02 E0= -.32743036E+02  d E =-.523246E-01  mag=     0.1549
       N       E                     dE             d eps       ncg     rms          rms(c)
DAV:   1    -0.326051388807E+02    0.15259E+00   -0.10822E+02   392   0.378E+01    0.767E-01
DAV:   2    -0.328249092464E+02   -0.21977E+00   -0.22763E+00   576   0.115E+01    0.936E-01
DAV:   3    -0.328168326788E+02    0.80766E-02   -0.88773E-02   428   0.659E+00    0.545E-01
DAV:   4    -0.328162708337E+02    0.56185E-03   -0.20742E-02   432   0.183E+00    0.481E-01
DAV:   5    -0.328132191672E+02    0.30517E-02   -0.66009E-03   460   0.130E+00    0.317E-01
DAV:   6    -0.328116771511E+02    0.15420E-02   -0.10787E-02   616   0.204E+00    0.141E-01
DAV:   7    -0.328115084752E+02    0.16868E-03   -0.22163E-03   512   0.119E+00    0.535E-02
DAV:   8    -0.328116309353E+02   -0.12246E-03   -0.79294E-04   408   0.330E-01    0.503E-02
DAV:   9    -0.328116647466E+02   -0.33811E-04   -0.19450E-04   256   0.267E-01
  18 F= -.32811665E+02 E0= -.32795777E+02  d E =-.106315E+00  mag=     0.1531
       N       E                     dE             d eps       ncg     rms          rms(c)
DAV:   1    -0.322530470012E+02    0.55858E+00   -0.47092E+02   504   0.911E+01    0.152E+00
DAV:   2    -0.328281466855E+02   -0.57510E+00   -0.62636E+00   552   0.291E+01    0.218E+00
DAV:   3    -0.327824496025E+02    0.45697E-01   -0.53659E-01   408   0.170E+01    0.919E-01
DAV:   4    -0.327815406411E+02    0.90896E-03   -0.11544E-01   432   0.337E+00    0.688E-01
DAV:   5    -0.327788379880E+02    0.27027E-02   -0.51699E-02   400   0.540E+00    0.592E-01
DAV:   6    -0.327743494408E+02    0.44885E-02   -0.28288E-02   612   0.345E+00    0.287E-01
DAV:   7    -0.327734170276E+02    0.93241E-03   -0.67485E-03   592   0.148E+00    0.127E-01
DAV:   8    -0.327734130650E+02    0.39626E-05   -0.23878E-03   600   0.896E-01    0.605E-02
DAV:   9    -0.327736034828E+02   -0.19042E-03   -0.82461E-04   404   0.507E-01    0.556E-02
DAV:  10    -0.327737069575E+02   -0.10347E-03   -0.29805E-04   320   0.352E-01    0.323E-02
DAV:  11    -0.327737850535E+02   -0.78096E-04   -0.10550E-04   248   0.224E-01
  19 F= -.32773785E+02 E0= -.32756501E+02  d E =-.684355E-01  mag=     0.1531
       N       E                     dE             d eps       ncg     rms          rms(c)
DAV:   1    -0.324000151719E+02    0.37369E+00   -0.21575E+02   392   0.559E+01    0.134E+00
DAV:   2    -0.328677600053E+02   -0.46774E+00   -0.50358E+00   560   0.243E+01    0.170E+00
DAV:   3    -0.328296173722E+02    0.38143E-01   -0.26977E-01   412   0.136E+01    0.789E-01
DAV:   4    -0.328318541020E+02   -0.22367E-02   -0.81594E-02   424   0.257E+00    0.675E-01
DAV:   5    -0.328288882548E+02    0.29658E-02   -0.83085E-03   404   0.159E+00    0.564E-01
DAV:   6    -0.328243741898E+02    0.45141E-02   -0.19055E-02   632   0.300E+00    0.320E-01
DAV:   7    -0.328227949543E+02    0.15792E-02   -0.75488E-03   600   0.200E+00    0.133E-01
DAV:   8    -0.328227158032E+02    0.79151E-04   -0.32845E-03   536   0.917E-01    0.890E-02
DAV:   9    -0.328227726571E+02   -0.56854E-04   -0.11369E-03   416   0.460E-01    0.674E-02
DAV:  10    -0.328227345149E+02    0.38142E-04   -0.26171E-04   240   0.371E-01
  20 F= -.32822735E+02 E0= -.32806305E+02  d E =-.117385E+00  mag=     0.1546
       N       E                     dE             d eps       ncg     rms          rms(c)
DAV:   1    -0.328351305098E+02   -0.12358E-01   -0.18664E+01   392   0.149E+01    0.392E-01
DAV:   2    -0.328695867660E+02   -0.34456E-01   -0.37923E-01   572   0.583E+00    0.480E-01
DAV:   3    -0.328672886326E+02    0.22981E-02   -0.27534E-02   424   0.370E+00    0.243E-01
DAV:   4    -0.328672098099E+02    0.78823E-04   -0.53178E-03   472   0.876E-01    0.197E-01
DAV:   5    -0.328669358008E+02    0.27401E-03   -0.95184E-04   400   0.338E-01    0.147E-01
DAV:   6    -0.328667490528E+02    0.18675E-03   -0.14247E-03   548   0.727E-01    0.810E-02
DAV:   7    -0.328666563026E+02    0.92750E-04   -0.43949E-04   392   0.641E-01
  21 F= -.32866656E+02 E0= -.32849956E+02  d E =-.439218E-01  mag=     0.1558
       N       E                     dE             d eps       ncg     rms          rms(c)
DAV:   1    -0.325973918942E+02    0.26936E+00   -0.17262E+02   392   0.487E+01    0.126E+00
DAV:   2    -0.329595597945E+02   -0.36217E+00   -0.39485E+00   560   0.207E+01    0.149E+00
DAV:   3    -0.329294424942E+02    0.30117E-01   -0.21450E-01   392   0.123E+01    0.671E-01
DAV:   4    -0.329311830697E+02   -0.17406E-02   -0.64804E-02   404   0.241E+00    0.571E-01
DAV:   5    -0.329287234722E+02    0.24596E-02   -0.67493E-03   408   0.120E+00    0.445E-01
DAV:   6    -0.329259615980E+02    0.27619E-02   -0.13135E-02   556   0.246E+00    0.239E-01
DAV:   7    -0.329250342209E+02    0.92738E-03   -0.45012E-03   432   0.193E+00    0.841E-02
DAV:   8    -0.329251629371E+02   -0.12872E-03   -0.29795E-03   540   0.846E-01    0.809E-02
DAV:   9    -0.329252071804E+02   -0.44243E-04   -0.90510E-04   384   0.365E-01
  22 F= -.32925207E+02 E0= -.32908064E+02  d E =-.102473E+00  mag=     0.1592
       N       E                     dE             d eps       ncg     rms          rms(c)
DAV:   1    -0.328885791600E+02    0.36584E-01   -0.39664E+01   392   0.219E+01    0.498E-01
DAV:   2    -0.329676154260E+02   -0.79036E-01   -0.83327E-01   544   0.699E+00    0.617E-01
DAV:   3    -0.329633808062E+02    0.42346E-02   -0.35223E-02   404   0.410E+00    0.342E-01
DAV:   4    -0.329630333305E+02    0.34748E-03   -0.83625E-03   416   0.124E+00    0.284E-01
DAV:   5    -0.329622842003E+02    0.74913E-03   -0.21406E-03   388   0.673E-01    0.197E-01
DAV:   6    -0.329618594994E+02    0.42470E-03   -0.31170E-03   656   0.977E-01    0.101E-01
DAV:   7    -0.329617297973E+02    0.12970E-03   -0.68610E-04   408   0.746E-01    0.387E-02
DAV:   8    -0.329617783071E+02   -0.48510E-04   -0.62366E-04   400   0.312E-01
  23 F= -.32961778E+02 E0= -.32944266E+02  d E =-.365711E-01  mag=     0.1638
       N       E                     dE             d eps       ncg     rms          rms(c)
DAV:   1    -0.328825752736E+02    0.79155E-01   -0.49813E+01   392   0.247E+01    0.554E-01
DAV:   2    -0.329827014052E+02   -0.10013E+00   -0.10545E+00   548   0.773E+00    0.686E-01
DAV:   3    -0.329773862030E+02    0.53152E-02   -0.42089E-02   396   0.450E+00    0.381E-01
DAV:   4    -0.329769736382E+02    0.41256E-03   -0.10494E-02   432   0.140E+00    0.318E-01
DAV:   5    -0.329760505408E+02    0.92310E-03   -0.25064E-03   396   0.733E-01    0.224E-01
DAV:   6    -0.329754562122E+02    0.59433E-03   -0.39329E-03   624   0.102E+00    0.110E-01
DAV:   7    -0.329752991476E+02    0.15706E-03   -0.78896E-04   416   0.793E-01    0.446E-02
DAV:   8    -0.329753544300E+02   -0.55282E-04   -0.83033E-04   408   0.362E-01
  24 F= -.32975354E+02 E0= -.32957612E+02  d E =-.501472E-01  mag=     0.1692
       N       E                     dE             d eps       ncg     rms          rms(c)
DAV:   1    -0.329207475317E+02    0.54552E-01   -0.45298E+01   392   0.234E+01    0.528E-01
DAV:   2    -0.330112992545E+02   -0.90552E-01   -0.95204E-01   556   0.734E+00    0.659E-01
DAV:   3    -0.330058900035E+02    0.54093E-02   -0.35486E-02   404   0.435E+00    0.362E-01
DAV:   4    -0.330055440315E+02    0.34597E-03   -0.90214E-03   456   0.114E+00    0.299E-01
DAV:   5    -0.330047530934E+02    0.79094E-03   -0.17811E-03   404   0.629E-01    0.223E-01
DAV:   6    -0.330040547139E+02    0.69838E-03   -0.39342E-03   608   0.843E-01    0.106E-01
DAV:   7    -0.330039032612E+02    0.15145E-03   -0.62839E-04   416   0.683E-01    0.483E-02
DAV:   8    -0.330039568032E+02   -0.53542E-04   -0.92067E-04   408   0.437E-01
  25 F= -.33003957E+02 E0= -.32986070E+02  d E =-.286024E-01  mag=     0.1751
       N       E                     dE             d eps       ncg     rms          rms(c)
DAV:   1    -0.329181677033E+02    0.85736E-01   -0.51979E+01   392   0.252E+01    0.565E-01
DAV:   2    -0.330225781923E+02   -0.10441E+00   -0.10962E+00   556   0.803E+00    0.700E-01
DAV:   3    -0.330164937028E+02    0.60845E-02   -0.40853E-02   416   0.476E+00    0.381E-01
DAV:   4    -0.330161437949E+02    0.34991E-03   -0.10523E-02   416   0.120E+00    0.318E-01
DAV:   5    -0.330152196540E+02    0.92414E-03   -0.21502E-03   396   0.697E-01    0.234E-01
DAV:   6    -0.330144504191E+02    0.76923E-03   -0.44020E-03   616   0.946E-01    0.111E-01
DAV:   7    -0.330142875189E+02    0.16290E-03   -0.75018E-04   424   0.758E-01    0.479E-02
DAV:   8    -0.330143533700E+02   -0.65851E-04   -0.93897E-04   424   0.458E-01
  26 F= -.33014353E+02 E0= -.32996391E+02  d E =-.389989E-01  mag=     0.1810
       N       E                     dE             d eps       ncg     rms          rms(c)
DAV:   1    -0.329777716450E+02    0.36516E-01   -0.30064E+01   392   0.190E+01    0.486E-01
DAV:   2    -0.330366831078E+02   -0.58911E-01   -0.63794E-01   556   0.683E+00    0.577E-01
DAV:   3    -0.330326210190E+02    0.40621E-02   -0.32463E-02   412   0.418E+00    0.302E-01
DAV:   4    -0.330324922203E+02    0.12880E-03   -0.76612E-03   472   0.978E-01    0.245E-01
DAV:   5    -0.330320276927E+02    0.46453E-03   -0.12576E-03   380   0.486E-01    0.186E-01
DAV:   6    -0.330316348183E+02    0.39287E-03   -0.26842E-03   548   0.975E-01    0.998E-02
DAV:   7    -0.330314885056E+02    0.14631E-03   -0.72306E-04   432   0.770E-01    0.373E-02
DAV:   8    -0.330315157652E+02   -0.27260E-04   -0.50165E-04   344   0.299E-01
  27 F= -.33031516E+02 E0= -.33013538E+02  d E =-.171624E-01  mag=     0.1874
       N       E                     dE             d eps       ncg     rms          rms(c)
DAV:   1    -0.330243180264E+02    0.71705E-02   -0.53619E+00   392   0.790E+00    0.200E-01
DAV:   2    -0.330335329561E+02   -0.92149E-02   -0.10057E-01   548   0.287E+00    0.236E-01
DAV:   3    -0.330329738588E+02    0.55910E-03   -0.68064E-03   392   0.184E+00    0.118E-01
DAV:   4    -0.330329689014E+02    0.49573E-05   -0.13973E-03   408   0.442E-01    0.932E-02
DAV:   5    -0.330329145098E+02    0.54392E-04   -0.23032E-04   256   0.203E-01
  28 F= -.33032915E+02 E0= -.33014945E+02  d E =-.185611E-01  mag=     0.1919
       N       E                     dE             d eps       ncg     rms          rms(c)
DAV:   1    -0.330056703564E+02    0.27299E-01   -0.21818E+01   400   0.160E+01    0.368E-01
DAV:   2    -0.330472324333E+02   -0.41562E-01   -0.44007E-01   552   0.527E+00    0.471E-01
DAV:   3    -0.330447077755E+02    0.25247E-02   -0.20949E-02   412   0.323E+00    0.255E-01
DAV:   4    -0.330445343475E+02    0.17343E-03   -0.42804E-03   448   0.744E-01    0.210E-01
DAV:   5    -0.330441393722E+02    0.39498E-03   -0.85190E-04   368   0.411E-01    0.155E-01
DAV:   6    -0.330438451467E+02    0.29423E-03   -0.18367E-03   624   0.733E-01    0.777E-02
DAV:   7    -0.330437639703E+02    0.81176E-04   -0.45064E-04   408   0.588E-01
  29 F= -.33043764E+02 E0= -.33025854E+02  d E =-.108495E-01  mag=     0.1984
       N       E                     dE             d eps       ncg     rms          rms(c)
DAV:   1    -0.330173019819E+02    0.26543E-01   -0.17354E+01   408   0.142E+01    0.342E-01
DAV:   2    -0.330499771638E+02   -0.32675E-01   -0.34963E-01   552   0.460E+00    0.425E-01
DAV:   3    -0.330478566435E+02    0.21205E-02   -0.17244E-02   412   0.286E+00    0.225E-01
DAV:   4    -0.330477161929E+02    0.14045E-03   -0.36413E-03   500   0.741E-01    0.178E-01
DAV:   5    -0.330474622628E+02    0.25393E-03   -0.67473E-04   368   0.356E-01    0.133E-01
DAV:   6    -0.330472747095E+02    0.18755E-03   -0.13327E-03   540   0.641E-01    0.747E-02
DAV:   7    -0.330471931174E+02    0.81592E-04   -0.28544E-04   280   0.517E-01
  30 F= -.33047193E+02 E0= -.33029342E+02  d E =-.142786E-01  mag=     0.2053
       N       E                     dE             d eps       ncg     rms          rms(c)
DAV:   1    -0.330314774741E+02    0.15797E-01   -0.16108E+01   408   0.137E+01    0.322E-01
DAV:   2    -0.330610415002E+02   -0.29564E-01   -0.31643E-01   552   0.453E+00    0.416E-01
DAV:   3    -0.330590933794E+02    0.19481E-02   -0.16266E-02   400   0.269E+00    0.224E-01
DAV:   4    -0.330589294269E+02    0.16395E-03   -0.32161E-03   484   0.737E-01    0.181E-01
DAV:   5    -0.330586610562E+02    0.26837E-03   -0.71442E-04   372   0.367E-01    0.132E-01
DAV:   6    -0.330584958814E+02    0.16517E-03   -0.12063E-03   528   0.708E-01    0.769E-02
DAV:   7    -0.330584231006E+02    0.72781E-04   -0.38215E-04   336   0.548E-01
  31 F= -.33058423E+02 E0= -.33040643E+02  d E =-.112300E-01  mag=     0.2120
       N       E                     dE             d eps       ncg     rms          rms(c)
DAV:   1    -0.327922131379E+02    0.26628E+00   -0.14853E+02   408   0.446E+01    0.982E-01
DAV:   2    -0.331015737267E+02   -0.30936E+00   -0.32546E+00   556   0.157E+01    0.124E+00
DAV:   3    -0.330813429725E+02    0.20231E-01   -0.12940E-01   404   0.918E+00    0.622E-01
DAV:   4    -0.330813506716E+02   -0.76992E-05   -0.36755E-02   396   0.192E+00    0.532E-01
DAV:   5    -0.330790425663E+02    0.23081E-02   -0.58931E-03   424   0.129E+00    0.418E-01
DAV:   6    -0.330764530259E+02    0.25895E-02   -0.11705E-02   644   0.214E+00    0.228E-01
DAV:   7    -0.330757045739E+02    0.74845E-03   -0.35746E-03   464   0.151E+00    0.932E-02
DAV:   8    -0.330757719984E+02   -0.67425E-04   -0.28553E-03   512   0.665E-01    0.773E-02
DAV:   9    -0.330757653262E+02    0.66722E-05   -0.59825E-04   400   0.334E-01
  32 F= -.33075765E+02 E0= -.33058117E+02  d E =-.285722E-01  mag=     0.2190
       N       E                     dE             d eps       ncg     rms          rms(c)
DAV:   1    -0.330550350118E+02    0.20737E-01   -0.18319E+01   408   0.146E+01    0.362E-01
DAV:   2    -0.330902611324E+02   -0.35226E-01   -0.37896E-01   552   0.523E+00    0.451E-01
DAV:   3    -0.330878657154E+02    0.23954E-02   -0.19733E-02   412   0.327E+00    0.233E-01
DAV:   4    -0.330877407751E+02    0.12494E-03   -0.41393E-03   492   0.742E-01    0.189E-01
DAV:   5    -0.330874680388E+02    0.27274E-03   -0.71427E-04   380   0.349E-01    0.140E-01
DAV:   6    -0.330872881697E+02    0.17987E-03   -0.13351E-03   540   0.744E-01    0.797E-02
DAV:   7    -0.330872128333E+02    0.75336E-04   -0.39702E-04   336   0.594E-01
  33 F= -.33087213E+02 E0= -.33069677E+02  d E =-.114475E-01  mag=     0.2246
       N       E                     dE             d eps       ncg     rms          rms(c)
DAV:   1    -0.327989143635E+02    0.28837E+00   -0.17098E+02   424   0.483E+01    0.108E+00
DAV:   2    -0.331230558071E+02   -0.32414E+00   -0.34767E+00   556   0.179E+01    0.135E+00
DAV:   3    -0.330986707327E+02    0.24385E-01   -0.16709E-01   412   0.108E+01    0.616E-01
DAV:   4    -0.330995699891E+02   -0.89926E-03   -0.47948E-02   392   0.202E+00    0.514E-01
DAV:   5    -0.330975972419E+02    0.19727E-02   -0.57021E-03   416   0.124E+00    0.409E-01
DAV:   6    -0.330955432812E+02    0.20540E-02   -0.12383E-02   596   0.234E+00    0.244E-01
DAV:   7    -0.330947065783E+02    0.83670E-03   -0.38848E-03   488   0.163E+00    0.102E-01
DAV:   8    -0.330947363082E+02   -0.29730E-04   -0.29074E-03   544   0.798E-01    0.735E-02
DAV:   9    -0.330947682627E+02   -0.31954E-04   -0.69845E-04   384   0.358E-01
  34 F= -.33094768E+02 E0= -.33077634E+02  d E =-.190029E-01  mag=     0.2288
       N       E                     dE             d eps       ncg     rms          rms(c)
DAV:   1    -0.330504181094E+02    0.44318E-01   -0.26214E+01   392   0.176E+01    0.351E-01
DAV:   2    -0.331019734144E+02   -0.51555E-01   -0.53432E-01   552   0.479E+00    0.472E-01
DAV:   3    -0.330992770273E+02    0.26964E-02   -0.14173E-02   412   0.263E+00    0.282E-01
DAV:   4    -0.330989397566E+02    0.33727E-03   -0.37633E-03   504   0.826E-01    0.235E-01
DAV:   5    -0.330984323152E+02    0.50744E-03   -0.95920E-04   408   0.546E-01    0.171E-01
DAV:   6    -0.330980851224E+02    0.34719E-03   -0.24790E-03   572   0.589E-01    0.692E-02
DAV:   7    -0.330980229830E+02    0.62139E-04   -0.32360E-04   288   0.468E-01
  35 F= -.33098023E+02 E0= -.33080729E+02  d E =-.222577E-01  mag=     0.2331
       N       E                     dE             d eps       ncg     rms          rms(c)
DAV:   1    -0.330875566448E+02    0.10528E-01   -0.10705E+01   392   0.112E+01    0.265E-01
DAV:   2    -0.331066938457E+02   -0.19137E-01   -0.20744E-01   556   0.389E+00    0.338E-01
DAV:   3    -0.331055427913E+02    0.11511E-02   -0.11977E-02   404   0.236E+00    0.178E-01
DAV:   4    -0.331054664057E+02    0.76386E-04   -0.22186E-03   444   0.601E-01    0.148E-01
DAV:   5    -0.331053135728E+02    0.15283E-03   -0.46543E-04   380   0.265E-01    0.110E-01
DAV:   6    -0.331052437974E+02    0.69775E-04   -0.85053E-04   520   0.621E-01
  36 F= -.33105244E+02 E0= -.33088074E+02  d E =-.722081E-02  mag=     0.2358
       N       E                     dE             d eps       ncg     rms          rms(c)
DAV:   1    -0.329951719299E+02    0.11014E+00   -0.60877E+01   408   0.274E+01    0.625E-01
DAV:   2    -0.331193662687E+02   -0.12419E+00   -0.13109E+00   556   0.964E+00    0.769E-01
DAV:   3    -0.331121729731E+02    0.71933E-02   -0.51902E-02   404   0.557E+00    0.405E-01
DAV:   4    -0.331118690309E+02    0.30394E-03   -0.12876E-02   416   0.130E+00    0.347E-01
DAV:   5    -0.331108389755E+02    0.10301E-02   -0.26661E-03   416   0.809E-01    0.256E-01
DAV:   6    -0.331100782789E+02    0.76070E-03   -0.49168E-03   652   0.146E+00    0.138E-01
DAV:   7    -0.331098379968E+02    0.24028E-03   -0.14826E-03   528   0.103E+00    0.446E-02
DAV:   8    -0.331099042119E+02   -0.66215E-04   -0.81668E-04   392   0.352E-01
  37 F= -.33109904E+02 E0= -.33093123E+02  d E =-.118812E-01  mag=     0.2361
       N       E                     dE             d eps       ncg     rms          rms(c)
DAV:   1    -0.330975188424E+02    0.12319E-01   -0.11014E+01   392   0.114E+01    0.296E-01
DAV:   2    -0.331189559525E+02   -0.21437E-01   -0.23531E-01   564   0.421E+00    0.371E-01
DAV:   3    -0.331173885336E+02    0.15674E-02   -0.13610E-02   412   0.263E+00    0.191E-01
DAV:   4    -0.331173662010E+02    0.22333E-04   -0.29009E-03   448   0.605E-01    0.153E-01
DAV:   5    -0.331172395872E+02    0.12661E-03   -0.54767E-04   384   0.345E-01    0.111E-01
DAV:   6    -0.331172051426E+02    0.34445E-04   -0.71212E-04   476   0.601E-01
  38 F= -.33117205E+02 E0= -.33100349E+02  d E =-.730093E-02  mag=     0.2355
       N       E                     dE             d eps       ncg     rms          rms(c)
DAV:   1    -0.331171993788E+02    0.40208E-04   -0.23922E-02   568   0.684E-01    0.264E-02
DAV:   2    -0.331172106250E+02   -0.11246E-04   -0.19995E-04   264   0.267E-01
  39 F= -.33117211E+02 E0= -.33100363E+02  d E =-.730641E-02  mag=     0.2354
       N       E                     dE             d eps       ncg     rms          rms(c)
DAV:   1    -0.331114625718E+02    0.57368E-02   -0.66865E+00   392   0.878E+00    0.200E-01
DAV:   2    -0.331235608036E+02   -0.12098E-01   -0.12869E-01   556   0.315E+00    0.279E-01
DAV:   3    -0.331226355575E+02    0.92525E-03   -0.65398E-03   404   0.187E+00    0.145E-01
DAV:   4    -0.331225841055E+02    0.51452E-04   -0.13943E-03   448   0.405E-01    0.119E-01
DAV:   5    -0.331224800426E+02    0.10406E-03   -0.22290E-04   248   0.248E-01    0.900E-02
DAV:   6    -0.331224142052E+02    0.65837E-04   -0.64384E-04   444   0.485E-01
  40 F= -.33122414E+02 E0= -.33105549E+02  d E =-.520358E-02  mag=     0.2343
       N       E                     dE             d eps       ncg     rms          rms(c)
DAV:   1    -0.331051239825E+02    0.17356E-01   -0.11551E+01   392   0.116E+01    0.259E-01
DAV:   2    -0.331269705400E+02   -0.21847E-01   -0.22980E-01   556   0.397E+00    0.348E-01
DAV:   3    -0.331254351647E+02    0.15354E-02   -0.94260E-03   404   0.231E+00    0.184E-01
DAV:   4    -0.331253335235E+02    0.10164E-03   -0.22720E-03   476   0.516E-01    0.151E-01
DAV:   5    -0.331251560382E+02    0.17749E-03   -0.42796E-04   400   0.349E-01    0.111E-01
DAV:   6    -0.331250383463E+02    0.11769E-03   -0.86170E-04   536   0.522E-01    0.547E-02
DAV:   7    -0.331249933706E+02    0.44976E-04   -0.18579E-04   256   0.402E-01
  41 F= -.33124993E+02 E0= -.33108103E+02  d E =-.778275E-02  mag=     0.2320
       N       E                     dE             d eps       ncg     rms          rms(c)
DAV:   1    -0.331182131886E+02    0.68252E-02   -0.68159E+00   392   0.891E+00    0.217E-01
DAV:   2    -0.331300193057E+02   -0.11806E-01   -0.12774E-01   568   0.321E+00    0.265E-01
DAV:   3    -0.331292753125E+02    0.74399E-03   -0.78375E-03   408   0.210E+00    0.129E-01
DAV:   4    -0.331292558708E+02    0.19442E-04   -0.15153E-03   420   0.469E-01    0.107E-01
DAV:   5    -0.331291554476E+02    0.10042E-03   -0.27408E-04   272   0.229E-01    0.759E-02
DAV:   6    -0.331291194110E+02    0.36037E-04   -0.64252E-04   464   0.489E-01
  42 F= -.33129119E+02 E0= -.33112209E+02  d E =-.412604E-02  mag=     0.2296
       N       E                     dE             d eps       ncg     rms          rms(c)
DAV:   1    -0.331215768401E+02    0.75786E-02   -0.52956E+00   392   0.786E+00    0.178E-01
DAV:   2    -0.331307749802E+02   -0.91981E-02   -0.97622E-02   572   0.265E+00    0.215E-01
DAV:   3    -0.331302795510E+02    0.49543E-03   -0.49548E-03   408   0.165E+00    0.109E-01
DAV:   4    -0.331302589990E+02    0.20552E-04   -0.96014E-04   388   0.368E-01
  43 F= -.33130259E+02 E0= -.33113345E+02  d E =-.526563E-02  mag=     0.2284
       N       E                     dE             d eps       ncg     rms          rms(c)
DAV:   1    -0.331245551430E+02    0.57244E-02   -0.49642E+00   392   0.759E+00    0.149E-01
DAV:   2    -0.331326976318E+02   -0.81425E-02   -0.85489E-02   572   0.205E+00    0.202E-01
DAV:   3    -0.331322674551E+02    0.43018E-03   -0.24497E-03   412   0.907E-01    0.137E-01
DAV:   4    -0.331321502577E+02    0.11720E-03   -0.53887E-04   388   0.395E-01    0.116E-01
DAV:   5    -0.331319428728E+02    0.20738E-03   -0.33190E-04   312   0.362E-01    0.599E-02
DAV:   6    -0.331319555889E+02   -0.12716E-04   -0.93794E-04   532   0.355E-01
  44 F= -.33131956E+02 E0= -.33115166E+02  d E =-.169659E-02  mag=     0.2254
       N       E                     dE             d eps       ncg     rms          rms(c)
DAV:   1    -0.331285318426E+02    0.34110E-02   -0.23795E+00   392   0.525E+00    0.104E-01
DAV:   2    -0.331325221265E+02   -0.39903E-02   -0.41395E-02   560   0.155E+00    0.133E-01
DAV:   3    -0.331323238714E+02    0.19826E-03   -0.15616E-03   412   0.916E-01    0.703E-02
DAV:   4    -0.331323098218E+02    0.14050E-04   -0.30448E-04   300   0.246E-01
  45 F= -.33132310E+02 E0= -.33115615E+02  d E =-.205082E-02  mag=     0.2237
       N       E                     dE             d eps       ncg     rms          rms(c)
DAV:   1    -0.331310547377E+02    0.12691E-02   -0.14824E+00   392   0.415E+00    0.776E-02
DAV:   2    -0.331334026995E+02   -0.23480E-02   -0.24478E-02   556   0.112E+00    0.993E-02
DAV:   3    -0.331333283377E+02    0.74362E-04   -0.79679E-04   392   0.551E-01
  46 F= -.33133328E+02 E0= -.33116732E+02  d E =-.101852E-02  mag=     0.2227
       N       E                     dE             d eps       ncg     rms          rms(c)
DAV:   1    -0.331333038699E+02    0.98830E-04   -0.12295E-04   240   0.221E-01    0.584E-02
DAV:   2    -0.331332741964E+02    0.29673E-04   -0.24779E-04   252   0.463E-01
  47 F= -.33133274E+02 E0= -.33116685E+02  d E =-.964375E-03  mag=     0.2216
