 vasp.6.1.2 22Jul20 (build Jan 14 2022 17:24:41) gamma-only                      
 executed on             LinuxPGI date 2022.01.31  15:26:36
 running on    8 total cores
 distrk:  each k-point on    8 cores,    1 groups
 distr:  one band on NCORE=   8 cores,    1 groups


--------------------------------------------------------------------------------------------------------


 INCAR:
 POTCAR:    PAW_PBE Cu 22Jun2005                  
 -----------------------------------------------------------------------------
|                                                                             |
|           W    W    AA    RRRRR   N    N  II  N    N   GGGG   !!!           |
|           W    W   A  A   R    R  NN   N  II  NN   N  G    G  !!!           |
|           W    W  A    A  R    R  N N  N  II  N N  N  G       !!!           |
|           W WW W  AAAAAA  RRRRR   N  N N  II  N  N N  G  GGG   !            |
|           WW  WW  A    A  R   R   N   NN  II  N   NN  G    G                |
|           W    W  A    A  R    R  N    N  II  N    N   GGGG   !!!           |
|                                                                             |
|     You use a magnetic or noncollinear calculation, but did not specify     |
|     the initial magnetic moment with the MAGMOM tag. Note that a            |
|     default of 1 will be used for all atoms. This ferromagnetic setup       |
|     may break the symmetry of the crystal, in particular it may rule        |
|     out finding an antiferromagnetic solution. Thence, we recommend         |
|     setting the initial magnetic moment manually or verifying carefully     |
|     that this magnetic setup is desired.                                    |
|                                                                             |
 -----------------------------------------------------------------------------

 -----------------------------------------------------------------------------
|                                                                             |
|           W    W    AA    RRRRR   N    N  II  N    N   GGGG   !!!           |
|           W    W   A  A   R    R  NN   N  II  NN   N  G    G  !!!           |
|           W    W  A    A  R    R  N N  N  II  N N  N  G       !!!           |
|           W WW W  AAAAAA  RRRRR   N  N N  II  N  N N  G  GGG   !            |
|           WW  WW  A    A  R   R   N   NN  II  N   NN  G    G                |
|           W    W  A    A  R    R  N    N  II  N    N   GGGG   !!!           |
|                                                                             |
|     For optimal performance we recommend to set                             |
|       NCORE = 4 - approx SQRT(number of cores).                             |
|     NCORE specifies how many cores store one orbital (NPAR=cpu/NCORE).      |
|     This setting can greatly improve the performance of VASP for DFT.       |
|     The default, NCORE=1 might be grossly inefficient on modern             |
|     multi-core architectures or massively parallel machines. Do your        |
|     own testing!!!!                                                         |
|     Unfortunately you need to use the default for GW and RPA                |
|     calculations (for HF NCORE is supported but not extensively tested      |
|     yet).                                                                   |
|                                                                             |
 -----------------------------------------------------------------------------

 POTCAR:    PAW_PBE Cu 22Jun2005                  
   SHA256 =  0e71e558f37a4e8407882b4609ceaae59938afaad9ced71dfe8490308a0ab630 Cu/POTCAR             
   COPYR  = (c) Copyright 22Jun2005 Georg Kresse                                                    
   COPYR  = This file is part of the software VASP. Any use, copying, and all other rights are regul
   COPYR  = If you do not have a valid VASP license, you may not use, copy or distribute this file. 
   VRHFIN =Cu: d10 p1                                                                               
   LEXCH  = PE                                                                                      
   EATOM  =  1390.9808 eV,  102.2342 Ry                                                             
                                                                                                    
   TITEL  = PAW_PBE Cu 22Jun2005                                                                    
   LULTRA =        F    use ultrasoft PP ?                                                          
   IUNSCR =        1    unscreen: 0-lin 1-nonlin 2-no                                               
   RPACOR =    2.000    partial core radius                                                         
   POMASS =   63.546; ZVAL   =   11.000    mass and valenz                                          
   RCORE  =    2.300    outmost cutoff radius                                                       
   RWIGS  =    2.200; RWIGS  =    1.164    wigner-seitz radius (au A)                               
   ENMAX  =  295.446; ENMIN  =  221.585 eV                                                          
   ICORE  =        3    local potential                                                             
   LCOR   =        T    correct aug charges                                                         
   LPAW   =        T    paw PP                                                                      
   EAUG   =  586.980                                                                                
   DEXC   =    0.000                                                                                
   RMAX   =    2.344    core radius for proj-oper                                                   
   RAUG   =    1.300    factor for augmentation sphere                                              
   RDEP   =    2.302    radius for radial grids                                                     
   RDEPT  =    1.771    core radius for aug-charge                                                  
                                                                                                    
   Atomic configuration                                                                             
    9 entries                                                                                       
     n  l   j            E        occ.                                                              
     1  0  0.50     -8850.2468   2.0000                                                             
     2  0  0.50     -1062.3498   2.0000                                                             
     2  1  1.50      -916.8226   6.0000                                                             
     3  0  0.50      -114.6929   2.0000                                                             
     3  1  1.50       -72.1325   6.0000                                                             
     3  2  2.50        -5.0394  10.0000                                                             
     4  0  0.50        -4.6097   1.0000                                                             
     4  1  0.50        -4.0817   0.0000                                                             
     4  3  2.50        -1.3606   0.0000                                                             
   Description                                                                                      
     l       E           TYP  RCUT    TYP  RCUT                                                     
     2     -5.0393973     23  2.200                                                                 
     2     10.8846608     23  2.200                                                                 
     0     -4.6097109     23  2.200                                                                 
     0      8.2520465     23  2.200                                                                 
     1     -2.7211652     23  2.200                                                                 
     1     21.7055443     23  2.200                                                                 
     3      2.7211652     23  2.300                                                                 
  local pseudopotential read in
  partial core-charges read in
  partial kinetic energy density read in
  atomic valenz-charges read in
  non local Contribution for L=            2  read in
    real space projection operators read in
  non local Contribution for L=            2  read in
    real space projection operators read in
  non local Contribution for L=            0  read in
    real space projection operators read in
  non local Contribution for L=            0  read in
    real space projection operators read in
  non local Contribution for L=            1  read in
    real space projection operators read in
  non local Contribution for L=            1  read in
    real space projection operators read in
    PAW grid and wavefunctions read in
 
   number of l-projection  operators is LMAX  =            6
   number of lm-projection operators is LMMAX =           18
 
  PAW_PBE Cu 22Jun2005                  :
 energy of atom  1       EATOM=-1390.9808
 kinetic energy error for atom=    0.0232 (will be added to EATOM!!)
 
 
 POSCAR: Cu
  positions in cartesian coordinates
  No initial velocities read in
 exchange correlation table for  LEXCH =        8
   RHO(1)=    0.500       N(1)  =     2000
   RHO(2)=  100.500       N(2)  =     4000
 


--------------------------------------------------------------------------------------------------------


 ion  position               nearest neighbor table
   1  0.411  0.454  0.488-   2 2.42  12 2.44   3 2.47  11 2.51   6 2.62
   2  0.412  0.547  0.525-   7 2.40  11 2.42   1 2.42   3 2.56   5 2.58   6 2.60
   3  0.506  0.493  0.512-   6 2.39   4 2.41   5 2.41  11 2.43  13 2.45  12 2.47   1 2.47   9 2.50
                             2 2.56   7 2.76
   4  0.602  0.531  0.509-   3 2.41   8 2.41   9 2.51  13 2.53   5 2.61
   5  0.510  0.592  0.500-   3 2.41   8 2.47   7 2.50  11 2.51   2 2.58   4 2.61
   6  0.448  0.468  0.590-   3 2.39  10 2.48   7 2.50  12 2.54   2 2.60   1 2.62   9 2.76
   7  0.481  0.566  0.597-   2 2.40   9 2.43   8 2.43   6 2.50   5 2.50   3 2.76
   8  0.578  0.600  0.578-   4 2.41   7 2.43   5 2.47   9 2.48
   9  0.560  0.501  0.601-  10 2.42   7 2.43  13 2.46   8 2.48   3 2.50   4 2.51   6 2.76
  10  0.529  0.407  0.615-  12 2.40   9 2.42  13 2.46   6 2.48
  11  0.454  0.532  0.433-   2 2.42   3 2.43   5 2.51   1 2.51
  12  0.486  0.394  0.525-  10 2.40   1 2.44   3 2.47  13 2.50   6 2.54
  13  0.586  0.430  0.532-   3 2.45   9 2.46  10 2.46  12 2.50   4 2.53
 

IMPORTANT INFORMATION: All symmetrisations will be switched off!
NOSYMM: (Re-)initialisation of all symmetry stuff for point group C_1.


----------------------------------------------------------------------------------------

                                     Primitive cell                                     

  volume of cell :   13480.0650

  direct lattice vectors                    reciprocal lattice vectors
    23.294921882  0.000000000  0.000000000     0.042927811  0.000000000  0.000000000
     0.000000000 24.184177947  0.000000000     0.000000000  0.041349348  0.000000000
     0.000000000  0.000000000 23.927614226     0.000000000  0.000000000  0.041792717

  length of vectors
    23.294921882 24.184177947 23.927614226     0.042927811  0.041349348  0.041792717

  position of ions in fractional coordinates (direct lattice)
     0.410910731  0.454026136  0.487759780
     0.412365250  0.547321668  0.524730321
     0.505941346  0.492961789  0.511692265
     0.601579726  0.530988466  0.508979263
     0.509616578  0.592000875  0.499652722
     0.447601074  0.468296755  0.590119543
     0.481172113  0.566229560  0.596966800
     0.577819239  0.599779936  0.578317267
     0.560433724  0.501350001  0.601073412
     0.528748308  0.407011503  0.615463947
     0.453906653  0.532419548  0.433240507
     0.485777192  0.393694903  0.525083170
     0.585896319  0.429949397  0.531972022

  ion indices of the primitive-cell ions
   primitive index   ion index
                 1           1
                 2           2
                 3           3
                 4           4
                 5           5
                 6           6
                 7           7
                 8           8
                 9           9
                10          10
                11          11
                12          12
                13          13

----------------------------------------------------------------------------------------

 
 
 KPOINTS: KPOINTS created by Atomic Simulation Env

Automatic generation of k-mesh.
Space group operators:
 irot       det(A)        alpha          n_x          n_y          n_z        tau_x        tau_y        tau_z
    1     1.000000     0.000000     1.000000     0.000000     0.000000     0.000000     0.000000     0.000000
 
 Subroutine IBZKPT returns following result:
 ===========================================
 
 Found      1 irreducible k-points:
 
 Following reciprocal coordinates:
            Coordinates               Weight
  0.000000  0.000000  0.000000      1.000000
 
 Following cartesian coordinates:
            Coordinates               Weight
  0.000000  0.000000  0.000000      1.000000
 


--------------------------------------------------------------------------------------------------------




 Dimension of arrays:
   k-points           NKPTS =      1   k-points in BZ     NKDIM =      1   number of bands    NBANDS=     92
   number of dos      NEDOS =    301   number of ions     NIONS =     13
   non local maximal  LDIM  =      6   non local SUM 2l+1 LMDIM =     18
   total plane-waves  NPLWV = ******
   max r-space proj   IRMAX =      1   max aug-charges    IRDMAX=   3912
   dimension x,y,z NGX =   120 NGY =  120 NGZ =  120
   dimension x,y,z NGXF=   240 NGYF=  240 NGZF=  240
   support grid    NGXF=   240 NGYF=  240 NGZF=  240
   ions per type =              13
   NGX,Y,Z   is equivalent  to a cutoff of   8.56,  8.25,  8.34 a.u.
   NGXF,Y,Z  is equivalent  to a cutoff of  17.13, 16.50, 16.67 a.u.

 SYSTEM =  unknown system                          
 POSCAR =  Cu                                      

 Startparameter for this run:
   NWRITE =      2    write-flag & timer
   PREC   = normal    normal or accurate (medium, high low for compatibility)
   ISTART =      0    job   : 0-new  1-cont  2-samecut
   ICHARG =      2    charge: 1-file 2-atom 10-const
   ISPIN  =      2    spin polarized calculation?
   LNONCOLLINEAR =      F non collinear calculations
   LSORBIT =      F    spin-orbit coupling
   INIWAV =      1    electr: 0-lowe 1-rand  2-diag
   LASPH  =      F    aspherical Exc in radial PAW
   METAGGA=      F    non-selfconsistent MetaGGA calc.

 Electronic Relaxation 1
   ENCUT  =  400.0 eV  29.40 Ry    5.42 a.u.  37.99 39.44 39.02*2*pi/ulx,y,z
   ENINI  =  400.0     initial cutoff
   ENAUG  =  587.0 eV  augmentation charge cutoff
   NELM   =     60;   NELMIN=  2; NELMDL=  0     # of ELM steps 
   EDIFF  = 0.1E-03   stopping-criterion for ELM
   LREAL  =      F    real-space projection
   NLSPLINE    = F    spline interpolate recip. space projectors
   LCOMPAT=      F    compatible to vasp.4.4
   GGA_COMPAT  = T    GGA compatible to vasp.4.4-vasp.4.6
   LMAXPAW     = -100 max onsite density
   LMAXMIX     =    2 max onsite mixed and CHGCAR
   VOSKOWN=      0    Vosko Wilk Nusair interpolation
   ROPT   =    0.00000
 Ionic relaxation
   EDIFFG = 0.1E-02   stopping-criterion for IOM
   NSW    =   1000    number of steps for IOM
   NBLOCK =      1;   KBLOCK =   1000    inner block; outer block 
   IBRION =      2    ionic relax: 0-MD 1-quasi-New 2-CG
   NFREE  =      1    steps in history (QN), initial steepest desc. (CG)
   ISIF   =      0    stress and relaxation
   IWAVPR =     11    prediction:  0-non 1-charg 2-wave 3-comb
   ISYM   =      0    0-nonsym 1-usesym 2-fastsym
   LCORR  =      T    Harris-Foulkes like correction to forces

   POTIM  = 0.5000    time-step for ionic-motion
   TEIN   =    0.0    initial temperature
   TEBEG  =    0.0;   TEEND  =   0.0 temperature during run
   SMASS  =  -3.00    Nose mass-parameter (am)
   estimated Nose-frequenzy (Omega)   =  0.10E-29 period in steps = 0.13E+47 mass=  -0.124E-25a.u.
   SCALEE = 1.0000    scale energy and forces
   NPACO  =    256;   APACO  = 16.0  distance and # of slots for P.C.
   PSTRESS=    0.0 pullay stress

  Mass of Ions in am
   POMASS =  63.55
  Ionic Valenz
   ZVAL   =  11.00
  Atomic Wigner-Seitz radii
   RWIGS  =  -1.00
  virtual crystal weights 
   VCA    =   1.00
   NELECT =     143.0000    total number of electrons
   NUPDOWN=      -1.0000    fix difference up-down

 DOS related values:
   EMIN   =  10.00;   EMAX   =-10.00  energy-range for DOS
   EFERMI =   0.00
   ISMEAR =     1;   SIGMA  =   0.20  broadening in eV -4-tet -1-fermi 0-gaus

 Electronic relaxation 2 (details)
   IALGO  =     38    algorithm
   LDIAG  =      T    sub-space diagonalisation (order eigenvalues)
   LSUBROT=      F    optimize rotation matrix (better conditioning)
   TURBO    =      0    0=normal 1=particle mesh
   IRESTART =      0    0=no restart 2=restart with 2 vectors
   NREBOOT  =      0    no. of reboots
   NMIN     =      0    reboot dimension
   EREF     =   0.00    reference energy to select bands
   IMIX   =      4    mixing-type and parameters
     AMIX     =   0.40;   BMIX     =  1.00
     AMIX_MAG =   1.60;   BMIX_MAG =  1.00
     AMIN     =   0.10
     WC   =   100.;   INIMIX=   1;  MIXPRE=   1;  MAXMIX= -45

 Intra band minimization:
   WEIMIN = 0.0010     energy-eigenvalue tresh-hold
   EBREAK =  0.27E-06  absolut break condition
   DEPER  =   0.30     relativ break condition  

   TIME   =   0.40     timestep for ELM

  volume/ion in A,a.u.               =    1036.93      6997.54
  Fermi-wavevector in a.u.,A,eV,Ry     =   0.359713  0.679759  1.760505  0.129393
  Thomas-Fermi vector in A             =   1.278886
 
 Write flags
   LWAVE        =      F    write WAVECAR
   LDOWNSAMPLE  =      F    k-point downsampling of WAVECAR
   LCHARG       =      F    write CHGCAR
   LVTOT        =      F    write LOCPOT, total local potential
   LVHAR        =      F    write LOCPOT, Hartree potential only
   LELF         =      F    write electronic localiz. function (ELF)
   LORBIT       =      0    0 simple, 1 ext, 2 COOP (PROOUT), +10 PAW based schemes


 Dipole corrections
   LMONO  =      F    monopole corrections only (constant potential shift)
   LDIPOL =      F    correct potential (dipole corrections)
   IDIPOL =      0    1-x, 2-y, 3-z, 4-all directions 
   EPSILON=  1.0000000 bulk dielectric constant

 Exchange correlation treatment:
   GGA     =    PE    GGA type
   LEXCH   =     8    internal setting for exchange type
   VOSKOWN=      0    Vosko Wilk Nusair interpolation
   LHFCALC =     F    Hartree Fock is set to
   LHFONE  =     F    Hartree Fock one center treatment
   AEXX    =    0.0000 exact exchange contribution

 Linear response parameters
   LEPSILON=     F    determine dielectric tensor
   LRPA    =     F    only Hartree local field effects (RPA)
   LNABLA  =     F    use nabla operator in PAW spheres
   LVEL    =     F    velocity operator in full k-point grid
   LINTERFAST=   F  fast interpolation
   KINTER  =     0    interpolate to denser k-point grid
   CSHIFT  =0.1000    complex shift for real part using Kramers Kronig
   OMEGAMAX=  -1.0    maximum frequency
   DEG_THRESHOLD= 0.2000000E-02 threshold for treating states as degnerate
   RTIME   =   -0.100 relaxation time in fs
  (WPLASMAI=    0.000 imaginary part of plasma frequency in eV, 0.658/RTIME)
   DFIELD  = 0.0000000 0.0000000 0.0000000 field for delta impulse in time
 
 Orbital magnetization related:
   ORBITALMAG=     F  switch on orbital magnetization
   LCHIMAG   =     F  perturbation theory with respect to B field
   DQ        =  0.001000  dq finite difference perturbation B field
   LLRAUG    =     F  two centre corrections for induced B field



--------------------------------------------------------------------------------------------------------


 conjugate gradient relaxation of ions
 charge density and potential will be updated during run
 spin polarized calculation
 Variant of blocked Davidson
 Davidson routine will perform the subspace rotation
 perform sub-space diagonalisation
    after iterative eigenvector-optimisation
 modified Broyden-mixing scheme, WC =      100.0
 initial mixing is a Kerker type mixing with AMIX =  0.4000 and BMIX =      1.0000
 Hartree-type preconditioning will be used
 using additional bands            20
 reciprocal scheme for non local part
 use partial core corrections
 calculate Harris-corrections to forces 
   (improved forces if not selfconsistent)
 use gradient corrections 
 use of overlap-Matrix (Vanderbilt PP)
 Methfessel and Paxton  Order N= 1 SIGMA  =   0.20


--------------------------------------------------------------------------------------------------------


  energy-cutoff  :      400.00
  volume of cell :    13480.06
      direct lattice vectors                 reciprocal lattice vectors
    23.294921882  0.000000000  0.000000000     0.042927811  0.000000000  0.000000000
     0.000000000 24.184177947  0.000000000     0.000000000  0.041349348  0.000000000
     0.000000000  0.000000000 23.927614226     0.000000000  0.000000000  0.041792717

  length of vectors
    23.294921882 24.184177947 23.927614226     0.042927811  0.041349348  0.041792717


 
 k-points in units of 2pi/SCALE and weight: KPOINTS created by Atomic Simulation Env
   0.00000000  0.00000000  0.00000000       1.000
 
 k-points in reciprocal lattice and weights: KPOINTS created by Atomic Simulation Env
   0.00000000  0.00000000  0.00000000       1.000
 
 position of ions in fractional coordinates (direct lattice) 
   0.41091073  0.45402614  0.48775978
   0.41236525  0.54732167  0.52473032
   0.50594135  0.49296179  0.51169227
   0.60157973  0.53098847  0.50897926
   0.50961658  0.59200088  0.49965272
   0.44760107  0.46829676  0.59011954
   0.48117211  0.56622956  0.59696680
   0.57781924  0.59977994  0.57831727
   0.56043372  0.50135000  0.60107341
   0.52874831  0.40701150  0.61546395
   0.45390665  0.53241955  0.43324051
   0.48577719  0.39369490  0.52508317
   0.58589632  0.42994940  0.53197202
 
 position of ions in cartesian coordinates  (Angst):
   9.57213339 10.98024886 11.67092786
   9.60601628 13.23652462 12.55554469
  11.78586413 11.92187564 12.24357513
  14.01375271 12.84151954 12.17865946
  11.87147838 14.31705452 11.95549759
  10.42683205 11.32537206 14.12015278
  11.20886677 13.69379645 14.28399128
  13.46025403 14.50518470 13.83775247
  13.05525981 12.12473764 14.38225273
  12.31715053  9.84323863 14.72658389
  10.57372003 12.87612910 10.36641171
  11.31614173  9.52118759 12.56398754
  13.64840897 10.39797273 12.72882133
 


--------------------------------------------------------------------------------------------------------


 use parallel FFT for orbitals z direction half grid
 k-point   1 :   0.0000 0.0000 0.0000  plane waves:  122430

 maximum and minimum number of plane-waves per node :     15309    15300

 maximum number of plane-waves:    122430
 maximum index in each direction: 
   IXMAX=   37   IYMAX=   39   IZMAX=   39
   IXMIN=  -37   IYMIN=  -39   IZMIN=    0


 parallel 3D FFT for wavefunctions:
    minimum data exchange during FFTs selected (reduces bandwidth)
 parallel 3D FFT for charge:
    minimum data exchange during FFTs selected (reduces bandwidth)


 total amount of memory used by VASP MPI-rank0   286140. kBytes
=======================================================================

   base      :      30000. kBytes
   nonl-proj :       5388. kBytes
   fftplans  :      63039. kBytes
   grid      :     142560. kBytes
   one-center:         31. kBytes
   wavefun   :      45122. kBytes
 
     INWAV:  cpu time    0.0000: real time    0.0000
 Broyden mixing: mesh for mixing (old mesh)
   NGX = 75   NGY = 79   NGZ = 79
  (NGX  =240   NGY  =240   NGZ  =240)
  gives a total of 468075 points

 initial charge density was supplied:
 charge density of overlapping atoms calculated
 number of electron     143.0000000 magnetization      13.0000000
 keeping initial charge density in first step


--------------------------------------------------------------------------------------------------------


 Maximum index for augmentation-charges           466 (set IRDMAX)


--------------------------------------------------------------------------------------------------------


 First call to EWALD:  gamma=   0.074
 Maximum number of real-space cells 3x 3x 3
 Maximum number of reciprocal cells 3x 3x 3

    FEWALD:  cpu time    0.0042: real time    0.0042


--------------------------------------- Iteration      1(   1)  ---------------------------------------


    POTLOK:  cpu time    3.0351: real time    3.1169
    SETDIJ:  cpu time    0.0251: real time    0.0251
     EDDAV:  cpu time    8.7269: real time    8.7537
       DOS:  cpu time    0.0067: real time    0.0067
    --------------------------------------------
      LOOP:  cpu time   11.7937: real time   11.9024

 eigenvalue-minimisations  :   368
 total energy-change (2. order) : 0.9772426E+03  (-0.2499161E+04)
 number of electron     143.0000000 magnetization      13.0000000
 augmentation part      143.0000000 magnetization      13.0000000

 Free energy of the ion-electron system (eV)
  ---------------------------------------------------
  alpha Z        PSCENC =         9.16868266
  Ewald energy   TEWEN  =     25259.29182569
  -Hartree energ DENC   =    -41721.02762065
  -exchange      EXHF   =         0.00000000
  -V(xc)+E(xc)   XCENC  =       584.54180751
  PAW double counting   =     15965.26744864   -17340.97210982
  entropy T*S    EENTRO =         0.00435749
  eigenvalues    EBANDS =       138.51888342
  atomic energy  EATOM  =     18082.44932260
  Solvation  Ediel_sol  =         0.00000000
  ---------------------------------------------------
  free energy    TOTEN  =       977.24259753 eV

  energy without entropy =      977.23824004  energy(sigma->0) =      977.24114503


--------------------------------------------------------------------------------------------------------




--------------------------------------- Iteration      1(   2)  ---------------------------------------


     EDDAV:  cpu time    8.9776: real time    8.9838
       DOS:  cpu time    0.0012: real time    0.0012
    --------------------------------------------
      LOOP:  cpu time    8.9788: real time    8.9850

 eigenvalue-minimisations  :   384
 total energy-change (2. order) :-0.7086778E+03  (-0.6421002E+03)
 number of electron     143.0000000 magnetization      13.0000000
 augmentation part      143.0000000 magnetization      13.0000000

 Free energy of the ion-electron system (eV)
  ---------------------------------------------------
  alpha Z        PSCENC =         9.16868266
  Ewald energy   TEWEN  =     25259.29182569
  -Hartree energ DENC   =    -41721.02762065
  -exchange      EXHF   =         0.00000000
  -V(xc)+E(xc)   XCENC  =       584.54180751
  PAW double counting   =     15965.26744864   -17340.97210982
  entropy T*S    EENTRO =        -0.01301586
  eigenvalues    EBANDS =      -570.14158019
  atomic energy  EATOM  =     18082.44932260
  Solvation  Ediel_sol  =         0.00000000
  ---------------------------------------------------
  free energy    TOTEN  =       268.56476058 eV

  energy without entropy =      268.57777644  energy(sigma->0) =      268.56909920


--------------------------------------------------------------------------------------------------------




--------------------------------------- Iteration      1(   3)  ---------------------------------------


     EDDAV:  cpu time   10.2687: real time   10.3433
       DOS:  cpu time    0.0008: real time    0.0008
    --------------------------------------------
      LOOP:  cpu time   10.2695: real time   10.3441

 eigenvalue-minimisations  :   464
 total energy-change (2. order) :-0.2536957E+03  (-0.2417137E+03)
 number of electron     143.0000000 magnetization      13.0000000
 augmentation part      143.0000000 magnetization      13.0000000

 Free energy of the ion-electron system (eV)
  ---------------------------------------------------
  alpha Z        PSCENC =         9.16868266
  Ewald energy   TEWEN  =     25259.29182569
  -Hartree energ DENC   =    -41721.02762065
  -exchange      EXHF   =         0.00000000
  -V(xc)+E(xc)   XCENC  =       584.54180751
  PAW double counting   =     15965.26744864   -17340.97210982
  entropy T*S    EENTRO =         0.01715176
  eigenvalues    EBANDS =      -823.86746985
  atomic energy  EATOM  =     18082.44932260
  Solvation  Ediel_sol  =         0.00000000
  ---------------------------------------------------
  free energy    TOTEN  =        14.86903853 eV

  energy without entropy =       14.85188677  energy(sigma->0) =       14.86332128


--------------------------------------------------------------------------------------------------------




--------------------------------------- Iteration      1(   4)  ---------------------------------------


     EDDAV:  cpu time    9.8757: real time    9.9509
       DOS:  cpu time    0.0068: real time    0.0068
    --------------------------------------------
      LOOP:  cpu time    9.8825: real time    9.9577

 eigenvalue-minimisations  :   440
 total energy-change (2. order) :-0.4922872E+02  (-0.4526295E+02)
 number of electron     143.0000000 magnetization      13.0000000
 augmentation part      143.0000000 magnetization      13.0000000

 Free energy of the ion-electron system (eV)
  ---------------------------------------------------
  alpha Z        PSCENC =         9.16868266
  Ewald energy   TEWEN  =     25259.29182569
  -Hartree energ DENC   =    -41721.02762065
  -exchange      EXHF   =         0.00000000
  -V(xc)+E(xc)   XCENC  =       584.54180751
  PAW double counting   =     15965.26744864   -17340.97210982
  entropy T*S    EENTRO =         0.01097217
  eigenvalues    EBANDS =      -873.09001249
  atomic energy  EATOM  =     18082.44932260
  Solvation  Ediel_sol  =         0.00000000
  ---------------------------------------------------
  free energy    TOTEN  =       -34.35968370 eV

  energy without entropy =      -34.37065587  energy(sigma->0) =      -34.36334109


--------------------------------------------------------------------------------------------------------




--------------------------------------- Iteration      1(   5)  ---------------------------------------


     EDDAV:  cpu time   10.9205: real time   11.0206
       DOS:  cpu time    0.0044: real time    0.0044
    CHARGE:  cpu time    1.0450: real time    1.0576
    MIXING:  cpu time    0.0441: real time    0.0441
    --------------------------------------------
      LOOP:  cpu time   12.0141: real time   12.1268

 eigenvalue-minimisations  :   504
 total energy-change (2. order) :-0.2301300E+01  (-0.2280730E+01)
 number of electron     143.0000367 magnetization      11.9649222
 augmentation part       87.4292207 magnetization      10.9462738

 Broyden mixing:
  rms(total) = 0.27642E+01    rms(broyden)= 0.27640E+01
  rms(prec ) = 0.28376E+01
  weight for this iteration     100.00

 Free energy of the ion-electron system (eV)
  ---------------------------------------------------
  alpha Z        PSCENC =         9.16868266
  Ewald energy   TEWEN  =     25259.29182569
  -Hartree energ DENC   =    -41721.02762065
  -exchange      EXHF   =         0.00000000
  -V(xc)+E(xc)   XCENC  =       584.54180751
  PAW double counting   =     15965.26744864   -17340.97210982
  entropy T*S    EENTRO =         0.00791655
  eigenvalues    EBANDS =      -875.38825656
  atomic energy  EATOM  =     18082.44932260
  Solvation  Ediel_sol  =         0.00000000
  ---------------------------------------------------
  free energy    TOTEN  =       -36.66098338 eV

  energy without entropy =      -36.66889993  energy(sigma->0) =      -36.66362223


--------------------------------------------------------------------------------------------------------




--------------------------------------- Iteration      1(   6)  ---------------------------------------


    POTLOK:  cpu time    3.1169: real time    3.1520
    SETDIJ:  cpu time    0.0250: real time    0.0290
     EDDAV:  cpu time    9.2584: real time    9.3532
       DOS:  cpu time    0.0073: real time    0.0073
    CHARGE:  cpu time    1.0161: real time    1.0248
    MIXING:  cpu time    0.0488: real time    0.6933
    --------------------------------------------
      LOOP:  cpu time   13.4725: real time   14.2597

 eigenvalue-minimisations  :   404
 total energy-change (2. order) : 0.1721804E+02  (-0.1216828E+02)
 number of electron     143.0000401 magnetization      11.4336675
 augmentation part       94.8493529 magnetization       5.8005384

 Broyden mixing:
  rms(total) = 0.11746E+01    rms(broyden)= 0.11743E+01
  rms(prec ) = 0.12403E+01
  weight for this iteration     100.00

 eigenvalues of (default mixing * dielectric matrix)
  average eigenvalue GAMMA=   0.8251
  0.8251

 Free energy of the ion-electron system (eV)
  ---------------------------------------------------
  alpha Z        PSCENC =         9.16868266
  Ewald energy   TEWEN  =     25259.29182569
  -Hartree energ DENC   =    -41501.72771667
  -exchange      EXHF   =         0.00000000
  -V(xc)+E(xc)   XCENC  =       583.04675218
  PAW double counting   =     16112.89429919   -17443.15692050
  entropy T*S    EENTRO =         0.00248126
  eigenvalues    EBANDS =     -1121.41167184
  atomic energy  EATOM  =     18082.44932260
  Solvation  Ediel_sol  =         0.00000000
  ---------------------------------------------------
  free energy    TOTEN  =       -19.44294544 eV

  energy without entropy =      -19.44542670  energy(sigma->0) =      -19.44377253


--------------------------------------------------------------------------------------------------------




--------------------------------------- Iteration      1(   7)  ---------------------------------------


    POTLOK:  cpu time    3.1238: real time    3.1560
    SETDIJ:  cpu time    0.0256: real time    0.0256
     EDDAV:  cpu time    9.8101: real time    9.9503
       DOS:  cpu time    0.0032: real time    0.0032
    CHARGE:  cpu time    1.0265: real time    1.0473
    MIXING:  cpu time    0.0515: real time    0.0555
    --------------------------------------------
      LOOP:  cpu time   14.0407: real time   14.2380

 eigenvalue-minimisations  :   440
 total energy-change (2. order) : 0.4195447E+01  (-0.2893770E+01)
 number of electron     143.0000386 magnetization      10.8014775
 augmentation part       92.1439453 magnetization       5.3123098

 Broyden mixing:
  rms(total) = 0.44518E+00    rms(broyden)= 0.44506E+00
  rms(prec ) = 0.46537E+00
  weight for this iteration     100.00

 eigenvalues of (default mixing * dielectric matrix)
  average eigenvalue GAMMA=   0.8139
  0.9734  0.6544

 Free energy of the ion-electron system (eV)
  ---------------------------------------------------
  alpha Z        PSCENC =         9.16868266
  Ewald energy   TEWEN  =     25259.29182569
  -Hartree energ DENC   =    -41651.53734558
  -exchange      EXHF   =         0.00000000
  -V(xc)+E(xc)   XCENC  =       589.81159730
  PAW double counting   =     16405.18796692   -17786.98140656
  entropy T*S    EENTRO =        -0.00062016
  eigenvalues    EBANDS =      -922.63752130
  atomic energy  EATOM  =     18082.44932260
  Solvation  Ediel_sol  =         0.00000000
  ---------------------------------------------------
  free energy    TOTEN  =       -15.24749843 eV

  energy without entropy =      -15.24687827  energy(sigma->0) =      -15.24729171


--------------------------------------------------------------------------------------------------------




--------------------------------------- Iteration      1(   8)  ---------------------------------------


    POTLOK:  cpu time    3.1012: real time    3.1487
    SETDIJ:  cpu time    0.0254: real time    0.0255
     EDDAV:  cpu time    9.8113: real time    9.9629
       DOS:  cpu time    0.0071: real time    0.0071
    CHARGE:  cpu time    1.0319: real time    1.0526
    MIXING:  cpu time    0.0545: real time    0.0545
    --------------------------------------------
      LOOP:  cpu time   14.0314: real time   14.2512

 eigenvalue-minimisations  :   440
 total energy-change (2. order) : 0.9761932E+00  (-0.5946718E+00)
 number of electron     143.0000386 magnetization      10.3309163
 augmentation part       91.6709951 magnetization       4.5963463

 Broyden mixing:
  rms(total) = 0.41216E+00    rms(broyden)= 0.41210E+00
  rms(prec ) = 0.43107E+00
  weight for this iteration     100.00

 eigenvalues of (default mixing * dielectric matrix)
  average eigenvalue GAMMA=   0.7679
  1.1405  0.6578  0.5052

 Free energy of the ion-electron system (eV)
  ---------------------------------------------------
  alpha Z        PSCENC =         9.16868266
  Ewald energy   TEWEN  =     25259.29182569
  -Hartree energ DENC   =    -41678.90985430
  -exchange      EXHF   =         0.00000000
  -V(xc)+E(xc)   XCENC  =       590.77443544
  PAW double counting   =     16583.17200739   -17975.35330051
  entropy T*S    EENTRO =         0.02323191
  eigenvalues    EBANDS =      -884.88765608
  atomic energy  EATOM  =     18082.44932260
  Solvation  Ediel_sol  =         0.00000000
  ---------------------------------------------------
  free energy    TOTEN  =       -14.27130520 eV

  energy without entropy =      -14.29453711  energy(sigma->0) =      -14.27904917


--------------------------------------------------------------------------------------------------------




--------------------------------------- Iteration      1(   9)  ---------------------------------------


    POTLOK:  cpu time    3.1158: real time    3.1377
    SETDIJ:  cpu time    0.0201: real time    0.0201
     EDDAV:  cpu time   10.5955: real time   10.6376
       DOS:  cpu time    0.0053: real time    0.0053
    CHARGE:  cpu time    1.0549: real time    1.0596
    MIXING:  cpu time    0.0585: real time    0.0586
    --------------------------------------------
      LOOP:  cpu time   14.8502: real time   14.9189

 eigenvalue-minimisations  :   480
 total energy-change (2. order) :-0.7408153E+00  (-0.1290752E+00)
 number of electron     143.0000385 magnetization       9.4983093
 augmentation part       91.6136058 magnetization       3.8439425

 Broyden mixing:
  rms(total) = 0.24754E+00    rms(broyden)= 0.24752E+00
  rms(prec ) = 0.25481E+00
  weight for this iteration     100.00

 eigenvalues of (default mixing * dielectric matrix)
  average eigenvalue GAMMA=   0.8974
  1.1615  1.1615  0.8338  0.4327

 Free energy of the ion-electron system (eV)
  ---------------------------------------------------
  alpha Z        PSCENC =         9.16868266
  Ewald energy   TEWEN  =     25259.29182569
  -Hartree energ DENC   =    -41685.24290742
  -exchange      EXHF   =         0.00000000
  -V(xc)+E(xc)   XCENC  =       589.64599923
  PAW double counting   =     16665.86050030   -18060.37424540
  entropy T*S    EENTRO =         0.01596284
  eigenvalues    EBANDS =      -875.82726103
  atomic energy  EATOM  =     18082.44932260
  Solvation  Ediel_sol  =         0.00000000
  ---------------------------------------------------
  free energy    TOTEN  =       -15.01212053 eV

  energy without entropy =      -15.02808337  energy(sigma->0) =      -15.01744148


--------------------------------------------------------------------------------------------------------




--------------------------------------- Iteration      1(  10)  ---------------------------------------


    POTLOK:  cpu time    3.1187: real time    3.1476
    SETDIJ:  cpu time    0.0257: real time    0.0258
     EDDAV:  cpu time   10.9205: real time   11.0369
       DOS:  cpu time    0.0068: real time    0.0068
    CHARGE:  cpu time    1.0436: real time    1.0525
    MIXING:  cpu time    0.0638: real time    0.0639
    --------------------------------------------
      LOOP:  cpu time   15.1791: real time   15.3334

 eigenvalue-minimisations  :   504
 total energy-change (2. order) :-0.3229098E+01  (-0.1611640E+00)
 number of electron     143.0000385 magnetization       8.9144742
 augmentation part       91.9418283 magnetization       3.8999603

 Broyden mixing:
  rms(total) = 0.19529E+00    rms(broyden)= 0.19522E+00
  rms(prec ) = 0.20159E+00
  weight for this iteration     100.00

 eigenvalues of (default mixing * dielectric matrix)
  average eigenvalue GAMMA=   0.9445
  1.7299  1.3182  0.7407  0.4668  0.4668

 Free energy of the ion-electron system (eV)
  ---------------------------------------------------
  alpha Z        PSCENC =         9.16868266
  Ewald energy   TEWEN  =     25259.29182569
  -Hartree energ DENC   =    -41677.90251685
  -exchange      EXHF   =         0.00000000
  -V(xc)+E(xc)   XCENC  =       586.19951029
  PAW double counting   =     16721.25130433   -18113.24796626
  entropy T*S    EENTRO =        -0.03284049
  eigenvalues    EBANDS =      -885.41854093
  atomic energy  EATOM  =     18082.44932260
  Solvation  Ediel_sol  =         0.00000000
  ---------------------------------------------------
  free energy    TOTEN  =       -18.24121896 eV

  energy without entropy =      -18.20837847  energy(sigma->0) =      -18.23027213


--------------------------------------------------------------------------------------------------------




--------------------------------------- Iteration      1(  11)  ---------------------------------------


    POTLOK:  cpu time    3.1104: real time    3.1421
    SETDIJ:  cpu time    0.0257: real time    0.0257
     EDDAV:  cpu time   10.3530: real time   10.4986
       DOS:  cpu time    0.0076: real time    0.0076
    CHARGE:  cpu time    1.0434: real time    1.0561
    MIXING:  cpu time    0.0681: real time    0.0682
    --------------------------------------------
      LOOP:  cpu time   14.6083: real time   14.7983

 eigenvalue-minimisations  :   472
 total energy-change (2. order) :-0.1781129E+01  (-0.5954997E-01)
 number of electron     143.0000386 magnetization       8.4917973
 augmentation part       92.0019283 magnetization       3.9760714

 Broyden mixing:
  rms(total) = 0.16167E+00    rms(broyden)= 0.16161E+00
  rms(prec ) = 0.16577E+00
  weight for this iteration     100.00

 eigenvalues of (default mixing * dielectric matrix)
  average eigenvalue GAMMA=   0.9066
  1.8954  1.2598  0.7181  0.4564  0.5548  0.5548

 Free energy of the ion-electron system (eV)
  ---------------------------------------------------
  alpha Z        PSCENC =         9.16868266
  Ewald energy   TEWEN  =     25259.29182569
  -Hartree energ DENC   =    -41680.78319913
  -exchange      EXHF   =         0.00000000
  -V(xc)+E(xc)   XCENC  =       584.63274219
  PAW double counting   =     16745.92603892   -18138.11980022
  entropy T*S    EENTRO =        -0.04689308
  eigenvalues    EBANDS =      -882.54106763
  atomic energy  EATOM  =     18082.44932260
  Solvation  Ediel_sol  =         0.00000000
  ---------------------------------------------------
  free energy    TOTEN  =       -20.02234800 eV

  energy without entropy =      -19.97545492  energy(sigma->0) =      -20.00671697


--------------------------------------------------------------------------------------------------------




--------------------------------------- Iteration      1(  12)  ---------------------------------------


    POTLOK:  cpu time    3.1195: real time    3.1478
    SETDIJ:  cpu time    0.0253: real time    0.0253
     EDDAV:  cpu time   10.8108: real time   10.8939
       DOS:  cpu time    0.0034: real time    0.0034
    CHARGE:  cpu time    1.0461: real time    1.0588
    MIXING:  cpu time    0.0738: real time    0.0738
    --------------------------------------------
      LOOP:  cpu time   15.0789: real time   15.2030

 eigenvalue-minimisations  :   496
 total energy-change (2. order) :-0.1010271E+01  (-0.2494520E-01)
 number of electron     143.0000386 magnetization       7.6775895
 augmentation part       91.9587594 magnetization       3.5513659

 Broyden mixing:
  rms(total) = 0.15109E+00    rms(broyden)= 0.15105E+00
  rms(prec ) = 0.15455E+00
  weight for this iteration     100.00

 eigenvalues of (default mixing * dielectric matrix)
  average eigenvalue GAMMA=   0.9628
  1.9926  1.3768  0.8732  0.8732  0.7460  0.4388  0.4388

 Free energy of the ion-electron system (eV)
  ---------------------------------------------------
  alpha Z        PSCENC =         9.16868266
  Ewald energy   TEWEN  =     25259.29182569
  -Hartree energ DENC   =    -41687.46380147
  -exchange      EXHF   =         0.00000000
  -V(xc)+E(xc)   XCENC  =       583.98927310
  PAW double counting   =     16756.19241352   -18149.72031626
  entropy T*S    EENTRO =        -0.04434602
  eigenvalues    EBANDS =      -874.89567263
  atomic energy  EATOM  =     18082.44932260
  Solvation  Ediel_sol  =         0.00000000
  ---------------------------------------------------
  free energy    TOTEN  =       -21.03261882 eV

  energy without entropy =      -20.98827280  energy(sigma->0) =      -21.01783681


--------------------------------------------------------------------------------------------------------




--------------------------------------- Iteration      1(  13)  ---------------------------------------


    POTLOK:  cpu time    3.1403: real time    3.1545
    SETDIJ:  cpu time    0.0256: real time    0.0256
     EDDAV:  cpu time   10.5387: real time   10.6104
       DOS:  cpu time    0.0009: real time    0.0009
    CHARGE:  cpu time    1.0335: real time    1.0502
    MIXING:  cpu time    0.0801: real time    0.0801
    --------------------------------------------
      LOOP:  cpu time   14.8190: real time   14.9217

 eigenvalue-minimisations  :   480
 total energy-change (2. order) :-0.1800207E+01  (-0.5288763E-01)
 number of electron     143.0000385 magnetization       6.2476900
 augmentation part       91.8655313 magnetization       2.7118929

 Broyden mixing:
  rms(total) = 0.12983E+00    rms(broyden)= 0.12973E+00
  rms(prec ) = 0.13257E+00
  weight for this iteration     100.00

 eigenvalues of (default mixing * dielectric matrix)
  average eigenvalue GAMMA=   1.1826
  3.3737  1.4768  1.1329  1.1329  0.8413  0.5355  0.5355  0.4324

 Free energy of the ion-electron system (eV)
  ---------------------------------------------------
  alpha Z        PSCENC =         9.16868266
  Ewald energy   TEWEN  =     25259.29182569
  -Hartree energ DENC   =    -41695.63229166
  -exchange      EXHF   =         0.00000000
  -V(xc)+E(xc)   XCENC  =       582.72528853
  PAW double counting   =     16759.03880506   -18153.83470386
  entropy T*S    EENTRO =        -0.01477040
  eigenvalues    EBANDS =      -866.02498403
  atomic energy  EATOM  =     18082.44932260
  Solvation  Ediel_sol  =         0.00000000
  ---------------------------------------------------
  free energy    TOTEN  =       -22.83282542 eV

  energy without entropy =      -22.81805501  energy(sigma->0) =      -22.82790195


--------------------------------------------------------------------------------------------------------




--------------------------------------- Iteration      1(  14)  ---------------------------------------


    POTLOK:  cpu time    3.1080: real time    3.1348
    SETDIJ:  cpu time    0.0258: real time    0.0258
     EDDAV:  cpu time   11.0333: real time   11.2051
       DOS:  cpu time    0.0070: real time    0.0070
    CHARGE:  cpu time    1.0404: real time    1.0450
    MIXING:  cpu time    0.0890: real time    0.0891
    --------------------------------------------
      LOOP:  cpu time   15.3035: real time   15.5068

 eigenvalue-minimisations  :   512
 total energy-change (2. order) :-0.2881814E+01  (-0.1182412E+00)
 number of electron     143.0000386 magnetization       5.4540631
 augmentation part       91.8528154 magnetization       2.6795945

 Broyden mixing:
  rms(total) = 0.10480E+00    rms(broyden)= 0.10474E+00
  rms(prec ) = 0.10740E+00
  weight for this iteration     100.00

 eigenvalues of (default mixing * dielectric matrix)
  average eigenvalue GAMMA=   1.1975
  4.0653  1.6203  1.1595  1.1595  0.6872  0.6872  0.4889  0.4889  0.4206

 Free energy of the ion-electron system (eV)
  ---------------------------------------------------
  alpha Z        PSCENC =         9.16868266
  Ewald energy   TEWEN  =     25259.29182569
  -Hartree energ DENC   =    -41700.75470439
  -exchange      EXHF   =         0.00000000
  -V(xc)+E(xc)   XCENC  =       580.38630000
  PAW double counting   =     16746.12963542   -18140.69997071
  entropy T*S    EENTRO =        -0.02167498
  eigenvalues    EBANDS =      -861.66405547
  atomic energy  EATOM  =     18082.44932260
  Solvation  Ediel_sol  =         0.00000000
  ---------------------------------------------------
  free energy    TOTEN  =       -25.71463919 eV

  energy without entropy =      -25.69296420  energy(sigma->0) =      -25.70741419


--------------------------------------------------------------------------------------------------------




--------------------------------------- Iteration      1(  15)  ---------------------------------------


    POTLOK:  cpu time    3.1114: real time    3.1457
    SETDIJ:  cpu time    0.0257: real time    0.0257
     EDDAV:  cpu time   10.0807: real time   10.2158
       DOS:  cpu time    0.0081: real time    0.0081
    CHARGE:  cpu time    1.0297: real time    1.0424
    MIXING:  cpu time    0.0944: real time    0.0945
    --------------------------------------------
      LOOP:  cpu time   14.3500: real time   14.5322

 eigenvalue-minimisations  :   456
 total energy-change (2. order) :-0.1600354E+01  (-0.4519763E-01)
 number of electron     143.0000386 magnetization       5.2822188
 augmentation part       91.8620782 magnetization       3.0736641

 Broyden mixing:
  rms(total) = 0.99739E-01    rms(broyden)= 0.99659E-01
  rms(prec ) = 0.10329E+00
  weight for this iteration     100.00

 eigenvalues of (default mixing * dielectric matrix)
  average eigenvalue GAMMA=   1.1288
  4.2538  1.5760  1.1290  1.1290  0.6929  0.5914  0.4680  0.4680  0.4898  0.4898

 Free energy of the ion-electron system (eV)
  ---------------------------------------------------
  alpha Z        PSCENC =         9.16868266
  Ewald energy   TEWEN  =     25259.29182569
  -Hartree energ DENC   =    -41701.53398045
  -exchange      EXHF   =         0.00000000
  -V(xc)+E(xc)   XCENC  =       579.05487739
  PAW double counting   =     16731.01666265   -18125.07163307
  entropy T*S    EENTRO =        -0.02088311
  eigenvalues    EBANDS =      -861.66986788
  atomic energy  EATOM  =     18082.44932260
  Solvation  Ediel_sol  =         0.00000000
  ---------------------------------------------------
  free energy    TOTEN  =       -27.31499353 eV

  energy without entropy =      -27.29411042  energy(sigma->0) =      -27.30803249


--------------------------------------------------------------------------------------------------------




--------------------------------------- Iteration      1(  16)  ---------------------------------------


    POTLOK:  cpu time    3.1165: real time    3.1559
    SETDIJ:  cpu time    0.0256: real time    0.0256
     EDDAV:  cpu time    9.9578: real time   10.0817
       DOS:  cpu time    0.0071: real time    0.0071
    CHARGE:  cpu time    1.0330: real time    1.0460
    MIXING:  cpu time    0.1021: real time    0.1023
    --------------------------------------------
      LOOP:  cpu time   14.2420: real time   14.4186

 eigenvalue-minimisations  :   448
 total energy-change (2. order) :-0.2565134E+00  (-0.5544526E-02)
 number of electron     143.0000386 magnetization       4.7568218
 augmentation part       91.8571069 magnetization       2.6798510

 Broyden mixing:
  rms(total) = 0.94380E-01    rms(broyden)= 0.94367E-01
  rms(prec ) = 0.97884E-01
  weight for this iteration     100.00

 eigenvalues of (default mixing * dielectric matrix)
  average eigenvalue GAMMA=   1.1988
  4.7602  1.6967  0.9640  0.9640  1.0537  1.0537  0.7452  0.5870  0.5109  0.4395
  0.4121

 Free energy of the ion-electron system (eV)
  ---------------------------------------------------
  alpha Z        PSCENC =         9.16868266
  Ewald energy   TEWEN  =     25259.29182569
  -Hartree energ DENC   =    -41702.17920250
  -exchange      EXHF   =         0.00000000
  -V(xc)+E(xc)   XCENC  =       578.86307738
  PAW double counting   =     16730.09178851   -18124.35996354
  entropy T*S    EENTRO =        -0.01779218
  eigenvalues    EBANDS =      -860.87924556
  atomic energy  EATOM  =     18082.44932260
  Solvation  Ediel_sol  =         0.00000000
  ---------------------------------------------------
  free energy    TOTEN  =       -27.57150694 eV

  energy without entropy =      -27.55371476  energy(sigma->0) =      -27.56557621


--------------------------------------------------------------------------------------------------------




--------------------------------------- Iteration      1(  17)  ---------------------------------------


    POTLOK:  cpu time    3.0984: real time    3.1356
    SETDIJ:  cpu time    0.0258: real time    0.0259
     EDDAV:  cpu time   12.2044: real time   12.3625
       DOS:  cpu time    0.0057: real time    0.0057
    CHARGE:  cpu time    1.0296: real time    1.0422
    MIXING:  cpu time    0.1110: real time    0.1110
    --------------------------------------------
      LOOP:  cpu time   16.4749: real time   16.6829

 eigenvalue-minimisations  :   584
 total energy-change (2. order) :-0.6618213E+00  (-0.9302646E-02)
 number of electron     143.0000386 magnetization       3.5813707
 augmentation part       91.8411606 magnetization       1.8119808

 Broyden mixing:
  rms(total) = 0.84138E-01    rms(broyden)= 0.84107E-01
  rms(prec ) = 0.87253E-01
  weight for this iteration     100.00

 eigenvalues of (default mixing * dielectric matrix)
  average eigenvalue GAMMA=   1.3179
  5.8108  1.4274  1.4274  1.4280  1.4280  0.9264  0.9264  0.6297  0.4965  0.4965
  0.4271  0.3905

 Free energy of the ion-electron system (eV)
  ---------------------------------------------------
  alpha Z        PSCENC =         9.16868266
  Ewald energy   TEWEN  =     25259.29182569
  -Hartree energ DENC   =    -41701.98895019
  -exchange      EXHF   =         0.00000000
  -V(xc)+E(xc)   XCENC  =       578.31649335
  PAW double counting   =     16721.83366938   -18116.26226775
  entropy T*S    EENTRO =        -0.00363543
  eigenvalues    EBANDS =      -861.03846852
  atomic energy  EATOM  =     18082.44932260
  Solvation  Ediel_sol  =         0.00000000
  ---------------------------------------------------
  free energy    TOTEN  =       -28.23332821 eV

  energy without entropy =      -28.22969278  energy(sigma->0) =      -28.23211640


--------------------------------------------------------------------------------------------------------




--------------------------------------- Iteration      1(  18)  ---------------------------------------


    POTLOK:  cpu time    3.1316: real time    3.4971
    SETDIJ:  cpu time    0.0276: real time    0.0276
     EDDAV:  cpu time   10.9080: real time   11.0278
       DOS:  cpu time    0.0009: real time    0.0009
    CHARGE:  cpu time    1.0351: real time    1.0478
    MIXING:  cpu time    0.1288: real time    0.1289
    --------------------------------------------
      LOOP:  cpu time   15.2319: real time   15.7301

 eigenvalue-minimisations  :   504
 total energy-change (2. order) :-0.1284561E+01  (-0.3669344E-01)
 number of electron     143.0000386 magnetization       2.7652201
 augmentation part       91.8288071 magnetization       1.4553613

 Broyden mixing:
  rms(total) = 0.55820E-01    rms(broyden)= 0.55711E-01
  rms(prec ) = 0.57865E-01
  weight for this iteration     100.00

 eigenvalues of (default mixing * dielectric matrix)
  average eigenvalue GAMMA=   1.4059
  7.0266  1.6963  1.6963  1.2592  1.2592  1.2018  0.8591  0.8591  0.5814  0.5071
  0.5071  0.4191  0.4051

 Free energy of the ion-electron system (eV)
  ---------------------------------------------------
  alpha Z        PSCENC =         9.16868266
  Ewald energy   TEWEN  =     25259.29182569
  -Hartree energ DENC   =    -41699.82200415
  -exchange      EXHF   =         0.00000000
  -V(xc)+E(xc)   XCENC  =       577.20987036
  PAW double counting   =     16702.22437291   -18096.64821835
  entropy T*S    EENTRO =         0.03650298
  eigenvalues    EBANDS =      -863.42824415
  atomic energy  EATOM  =     18082.44932260
  Solvation  Ediel_sol  =         0.00000000
  ---------------------------------------------------
  free energy    TOTEN  =       -29.51788946 eV

  energy without entropy =      -29.55439244  energy(sigma->0) =      -29.53005712


--------------------------------------------------------------------------------------------------------




--------------------------------------- Iteration      1(  19)  ---------------------------------------


    POTLOK:  cpu time    3.1088: real time    3.1460
    SETDIJ:  cpu time    0.0258: real time    0.0258
     EDDAV:  cpu time   10.8265: real time   11.0387
       DOS:  cpu time    0.0009: real time    0.0009
    CHARGE:  cpu time    1.0285: real time    1.0497
    MIXING:  cpu time    0.1265: real time    0.1306
    --------------------------------------------
      LOOP:  cpu time   15.1169: real time   15.3918

 eigenvalue-minimisations  :   504
 total energy-change (2. order) :-0.8948457E+00  (-0.2363817E-01)
 number of electron     143.0000386 magnetization       2.4207109
 augmentation part       91.8175423 magnetization       1.3233065

 Broyden mixing:
  rms(total) = 0.44148E-01    rms(broyden)= 0.44116E-01
  rms(prec ) = 0.46356E-01
  weight for this iteration     100.00

 eigenvalues of (default mixing * dielectric matrix)
  average eigenvalue GAMMA=   1.4622
  7.8340  2.1355  1.6399  1.6399  1.2577  1.2577  0.8470  0.8470  0.6136  0.6136
  0.4848  0.4848  0.4211  0.3947

 Free energy of the ion-electron system (eV)
  ---------------------------------------------------
  alpha Z        PSCENC =         9.16868266
  Ewald energy   TEWEN  =     25259.29182569
  -Hartree energ DENC   =    -41696.79626505
  -exchange      EXHF   =         0.00000000
  -V(xc)+E(xc)   XCENC  =       576.44341230
  PAW double counting   =     16690.46678657   -18084.64132715
  entropy T*S    EENTRO =         0.04713605
  eigenvalues    EBANDS =      -866.84230881
  atomic energy  EATOM  =     18082.44932260
  Solvation  Ediel_sol  =         0.00000000
  ---------------------------------------------------
  free energy    TOTEN  =       -30.41273515 eV

  energy without entropy =      -30.45987120  energy(sigma->0) =      -30.42844716


--------------------------------------------------------------------------------------------------------




--------------------------------------- Iteration      1(  20)  ---------------------------------------


    POTLOK:  cpu time    3.1083: real time    3.1492
    SETDIJ:  cpu time    0.0257: real time    0.0257
     EDDAV:  cpu time   10.1967: real time   10.3484
       DOS:  cpu time    0.0053: real time    0.0053
    CHARGE:  cpu time    1.0490: real time    1.0541
    MIXING:  cpu time    0.1440: real time    0.1442
    --------------------------------------------
      LOOP:  cpu time   14.5291: real time   14.7269

 eigenvalue-minimisations  :   464
 total energy-change (2. order) :-0.4586727E+00  (-0.7549144E-02)
 number of electron     143.0000386 magnetization       2.0081292
 augmentation part       91.8320985 magnetization       0.9983712

 Broyden mixing:
  rms(total) = 0.35161E-01    rms(broyden)= 0.35151E-01
  rms(prec ) = 0.37261E-01
  weight for this iteration     100.00

 eigenvalues of (default mixing * dielectric matrix)
  average eigenvalue GAMMA=   1.4991
  8.8060  2.3560  1.5192  1.5192  1.2479  1.2479  1.2748  0.7862  0.7862  0.6699
  0.5051  0.5051  0.4517  0.4056  0.4056

 Free energy of the ion-electron system (eV)
  ---------------------------------------------------
  alpha Z        PSCENC =         9.16868266
  Ewald energy   TEWEN  =     25259.29182569
  -Hartree energ DENC   =    -41692.37414608
  -exchange      EXHF   =         0.00000000
  -V(xc)+E(xc)   XCENC  =       575.98449049
  PAW double counting   =     16680.72148719   -18074.30771446
  entropy T*S    EENTRO =         0.04504953
  eigenvalues    EBANDS =      -871.85040552
  atomic energy  EATOM  =     18082.44932260
  Solvation  Ediel_sol  =         0.00000000
  ---------------------------------------------------
  free energy    TOTEN  =       -30.87140789 eV

  energy without entropy =      -30.91645743  energy(sigma->0) =      -30.88642440


--------------------------------------------------------------------------------------------------------




--------------------------------------- Iteration      1(  21)  ---------------------------------------


    POTLOK:  cpu time    3.1181: real time    3.1619
    SETDIJ:  cpu time    0.0263: real time    0.0263
     EDDAV:  cpu time   10.9421: real time   11.0852
       DOS:  cpu time    0.0027: real time    0.0027
    CHARGE:  cpu time    1.0437: real time    1.0484
    MIXING:  cpu time    0.1446: real time    0.1487
    --------------------------------------------
      LOOP:  cpu time   15.2773: real time   15.4732

 eigenvalue-minimisations  :   508
 total energy-change (2. order) :-0.3683048E+00  (-0.3513340E-02)
 number of electron     143.0000386 magnetization       1.4888927
 augmentation part       91.8308346 magnetization       0.5706545

 Broyden mixing:
  rms(total) = 0.25184E-01    rms(broyden)= 0.25176E-01
  rms(prec ) = 0.26953E-01
  weight for this iteration     100.00

 eigenvalues of (default mixing * dielectric matrix)
  average eigenvalue GAMMA=   1.6060
 10.1678  2.3542  2.3542  1.5693  1.5693  1.2679  1.2679  0.8019  0.8019  0.6896
  0.6099  0.4854  0.4854  0.4595  0.4055  0.4055

 Free energy of the ion-electron system (eV)
  ---------------------------------------------------
  alpha Z        PSCENC =         9.16868266
  Ewald energy   TEWEN  =     25259.29182569
  -Hartree energ DENC   =    -41689.31325995
  -exchange      EXHF   =         0.00000000
  -V(xc)+E(xc)   XCENC  =       575.62133876
  PAW double counting   =     16678.01561241   -18071.69623304
  entropy T*S    EENTRO =         0.04123903
  eigenvalues    EBANDS =      -874.81824080
  atomic energy  EATOM  =     18082.44932260
  Solvation  Ediel_sol  =         0.00000000
  ---------------------------------------------------
  free energy    TOTEN  =       -31.23971264 eV

  energy without entropy =      -31.28095168  energy(sigma->0) =      -31.25345899


--------------------------------------------------------------------------------------------------------




--------------------------------------- Iteration      1(  22)  ---------------------------------------


    POTLOK:  cpu time    3.0916: real time    3.1342
    SETDIJ:  cpu time    0.0261: real time    0.0261
     EDDAV:  cpu time   10.8471: real time   10.8922
       DOS:  cpu time    0.0047: real time    0.0047
    CHARGE:  cpu time    1.0535: real time    1.0541
    MIXING:  cpu time    0.1611: real time    0.1612
    --------------------------------------------
      LOOP:  cpu time   15.1842: real time   15.2726

 eigenvalue-minimisations  :   496
 total energy-change (2. order) :-0.4797830E+00  (-0.3123314E-02)
 number of electron     143.0000386 magnetization       1.1716397
 augmentation part       91.8185272 magnetization       0.3679662

 Broyden mixing:
  rms(total) = 0.17180E-01    rms(broyden)= 0.17163E-01
  rms(prec ) = 0.18842E-01
  weight for this iteration     100.00

 eigenvalues of (default mixing * dielectric matrix)
  average eigenvalue GAMMA=   1.6896
 11.3737  2.8617  2.8617  1.4631  1.4631  1.3183  1.3183  0.8529  0.8529  0.7689
  0.7689  0.5780  0.4911  0.4911  0.4040  0.4091  0.4465

 Free energy of the ion-electron system (eV)
  ---------------------------------------------------
  alpha Z        PSCENC =         9.16868266
  Ewald energy   TEWEN  =     25259.29182569
  -Hartree energ DENC   =    -41685.07238106
  -exchange      EXHF   =         0.00000000
  -V(xc)+E(xc)   XCENC  =       575.12962703
  PAW double counting   =     16681.02258330   -18075.08767322
  entropy T*S    EENTRO =         0.03432957
  eigenvalues    EBANDS =      -878.65581217
  atomic energy  EATOM  =     18082.44932260
  Solvation  Ediel_sol  =         0.00000000
  ---------------------------------------------------
  free energy    TOTEN  =       -31.71949560 eV

  energy without entropy =      -31.75382517  energy(sigma->0) =      -31.73093879


--------------------------------------------------------------------------------------------------------




--------------------------------------- Iteration      1(  23)  ---------------------------------------


    POTLOK:  cpu time    3.1203: real time    3.1553
    SETDIJ:  cpu time    0.0256: real time    0.0257
     EDDAV:  cpu time   11.1201: real time   11.2724
       DOS:  cpu time    0.0047: real time    0.0047
    CHARGE:  cpu time    1.0429: real time    1.0521
    MIXING:  cpu time    0.1755: real time    0.1756
    --------------------------------------------
      LOOP:  cpu time   15.4891: real time   15.6858

 eigenvalue-minimisations  :   520
 total energy-change (2. order) :-0.2894564E+00  (-0.1198752E-02)
 number of electron     143.0000386 magnetization       1.0096512
 augmentation part       91.8363214 magnetization       0.2856415

 Broyden mixing:
  rms(total) = 0.11611E-01    rms(broyden)= 0.11593E-01
  rms(prec ) = 0.12828E-01
  weight for this iteration     100.00

 eigenvalues of (default mixing * dielectric matrix)
  average eigenvalue GAMMA=   1.7161
 11.9703  3.2110  3.2110  1.5056  1.5056  1.2779  1.2779  1.1723  0.8208  0.8208
  0.7514  0.6066  0.5244  0.4718  0.4718  0.4780  0.4065  0.4065

 Free energy of the ion-electron system (eV)
  ---------------------------------------------------
  alpha Z        PSCENC =         9.16868266
  Ewald energy   TEWEN  =     25259.29182569
  -Hartree energ DENC   =    -41680.25610383
  -exchange      EXHF   =         0.00000000
  -V(xc)+E(xc)   XCENC  =       574.77404154
  PAW double counting   =     16682.46490936   -18076.38286258
  entropy T*S    EENTRO =         0.02793352
  eigenvalues    EBANDS =      -883.54670094
  atomic energy  EATOM  =     18082.44932260
  Solvation  Ediel_sol  =         0.00000000
  ---------------------------------------------------
  free energy    TOTEN  =       -32.00895198 eV

  energy without entropy =      -32.03688550  energy(sigma->0) =      -32.01826315


--------------------------------------------------------------------------------------------------------




--------------------------------------- Iteration      1(  24)  ---------------------------------------


    POTLOK:  cpu time    3.1010: real time    3.1239
    SETDIJ:  cpu time    0.0288: real time    0.0288
     EDDAV:  cpu time   10.9549: real time   11.1517
       DOS:  cpu time    0.0009: real time    0.0009
    CHARGE:  cpu time    1.0303: real time    1.0554
    MIXING:  cpu time    0.1773: real time    0.1815
    --------------------------------------------
      LOOP:  cpu time   15.2931: real time   15.5422

 eigenvalue-minimisations  :   512
 total energy-change (2. order) :-0.1265616E+00  (-0.3312385E-03)
 number of electron     143.0000386 magnetization       0.8399975
 augmentation part       91.8514795 magnetization       0.1603989

 Broyden mixing:
  rms(total) = 0.97931E-02    rms(broyden)= 0.97839E-02
  rms(prec ) = 0.10790E-01
  weight for this iteration     100.00

 eigenvalues of (default mixing * dielectric matrix)
  average eigenvalue GAMMA=   1.7405
 12.5873  3.4451  3.4451  1.5889  1.5889  1.3241  1.3241  1.0220  1.0220  0.8231
  0.8231  0.7500  0.5954  0.4849  0.4849  0.4869  0.4619  0.4062  0.4062

 Free energy of the ion-electron system (eV)
  ---------------------------------------------------
  alpha Z        PSCENC =         9.16868266
  Ewald energy   TEWEN  =     25259.29182569
  -Hartree energ DENC   =    -41677.59022401
  -exchange      EXHF   =         0.00000000
  -V(xc)+E(xc)   XCENC  =       574.61049239
  PAW double counting   =     16683.16809275   -18076.93449121
  entropy T*S    EENTRO =         0.02453786
  eigenvalues    EBANDS =      -886.32375226
  atomic energy  EATOM  =     18082.44932260
  Solvation  Ediel_sol  =         0.00000000
  ---------------------------------------------------
  free energy    TOTEN  =       -32.13551354 eV

  energy without entropy =      -32.16005140  energy(sigma->0) =      -32.14369282


--------------------------------------------------------------------------------------------------------




--------------------------------------- Iteration      1(  25)  ---------------------------------------


    POTLOK:  cpu time    3.0902: real time    3.1215
    SETDIJ:  cpu time    0.0261: real time    0.0261
     EDDAV:  cpu time   10.2007: real time   10.3684
       DOS:  cpu time    0.0010: real time    0.0010
    CHARGE:  cpu time    1.0377: real time    1.0591
    MIXING:  cpu time    0.1939: real time    0.1982
    --------------------------------------------
      LOOP:  cpu time   14.5496: real time   14.7744

 eigenvalue-minimisations  :   464
 total energy-change (2. order) :-0.8706686E-01  (-0.1940971E-03)
 number of electron     143.0000386 magnetization       0.7317377
 augmentation part       91.8400736 magnetization       0.1001935

 Broyden mixing:
  rms(total) = 0.53247E-02    rms(broyden)= 0.53123E-02
  rms(prec ) = 0.62281E-02
  weight for this iteration     100.00

 eigenvalues of (default mixing * dielectric matrix)
  average eigenvalue GAMMA=   1.7867
 13.3841  3.8298  3.8298  1.6251  1.4297  1.4297  1.3166  1.3166  1.3193  0.8054
  0.8054  0.7491  0.6240  0.5554  0.5124  0.4752  0.4752  0.4405  0.4054  0.4054

 Free energy of the ion-electron system (eV)
  ---------------------------------------------------
  alpha Z        PSCENC =         9.16868266
  Ewald energy   TEWEN  =     25259.29182569
  -Hartree energ DENC   =    -41676.47186393
  -exchange      EXHF   =         0.00000000
  -V(xc)+E(xc)   XCENC  =       574.53626574
  PAW double counting   =     16684.96641749   -18078.90553829
  entropy T*S    EENTRO =         0.02079730
  eigenvalues    EBANDS =      -887.27848966
  atomic energy  EATOM  =     18082.44932260
  Solvation  Ediel_sol  =         0.00000000
  ---------------------------------------------------
  free energy    TOTEN  =       -32.22258040 eV

  energy without entropy =      -32.24337770  energy(sigma->0) =      -32.22951283


--------------------------------------------------------------------------------------------------------




--------------------------------------- Iteration      1(  26)  ---------------------------------------


    POTLOK:  cpu time    3.0689: real time    3.1195
    SETDIJ:  cpu time    0.0261: real time    0.0261
     EDDAV:  cpu time   10.1603: real time   10.3439
       DOS:  cpu time    0.0045: real time    0.0045
    CHARGE:  cpu time    1.0321: real time    1.0493
    MIXING:  cpu time    0.2001: real time    0.2043
    --------------------------------------------
      LOOP:  cpu time   14.4920: real time   14.7476

 eigenvalue-minimisations  :   464
 total energy-change (2. order) :-0.3893272E-01  (-0.1198356E-03)
 number of electron     143.0000386 magnetization       0.6893309
 augmentation part       91.8327353 magnetization       0.0970010

 Broyden mixing:
  rms(total) = 0.47034E-02    rms(broyden)= 0.46924E-02
  rms(prec ) = 0.53824E-02
  weight for this iteration     100.00

 eigenvalues of (default mixing * dielectric matrix)
  average eigenvalue GAMMA=   1.7787
 13.6746  4.1036  4.1036  1.6733  1.4905  1.4905  1.3182  1.3182  1.3185  0.8144
  0.8144  0.6644  0.6644  0.6662  0.5205  0.5205  0.4698  0.4698  0.4062  0.4062
  0.4443

 Free energy of the ion-electron system (eV)
  ---------------------------------------------------
  alpha Z        PSCENC =         9.16868266
  Ewald energy   TEWEN  =     25259.29182569
  -Hartree energ DENC   =    -41675.58666754
  -exchange      EXHF   =         0.00000000
  -V(xc)+E(xc)   XCENC  =       574.50194584
  PAW double counting   =     16685.88161905   -18079.90263242
  entropy T*S    EENTRO =         0.01828274
  eigenvalues    EBANDS =      -888.08389173
  atomic energy  EATOM  =     18082.44932260
  Solvation  Ediel_sol  =         0.00000000
  ---------------------------------------------------
  free energy    TOTEN  =       -32.26151312 eV

  energy without entropy =      -32.27979586  energy(sigma->0) =      -32.26760737


--------------------------------------------------------------------------------------------------------




--------------------------------------- Iteration      1(  27)  ---------------------------------------


    POTLOK:  cpu time    3.0696: real time    3.0927
    SETDIJ:  cpu time    0.0263: real time    0.0263
     EDDAV:  cpu time    6.9938: real time    7.0779
       DOS:  cpu time    0.0012: real time    0.0012
    CHARGE:  cpu time    1.0460: real time    1.0551
    MIXING:  cpu time    0.2161: real time    0.2244
    --------------------------------------------
      LOOP:  cpu time   11.3530: real time   11.4777

 eigenvalue-minimisations  :   268
 total energy-change (2. order) :-0.1643670E-01  (-0.3906338E-04)
 number of electron     143.0000386 magnetization       0.6616614
 augmentation part       91.8314819 magnetization       0.0885665

 Broyden mixing:
  rms(total) = 0.38364E-02    rms(broyden)= 0.38308E-02
  rms(prec ) = 0.43548E-02
  weight for this iteration     100.00

 eigenvalues of (default mixing * dielectric matrix)
  average eigenvalue GAMMA=   1.7931
 13.9845  4.3004  4.3004  1.6353  1.6353  1.5619  1.5619  1.3329  1.3329  0.9278
  0.9278  0.7736  0.7736  0.6258  0.6117  0.4834  0.4834  0.4973  0.4042  0.4089
  0.4428  0.4428

 Free energy of the ion-electron system (eV)
  ---------------------------------------------------
  alpha Z        PSCENC =         9.16868266
  Ewald energy   TEWEN  =     25259.29182569
  -Hartree energ DENC   =    -41674.77022051
  -exchange      EXHF   =         0.00000000
  -V(xc)+E(xc)   XCENC  =       574.47939889
  PAW double counting   =     16686.52010114   -18080.54151520
  entropy T*S    EENTRO =         0.01667388
  eigenvalues    EBANDS =      -888.89221897
  atomic energy  EATOM  =     18082.44932260
  Solvation  Ediel_sol  =         0.00000000
  ---------------------------------------------------
  free energy    TOTEN  =       -32.27794982 eV

  energy without entropy =      -32.29462370  energy(sigma->0) =      -32.28350778


--------------------------------------------------------------------------------------------------------




--------------------------------------- Iteration      1(  28)  ---------------------------------------


    POTLOK:  cpu time    3.0797: real time    3.1106
    SETDIJ:  cpu time    0.0255: real time    0.0255
     EDDAV:  cpu time    8.6444: real time    8.7986
       DOS:  cpu time    0.0067: real time    0.0067
    CHARGE:  cpu time    1.0408: real time    1.0538
    MIXING:  cpu time    0.2284: real time    0.2327
    --------------------------------------------
      LOOP:  cpu time   13.0254: real time   13.2280

 eigenvalue-minimisations  :   372
 total energy-change (2. order) :-0.8008318E-02  (-0.5630640E-04)
 number of electron     143.0000386 magnetization       0.6327176
 augmentation part       91.8362686 magnetization       0.0724185

 Broyden mixing:
  rms(total) = 0.22783E-02    rms(broyden)= 0.22732E-02
  rms(prec ) = 0.26498E-02
  weight for this iteration     100.00

 eigenvalues of (default mixing * dielectric matrix)
  average eigenvalue GAMMA=   1.7836
 14.2508  4.4442  4.4442  1.7836  1.7836  1.5720  1.5720  1.3226  1.3226  0.9531
  0.9531  0.7986  0.7986  0.6832  0.6832  0.5264  0.5264  0.4732  0.4732  0.4461
  0.4065  0.4065  0.3984

 Free energy of the ion-electron system (eV)
  ---------------------------------------------------
  alpha Z        PSCENC =         9.16868266
  Ewald energy   TEWEN  =     25259.29182569
  -Hartree energ DENC   =    -41673.72248838
  -exchange      EXHF   =         0.00000000
  -V(xc)+E(xc)   XCENC  =       574.45729235
  PAW double counting   =     16686.30354098   -18080.23859374
  entropy T*S    EENTRO =         0.01523019
  eigenvalues    EBANDS =      -890.01077048
  atomic energy  EATOM  =     18082.44932260
  Solvation  Ediel_sol  =         0.00000000
  ---------------------------------------------------
  free energy    TOTEN  =       -32.28595814 eV

  energy without entropy =      -32.30118833  energy(sigma->0) =      -32.29103487


--------------------------------------------------------------------------------------------------------




--------------------------------------- Iteration      1(  29)  ---------------------------------------


    POTLOK:  cpu time    3.0739: real time    3.1081
    SETDIJ:  cpu time    0.0261: real time    0.0261
     EDDAV:  cpu time    7.4625: real time    7.5483
       DOS:  cpu time    0.0047: real time    0.0047
    CHARGE:  cpu time    1.0606: real time    1.0614
    MIXING:  cpu time    0.2476: real time    0.2479
    --------------------------------------------
      LOOP:  cpu time   11.8755: real time   11.9965

 eigenvalue-minimisations  :   296
 total energy-change (2. order) :-0.1543617E-02  (-0.1705827E-04)
 number of electron     143.0000386 magnetization       0.6066867
 augmentation part       91.8396933 magnetization       0.0580056

 Broyden mixing:
  rms(total) = 0.20119E-02    rms(broyden)= 0.20094E-02
  rms(prec ) = 0.23138E-02
  weight for this iteration     100.00

 eigenvalues of (default mixing * dielectric matrix)
  average eigenvalue GAMMA=   1.7822
 14.4461  4.7161  4.7161  2.0290  2.0290  1.5655  1.5655  1.3130  1.3130  0.9395
  0.9395  0.7961  0.7961  0.6478  0.6478  0.6102  0.6102  0.4788  0.4788  0.4791
  0.4505  0.4064  0.4064  0.3920

 Free energy of the ion-electron system (eV)
  ---------------------------------------------------
  alpha Z        PSCENC =         9.16868266
  Ewald energy   TEWEN  =     25259.29182569
  -Hartree energ DENC   =    -41673.32220009
  -exchange      EXHF   =         0.00000000
  -V(xc)+E(xc)   XCENC  =       574.45039913
  PAW double counting   =     16685.76959578   -18079.66364271
  entropy T*S    EENTRO =         0.01439254
  eigenvalues    EBANDS =      -890.44587735
  atomic energy  EATOM  =     18082.44932260
  Solvation  Ediel_sol  =         0.00000000
  ---------------------------------------------------
  free energy    TOTEN  =       -32.28750176 eV

  energy without entropy =      -32.30189430  energy(sigma->0) =      -32.29229927


--------------------------------------------------------------------------------------------------------




--------------------------------------- Iteration      1(  30)  ---------------------------------------


    POTLOK:  cpu time    3.0850: real time    3.1160
    SETDIJ:  cpu time    0.0261: real time    0.0261
     EDDAV:  cpu time    7.2026: real time    7.2557
       DOS:  cpu time    0.0009: real time    0.0009
    CHARGE:  cpu time    1.0521: real time    1.0567
    MIXING:  cpu time    0.2625: real time    0.2627
    --------------------------------------------
      LOOP:  cpu time   11.6292: real time   11.7181

 eigenvalue-minimisations  :   280
[...]
     26      -6.4180      1.00000
     27      -6.3495      1.00000
     28      -6.2798      1.00000
     29      -6.2387      1.00000
     30      -6.1968      1.00000
     31      -6.1640      1.00000
     32      -6.1272      1.00000
     33      -6.1047      1.00000
     34      -6.0620      1.00000
     35      -6.0468      1.00000
     36      -5.9676      1.00000
     37      -5.9299      1.00000
     38      -5.8823      1.00000
     39      -5.8718      1.00000
     40      -5.8299      1.00000
     41      -5.8037      1.00000
     42      -5.7760      1.00000
     43      -5.7539      1.00000
     44      -5.7287      1.00000
     45      -5.7202      1.00000
     46      -5.6973      1.00000
     47      -5.6799      1.00000
     48      -5.6390      1.00000
     49      -5.6345      1.00000
     50      -5.5846      1.00000
     51      -5.5652      1.00000
     52      -5.5443      1.00000
     53      -5.5336      1.00000
     54      -5.4950      1.00000
     55      -5.4886      1.00000
     56      -5.4665      1.00000
     57      -5.4227      1.00000
     58      -5.4056      1.00000
     59      -5.3852      1.00000
     60      -5.3658      1.00000
     61      -5.3349      1.00000
     62      -5.3315      1.00000
     63      -5.3044      1.00000
     64      -5.2758      1.00000
     65      -5.2456      1.00000
     66      -5.2295      1.00000
     67      -5.1877      1.00000
     68      -5.1648      1.00000
     69      -4.9098      1.00000
     70      -4.7429      1.00007
     71      -4.5772      1.00361
     72      -4.1571      0.60444
     73      -3.3629     -0.00000
     74      -3.2199     -0.00000
     75      -2.6021     -0.00000
     76      -2.4187     -0.00000
     77      -2.3874     -0.00000
     78      -2.3033     -0.00000
     79      -1.8580     -0.00000
     80      -1.4308     -0.00000
     81      -1.2597     -0.00000
     82      -1.0206     -0.00000
     83      -0.8868     -0.00000
     84      -0.7049     -0.00000
     85      -0.3770     -0.00000
     86      -0.2204     -0.00000
     87      -0.1847     -0.00000
     88      -0.0041     -0.00000
     89       0.0842     -0.00000
     90       0.2318     -0.00000
     91       0.2483     -0.00000
     92       0.3100     -0.00000

 spin component 2

 k-point     1 :       0.0000    0.0000    0.0000
  band No.  band energies     occupation 
      1     -10.5341      1.00000
      2      -9.0045      1.00000
      3      -8.7580      1.00000
      4      -8.0303      1.00000
      5      -7.9055      1.00000
      6      -7.8580      1.00000
      7      -7.6795      1.00000
      8      -7.5062      1.00000
      9      -7.4614      1.00000
     10      -7.2849      1.00000
     11      -7.2342      1.00000
     12      -7.1856      1.00000
     13      -7.1308      1.00000
     14      -7.0715      1.00000
     15      -7.0585      1.00000
     16      -6.9752      1.00000
     17      -6.8828      1.00000
     18      -6.8603      1.00000
     19      -6.7648      1.00000
     20      -6.7336      1.00000
     21      -6.6601      1.00000
     22      -6.6223      1.00000
     23      -6.6020      1.00000
     24      -6.5427      1.00000
     25      -6.4439      1.00000
     26      -6.4128      1.00000
     27      -6.3416      1.00000
     28      -6.2707      1.00000
     29      -6.2328      1.00000
     30      -6.1916      1.00000
     31      -6.1584      1.00000
     32      -6.1213      1.00000
     33      -6.0955      1.00000
     34      -6.0543      1.00000
     35      -6.0376      1.00000
     36      -5.9606      1.00000
     37      -5.9215      1.00000
     38      -5.8762      1.00000
     39      -5.8656      1.00000
     40      -5.8246      1.00000
     41      -5.7978      1.00000
     42      -5.7691      1.00000
     43      -5.7481      1.00000
     44      -5.7228      1.00000
     45      -5.7144      1.00000
     46      -5.6927      1.00000
     47      -5.6727      1.00000
     48      -5.6351      1.00000
     49      -5.6270      1.00000
     50      -5.5790      1.00000
     51      -5.5592      1.00000
     52      -5.5362      1.00000
     53      -5.5282      1.00000
     54      -5.4867      1.00000
     55      -5.4819      1.00000
     56      -5.4616      1.00000
     57      -5.4151      1.00000
     58      -5.3989      1.00000
     59      -5.3778      1.00000
     60      -5.3590      1.00000
     61      -5.3301      1.00000
     62      -5.3250      1.00000
     63      -5.2976      1.00000
     64      -5.2685      1.00000
     65      -5.2398      1.00000
     66      -5.2247      1.00000
     67      -5.1804      1.00000
     68      -5.1567      1.00000
     69      -4.9012      1.00000
     70      -4.7342      1.00009
     71      -4.5708      1.00408
     72      -4.1054      0.38770
     73      -3.3530     -0.00000
     74      -3.2065     -0.00000
     75      -2.5859     -0.00000
     76      -2.4067     -0.00000
     77      -2.3641     -0.00000
     78      -2.2911     -0.00000
     79      -1.8042     -0.00000
     80      -1.4214     -0.00000
     81      -1.2438     -0.00000
     82      -0.9943     -0.00000
     83      -0.8602     -0.00000
     84      -0.6865     -0.00000
     85      -0.3500     -0.00000
     86      -0.1955     -0.00000
     87      -0.1558     -0.00000
     88       0.0491     -0.00000
     89       0.1083     -0.00000
     90       0.2871     -0.00000
     91       0.3040     -0.00000
     92       0.3502     -0.00000


--------------------------------------------------------------------------------------------------------


 soft charge-density along one line, spin component            1
         0         1         2         3         4         5         6         7         8         9
 total charge-density along one line
 
 soft charge-density along one line, spin component            2
         0         1         2         3         4         5         6         7         8         9
 total charge-density along one line
 
 pseudopotential strength for first ion, spin component:            1
-10.800  -0.002   0.002  -0.004  -0.009   1.228   0.002  -0.001
 -0.002 -10.776  -0.004  -0.004   0.008   0.002   1.211   0.002
  0.002  -0.004 -10.764  -0.004   0.002  -0.001   0.002   1.201
 -0.004  -0.004  -0.004 -10.769   0.002   0.003   0.002   0.003
 -0.009   0.008   0.002   0.002 -10.804   0.007  -0.005  -0.000
  1.228   0.002  -0.001   0.003   0.007   6.151   0.000  -0.001
  0.002   1.211   0.002   0.002  -0.005   0.000   6.160  -0.001
 -0.001   0.002   1.201   0.003  -0.000  -0.001  -0.001   6.167
  0.003   0.002   0.003   1.203  -0.001  -0.002  -0.001  -0.001
  0.007  -0.005  -0.000  -0.001   1.230  -0.005   0.003  -0.001
 -0.001  -0.000  -0.004   0.001  -0.002   0.002   0.001  -0.001
 -0.002  -0.001  -0.007   0.001  -0.004   0.004   0.002  -0.002
 -0.017  -0.005   0.003  -0.000   0.006   0.012   0.003  -0.003
 -0.000  -0.005  -0.007  -0.017  -0.001  -0.000   0.003   0.004
 -0.005  -0.000   0.009  -0.007  -0.016   0.004  -0.000  -0.006
 -0.018  -0.006   0.004  -0.000   0.006   0.012   0.003  -0.004
 -0.000  -0.005  -0.008  -0.018  -0.001  -0.000   0.003   0.003
 -0.005  -0.000   0.010  -0.007  -0.017   0.004  -0.000  -0.006
 pseudopotential strength for first ion, spin component:            2
-10.799  -0.002   0.002  -0.004  -0.008   1.226   0.001  -0.001
 -0.002 -10.773  -0.004  -0.002   0.010   0.001   1.208   0.002
  0.002  -0.004 -10.763  -0.004   0.002  -0.001   0.002   1.200
 -0.004  -0.002  -0.004 -10.767   0.002   0.003   0.001   0.003
 -0.008   0.010   0.002   0.002 -10.802   0.006  -0.007  -0.001
  1.226   0.001  -0.001   0.003   0.006   6.151   0.000  -0.001
  0.001   1.208   0.002   0.001  -0.007   0.000   6.161  -0.002
 -0.001   0.002   1.200   0.003  -0.001  -0.001  -0.002   6.167
  0.003   0.001   0.003   1.201  -0.002  -0.002  -0.000  -0.002
  0.006  -0.007  -0.001  -0.002   1.228  -0.005   0.004  -0.000
 -0.001   0.000  -0.004   0.001  -0.002   0.002   0.000  -0.001
 -0.002   0.000  -0.007   0.002  -0.004   0.003   0.000  -0.002
 -0.017  -0.005   0.003  -0.000   0.006   0.012   0.004  -0.003
 -0.000  -0.005  -0.008  -0.017  -0.001   0.000   0.004   0.005
 -0.005  -0.000   0.009  -0.007  -0.016   0.004   0.000  -0.007
 -0.018  -0.006   0.004  -0.000   0.007   0.012   0.004  -0.004
 -0.000  -0.005  -0.008  -0.019  -0.001  -0.000   0.004   0.004
 -0.005  -0.000   0.010  -0.008  -0.017   0.004  -0.000  -0.006
 total augmentation occupancy for first ion, spin component:            1
  1.946   0.001  -0.005   0.001  -0.013  -0.012   0.004   0.000  -0.003   0.008  -0.002   0.004   0.051  -0.007   0.029  -0.027
  0.001   1.939   0.000  -0.001   0.000   0.004  -0.015  -0.000  -0.000  -0.002  -0.007   0.007   0.036   0.033  -0.015  -0.010
 -0.005   0.000   1.945  -0.006  -0.001   0.000  -0.000  -0.020   0.004  -0.001  -0.003   0.002   0.001   0.023  -0.041   0.004
  0.001  -0.001  -0.006   1.954   0.003  -0.003  -0.000   0.004  -0.024  -0.001  -0.014  -0.004  -0.002   0.048   0.009   0.001
 -0.013   0.000  -0.001   0.003   1.941   0.008  -0.002  -0.001  -0.001  -0.009  -0.015   0.009  -0.014  -0.018   0.060   0.010
 -0.012   0.004   0.000  -0.003   0.008   0.010   0.002  -0.001  -0.001  -0.001   0.001  -0.003   0.026  -0.004   0.005  -0.001
  0.004  -0.015  -0.000  -0.000  -0.002   0.002   0.009   0.001   0.001  -0.000  -0.008  -0.000   0.008   0.013  -0.002  -0.000
  0.000  -0.000  -0.020   0.004  -0.001  -0.001   0.001   0.006   0.001  -0.000  -0.028   0.003  -0.007   0.007  -0.011   0.001
 -0.003  -0.000   0.004  -0.024  -0.001  -0.001   0.001   0.001   0.007   0.002   0.023  -0.003  -0.006   0.019   0.010   0.000
  0.008  -0.002  -0.001  -0.001  -0.009  -0.001  -0.000  -0.000   0.002   0.010  -0.011   0.000  -0.017   0.003   0.016   0.001
 -0.002  -0.007  -0.003  -0.014  -0.015   0.001  -0.008  -0.028   0.023  -0.011   1.637  -0.102   0.096   0.086   0.222  -0.014
  0.004   0.007   0.002  -0.004   0.009  -0.003  -0.000   0.003  -0.003   0.000  -0.102   0.012  -0.017  -0.011  -0.025   0.002
  0.051   0.036   0.001  -0.002  -0.014   0.026   0.008  -0.007  -0.006  -0.017   0.096  -0.017   0.140  -0.019  -0.004  -0.009
 -0.007   0.033   0.023   0.048  -0.018  -0.004   0.013   0.007   0.019   0.003   0.086  -0.011  -0.019   0.092   0.022   0.000
  0.029  -0.015  -0.041   0.009   0.060   0.005  -0.002  -0.011   0.010   0.016   0.222  -0.025  -0.004   0.022   0.097  -0.001
 -0.027  -0.010   0.004   0.001   0.010  -0.001  -0.000   0.001   0.000   0.001  -0.014   0.002  -0.009   0.000  -0.001   0.001
  0.001  -0.011  -0.012  -0.027   0.000   0.000  -0.001  -0.000  -0.001  -0.000  -0.011   0.001   0.000  -0.006  -0.002   0.000
 -0.008   0.001   0.015  -0.010  -0.026  -0.000   0.000   0.001  -0.001  -0.001  -0.028   0.002  -0.001  -0.002  -0.009   0.000
 total augmentation occupancy for first ion, spin component:            2
  0.000   0.001  -0.000   0.001   0.000   0.001  -0.000  -0.000  -0.000  -0.000   0.003   0.001  -0.001  -0.001  -0.001  -0.000
  0.001   0.001   0.000   0.001   0.001  -0.000   0.000  -0.000  -0.000  -0.000   0.005   0.001  -0.001  -0.002  -0.001  -0.000
 -0.000   0.000   0.000   0.000  -0.000  -0.000  -0.000   0.001   0.000  -0.000   0.000  -0.000  -0.000  -0.001   0.000  -0.000
  0.001   0.001   0.000   0.001   0.001  -0.000  -0.000   0.000   0.001  -0.000   0.004   0.001  -0.000  -0.002  -0.002  -0.000
  0.000   0.001  -0.000   0.001   0.001  -0.000  -0.000  -0.000  -0.000   0.000   0.004   0.001   0.000  -0.001  -0.002   0.000
  0.001  -0.000  -0.000  -0.000  -0.000  -0.000   0.000   0.000   0.000   0.000  -0.001  -0.000  -0.000   0.000   0.000   0.000
 -0.000   0.000  -0.000  -0.000  -0.000   0.000   0.000  -0.000   0.000   0.000  -0.001  -0.000  -0.000   0.000   0.000   0.000
 -0.000  -0.000   0.001   0.000  -0.000   0.000  -0.000  -0.000  -0.000   0.000   0.000  -0.000   0.000  -0.000   0.000  -0.000
 -0.000  -0.000   0.000   0.001  -0.000   0.000   0.000  -0.000  -0.000   0.000  -0.001  -0.000   0.000   0.000   0.000   0.000
 -0.000  -0.000  -0.000  -0.000   0.000   0.000   0.000   0.000   0.000   0.000  -0.001  -0.000  -0.000   0.000   0.000   0.000
  0.003   0.005   0.000   0.004   0.004  -0.001  -0.001   0.000  -0.001  -0.001   0.029   0.001   0.000  -0.009  -0.006  -0.000
  0.001   0.001  -0.000   0.001   0.001  -0.000  -0.000  -0.000  -0.000  -0.000   0.001   0.000  -0.000  -0.000  -0.000  -0.000
 -0.001  -0.001  -0.000  -0.000   0.000  -0.000  -0.000   0.000   0.000  -0.000   0.000  -0.000   0.000  -0.000  -0.000   0.000
 -0.001  -0.002  -0.001  -0.002  -0.001   0.000   0.000  -0.000   0.000   0.000  -0.009  -0.000  -0.000   0.002   0.001   0.000
 -0.001  -0.001   0.000  -0.002  -0.002   0.000   0.000   0.000   0.000   0.000  -0.006  -0.000  -0.000   0.001   0.001   0.000
 -0.000  -0.000  -0.000  -0.000   0.000   0.000   0.000  -0.000   0.000   0.000  -0.000  -0.000   0.000   0.000   0.000   0.000
 -0.000  -0.000  -0.000  -0.000  -0.000   0.000  -0.000  -0.000  -0.000  -0.000   0.000  -0.000   0.000   0.000   0.000   0.000
 -0.000  -0.000   0.000  -0.000  -0.000   0.000   0.000   0.000   0.000  -0.000  -0.000  -0.000   0.000   0.000   0.000   0.000


------------------------ aborting loop because EDIFF is reached ----------------------------------------


    CHARGE:  cpu time    1.1883: real time    1.2019
    FORLOC:  cpu time    0.1180: real time    0.1181
    FORNL :  cpu time    4.5404: real time    4.5722
    FORCOR:  cpu time    3.4696: real time    3.5072
    FORHAR:  cpu time    0.4829: real time    0.4836
    MIXING:  cpu time    0.0597: real time    0.0599
    OFIELD:  cpu time    0.0000: real time    0.0000

 VOLUME and BASIS-vectors are now :
 -----------------------------------------------------------------------------
  energy-cutoff  :      400.00
  volume of cell :    13480.06
      direct lattice vectors                 reciprocal lattice vectors
    23.294921882  0.000000000  0.000000000     0.042927811  0.000000000  0.000000000
     0.000000000 24.184177947  0.000000000     0.000000000  0.041349348  0.000000000
     0.000000000  0.000000000 23.927614226     0.000000000  0.000000000  0.041792717

  length of vectors
    23.294921882 24.184177947 23.927614226     0.042927811  0.041349348  0.041792717


 FORCES acting on ions
    electron-ion (+dipol)            ewald-force                    non-local-force                 convergence-correction
 -----------------------------------------------------------------------------------------------
   0.112E+04 0.604E+03 0.552E+03   -.111E+04 -.602E+03 -.549E+03   -.729E+01 -.218E+01 -.275E+01   -.165E+00 0.598E-01 -.172E-01
   0.121E+04 -.618E+03 -.239E+03   -.120E+04 0.614E+03 0.238E+03   -.630E+01 0.292E+01 0.531E+00   -.221E-01 0.168E+00 0.128E+00
   -.352E+03 0.267E+03 0.106E+04   0.353E+03 -.267E+03 -.106E+04   -.124E+01 -.329E+00 -.305E+01   -.219E-01 -.564E-01 0.376E-01
   -.126E+04 -.273E+03 0.206E+03   0.126E+04 0.271E+03 -.205E+03   0.505E+01 0.235E+01 -.142E+01   0.302E-01 0.631E-01 0.421E-01
   -.779E+02 -.109E+04 0.707E+03   0.767E+02 0.109E+04 -.704E+03   0.112E+01 0.318E+01 -.291E+01   0.813E-01 -.358E-01 -.542E-01
   0.756E+03 0.305E+03 -.806E+03   -.755E+03 -.302E+03 0.804E+03   -.857E+00 -.272E+01 0.166E+01   -.108E-04 0.660E-01 0.178E-01
   0.235E+03 -.804E+03 -.100E+04   -.234E+03 0.800E+03 0.100E+04   -.468E+00 0.361E+01 0.383E+01   0.379E-01 -.246E-01 0.406E-01
   -.620E+03 -.114E+04 -.221E+03   0.614E+03 0.113E+04 0.218E+03   0.594E+01 0.953E+01 0.329E+01   0.140E-01 -.355E-01 -.217E-01
   -.688E+03 0.137E+02 -.121E+04   0.684E+03 -.150E+02 0.121E+04   0.414E+01 0.124E+01 0.706E+01   -.906E-01 0.814E-01 0.904E-01
   -.116E+03 0.106E+04 -.869E+03   0.116E+03 -.106E+04 0.862E+03   -.355E+00 -.674E+01 0.715E+01   0.100E-01 -.664E-01 -.632E-01
   0.598E+03 -.407E+03 0.118E+04   -.593E+03 0.406E+03 -.117E+04   -.409E+01 0.126E+01 -.965E+01   -.554E-01 -.795E-01 0.736E-01
   0.289E+03 0.130E+04 0.367E+03   -.288E+03 -.129E+04 -.363E+03   -.647E+00 -.753E+01 -.361E+01   0.109E+00 0.141E+00 -.175E+00
   -.109E+04 0.782E+03 0.281E+03   0.108E+04 -.777E+03 -.281E+03   0.436E+01 -.490E+01 -.838E+00   0.152E+00 0.209E-01 0.226E-01
 -----------------------------------------------------------------------------------------------
   0.557E+00 -.302E-01 0.588E+00   0.000E+00 0.000E+00 0.568E-12   -.624E+00 -.306E+00 -.693E+00   0.801E-01 0.302E+00 0.122E+00
 
 
 POSITION                                       TOTAL-FORCE (eV/Angst)
 -----------------------------------------------------------------------------------
      9.62022     10.98780     11.65122         0.010235      0.020550     -0.000663
      9.93260     13.13910     12.71491         0.006581      0.012687      0.000572
     11.83149     11.83896     11.53455        -0.005691      0.006746      0.014220
     13.62659     12.91774     12.86538         0.015825     -0.012617      0.006999
     11.82696     14.30970     11.76151         0.000388     -0.013388     -0.001988
     10.98764     11.30633     13.88467        -0.004131     -0.006161     -0.004785
     11.77870     13.62426     14.18824         0.012815      0.003870     -0.000884
     13.32783     15.27298     13.33776        -0.010505      0.006785     -0.003022
     13.08500     11.71362     15.04708        -0.011173     -0.011014     -0.009526
     12.21391      9.39028     14.78315         0.005986     -0.012943     -0.017207
     10.17085     13.17022     10.35275        -0.012739     -0.021030      0.014529
     11.19193      9.36824     12.52651        -0.006563      0.019988     -0.007540
     13.26216     10.54559     12.96643        -0.001028      0.006527      0.009295
 -----------------------------------------------------------------------------------
    total drift:                                0.012129     -0.034487      0.016377


--------------------------------------------------------------------------------------------------------



  FREE ENERGIE OF THE ION-ELECTRON SYSTEM (eV)
  ---------------------------------------------------
  free  energy   TOTEN  =       -33.13327420 eV

  energy  without entropy=      -33.08350720  energy(sigma->0) =      -33.11668520
 
 d Force =-0.2116105E-06[-0.428E-06, 0.473E-08]  d Energy =-0.5414128E-04 0.539E-04
 d Force =-0.9722744E-02[-0.972E-02,-0.972E-02]  d Ewald  =-0.9722744E-02-0.172E-09


--------------------------------------------------------------------------------------------------------


    POTLOK:  cpu time    3.5538: real time    3.6060


--------------------------------------------------------------------------------------------------------




--------------------------------------------------------------------------------------------------------


  
 reached required accuracy - stopping structural energy minimisation
     LOOP+:  cpu time   37.3347: real time   38.0478
    4ORBIT:  cpu time    0.0000: real time    0.0000

 total amount of memory used by VASP MPI-rank0   286140. kBytes
=======================================================================

   base      :      30000. kBytes
   nonl-proj :       5388. kBytes
   fftplans  :      63039. kBytes
   grid      :     142560. kBytes
   one-center:         31. kBytes
   wavefun   :      45122. kBytes
 
  
  
 General timing and accounting informations for this job:
 ========================================================
  
                  Total CPU time used (sec):     6136.984
                            User time (sec):     6097.397
                          System time (sec):       39.588
                         Elapsed time (sec):     6308.614
  
                   Maximum memory used (kb):      563912.
                   Average memory used (kb):           0.
  
                          Minor page faults:     17006872
                          Major page faults:           11
                 Voluntary context switches:         1438
