unknown system                          
            1
    23.294922    0.000000    0.000000
     0.000000   24.184178    0.000000
     0.000000    0.000000   23.927614
   Cu
    13
Direct configuration=     1
   0.41091073  0.45402614  0.48775978
   0.41236525  0.54732167  0.52473032
   0.50594135  0.49296179  0.51169227
   0.60157973  0.53098847  0.50897926
   0.50961658  0.59200088  0.49965272
   0.44760107  0.46829676  0.59011954
   0.48117211  0.56622956  0.59696680
   0.57781924  0.59977994  0.57831727
   0.56043372  0.50135000  0.60107341
   0.52874831  0.40701150  0.61546395
   0.45390665  0.53241955  0.43324051
   0.48577719  0.39369490  0.52508317
   0.58589632  0.42994940  0.53197202
Direct configuration=     2
   0.41126660  0.45381428  0.48798231
   0.41341321  0.54692137  0.52469303
   0.50563686  0.49272824  0.51114732
   0.60122157  0.53038150  0.50975373
   0.50940224  0.59231722  0.49983397
   0.44776797  0.46832777  0.58938782
   0.48130219  0.56616419  0.59630214
   0.57757627  0.59988619  0.57813789
   0.56097808  0.50120952  0.60097919
   0.52884097  0.40684445  0.61535251
   0.45360005  0.53291246  0.43371059
   0.48524650  0.39367206  0.52550362
   0.58551575  0.43085129  0.53226689
Direct configuration=     3
   0.41212642  0.45330240  0.48851998
   0.41594526  0.54595417  0.52460293
   0.50490118  0.49216396  0.50983066
   0.60035621  0.52891498  0.51162497
   0.50888436  0.59308155  0.50027191
   0.44817120  0.46840269  0.58761986
   0.48161647  0.56600623  0.59469622
   0.57698922  0.60014293  0.57770450
   0.56229333  0.50087011  0.60075154
   0.52906485  0.40644084  0.61508326
   0.45285925  0.53410340  0.43484638
   0.48396426  0.39361686  0.52651949
   0.58459625  0.43303042  0.53297932
Direct configuration=     4
   0.41194715  0.45340912  0.48840788
   0.41541734  0.54615583  0.52462172
   0.50505457  0.49228161  0.51010517
   0.60053663  0.52922074  0.51123482
   0.50899234  0.59292219  0.50018060
   0.44808713  0.46838707  0.58798847
   0.48155094  0.56603916  0.59503105
   0.57711162  0.60008940  0.57779486
   0.56201911  0.50094088  0.60079900
   0.52901817  0.40652499  0.61513940
   0.45301370  0.53385510  0.43460957
   0.48423160  0.39362837  0.52630769
   0.58478796  0.43257608  0.53283078
Direct configuration=     5
   0.41175027  0.45294600  0.48824745
   0.41551457  0.54594262  0.52470746
   0.50535247  0.49222026  0.50906307
   0.60041808  0.52916748  0.51181993
   0.50902696  0.59342098  0.50010973
   0.44818969  0.46823475  0.58768716
   0.48227233  0.56591727  0.59497993
   0.57699214  0.60046255  0.57763631
   0.56218488  0.50113633  0.60142882
   0.52914559  0.40623380  0.61519089
   0.45258399  0.53460441  0.43430561
   0.48384107  0.39308463  0.52688748
   0.58449621  0.43265947  0.53298718
Direct configuration=     6
   0.41115964  0.45155664  0.48776615
   0.41580627  0.54530299  0.52496468
   0.50624618  0.49203619  0.50593674
   0.60006245  0.52900770  0.51357526
   0.50913083  0.59491735  0.49989710
   0.44849737  0.46777781  0.58678323
   0.48443648  0.56555159  0.59482660
   0.57663370  0.60158200  0.57716067
   0.56268221  0.50172270  0.60331827
   0.52952785  0.40536023  0.61534535
   0.45129485  0.53685233  0.43339374
   0.48266946  0.39145340  0.52862687
   0.58362098  0.43290962  0.53345636
Direct configuration=     7
   0.41129454  0.45129703  0.48757985
   0.41615133  0.54489683  0.52509882
   0.50567173  0.49186275  0.50476938
   0.60017403  0.52940881  0.51407391
   0.50901326  0.59514611  0.49963649
   0.44923022  0.46777263  0.58620631
   0.48469684  0.56516346  0.59466024
   0.57703776  0.60245411  0.57704284
   0.56269738  0.50146410  0.60410170
   0.52973065  0.40515919  0.61566282
   0.45076360  0.53784796  0.43325677
   0.48221869  0.39098290  0.52912768
   0.58308822  0.43257467  0.53383422
Direct configuration=     8
   0.41147613  0.45094757  0.48732908
   0.41661583  0.54435009  0.52527938
   0.50489846  0.49162927  0.50319797
   0.60032423  0.52994875  0.51474516
   0.50885500  0.59545405  0.49928567
   0.45021673  0.46776565  0.58542969
   0.48504732  0.56464099  0.59443629
   0.57758169  0.60362810  0.57688422
   0.56271781  0.50111599  0.60515630
   0.53000365  0.40488856  0.61609018
   0.45004847  0.53918821  0.43307239
   0.48161190  0.39034954  0.52980184
   0.58237105  0.43212379  0.53434285
Direct configuration=     9
   0.41168029  0.45082705  0.48697679
   0.41682900  0.54401318  0.52529681
   0.50508256  0.49143755  0.50206987
   0.59964422  0.53005157  0.51555778
   0.50883983  0.59517041  0.49924790
   0.45166682  0.46772477  0.58513646
   0.48552371  0.56440490  0.59407409
   0.57779054  0.60459361  0.57671406
   0.56270774  0.50062667  0.60545386
   0.53009711  0.40462386  0.61686658
   0.44931893  0.54040224  0.43289216
   0.48132887  0.38991517  0.53006693
   0.58125862  0.43223957  0.53469772
Direct configuration=    10
   0.41229278  0.45046549  0.48591994
   0.41746854  0.54300246  0.52534909
   0.50563486  0.49086238  0.49868557
   0.59760420  0.53036005  0.51799565
   0.50879431  0.59431948  0.49913459
   0.45601707  0.46760213  0.58425677
   0.48695287  0.56369663  0.59298748
   0.57841710  0.60749013  0.57620360
   0.56267755  0.49915869  0.60634654
   0.53037751  0.40382979  0.61919580
   0.44713030  0.54404435  0.43235148
   0.48047981  0.38861208  0.53086217
   0.57792135  0.43258690  0.53576233
Direct configuration=    11
   0.41248242  0.45035354  0.48559272
   0.41766655  0.54268952  0.52536528
   0.50580586  0.49068430  0.49763773
   0.59697256  0.53045556  0.51875046
   0.50878022  0.59405602  0.49909950
   0.45736400  0.46756415  0.58398440
   0.48739536  0.56347733  0.59265105
   0.57861110  0.60838695  0.57604555
   0.56266820  0.49870417  0.60662294
   0.53046433  0.40358393  0.61991697
   0.44645266  0.54517202  0.43218407
   0.48021692  0.38820861  0.53110840
   0.57688806  0.43269444  0.53609196
Direct configuration=    12
   0.41269509  0.45031565  0.48539641
   0.41776646  0.54238322  0.52536739
   0.50570507  0.49068687  0.49658636
   0.59649243  0.53057910  0.51922145
   0.50888319  0.59388772  0.49905392
   0.45831655  0.46752144  0.58389693
   0.48793155  0.56352468  0.59249016
   0.57854207  0.60897900  0.57589648
   0.56262638  0.49855278  0.60710694
   0.53043460  0.40322286  0.62048165
   0.44602010  0.54593843  0.43208694
   0.48012625  0.38787258  0.53125232
   0.57622849  0.43256622  0.53621408
Direct configuration=    13
   0.41333311  0.45020199  0.48480747
   0.41806621  0.54146431  0.52537371
   0.50540271  0.49069458  0.49343227
   0.59505203  0.53094974  0.52063440
   0.50919210  0.59338280  0.49891718
   0.46117418  0.46739329  0.58363451
   0.48954009  0.56366673  0.59200748
   0.57833501  0.61075516  0.57544930
   0.56250093  0.49809859  0.60855894
   0.53034541  0.40213967  0.62217569
   0.44472243  0.54823764  0.43179555
   0.47985425  0.38686450  0.53168407
   0.57424978  0.43218156  0.53658045
Direct configuration=    14
   0.41460915  0.44997466  0.48362958
   0.41866570  0.53962649  0.52538637
   0.50479799  0.49071000  0.48712409
   0.59217123  0.53169101  0.52346031
   0.50980991  0.59237298  0.49864369
   0.46688945  0.46713698  0.58310968
   0.49275719  0.56395082  0.59104212
   0.57792089  0.61430747  0.57455492
   0.56225001  0.49719022  0.61146296
   0.53016703  0.39997329  0.62556377
   0.44212708  0.55283607  0.43121277
   0.47931026  0.38484832  0.53254757
   0.57029236  0.43141223  0.53731319
Direct configuration=    15
   0.41486311  0.44970446  0.48340960
   0.41904366  0.53916560  0.52556756
   0.50477258  0.49079142  0.48538877
   0.59127434  0.53174175  0.52416630
   0.50996274  0.59228524  0.49832508
   0.46824731  0.46711201  0.58274680
   0.49348551  0.56410579  0.59086949
   0.57777821  0.61536948  0.57425165
   0.56247408  0.49677722  0.61266744
   0.53010931  0.39932096  0.62621545
   0.44152949  0.55396815  0.43110432
   0.47909236  0.38425564  0.53276218
   0.56913555  0.43143280  0.53757638
Direct configuration=    16
   0.41562502  0.44889387  0.48274963
   0.42017755  0.53778293  0.52611114
   0.50469633  0.49103570  0.48018281
   0.58858368  0.53189395  0.52628428
   0.51042122  0.59202204  0.49736926
   0.47232088  0.46703712  0.58165818
   0.49567045  0.56457068  0.59035161
   0.57735018  0.61855553  0.57334181
   0.56314629  0.49553825  0.61628090
   0.52993614  0.39736398  0.62817050
   0.43973672  0.55736440  0.43077897
   0.47843864  0.38247760  0.53340599
   0.56566515  0.43149449  0.53836593
Direct configuration=    17
   0.41566453  0.44833625  0.48285758
   0.42094801  0.53752537  0.52632843
   0.50500202  0.49127490  0.47901110
   0.58763647  0.53164005  0.52698915
   0.51034494  0.59230418  0.49669520
   0.47278620  0.46709138  0.58086387
   0.49609405  0.56453125  0.59039708
   0.57727363  0.61948051  0.57285478
   0.56389185  0.49499674  0.61779375
   0.52988004  0.39690341  0.62807741
   0.43948013  0.55791405  0.43095202
   0.47793287  0.38191309  0.53356293
   0.56483350  0.43211937  0.53866774
Direct configuration=    18
   0.41572923  0.44742297  0.48303436
   0.42220988  0.53710353  0.52668430
   0.50550270  0.49166667  0.47709207
   0.58608513  0.53122420  0.52814358
   0.51022001  0.59276629  0.49559121
   0.47354830  0.46718024  0.57956294
   0.49678783  0.56446667  0.59047154
   0.57714827  0.62099545  0.57205711
   0.56511294  0.49410984  0.62027151
   0.52978815  0.39614907  0.62792494
   0.43905989  0.55881426  0.43123544
   0.47710452  0.38098853  0.53381996
   0.56347141  0.43314281  0.53916205
Direct configuration=    19
   0.41585863  0.44559642  0.48338794
   0.42473362  0.53625985  0.52739604
   0.50650405  0.49245020  0.47325401
   0.58298244  0.53039251  0.53045245
   0.50997015  0.59369049  0.49338324
   0.47507250  0.46735796  0.57696107
   0.49817538  0.56433751  0.59062048
   0.57689754  0.62402533  0.57046177
   0.56755512  0.49233606  0.62522704
   0.52960438  0.39464040  0.62762001
   0.43821941  0.56061469  0.43180228
   0.47544781  0.37913941  0.53433404
   0.56074723  0.43518970  0.54015067
Direct configuration=    20
   0.41576839  0.44687028  0.48314135
   0.42297354  0.53684824  0.52689967
   0.50580570  0.49190375  0.47593071
   0.58514629  0.53097254  0.52884222
   0.51014441  0.59304594  0.49492310
   0.47400950  0.46723401  0.57877564
   0.49720769  0.56442759  0.59051661
   0.57707240  0.62191226  0.57157437
   0.56585192  0.49357312  0.62177100
   0.52973254  0.39569256  0.62783267
   0.43880557  0.55935905  0.43140696
   0.47660322  0.38042900  0.53397552
   0.56264710  0.43376218  0.53946120
Direct configuration=    21
   0.41603783  0.44665773  0.48367828
   0.42346378  0.53705341  0.52659742
   0.50573866  0.49208374  0.47580571
   0.58454395  0.53116304  0.52967935
   0.51012589  0.59350028  0.49492295
   0.47353050  0.46732389  0.57855049
   0.49796127  0.56410114  0.59065607
   0.57683069  0.62194023  0.57079997
   0.56592612  0.49319540  0.62231765
   0.52955343  0.39584728  0.62690743
   0.43888871  0.55890959  0.43157950
   0.47630928  0.38013107  0.53413304
   0.56285815  0.43412373  0.53942316
Direct configuration=    22
   0.41684615  0.44602010  0.48528906
   0.42493449  0.53766890  0.52569067
   0.50553754  0.49262369  0.47543071
   0.58273696  0.53173455  0.53219074
   0.51007034  0.59486332  0.49492251
   0.47209347  0.46759352  0.57787505
   0.50022203  0.56312178  0.59107446
   0.57610555  0.62202414  0.56847677
   0.56614872  0.49206227  0.62395758
   0.52901609  0.39631141  0.62413172
   0.43913814  0.55756120  0.43209711
   0.47542748  0.37923729  0.53460560
   0.56349130  0.43520836  0.53930904
Direct configuration=    23
   0.41707716  0.44597891  0.48625006
   0.42523875  0.53854794  0.52595562
   0.50609165  0.49273319  0.47577152
   0.58230282  0.53177768  0.53288212
   0.50963728  0.59544769  0.49483652
   0.47166365  0.46730003  0.57788349
   0.50058396  0.56231191  0.59144868
   0.57637115  0.62325332  0.56749692
   0.56574941  0.49117007  0.62459988
   0.52851107  0.39610084  0.62303997
   0.43932680  0.55689073  0.43127045
   0.47567633  0.37912911  0.53499387
   0.56353821  0.43538912  0.53862191
Direct configuration=    24
   0.41733581  0.44593279  0.48732603
   0.42557940  0.53953213  0.52625227
   0.50671204  0.49285579  0.47615310
   0.58181675  0.53182598  0.53365620
   0.50915242  0.59610197  0.49474025
   0.47118241  0.46697143  0.57789293
   0.50098919  0.56140515  0.59186768
   0.57666852  0.62462954  0.56639985
   0.56530233  0.49017115  0.62531902
   0.52794564  0.39586507  0.62181760
   0.43953803  0.55614005  0.43034490
   0.47595496  0.37900799  0.53542858
   0.56359074  0.43559150  0.53785259
Direct configuration=    25
   0.41756918  0.44664285  0.48833833
   0.42581318  0.54042752  0.52622149
   0.50665047  0.49325858  0.47639894
   0.58207775  0.53261378  0.53422986
   0.50847270  0.59609320  0.49484552
   0.47083248  0.46694539  0.57806386
   0.50167602  0.56172752  0.59203313
   0.57639010  0.62579932  0.56541869
   0.56460816  0.48887490  0.62564022
   0.52766646  0.39474047  0.62173776
   0.44001445  0.55509355  0.42968134
   0.47641125  0.37853560  0.53528282
   0.56358604  0.43527786  0.53715906
Direct configuration=    26
   0.41781900  0.44740299  0.48942203
   0.42606344  0.54138606  0.52618853
   0.50658456  0.49368978  0.47666212
   0.58235717  0.53345714  0.53484398
   0.50774503  0.59608382  0.49495821
   0.47045787  0.46691750  0.57824685
   0.50241130  0.56207263  0.59221024
   0.57609205  0.62705161  0.56436832
   0.56386502  0.48748723  0.62598408
   0.52736759  0.39353654  0.62165229
   0.44052448  0.55397323  0.42897097
   0.47689973  0.37802990  0.53512678
   0.56358101  0.43494210  0.53641661
Direct configuration=    27
   0.41764436  0.44802436  0.48977437
   0.42601614  0.54169317  0.52630512
   0.50704092  0.49407664  0.47715008
   0.58280924  0.53310448  0.53514074
   0.50758070  0.59603430  0.49482235
   0.47107871  0.46703224  0.57848254
   0.50279005  0.56265830  0.59227834
   0.57535795  0.62792366  0.56371734
   0.56322649  0.48652793  0.62523448
   0.52745432  0.39252302  0.62187342
   0.44065295  0.55315333  0.42888018
   0.47693593  0.37801215  0.53440913
   0.56318050  0.43526697  0.53698294
Direct configuration=    28
   0.41757046  0.44828727  0.48992346
   0.42599613  0.54182312  0.52635445
   0.50723402  0.49424032  0.47735655
   0.58300052  0.53295526  0.53526631
   0.50751118  0.59601335  0.49476486
   0.47134140  0.46708078  0.57858226
   0.50295030  0.56290611  0.59230715
   0.57504733  0.62829264  0.56344190
   0.56295632  0.48612203  0.62491730
   0.52749101  0.39209418  0.62196699
   0.44070730  0.55280640  0.42884176
   0.47695125  0.37800464  0.53410547
   0.56301104  0.43540443  0.53722257
Direct configuration=    29
   0.41747891  0.44895062  0.48983323
   0.42604495  0.54174992  0.52688850
   0.50749075  0.49437214  0.47782628
   0.58358182  0.53333456  0.53559105
   0.50770612  0.59591825  0.49437296
   0.47156329  0.46710049  0.57853738
   0.50305259  0.56313204  0.59217233
   0.57431732  0.62879493  0.56276214
   0.56293041  0.48598813  0.62497429
   0.52742089  0.39098738  0.62181821
   0.44047678  0.55205566  0.42906893
   0.47684238  0.37867198  0.53340703
   0.56286204  0.43497442  0.53779868
Direct configuration=    30
   0.41739722  0.44954257  0.48975273
   0.42608851  0.54168461  0.52736505
   0.50771984  0.49448976  0.47824544
   0.58410054  0.53367302  0.53588083
   0.50788008  0.59583338  0.49402326
   0.47176129  0.46711808  0.57849733
   0.50314386  0.56333364  0.59205202
   0.57366590  0.62924315  0.56215556
   0.56290729  0.48586865  0.62502515
   0.52735833  0.38999975  0.62168546
   0.44027108  0.55138575  0.42927165
   0.47674523  0.37926748  0.53278379
   0.56272908  0.43459071  0.53831276
Direct configuration=    31
   0.41720584  0.45010582  0.48925298
   0.42615146  0.54194374  0.52782240
   0.50810177  0.49438268  0.47876637
   0.58440846  0.53375485  0.53620667
   0.50784374  0.59557049  0.49344405
   0.47181259  0.46706981  0.57870992
   0.50324375  0.56318333  0.59193004
   0.57329779  0.62977945  0.56174297
   0.56298458  0.48583806  0.62537821
   0.52716756  0.38953602  0.62133028
   0.43986610  0.55060784  0.42971271
   0.47649818  0.37974700  0.53223107
   0.56318642  0.43451145  0.53852336
Direct configuration=    32
   0.41663171  0.45179559  0.48775374
   0.42634032  0.54272112  0.52919445
   0.50924757  0.49406146  0.48032918
   0.58533222  0.53400034  0.53718418
   0.50773471  0.59478182  0.49170641
   0.47196647  0.46692498  0.57934769
   0.50354343  0.56273242  0.59156409
   0.57219344  0.63138834  0.56050518
   0.56321646  0.48574628  0.62643741
   0.52659527  0.38814484  0.62026474
   0.43865117  0.54827413  0.43103587
   0.47575703  0.38118555  0.53057293
   0.56455846  0.43427366  0.53915515
Direct configuration=    33
   0.41657903  0.45253902  0.48715639
   0.42628101  0.54288080  0.52956023
   0.50938393  0.49370269  0.48081894
   0.58549041  0.53415768  0.53758284
   0.50785336  0.59459420  0.49147120
   0.47198462  0.46680179  0.57951995
   0.50405167  0.56273207  0.59151646
   0.57173942  0.63156723  0.55999837
   0.56314853  0.48542750  0.62669695
   0.52640225  0.38812933  0.61977239
   0.43812147  0.54728226  0.43144340
   0.47565846  0.38180006  0.52999283
   0.56507409  0.43441591  0.53952107
Direct configuration=    34
   0.41642102  0.45476930  0.48536432
   0.42610309  0.54335983  0.53065757
   0.50979300  0.49262637  0.48228823
   0.58596499  0.53462970  0.53877880
   0.50820928  0.59403135  0.49076555
   0.47203906  0.46643224  0.58003675
   0.50557639  0.56273102  0.59137357
   0.57037735  0.63210391  0.55847795
   0.56294473  0.48447115  0.62747560
   0.52582322  0.38808282  0.61829532
   0.43653237  0.54430662  0.43266600
   0.47536277  0.38364359  0.52825252
   0.56662098  0.43484266  0.54061885
Direct configuration=    35
   0.41648397  0.45388077  0.48607826
   0.42617397  0.54316899  0.53022040
   0.50963003  0.49305517  0.48170288
   0.58577592  0.53444165  0.53830234
   0.50806748  0.59425558  0.49104667
   0.47201738  0.46657946  0.57983086
   0.50496895  0.56273144  0.59143049
   0.57091999  0.63189010  0.55908367
   0.56302592  0.48485215  0.62716539
   0.52605390  0.38810135  0.61888377
   0.43716545  0.54549209  0.43217893
   0.47548057  0.38290914  0.52894584
   0.56600471  0.43467264  0.54018150
Direct configuration=    36
   0.41633645  0.45425637  0.48573018
   0.42630144  0.54327418  0.53061864
   0.50958253  0.49276783  0.48196267
   0.58596386  0.53440263  0.53830933
   0.50788952  0.59380815  0.49105133
   0.47185731  0.46693032  0.57981552
   0.50519830  0.56268116  0.59170460
   0.57086947  0.63203769  0.55875898
   0.56284499  0.48445706  0.62735758
   0.52592926  0.38819080  0.61876574
   0.43683217  0.54480613  0.43227686
   0.47575333  0.38353227  0.52831474
   0.56640963  0.43488593  0.54038485
Direct configuration=    37
   0.41598632  0.45514781  0.48490403
   0.42660397  0.54352385  0.53156381
   0.50946977  0.49208587  0.48257926
   0.58640992  0.53431002  0.53832591
   0.50746713  0.59274622  0.49106238
   0.47147742  0.46776304  0.57977911
   0.50574264  0.56256185  0.59235517
   0.57074957  0.63238799  0.55798837
   0.56241555  0.48351936  0.62781373
   0.52563346  0.38840311  0.61848561
   0.43604116  0.54317809  0.43250928
   0.47640068  0.38501118  0.52681689
   0.56737066  0.43539215  0.54086747
Direct configuration=    38
   0.41537930  0.45457147  0.48516160
   0.42626304  0.54381505  0.53123951
   0.50959629  0.49197847  0.48232668
   0.58621055  0.53449887  0.53825562
   0.50746252  0.59260995  0.49124794
   0.47161833  0.46711145  0.58004715
   0.50609407  0.56287860  0.59253331
   0.57081151  0.63215128  0.55789956
   0.56239893  0.48390452  0.62805557
   0.52531555  0.38827350  0.61843073
   0.43615794  0.54355577  0.43240217
   0.47705983  0.38548727  0.52668473
   0.56740039  0.43519435  0.54076645
Direct configuration=    39
   0.41540713  0.45459790  0.48514979
   0.42627867  0.54380170  0.53125438
   0.50959049  0.49198339  0.48233826
   0.58621969  0.53449021  0.53825884
   0.50746273  0.59261619  0.49123944
   0.47161187  0.46714133  0.58003486
   0.50607796  0.56286407  0.59252514
   0.57080867  0.63216214  0.55790364
   0.56239969  0.48388686  0.62804448
   0.52533013  0.38827945  0.61843325
   0.43615259  0.54353845  0.43240708
   0.47702961  0.38546544  0.52669079
   0.56739903  0.43520342  0.54077109
Direct configuration=    40
   0.41500572  0.45437373  0.48554107
   0.42631637  0.54368027  0.53115886
   0.50922601  0.49169502  0.48213292
   0.58604671  0.53441370  0.53814609
   0.50740487  0.59243655  0.49139946
   0.47162232  0.46735383  0.58015727
   0.50597902  0.56285502  0.59266958
   0.57106170  0.63213403  0.55780365
   0.56232072  0.48415076  0.62813964
   0.52509495  0.38811339  0.61848725
   0.43633330  0.54386856  0.43234448
   0.47769515  0.38570277  0.52618137
   0.56766140  0.43525290  0.54088938
Direct configuration=    41
   0.41447841  0.45407924  0.48605509
   0.42636590  0.54352077  0.53103339
   0.50874722  0.49131619  0.48186316
   0.58581948  0.53431320  0.53799797
   0.50732887  0.59220057  0.49160966
   0.47163606  0.46763299  0.58031808
   0.50584904  0.56284313  0.59285933
   0.57139408  0.63209712  0.55767230
   0.56221697  0.48449743  0.62826466
   0.52478602  0.38789525  0.61855820
   0.43657070  0.54430222  0.43226225
   0.47856944  0.38601455  0.52551218
   0.56800607  0.43531788  0.54104477
Direct configuration=    42
   0.41419352  0.45414236  0.48643424
   0.42637511  0.54327994  0.53105189
   0.50843085  0.49076002  0.48189721
   0.58553180  0.53415601  0.53786899
   0.50745296  0.59213866  0.49174540
   0.47171123  0.46758002  0.58027090
   0.50575213  0.56305040  0.59287050
   0.57157637  0.63194566  0.55757940
   0.56212185  0.48438572  0.62827546
   0.52462657  0.38808185  0.61837161
   0.43662469  0.54451295  0.43223831
   0.47914659  0.38640133  0.52504556
   0.56822459  0.43559561  0.54140156
Direct configuration=    43
   0.41394237  0.45419800  0.48676849
   0.42638322  0.54306763  0.53106821
   0.50815194  0.49026970  0.48192724
   0.58527818  0.53401744  0.53775529
   0.50756236  0.59208409  0.49186506
   0.47177750  0.46753333  0.58022930
   0.50566670  0.56323313  0.59288034
   0.57173707  0.63181213  0.55749751
   0.56203800  0.48428724  0.62828498
   0.52448599  0.38824635  0.61820712
   0.43667228  0.54469874  0.43221720
   0.47965540  0.38674231  0.52463419
   0.56841724  0.43584045  0.54171610
Direct configuration=    44
   0.41347826  0.45426961  0.48689982
   0.42640598  0.54308716  0.53114607
   0.50802380  0.48991077  0.48197382
   0.58504123  0.53405565  0.53767083
   0.50757271  0.59186107  0.49173228
   0.47171426  0.46749708  0.58024367
   0.50561597  0.56338007  0.59287845
   0.57195997  0.63166033  0.55748985
   0.56194953  0.48425809  0.62856852
   0.52438207  0.38832834  0.61807395
   0.43670145  0.54472290  0.43243890
   0.48004949  0.38700412  0.52410609
   0.56887353  0.43599533  0.54182877
Direct configuration=    45
   0.41315657  0.45431925  0.48699084
   0.42642175  0.54310070  0.53120004
   0.50793499  0.48966199  0.48200611
   0.58487700  0.53408213  0.53761229
   0.50757988  0.59170650  0.49164025
   0.47167043  0.46747196  0.58025362
   0.50558080  0.56348192  0.59287714
   0.57211447  0.63155512  0.55748455
   0.56188821  0.48423789  0.62876505
   0.52431004  0.38838516  0.61798165
   0.43672166  0.54473964  0.43259256
   0.48032264  0.38718559  0.52374005
   0.56918980  0.43610269  0.54190687
Direct configuration=    46
   0.41297468  0.45433836  0.48693587
   0.42638466  0.54329359  0.53139100
   0.50789979  0.48953317  0.48206019
   0.58495987  0.53414016  0.53767936
   0.50770548  0.59169690  0.49154549
   0.47167534  0.46750950  0.58027817
   0.50563407  0.56335431  0.59296535
   0.57213463  0.63152792  0.55742127
   0.56171036  0.48435083  0.62885829
   0.52431659  0.38828185  0.61782762
   0.43661227  0.54457974  0.43266946
   0.48044500  0.38737102  0.52351663
   0.56931552  0.43605318  0.54190232
Direct configuration=    47
   0.41297489  0.45433834  0.48693593
   0.42638470  0.54329337  0.53139079
   0.50789983  0.48953331  0.48206013
   0.58495977  0.53414009  0.53767928
   0.50770533  0.59169691  0.49154560
   0.47167534  0.46750946  0.58027815
   0.50563401  0.56335445  0.59296525
   0.57213461  0.63152795  0.55742134
   0.56171056  0.48435070  0.62885818
   0.52431658  0.38828197  0.61782779
   0.43661239  0.54457992  0.43266938
   0.48044486  0.38737081  0.52351689
   0.56931538  0.43605324  0.54190233
