  13  13   0   0
  0.1040497E+04  0.2333159E-08  0.2321172E-08  0.2497657E-08  0.5000000E-15
   1.0000000000000000E-004
  CAR 
 unknown system                          
      2.35133927    -12.54881724  301     -3.90386916      1.00000000
    -12.549  0.0000E+00  0.0000E+00  0.0000E+00  0.0000E+00
    -12.499  0.0000E+00  0.0000E+00  0.0000E+00  0.0000E+00
    -12.449  0.0000E+00  0.0000E+00  0.0000E+00  0.0000E+00
    -12.400  0.0000E+00  0.0000E+00  0.0000E+00  0.0000E+00
    -12.350  0.0000E+00  0.0000E+00  0.0000E+00  0.0000E+00
    -12.300  0.0000E+00  0.0000E+00  0.0000E+00  0.0000E+00
    -12.251  0.0000E+00  0.0000E+00  0.0000E+00  0.0000E+00
    -12.201  0.0000E+00  0.0000E+00  0.0000E+00  0.0000E+00
    -12.151 -0.5898E-29 -0.5892E-29 -0.2929E-30 -0.2926E-30
    -12.102 -0.2817E-27 -0.2814E-27 -0.1428E-28 -0.1427E-28
    -12.052 -0.1209E-25 -0.1208E-25 -0.6149E-27 -0.6143E-27
    -12.002 -0.4583E-24 -0.4579E-24 -0.2338E-25 -0.2336E-25
    -11.953 -0.1533E-22 -0.1532E-22 -0.7847E-24 -0.7840E-24
    -11.903 -0.4524E-21 -0.4520E-21 -0.2325E-22 -0.2323E-22
    -11.853 -0.1178E-19 -0.1177E-19 -0.6084E-21 -0.6078E-21
    -11.804 -0.2706E-18 -0.2704E-18 -0.1405E-19 -0.1404E-19
    -11.754 -0.5481E-17 -0.5477E-17 -0.2863E-18 -0.2861E-18
    -11.704 -0.9455E-16 -0.9448E-16 -0.4982E-17 -0.4978E-17
    -11.655 -0.1492E-14 -0.1491E-14 -0.7909E-16 -0.7903E-16
    -11.605 -0.2062E-13 -0.2061E-13 -0.1103E-14 -0.1103E-14
    -11.555 -0.2511E-12 -0.2509E-12 -0.1357E-13 -0.1357E-13
    -11.506 -0.2690E-11 -0.2688E-11 -0.1472E-12 -0.1471E-12
    -11.456 -0.2534E-10 -0.2532E-10 -0.1406E-11 -0.1405E-11
    -11.406 -0.2097E-09 -0.2096E-09 -0.1182E-10 -0.1181E-10
    -11.357 -0.1523E-08 -0.1523E-08 -0.8749E-10 -0.8744E-10
    -11.307 -0.9703E-08 -0.9698E-08 -0.5694E-09 -0.5691E-09
    -11.257 -0.5409E-07 -0.5406E-07 -0.3256E-08 -0.3254E-08
    -11.208 -0.2633E-06 -0.2632E-06 -0.1634E-07 -0.1633E-07
    -11.158 -0.1117E-05 -0.1116E-05 -0.7180E-07 -0.7178E-07
    -11.108 -0.4109E-05 -0.4108E-05 -0.2759E-06 -0.2758E-06
    -11.059 -0.1304E-04 -0.1304E-04 -0.9238E-06 -0.9235E-06
    -11.009 -0.3541E-04 -0.3540E-04 -0.2683E-05 -0.2682E-05
    -10.959 -0.8100E-04 -0.8098E-04 -0.6705E-05 -0.6704E-05
    -10.910 -0.1518E-03 -0.1517E-03 -0.1424E-04 -0.1424E-04
    -10.860 -0.2181E-03 -0.2181E-03 -0.2508E-04 -0.2507E-04
    -10.810 -0.1898E-03 -0.1898E-03 -0.3450E-04 -0.3450E-04
    -10.761  0.8501E-04  0.8489E-04 -0.3028E-04 -0.3028E-04
    -10.711  0.7516E-03  0.7514E-03  0.7051E-05  0.7035E-05
    -10.661  0.1814E-02  0.1814E-02  0.9717E-04  0.9714E-04
    -10.612  0.3029E-02  0.3028E-02  0.2476E-03  0.2475E-03
    -10.562  0.3951E-02  0.3950E-02  0.4438E-03  0.4438E-03
    -10.512  0.4173E-02  0.4173E-02  0.6510E-03  0.6510E-03
    -10.463  0.3590E-02  0.3590E-02  0.8293E-03  0.8293E-03
    -10.413  0.2472E-02  0.2473E-02  0.9521E-03  0.9521E-03
    -10.363  0.1281E-02  0.1282E-02  0.1016E-02  0.1016E-02
    -10.314  0.3883E-03  0.3885E-03  0.1035E-02  0.1035E-02
    -10.264 -0.8393E-04 -0.8386E-04  0.1031E-02  0.1031E-02
    -10.214 -0.2233E-03 -0.2233E-03  0.1020E-02  0.1020E-02
    -10.165 -0.1919E-03 -0.1920E-03  0.1010E-02  0.1010E-02
    -10.115 -0.1166E-03 -0.1166E-03  0.1004E-02  0.1004E-02
    -10.065 -0.5644E-04 -0.5645E-04  0.1002E-02  0.1002E-02
    -10.016 -0.2274E-04 -0.2274E-04  0.1001E-02  0.1001E-02
     -9.966 -0.7778E-05 -0.7780E-05  0.1000E-02  0.1000E-02
     -9.916 -0.2286E-05 -0.2287E-05  0.1000E-02  0.1000E-02
     -9.867 -0.5814E-06 -0.5816E-06  0.1000E-02  0.1000E-02
     -9.817 -0.1290E-06 -0.1290E-06  0.1000E-02  0.1000E-02
     -9.767 -0.2786E-07 -0.2787E-07  0.1000E-02  0.1000E-02
     -9.718 -0.2281E-07 -0.2281E-07  0.1000E-02  0.1000E-02
     -9.668 -0.9945E-07 -0.9940E-07  0.1000E-02  0.1000E-02
     -9.618 -0.4574E-06 -0.4572E-06  0.1000E-02  0.1000E-02
     -9.569 -0.1841E-05 -0.1840E-05  0.9999E-03  0.9999E-03
     -9.519 -0.6418E-05 -0.6416E-05  0.9996E-03  0.9996E-03
     -9.469 -0.1925E-04 -0.1924E-04  0.9986E-03  0.9986E-03
     -9.420 -0.4915E-04 -0.4914E-04  0.9962E-03  0.9962E-03
     -9.370 -0.1049E-03 -0.1049E-03  0.9910E-03  0.9910E-03
     -9.320 -0.1801E-03 -0.1801E-03  0.9820E-03  0.9820E-03
     -9.271 -0.2257E-03 -0.2257E-03  0.9708E-03  0.9708E-03
     -9.221 -0.1259E-03 -0.1260E-03  0.9645E-03  0.9645E-03
     -9.171  0.2807E-03  0.2806E-03  0.9785E-03  0.9785E-03
     -9.122  0.1103E-02  0.1103E-02  0.1033E-02  0.1033E-02
     -9.072  0.2257E-02  0.2257E-02  0.1145E-02  0.1145E-02
     -9.022  0.3399E-02  0.3399E-02  0.1314E-02  0.1314E-02
     -8.973  0.4056E-02  0.4056E-02  0.1516E-02  0.1516E-02
     -8.923  0.3903E-02  0.3903E-02  0.1710E-02  0.1709E-02
     -8.873  0.3003E-02  0.3003E-02  0.1859E-02  0.1859E-02
     -8.824  0.1808E-02  0.1808E-02  0.1948E-02  0.1948E-02
     -8.774  0.9191E-03  0.9193E-03  0.1994E-02  0.1994E-02
     -8.724  0.7724E-03  0.7724E-03  0.2032E-02  0.2032E-02
     -8.675  0.1426E-02  0.1426E-02  0.2103E-02  0.2103E-02
     -8.625  0.2533E-02  0.2533E-02  0.2229E-02  0.2229E-02
     -8.575  0.3513E-02  0.3513E-02  0.2404E-02  0.2404E-02
     -8.526  0.3874E-02  0.3874E-02  0.2596E-02  0.2596E-02
     -8.476  0.3520E-02  0.3520E-02  0.2771E-02  0.2771E-02
     -8.426  0.2824E-02  0.2824E-02  0.2911E-02  0.2911E-02
     -8.377  0.2360E-02  0.2360E-02  0.3028E-02  0.3028E-02
     -8.327  0.2475E-02  0.2475E-02  0.3151E-02  0.3151E-02
     -8.277  0.3034E-02  0.3034E-02  0.3302E-02  0.3302E-02
     -8.228  0.3563E-02  0.3563E-02  0.3479E-02  0.3479E-02
     -8.178  0.3673E-02  0.3673E-02  0.3661E-02  0.3661E-02
     -8.128  0.3403E-02  0.3403E-02  0.3830E-02  0.3830E-02
     -8.079  0.3187E-02  0.3187E-02  0.3989E-02  0.3989E-02
     -8.029  0.3480E-02  0.3480E-02  0.4161E-02  0.4161E-02
     -7.979  0.4371E-02  0.4371E-02  0.4379E-02  0.4379E-02
     -7.930  0.5505E-02  0.5505E-02  0.4652E-02  0.4652E-02
     -7.880  0.6340E-02  0.6340E-02  0.4967E-02  0.4967E-02
     -7.830  0.6511E-02  0.6512E-02  0.5290E-02  0.5290E-02
     -7.781  0.6046E-02  0.6046E-02  0.5591E-02  0.5591E-02
     -7.731  0.5304E-02  0.5304E-02  0.5854E-02  0.5854E-02
     -7.681  0.4764E-02  0.4764E-02  0.6091E-02  0.6091E-02
     -7.632  0.4810E-02  0.4810E-02  0.6330E-02  0.6329E-02
     -7.582  0.5633E-02  0.5633E-02  0.6609E-02  0.6609E-02
     -7.532  0.7215E-02  0.7215E-02  0.6968E-02  0.6968E-02
     -7.483  0.9289E-02  0.9289E-02  0.7429E-02  0.7429E-02
     -7.433  0.1135E-01  0.1135E-01  0.7993E-02  0.7992E-02
     -7.383  0.1282E-01  0.1282E-01  0.8630E-02  0.8629E-02
     -7.334  0.1346E-01  0.1346E-01  0.9298E-02  0.9298E-02
     -7.284  0.1354E-01  0.1354E-01  0.9971E-02  0.9970E-02
     -7.234  0.1380E-01  0.1380E-01  0.1066E-01  0.1066E-01
     -7.185  0.1503E-01  0.1503E-01  0.1140E-01  0.1140E-01
     -7.135  0.1754E-01  0.1754E-01  0.1227E-01  0.1227E-01
     -7.085  0.2086E-01  0.2086E-01  0.1331E-01  0.1331E-01
     -7.036  0.2376E-01  0.2376E-01  0.1449E-01  0.1449E-01
     -6.986  0.2484E-01  0.2484E-01  0.1572E-01  0.1572E-01
     -6.936  0.2345E-01  0.2345E-01  0.1689E-01  0.1689E-01
     -6.887  0.2028E-01  0.2029E-01  0.1790E-01  0.1790E-01
     -6.837  0.1715E-01  0.1715E-01  0.1875E-01  0.1875E-01
     -6.787  0.1581E-01  0.1581E-01  0.1953E-01  0.1953E-01
     -6.738  0.1688E-01  0.1688E-01  0.2037E-01  0.2037E-01
     -6.688  0.1941E-01  0.1941E-01  0.2133E-01  0.2133E-01
     -6.638  0.2169E-01  0.2169E-01  0.2241E-01  0.2241E-01
     -6.589  0.2240E-01  0.2240E-01  0.2352E-01  0.2352E-01
     -6.539  0.2135E-01  0.2135E-01  0.2459E-01  0.2458E-01
     -6.489  0.1941E-01  0.1941E-01  0.2555E-01  0.2555E-01
     -6.440  0.1781E-01  0.1781E-01  0.2643E-01  0.2643E-01
     -6.390  0.1745E-01  0.1745E-01  0.2730E-01  0.2730E-01
     -6.340  0.1850E-01  0.1849E-01  0.2822E-01  0.2822E-01
     -6.291  0.2053E-01  0.2053E-01  0.2924E-01  0.2924E-01
     -6.241  0.2279E-01  0.2279E-01  0.3037E-01  0.3037E-01
     -6.191  0.2452E-01  0.2452E-01  0.3159E-01  0.3159E-01
     -6.142  0.2523E-01  0.2523E-01  0.3284E-01  0.3284E-01
     -6.092  0.2484E-01  0.2484E-01  0.3407E-01  0.3407E-01
     -6.042  0.2370E-01  0.2370E-01  0.3525E-01  0.3525E-01
     -5.993  0.2243E-01  0.2243E-01  0.3637E-01  0.3637E-01
     -5.943  0.2175E-01  0.2175E-01  0.3745E-01  0.3745E-01
     -5.893  0.2227E-01  0.2227E-01  0.3855E-01  0.3855E-01
     -5.844  0.2416E-01  0.2416E-01  0.3975E-01  0.3975E-01
     -5.794  0.2715E-01  0.2715E-01  0.4110E-01  0.4110E-01
     -5.744  0.3067E-01  0.3067E-01  0.4262E-01  0.4262E-01
     -5.695  0.3419E-01  0.3419E-01  0.4432E-01  0.4432E-01
     -5.645  0.3748E-01  0.3748E-01  0.4618E-01  0.4618E-01
     -5.595  0.4063E-01  0.4063E-01  0.4820E-01  0.4820E-01
     -5.546  0.4366E-01  0.4366E-01  0.5037E-01  0.5037E-01
     -5.496  0.4632E-01  0.4632E-01  0.5267E-01  0.5267E-01
     -5.446  0.4816E-01  0.4816E-01  0.5506E-01  0.5506E-01
     -5.397  0.4879E-01  0.4879E-01  0.5749E-01  0.5749E-01
     -5.347  0.4804E-01  0.4804E-01  0.5987E-01  0.5987E-01
     -5.297  0.4582E-01  0.4582E-01  0.6215E-01  0.6215E-01
     -5.248  0.4188E-01  0.4188E-01  0.6423E-01  0.6423E-01
     -5.198  0.3596E-01  0.3597E-01  0.6601E-01  0.6601E-01
     -5.148  0.2821E-01  0.2821E-01  0.6741E-01  0.6741E-01
     -5.099  0.1951E-01  0.1951E-01  0.6838E-01  0.6838E-01
     -5.049  0.1127E-01  0.1128E-01  0.6894E-01  0.6894E-01
     -4.999  0.4813E-02  0.4814E-02  0.6918E-01  0.6918E-01
     -4.950  0.7248E-03  0.7255E-03  0.6922E-01  0.6922E-01
     -4.900 -0.1196E-02 -0.1196E-02  0.6916E-01  0.6916E-01
     -4.850 -0.1609E-02 -0.1609E-02  0.6908E-01  0.6908E-01
     -4.801 -0.1158E-02 -0.1158E-02  0.6902E-01  0.6902E-01
     -4.751 -0.2234E-03 -0.2238E-03  0.6901E-01  0.6901E-01
     -4.701  0.1020E-02  0.1019E-02  0.6906E-01  0.6906E-01
     -4.652  0.2412E-02  0.2411E-02  0.6918E-01  0.6918E-01
     -4.602  0.3714E-02  0.3713E-02  0.6937E-01  0.6937E-01
     -4.552  0.4689E-02  0.4689E-02  0.6960E-01  0.6960E-01
     -4.503  0.5242E-02  0.5242E-02  0.6986E-01  0.6986E-01
     -4.453  0.5413E-02  0.5413E-02  0.7013E-01  0.7013E-01
     -4.403  0.5245E-02  0.5245E-02  0.7039E-01  0.7039E-01
     -4.354  0.4693E-02  0.4693E-02  0.7062E-01  0.7062E-01
     -4.304  0.3715E-02  0.3715E-02  0.7081E-01  0.7081E-01
     -4.254  0.2434E-02  0.2435E-02  0.7093E-01  0.7093E-01
     -4.205  0.1176E-02  0.1177E-02  0.7099E-01  0.7099E-01
     -4.155  0.3359E-03  0.3360E-03  0.7100E-01  0.7100E-01
     -4.105  0.1939E-03  0.1932E-03  0.7101E-01  0.7101E-01
     -4.056  0.7933E-03  0.7919E-03  0.7105E-01  0.7105E-01
     -4.006  0.1900E-02  0.1898E-02  0.7115E-01  0.7115E-01
     -3.956  0.3069E-02  0.3068E-02  0.7130E-01  0.7130E-01
     -3.907  0.3843E-02  0.3843E-02  0.7149E-01  0.7149E-01
     -3.857  0.4023E-02  0.4024E-02  0.7169E-01  0.7169E-01
     -3.807  0.3797E-02  0.3798E-02  0.7188E-01  0.7188E-01
     -3.758  0.3566E-02  0.3567E-02  0.7205E-01  0.7205E-01
     -3.708  0.3605E-02  0.3605E-02  0.7223E-01  0.7223E-01
     -3.658  0.3855E-02  0.3855E-02  0.7242E-01  0.7242E-01
     -3.609  0.4075E-02  0.4075E-02  0.7263E-01  0.7263E-01
     -3.559  0.4139E-02  0.4139E-02  0.7283E-01  0.7283E-01
     -3.509  0.4145E-02  0.4144E-02  0.7304E-01  0.7304E-01
     -3.460  0.4212E-02  0.4212E-02  0.7325E-01  0.7325E-01
     -3.410  0.4247E-02  0.4247E-02  0.7346E-01  0.7346E-01
     -3.360  0.3973E-02  0.3974E-02  0.7366E-01  0.7366E-01
     -3.311  0.3218E-02  0.3219E-02  0.7382E-01  0.7382E-01
     -3.261  0.2156E-02  0.2156E-02  0.7392E-01  0.7392E-01
     -3.211  0.1260E-02  0.1260E-02  0.7399E-01  0.7399E-01
     -3.162  0.1005E-02  0.1004E-02  0.7404E-01  0.7404E-01
     -3.112  0.1548E-02  0.1547E-02  0.7411E-01  0.7411E-01
     -3.062  0.2607E-02  0.2605E-02  0.7424E-01  0.7424E-01
     -3.013  0.3593E-02  0.3592E-02  0.7442E-01  0.7442E-01
     -2.963  0.3944E-02  0.3944E-02  0.7462E-01  0.7462E-01
     -2.913  0.3455E-02  0.3456E-02  0.7479E-01  0.7479E-01
     -2.864  0.2403E-02  0.2404E-02  0.7491E-01  0.7491E-01
     -2.814  0.1380E-02  0.1381E-02  0.7498E-01  0.7498E-01
     -2.764  0.9514E-03  0.9516E-03  0.7502E-01  0.7502E-01
     -2.715  0.1345E-02  0.1344E-02  0.7509E-01  0.7509E-01
     -2.665  0.2332E-02  0.2331E-02  0.7521E-01  0.7521E-01
     -2.615  0.3357E-02  0.3356E-02  0.7537E-01  0.7537E-01
     -2.566  0.3852E-02  0.3852E-02  0.7556E-01  0.7556E-01
     -2.516  0.3600E-02  0.3600E-02  0.7574E-01  0.7574E-01
     -2.466  0.2879E-02  0.2880E-02  0.7589E-01  0.7589E-01
     -2.417  0.2278E-02  0.2278E-02  0.7600E-01  0.7600E-01
     -2.367  0.2271E-02  0.2271E-02  0.7611E-01  0.7611E-01
     -2.317  0.2872E-02  0.2871E-02  0.7625E-01  0.7625E-01
     -2.268  0.3624E-02  0.3623E-02  0.7643E-01  0.7643E-01
     -2.218  0.3932E-02  0.3932E-02  0.7663E-01  0.7663E-01
     -2.168  0.3466E-02  0.3467E-02  0.7680E-01  0.7680E-01
     -2.119  0.2350E-02  0.2351E-02  0.7692E-01  0.7692E-01
     -2.069  0.1033E-02  0.1034E-02  0.7697E-01  0.7697E-01
     -2.019  0.3809E-04  0.3859E-04  0.7697E-01  0.7697E-01
     -1.970 -0.2171E-03 -0.2178E-03  0.7696E-01  0.7696E-01
     -1.920  0.5153E-03  0.5130E-03  0.7699E-01  0.7699E-01
     -1.870  0.2246E-02  0.2242E-02  0.7710E-01  0.7710E-01
     -1.821  0.4640E-02  0.4636E-02  0.7733E-01  0.7733E-01
     -1.771  0.7025E-02  0.7021E-02  0.7768E-01  0.7768E-01
     -1.721  0.8650E-02  0.8648E-02  0.7811E-01  0.7811E-01
     -1.672  0.9082E-02  0.9082E-02  0.7856E-01  0.7856E-01
     -1.622  0.8398E-02  0.8400E-02  0.7897E-01  0.7897E-01
     -1.572  0.7033E-02  0.7035E-02  0.7932E-01  0.7932E-01
     -1.523  0.5463E-02  0.5466E-02  0.7960E-01  0.7959E-01
     -1.473  0.4058E-02  0.4060E-02  0.7980E-01  0.7980E-01
     -1.423  0.3095E-02  0.3096E-02  0.7995E-01  0.7995E-01
     -1.374  0.2766E-02  0.2765E-02  0.8009E-01  0.8009E-01
     -1.324  0.3067E-02  0.3065E-02  0.8024E-01  0.8024E-01
     -1.274  0.3749E-02  0.3747E-02  0.8043E-01  0.8043E-01
     -1.225  0.4451E-02  0.4449E-02  0.8065E-01  0.8065E-01
     -1.175  0.4912E-02  0.4911E-02  0.8089E-01  0.8089E-01
     -1.125  0.5053E-02  0.5053E-02  0.8114E-01  0.8114E-01
     -1.076  0.4897E-02  0.4897E-02  0.8139E-01  0.8138E-01
     -1.026  0.4501E-02  0.4502E-02  0.8161E-01  0.8161E-01
     -0.976  0.4001E-02  0.4002E-02  0.8181E-01  0.8181E-01
     -0.927  0.3631E-02  0.3630E-02  0.8199E-01  0.8199E-01
     -0.877  0.3600E-02  0.3597E-02  0.8217E-01  0.8217E-01
     -0.827  0.3914E-02  0.3911E-02  0.8236E-01  0.8236E-01
     -0.778  0.4372E-02  0.4369E-02  0.8258E-01  0.8258E-01
     -0.728  0.4734E-02  0.4733E-02  0.8281E-01  0.8281E-01
     -0.678  0.4901E-02  0.4902E-02  0.8306E-01  0.8306E-01
     -0.629  0.4940E-02  0.4941E-02  0.8330E-01  0.8330E-01
     -0.579  0.5008E-02  0.5006E-02  0.8355E-01  0.8355E-01
     -0.529  0.5291E-02  0.5284E-02  0.8381E-01  0.8381E-01
     -0.480  0.5921E-02  0.5909E-02  0.8411E-01  0.8411E-01
     -0.430  0.6856E-02  0.6840E-02  0.8445E-01  0.8445E-01
     -0.380  0.7813E-02  0.7797E-02  0.8484E-01  0.8483E-01
     -0.331  0.8397E-02  0.8386E-02  0.8525E-01  0.8525E-01
     -0.281  0.8361E-02  0.8355E-02  0.8567E-01  0.8566E-01
     -0.231  0.7766E-02  0.7760E-02  0.8605E-01  0.8605E-01
     -0.182  0.6908E-02  0.6893E-02  0.8640E-01  0.8639E-01
     -0.132  0.6115E-02  0.6090E-02  0.8670E-01  0.8669E-01
     -0.082  0.5600E-02  0.5575E-02  0.8698E-01  0.8697E-01
     -0.033  0.5443E-02  0.5431E-02  0.8725E-01  0.8724E-01
      0.017  0.5667E-02  0.5671E-02  0.8753E-01  0.8752E-01
      0.067  0.6332E-02  0.6328E-02  0.8785E-01  0.8784E-01
      0.116  0.7545E-02  0.7489E-02  0.8822E-01  0.8821E-01
      0.166  0.9330E-02  0.9195E-02  0.8868E-01  0.8867E-01
      0.216  0.1141E-01  0.1121E-01  0.8925E-01  0.8922E-01
      0.265  0.1309E-01  0.1292E-01  0.8990E-01  0.8986E-01
      0.315  0.1354E-01  0.1347E-01  0.9057E-01  0.9053E-01
      0.365  0.1224E-01  0.1231E-01  0.9118E-01  0.9114E-01
      0.414  0.9387E-02  0.9578E-02  0.9165E-01  0.9162E-01
      0.464  0.5867E-02  0.6095E-02  0.9194E-01  0.9192E-01
      0.514  0.2716E-02  0.2904E-02  0.9207E-01  0.9207E-01
      0.563  0.5964E-03  0.7089E-03  0.9210E-01  0.9210E-01
      0.613 -0.4124E-03 -0.3688E-03  0.9208E-01  0.9208E-01
      0.663 -0.6395E-03 -0.6371E-03  0.9205E-01  0.9205E-01
      0.712 -0.5031E-03 -0.5156E-03  0.9203E-01  0.9203E-01
      0.762 -0.2953E-03 -0.3079E-03  0.9201E-01  0.9201E-01
      0.812 -0.1410E-03 -0.1490E-03  0.9200E-01  0.9200E-01
      0.861 -0.5666E-04 -0.6055E-04  0.9200E-01  0.9200E-01
      0.911 -0.1948E-04 -0.2103E-04  0.9200E-01  0.9200E-01
      0.961 -0.5783E-05 -0.6308E-05  0.9200E-01  0.9200E-01
      1.010 -0.1492E-05 -0.1644E-05  0.9200E-01  0.9200E-01
      1.060 -0.3359E-06 -0.3736E-06  0.9200E-01  0.9200E-01
      1.110 -0.6616E-07 -0.7427E-07  0.9200E-01  0.9200E-01
      1.159 -0.1142E-07 -0.1294E-07  0.9200E-01  0.9200E-01
      1.209 -0.1732E-08 -0.1981E-08  0.9200E-01  0.9200E-01
      1.259 -0.2308E-09 -0.2664E-09  0.9200E-01  0.9200E-01
      1.308 -0.2705E-10 -0.3152E-10  0.9200E-01  0.9200E-01
      1.358 -0.2792E-11 -0.3283E-11  0.9200E-01  0.9200E-01
      1.408 -0.2539E-12 -0.3013E-12  0.9200E-01  0.9200E-01
      1.457 -0.2035E-13 -0.2437E-13  0.9200E-01  0.9200E-01
      1.507 -0.1435E-14 -0.1739E-14  0.9200E-01  0.9200E-01
      1.557 -0.8941E-16 -0.1073E-15  0.9200E-01  0.9200E-01
      1.606 -0.4471E-17 -0.4471E-17  0.9200E-01  0.9200E-01
      1.656  0.0000E+00  0.0000E+00  0.9200E-01  0.9200E-01
      1.706  0.0000E+00  0.0000E+00  0.9200E-01  0.9200E-01
      1.755  0.0000E+00  0.0000E+00  0.9200E-01  0.9200E-01
      1.805  0.0000E+00  0.0000E+00  0.9200E-01  0.9200E-01
      1.855  0.0000E+00  0.0000E+00  0.9200E-01  0.9200E-01
      1.904  0.0000E+00  0.0000E+00  0.9200E-01  0.9200E-01
      1.954  0.0000E+00  0.0000E+00  0.9200E-01  0.9200E-01
      2.004  0.0000E+00  0.0000E+00  0.9200E-01  0.9200E-01
      2.053  0.0000E+00  0.0000E+00  0.9200E-01  0.9200E-01
      2.103  0.0000E+00  0.0000E+00  0.9200E-01  0.9200E-01
      2.153  0.0000E+00  0.0000E+00  0.9200E-01  0.9200E-01
      2.202  0.0000E+00  0.0000E+00  0.9200E-01  0.9200E-01
      2.252  0.0000E+00  0.0000E+00  0.9200E-01  0.9200E-01
      2.302  0.0000E+00  0.0000E+00  0.9200E-01  0.9200E-01
      2.351  0.0000E+00  0.0000E+00  0.9200E-01  0.9200E-01
