   13   13 1000    2
  0.1040497E+04  0.2333159E-08  0.2321172E-08  0.2497657E-08  0.5000000E-15
   1.0000000000000000E-004
  CAR 
 unknown system                          
    143      1     92
 
  0.1262379E-14  0.1262379E-14  0.1262379E-14  0.1000000E+01
    1      -10.548817    -10.548804   1.000000   1.000000
    2       -8.977883     -8.977869   1.000000   1.000000
    3       -8.554670     -8.554659   1.000000   1.000000
    4       -8.226555     -8.226541   1.000000   1.000000
    5       -7.944263     -7.944252   1.000000   1.000000
    6       -7.812796     -7.812790   1.000000   1.000000
    7       -7.606190     -7.606178   1.000000   1.000000
    8       -7.440673     -7.440662   1.000000   1.000000
    9       -7.396560     -7.396551   1.000000   1.000000
   10       -7.356988     -7.356980   1.000000   1.000000
   11       -7.231736     -7.231726   1.000000   1.000000
   12       -7.191222     -7.191212   1.000000   1.000000
   13       -7.108316     -7.108307   1.000000   1.000000
   14       -7.026065     -7.026057   1.000000   1.000000
   15       -7.015396     -7.015388   1.000000   1.000000
   16       -7.003225     -7.003215   1.000000   1.000000
   17       -6.995316     -6.995311   1.000000   1.000000
   18       -6.931697     -6.931686   1.000000   1.000000
   19       -6.896701     -6.896694   1.000000   1.000000
   20       -6.749724     -6.749714   1.000000   1.000000
   21       -6.687020     -6.687014   1.000000   1.000000
   22       -6.675182     -6.675172   1.000000   1.000000
   23       -6.643791     -6.643782   1.000000   1.000000
   24       -6.614957     -6.614951   1.000000   1.000000
   25       -6.541278     -6.541272   1.000000   1.000000
   26       -6.526647     -6.526637   1.000000   1.000000
   27       -6.407003     -6.406996   1.000000   1.000000
   28       -6.399100     -6.399092   1.000000   1.000000
   29       -6.291374     -6.291367   1.000000   1.000000
   30       -6.287802     -6.287796   1.000000   1.000000
   31       -6.223151     -6.223144   1.000000   1.000000
   32       -6.199364     -6.199358   1.000000   1.000000
   33       -6.160044     -6.160035   1.000000   1.000000
   34       -6.123604     -6.123597   1.000000   1.000000
   35       -6.064548     -6.064537   1.000000   1.000000
   36       -6.055943     -6.055937   1.000000   1.000000
   37       -5.995436     -5.995428   1.000000   1.000000
   38       -5.929500     -5.929493   1.000000   1.000000
   39       -5.916118     -5.916113   1.000000   1.000000
   40       -5.829517     -5.829511   1.000000   1.000000
   41       -5.811305     -5.811297   1.000000   1.000000
   42       -5.760391     -5.760385   1.000000   1.000000
   43       -5.749103     -5.749096   1.000000   1.000000
   44       -5.739371     -5.739366   1.000000   1.000000
   45       -5.675615     -5.675610   1.000000   1.000000
   46       -5.671802     -5.671793   1.000000   1.000000
   47       -5.631290     -5.631283   1.000000   1.000000
   48       -5.623478     -5.623470   1.000000   1.000000
   49       -5.575716     -5.575709   1.000000   1.000000
   50       -5.572598     -5.572591   1.000000   1.000000
   51       -5.542159     -5.542149   1.000000   1.000000
   52       -5.496999     -5.496989   1.000000   1.000000
   53       -5.480892     -5.480887   1.000000   1.000000
   54       -5.475492     -5.475485   1.000000   1.000000
   55       -5.465358     -5.465350   1.000000   1.000000
   56       -5.443518     -5.443513   1.000000   1.000000
   57       -5.422382     -5.422375   1.000000   1.000000
   58       -5.409479     -5.409470   1.000000   1.000000
   59       -5.392475     -5.392468   1.000000   1.000000
   60       -5.331562     -5.331551   1.000000   1.000000
   61       -5.324795     -5.324784   1.000000   1.000000
   62       -5.315092     -5.315086   1.000000   1.000000
   63       -5.278720     -5.278709   1.000000   1.000000
   64       -5.274430     -5.274422   1.000000   1.000000
   65       -5.230959     -5.230953   1.000000   1.000000
   66       -5.214262     -5.214256   1.000000   1.000000
   67       -5.190189     -5.190178   1.000000   1.000000
   68       -5.181749     -5.181744   1.000000   1.000000
   69       -5.121968     -5.121949   1.000000   1.000000
   70       -4.577893     -4.577867   1.000010   1.000010
   71       -4.375539     -4.375517   1.002130   1.002131
   72       -3.911719     -3.911651   0.533187   0.532899
   73       -3.640234     -3.640203  -0.034277  -0.034273
   74       -3.393170     -3.393136  -0.000909  -0.000908
   75       -2.992322     -2.992260  -0.000000  -0.000000
   76       -2.585093     -2.585046  -0.000000  -0.000000
   77       -2.246597     -2.246556  -0.000000  -0.000000
   78       -1.752237     -1.752148  -0.000000  -0.000000
   79       -1.719412     -1.719320  -0.000000  -0.000000
   80       -1.540150     -1.540048  -0.000000  -0.000000
   81       -1.255762     -1.255613  -0.000000  -0.000000
   82       -1.053113     -1.052920  -0.000000  -0.000000
   83       -0.794603     -0.794323  -0.000000  -0.000000
   84       -0.595849     -0.595583  -0.000000  -0.000000
   85       -0.399037     -0.398743  -0.000000  -0.000000
   86       -0.320932     -0.320218  -0.000000  -0.000000
   87       -0.168543     -0.167872  -0.000000  -0.000000
   88        0.009025      0.011560  -0.000000  -0.000000
   89        0.156627      0.156046  -0.000000  -0.000000
   90        0.268328      0.272146  -0.000000  -0.000000
   91        0.314421      0.317252  -0.000000  -0.000000
   92        0.347766      0.351339  -0.000000  -0.000000
