 vasp.6.1.2 22Jul20 (build Jan 14 2022 17:24:41) gamma-only                      
 executed on             LinuxPGI date 2022.01.31  15:26:30
 running on    8 total cores
 distrk:  each k-point on    8 cores,    1 groups
 distr:  one band on NCORE=   8 cores,    1 groups


--------------------------------------------------------------------------------------------------------


 INCAR:
 POTCAR:    PAW_PBE Cu 22Jun2005                  
 -----------------------------------------------------------------------------
|                                                                             |
|           W    W    AA    RRRRR   N    N  II  N    N   GGGG   !!!           |
|           W    W   A  A   R    R  NN   N  II  NN   N  G    G  !!!           |
|           W    W  A    A  R    R  N N  N  II  N N  N  G       !!!           |
|           W WW W  AAAAAA  RRRRR   N  N N  II  N  N N  G  GGG   !            |
|           WW  WW  A    A  R   R   N   NN  II  N   NN  G    G                |
|           W    W  A    A  R    R  N    N  II  N    N   GGGG   !!!           |
|                                                                             |
|     You use a magnetic or noncollinear calculation, but did not specify     |
|     the initial magnetic moment with the MAGMOM tag. Note that a            |
|     default of 1 will be used for all atoms. This ferromagnetic setup       |
|     may break the symmetry of the crystal, in particular it may rule        |
|     out finding an antiferromagnetic solution. Thence, we recommend         |
|     setting the initial magnetic moment manually or verifying carefully     |
|     that this magnetic setup is desired.                                    |
|                                                                             |
 -----------------------------------------------------------------------------

 -----------------------------------------------------------------------------
|                                                                             |
|           W    W    AA    RRRRR   N    N  II  N    N   GGGG   !!!           |
|           W    W   A  A   R    R  NN   N  II  NN   N  G    G  !!!           |
|           W    W  A    A  R    R  N N  N  II  N N  N  G       !!!           |
|           W WW W  AAAAAA  RRRRR   N  N N  II  N  N N  G  GGG   !            |
|           WW  WW  A    A  R   R   N   NN  II  N   NN  G    G                |
|           W    W  A    A  R    R  N    N  II  N    N   GGGG   !!!           |
|                                                                             |
|     For optimal performance we recommend to set                             |
|       NCORE = 4 - approx SQRT(number of cores).                             |
|     NCORE specifies how many cores store one orbital (NPAR=cpu/NCORE).      |
|     This setting can greatly improve the performance of VASP for DFT.       |
|     The default, NCORE=1 might be grossly inefficient on modern             |
|     multi-core architectures or massively parallel machines. Do your        |
|     own testing!!!!                                                         |
|     Unfortunately you need to use the default for GW and RPA                |
|     calculations (for HF NCORE is supported but not extensively tested      |
|     yet).                                                                   |
|                                                                             |
 -----------------------------------------------------------------------------

 POTCAR:    PAW_PBE Cu 22Jun2005                  
   SHA256 =  0e71e558f37a4e8407882b4609ceaae59938afaad9ced71dfe8490308a0ab630 Cu/POTCAR             
   COPYR  = (c) Copyright 22Jun2005 Georg Kresse                                                    
   COPYR  = This file is part of the software VASP. Any use, copying, and all other rights are regul
   COPYR  = If you do not have a valid VASP license, you may not use, copy or distribute this file. 
   VRHFIN =Cu: d10 p1                                                                               
   LEXCH  = PE                                                                                      
   EATOM  =  1390.9808 eV,  102.2342 Ry                                                             
                                                                                                    
   TITEL  = PAW_PBE Cu 22Jun2005                                                                    
   LULTRA =        F    use ultrasoft PP ?                                                          
   IUNSCR =        1    unscreen: 0-lin 1-nonlin 2-no                                               
   RPACOR =    2.000    partial core radius                                                         
   POMASS =   63.546; ZVAL   =   11.000    mass and valenz                                          
   RCORE  =    2.300    outmost cutoff radius                                                       
   RWIGS  =    2.200; RWIGS  =    1.164    wigner-seitz radius (au A)                               
   ENMAX  =  295.446; ENMIN  =  221.585 eV                                                          
   ICORE  =        3    local potential                                                             
   LCOR   =        T    correct aug charges                                                         
   LPAW   =        T    paw PP                                                                      
   EAUG   =  586.980                                                                                
   DEXC   =    0.000                                                                                
   RMAX   =    2.344    core radius for proj-oper                                                   
   RAUG   =    1.300    factor for augmentation sphere                                              
   RDEP   =    2.302    radius for radial grids                                                     
   RDEPT  =    1.771    core radius for aug-charge                                                  
                                                                                                    
   Atomic configuration                                                                             
    9 entries                                                                                       
     n  l   j            E        occ.                                                              
     1  0  0.50     -8850.2468   2.0000                                                             
     2  0  0.50     -1062.3498   2.0000                                                             
     2  1  1.50      -916.8226   6.0000                                                             
     3  0  0.50      -114.6929   2.0000                                                             
     3  1  1.50       -72.1325   6.0000                                                             
     3  2  2.50        -5.0394  10.0000                                                             
     4  0  0.50        -4.6097   1.0000                                                             
     4  1  0.50        -4.0817   0.0000                                                             
     4  3  2.50        -1.3606   0.0000                                                             
   Description                                                                                      
     l       E           TYP  RCUT    TYP  RCUT                                                     
     2     -5.0393973     23  2.200                                                                 
     2     10.8846608     23  2.200                                                                 
     0     -4.6097109     23  2.200                                                                 
     0      8.2520465     23  2.200                                                                 
     1     -2.7211652     23  2.200                                                                 
     1     21.7055443     23  2.200                                                                 
     3      2.7211652     23  2.300                                                                 
  local pseudopotential read in
  partial core-charges read in
  partial kinetic energy density read in
  atomic valenz-charges read in
  non local Contribution for L=            2  read in
    real space projection operators read in
  non local Contribution for L=            2  read in
    real space projection operators read in
  non local Contribution for L=            0  read in
    real space projection operators read in
  non local Contribution for L=            0  read in
    real space projection operators read in
  non local Contribution for L=            1  read in
    real space projection operators read in
  non local Contribution for L=            1  read in
    real space projection operators read in
    PAW grid and wavefunctions read in
 
   number of l-projection  operators is LMAX  =            6
   number of lm-projection operators is LMMAX =           18
 
  PAW_PBE Cu 22Jun2005                  :
 energy of atom  1       EATOM=-1390.9808
 kinetic energy error for atom=    0.0232 (will be added to EATOM!!)
 
 
 POSCAR: Cu
  positions in cartesian coordinates
  No initial velocities read in
 exchange correlation table for  LEXCH =        8
   RHO(1)=    0.500       N(1)  =     2000
   RHO(2)=  100.500       N(2)  =     4000
 


--------------------------------------------------------------------------------------------------------


 ion  position               nearest neighbor table
   1  0.481  0.447  0.493-   3 2.42   8 2.43   4 2.44  12 2.45   9 2.46  10 2.47   2 2.50   5 2.50
                             7 2.56
   2  0.564  0.500  0.454-  11 2.46   6 2.46  10 2.49   7 2.50   1 2.50   8 2.52   5 2.53
   3  0.523  0.440  0.582-   1 2.42  11 2.45  13 2.45   4 2.54   8 2.56
   4  0.432  0.497  0.566-   1 2.44  13 2.44   9 2.50   5 2.52   3 2.54
   5  0.479  0.554  0.492-   6 2.46  13 2.46   7 2.49   1 2.50   9 2.50   4 2.52   2 2.53
   6  0.578  0.587  0.508-  13 2.45  11 2.45   2 2.46   5 2.46
   7  0.470  0.502  0.406-  12 2.44  10 2.49   5 2.49   2 2.50   9 2.50   1 2.56
   8  0.577  0.404  0.499-   1 2.43  11 2.44  10 2.50   2 2.52   3 2.56
   9  0.391  0.496  0.473-   1 2.46  12 2.47   7 2.50   5 2.50   4 2.50
  10  0.526  0.411  0.410-   1 2.47  12 2.48   7 2.49   2 2.49   8 2.50
  11  0.605  0.493  0.544-   8 2.44   3 2.45   6 2.45  13 2.45   2 2.46
  12  0.421  0.411  0.421-   7 2.44   1 2.45   9 2.47  10 2.48
  13  0.523  0.546  0.582-   4 2.44   6 2.45  11 2.45   3 2.45   5 2.46
 

IMPORTANT INFORMATION: All symmetrisations will be switched off!
NOSYMM: (Re-)initialisation of all symmetry stuff for point group C_1.


----------------------------------------------------------------------------------------

                                     Primitive cell                                     

  volume of cell :   13526.4672

  direct lattice vectors                    reciprocal lattice vectors
    23.331591277  0.000000000  0.000000000     0.042860343  0.000000000  0.000000000
     0.000000000 23.211718327  0.000000000     0.000000000  0.043081688  0.000000000
     0.000000000  0.000000000 24.976566241     0.000000000  0.000000000  0.040037529

  length of vectors
    23.331591277 23.211718327 24.976566241     0.042860343  0.043081688  0.040037529

  position of ions in fractional coordinates (direct lattice)
     0.481428669  0.446509614  0.493492502
     0.563702708  0.500229415  0.453500825
     0.523362937  0.439998940  0.581766666
     0.431698356  0.496733552  0.565518473
     0.478843733  0.554135396  0.492330041
     0.577591864  0.587464500  0.507704636
     0.469886250  0.501882114  0.405559725
     0.576658131  0.404073554  0.498721868
     0.391043188  0.496122946  0.472884734
     0.526279317  0.410914967  0.410459454
     0.604507504  0.493156767  0.543915772
     0.420693587  0.410785847  0.420858622
     0.522805694  0.545646738  0.581617593

  ion indices of the primitive-cell ions
   primitive index   ion index
                 1           1
                 2           2
                 3           3
                 4           4
                 5           5
                 6           6
                 7           7
                 8           8
                 9           9
                10          10
                11          11
                12          12
                13          13

----------------------------------------------------------------------------------------

 
 
 KPOINTS: KPOINTS created by Atomic Simulation Env

Automatic generation of k-mesh.
Space group operators:
 irot       det(A)        alpha          n_x          n_y          n_z        tau_x        tau_y        tau_z
    1     1.000000     0.000000     1.000000     0.000000     0.000000     0.000000     0.000000     0.000000
 
 Subroutine IBZKPT returns following result:
 ===========================================
 
 Found      1 irreducible k-points:
 
 Following reciprocal coordinates:
            Coordinates               Weight
  0.000000  0.000000  0.000000      1.000000
 
 Following cartesian coordinates:
            Coordinates               Weight
  0.000000  0.000000  0.000000      1.000000
 


--------------------------------------------------------------------------------------------------------




 Dimension of arrays:
   k-points           NKPTS =      1   k-points in BZ     NKDIM =      1   number of bands    NBANDS=     92
   number of dos      NEDOS =    301   number of ions     NIONS =     13
   non local maximal  LDIM  =      6   non local SUM 2l+1 LMDIM =     18
   total plane-waves  NPLWV = ******
   max r-space proj   IRMAX =      1   max aug-charges    IRDMAX=   4084
   dimension x,y,z NGX =   120 NGY =  120 NGZ =  126
   dimension x,y,z NGXF=   240 NGYF=  240 NGZF=  252
   support grid    NGXF=   240 NGYF=  240 NGZF=  252
   ions per type =              13
   NGX,Y,Z   is equivalent  to a cutoff of   8.55,  8.59,  8.39 a.u.
   NGXF,Y,Z  is equivalent  to a cutoff of  17.10, 17.19, 16.77 a.u.

 SYSTEM =  unknown system                          
 POSCAR =  Cu                                      

 Startparameter for this run:
   NWRITE =      2    write-flag & timer
   PREC   = normal    normal or accurate (medium, high low for compatibility)
   ISTART =      0    job   : 0-new  1-cont  2-samecut
   ICHARG =      2    charge: 1-file 2-atom 10-const
   ISPIN  =      2    spin polarized calculation?
   LNONCOLLINEAR =      F non collinear calculations
   LSORBIT =      F    spin-orbit coupling
   INIWAV =      1    electr: 0-lowe 1-rand  2-diag
   LASPH  =      F    aspherical Exc in radial PAW
   METAGGA=      F    non-selfconsistent MetaGGA calc.

 Electronic Relaxation 1
   ENCUT  =  400.0 eV  29.40 Ry    5.42 a.u.  38.05 37.85 40.73*2*pi/ulx,y,z
   ENINI  =  400.0     initial cutoff
   ENAUG  =  587.0 eV  augmentation charge cutoff
   NELM   =     60;   NELMIN=  2; NELMDL=  0     # of ELM steps 
   EDIFF  = 0.1E-03   stopping-criterion for ELM
   LREAL  =      F    real-space projection
   NLSPLINE    = F    spline interpolate recip. space projectors
   LCOMPAT=      F    compatible to vasp.4.4
   GGA_COMPAT  = T    GGA compatible to vasp.4.4-vasp.4.6
   LMAXPAW     = -100 max onsite density
   LMAXMIX     =    2 max onsite mixed and CHGCAR
   VOSKOWN=      0    Vosko Wilk Nusair interpolation
   ROPT   =    0.00000
 Ionic relaxation
   EDIFFG = 0.1E-02   stopping-criterion for IOM
   NSW    =   1000    number of steps for IOM
   NBLOCK =      1;   KBLOCK =   1000    inner block; outer block 
   IBRION =      2    ionic relax: 0-MD 1-quasi-New 2-CG
   NFREE  =      1    steps in history (QN), initial steepest desc. (CG)
   ISIF   =      0    stress and relaxation
   IWAVPR =     11    prediction:  0-non 1-charg 2-wave 3-comb
   ISYM   =      0    0-nonsym 1-usesym 2-fastsym
   LCORR  =      T    Harris-Foulkes like correction to forces

   POTIM  = 0.5000    time-step for ionic-motion
   TEIN   =    0.0    initial temperature
   TEBEG  =    0.0;   TEEND  =   0.0 temperature during run
   SMASS  =  -3.00    Nose mass-parameter (am)
   estimated Nose-frequenzy (Omega)   =  0.10E-29 period in steps = 0.13E+47 mass=  -0.124E-25a.u.
   SCALEE = 1.0000    scale energy and forces
   NPACO  =    256;   APACO  = 16.0  distance and # of slots for P.C.
   PSTRESS=    0.0 pullay stress

  Mass of Ions in am
   POMASS =  63.55
  Ionic Valenz
   ZVAL   =  11.00
  Atomic Wigner-Seitz radii
   RWIGS  =  -1.00
  virtual crystal weights 
   VCA    =   1.00
   NELECT =     143.0000    total number of electrons
   NUPDOWN=      -1.0000    fix difference up-down

 DOS related values:
   EMIN   =  10.00;   EMAX   =-10.00  energy-range for DOS
   EFERMI =   0.00
   ISMEAR =     1;   SIGMA  =   0.20  broadening in eV -4-tet -1-fermi 0-gaus

 Electronic relaxation 2 (details)
   IALGO  =     38    algorithm
   LDIAG  =      T    sub-space diagonalisation (order eigenvalues)
   LSUBROT=      F    optimize rotation matrix (better conditioning)
   TURBO    =      0    0=normal 1=particle mesh
   IRESTART =      0    0=no restart 2=restart with 2 vectors
   NREBOOT  =      0    no. of reboots
   NMIN     =      0    reboot dimension
   EREF     =   0.00    reference energy to select bands
   IMIX   =      4    mixing-type and parameters
     AMIX     =   0.40;   BMIX     =  1.00
     AMIX_MAG =   1.60;   BMIX_MAG =  1.00
     AMIN     =   0.10
     WC   =   100.;   INIMIX=   1;  MIXPRE=   1;  MAXMIX= -45

 Intra band minimization:
   WEIMIN = 0.0010     energy-eigenvalue tresh-hold
   EBREAK =  0.27E-06  absolut break condition
   DEPER  =   0.30     relativ break condition  

   TIME   =   0.40     timestep for ELM

  volume/ion in A,a.u.               =    1040.50      7021.62
  Fermi-wavevector in a.u.,A,eV,Ry     =   0.359301  0.678981  1.756477  0.129097
  Thomas-Fermi vector in A             =   1.278154
 
 Write flags
   LWAVE        =      F    write WAVECAR
   LDOWNSAMPLE  =      F    k-point downsampling of WAVECAR
   LCHARG       =      F    write CHGCAR
   LVTOT        =      F    write LOCPOT, total local potential
   LVHAR        =      F    write LOCPOT, Hartree potential only
   LELF         =      F    write electronic localiz. function (ELF)
   LORBIT       =      0    0 simple, 1 ext, 2 COOP (PROOUT), +10 PAW based schemes


 Dipole corrections
   LMONO  =      F    monopole corrections only (constant potential shift)
   LDIPOL =      F    correct potential (dipole corrections)
   IDIPOL =      0    1-x, 2-y, 3-z, 4-all directions 
   EPSILON=  1.0000000 bulk dielectric constant

 Exchange correlation treatment:
   GGA     =    PE    GGA type
   LEXCH   =     8    internal setting for exchange type
   VOSKOWN=      0    Vosko Wilk Nusair interpolation
   LHFCALC =     F    Hartree Fock is set to
   LHFONE  =     F    Hartree Fock one center treatment
   AEXX    =    0.0000 exact exchange contribution

 Linear response parameters
   LEPSILON=     F    determine dielectric tensor
   LRPA    =     F    only Hartree local field effects (RPA)
   LNABLA  =     F    use nabla operator in PAW spheres
   LVEL    =     F    velocity operator in full k-point grid
   LINTERFAST=   F  fast interpolation
   KINTER  =     0    interpolate to denser k-point grid
   CSHIFT  =0.1000    complex shift for real part using Kramers Kronig
   OMEGAMAX=  -1.0    maximum frequency
   DEG_THRESHOLD= 0.2000000E-02 threshold for treating states as degnerate
   RTIME   =   -0.100 relaxation time in fs
  (WPLASMAI=    0.000 imaginary part of plasma frequency in eV, 0.658/RTIME)
   DFIELD  = 0.0000000 0.0000000 0.0000000 field for delta impulse in time
 
 Orbital magnetization related:
   ORBITALMAG=     F  switch on orbital magnetization
   LCHIMAG   =     F  perturbation theory with respect to B field
   DQ        =  0.001000  dq finite difference perturbation B field
   LLRAUG    =     F  two centre corrections for induced B field



--------------------------------------------------------------------------------------------------------


 conjugate gradient relaxation of ions
 charge density and potential will be updated during run
 spin polarized calculation
 Variant of blocked Davidson
 Davidson routine will perform the subspace rotation
 perform sub-space diagonalisation
    after iterative eigenvector-optimisation
 modified Broyden-mixing scheme, WC =      100.0
 initial mixing is a Kerker type mixing with AMIX =  0.4000 and BMIX =      1.0000
 Hartree-type preconditioning will be used
 using additional bands            20
 reciprocal scheme for non local part
 use partial core corrections
 calculate Harris-corrections to forces 
   (improved forces if not selfconsistent)
 use gradient corrections 
 use of overlap-Matrix (Vanderbilt PP)
 Methfessel and Paxton  Order N= 1 SIGMA  =   0.20


--------------------------------------------------------------------------------------------------------


  energy-cutoff  :      400.00
  volume of cell :    13526.47
      direct lattice vectors                 reciprocal lattice vectors
    23.331591277  0.000000000  0.000000000     0.042860343  0.000000000  0.000000000
     0.000000000 23.211718327  0.000000000     0.000000000  0.043081688  0.000000000
     0.000000000  0.000000000 24.976566241     0.000000000  0.000000000  0.040037529

  length of vectors
    23.331591277 23.211718327 24.976566241     0.042860343  0.043081688  0.040037529


 
 k-points in units of 2pi/SCALE and weight: KPOINTS created by Atomic Simulation Env
   0.00000000  0.00000000  0.00000000       1.000
 
 k-points in reciprocal lattice and weights: KPOINTS created by Atomic Simulation Env
   0.00000000  0.00000000  0.00000000       1.000
 
 position of ions in fractional coordinates (direct lattice) 
   0.48142867  0.44650961  0.49349250
   0.56370271  0.50022941  0.45350082
   0.52336294  0.43999894  0.58176667
   0.43169836  0.49673355  0.56551847
   0.47884373  0.55413540  0.49233004
   0.57759186  0.58746450  0.50770464
   0.46988625  0.50188211  0.40555973
   0.57665813  0.40407355  0.49872187
   0.39104319  0.49612295  0.47288473
   0.52627932  0.41091497  0.41045945
   0.60450750  0.49315677  0.54391577
   0.42069359  0.41078585  0.42085862
   0.52280569  0.54564674  0.58161759
 
 position of ions in cartesian coordinates  (Angst):
  11.23249693 10.36425538 12.32574817
  13.15208118 11.61118428 11.32689339
  12.21089014 10.21313146 14.53053367
  10.07220960 11.53003929 14.12470960
  11.17218626 12.86243474 12.29671388
  13.47613730 13.63606049 12.68071846
  10.96319393 11.64954625 10.12948934
  13.45435181  9.37924153 12.45635978
   9.12365984 11.51586608 11.81103689
  12.27893392  9.53804247 10.25186773
  14.10412202 11.44701596 13.58514831
   9.81545083  9.53504537 10.51160325
  12.19788876 12.66539838 14.52681034
 


--------------------------------------------------------------------------------------------------------


 use parallel FFT for orbitals z direction half grid
 k-point   1 :   0.0000 0.0000 0.0000  plane waves:  122840

 maximum and minimum number of plane-waves per node :     15358    15352

 maximum number of plane-waves:    122840
 maximum index in each direction: 
   IXMAX=   38   IYMAX=   37   IZMAX=   40
   IXMIN=  -38   IYMIN=  -37   IZMIN=    0


 parallel 3D FFT for wavefunctions:
    minimum data exchange during FFTs selected (reduces bandwidth)
 parallel 3D FFT for charge:
    minimum data exchange during FFTs selected (reduces bandwidth)


 total amount of memory used by VASP MPI-rank0   296497. kBytes
=======================================================================

   base      :      30000. kBytes
   nonl-proj :       5406. kBytes
   fftplans  :      66150. kBytes
   grid      :     149644. kBytes
   one-center:         31. kBytes
   wavefun   :      45266. kBytes
 
     INWAV:  cpu time    0.0000: real time    0.0000
 Broyden mixing: mesh for mixing (old mesh)
   NGX = 77   NGY = 75   NGZ = 81
  (NGX  =240   NGY  =240   NGZ  =252)
  gives a total of 467775 points

 initial charge density was supplied:
 charge density of overlapping atoms calculated
 number of electron     143.0000000 magnetization      13.0000000
 keeping initial charge density in first step


--------------------------------------------------------------------------------------------------------


 Maximum index for augmentation-charges           484 (set IRDMAX)


--------------------------------------------------------------------------------------------------------


 First call to EWALD:  gamma=   0.074
 Maximum number of real-space cells 3x 3x 3
 Maximum number of reciprocal cells 3x 3x 3

    FEWALD:  cpu time    0.0016: real time    0.0016


--------------------------------------- Iteration      1(   1)  ---------------------------------------


    POTLOK:  cpu time    5.1121: real time    5.4559
    SETDIJ:  cpu time    0.0394: real time    0.0394
     EDDAV:  cpu time   15.9096: real time   15.9292
       DOS:  cpu time    0.0016: real time    0.0016
    --------------------------------------------
      LOOP:  cpu time   21.0627: real time   21.4261

 eigenvalue-minimisations  :   368
 total energy-change (2. order) : 0.9792871E+03  (-0.2449909E+04)
 number of electron     143.0000000 magnetization      13.0000000
 augmentation part      143.0000000 magnetization      13.0000000

 Free energy of the ion-electron system (eV)
  ---------------------------------------------------
  alpha Z        PSCENC =         9.13722974
  Ewald energy   TEWEN  =     25248.37384770
  -Hartree energ DENC   =    -41710.43180586
  -exchange      EXHF   =         0.00000000
  -V(xc)+E(xc)   XCENC  =       584.52128167
  PAW double counting   =     15965.26744864   -17340.97210982
  entropy T*S    EENTRO =         0.01155317
  eigenvalues    EBANDS =       140.93036087
  atomic energy  EATOM  =     18082.44932260
  Solvation  Ediel_sol  =         0.00000000
  ---------------------------------------------------
  free energy    TOTEN  =       979.28712870 eV

  energy without entropy =      979.27557553  energy(sigma->0) =      979.28327764


--------------------------------------------------------------------------------------------------------




--------------------------------------- Iteration      1(   2)  ---------------------------------------


     EDDAV:  cpu time   16.7679: real time   16.7826
       DOS:  cpu time    0.0057: real time    0.0057
    --------------------------------------------
      LOOP:  cpu time   16.7736: real time   16.7883

 eigenvalue-minimisations  :   392
 total energy-change (2. order) :-0.7119723E+03  (-0.6223745E+03)
 number of electron     143.0000000 magnetization      13.0000000
 augmentation part      143.0000000 magnetization      13.0000000

 Free energy of the ion-electron system (eV)
  ---------------------------------------------------
  alpha Z        PSCENC =         9.13722974
  Ewald energy   TEWEN  =     25248.37384770
  -Hartree energ DENC   =    -41710.43180586
  -exchange      EXHF   =         0.00000000
  -V(xc)+E(xc)   XCENC  =       584.52128167
  PAW double counting   =     15965.26744864   -17340.97210982
  entropy T*S    EENTRO =         0.02154767
  eigenvalues    EBANDS =      -571.05197902
  atomic energy  EATOM  =     18082.44932260
  Solvation  Ediel_sol  =         0.00000000
  ---------------------------------------------------
  free energy    TOTEN  =       267.31478331 eV

  energy without entropy =      267.29323564  energy(sigma->0) =      267.30760076


--------------------------------------------------------------------------------------------------------




--------------------------------------- Iteration      1(   3)  ---------------------------------------


     EDDAV:  cpu time   19.1201: real time   19.1420
       DOS:  cpu time    0.0045: real time    0.0045
    --------------------------------------------
      LOOP:  cpu time   19.1246: real time   19.1465

 eigenvalue-minimisations  :   472
 total energy-change (2. order) :-0.2548865E+03  (-0.2457716E+03)
 number of electron     143.0000000 magnetization      13.0000000
 augmentation part      143.0000000 magnetization      13.0000000

 Free energy of the ion-electron system (eV)
  ---------------------------------------------------
  alpha Z        PSCENC =         9.13722974
  Ewald energy   TEWEN  =     25248.37384770
  -Hartree energ DENC   =    -41710.43180586
  -exchange      EXHF   =         0.00000000
  -V(xc)+E(xc)   XCENC  =       584.52128167
  PAW double counting   =     15965.26744864   -17340.97210982
  entropy T*S    EENTRO =        -0.00648381
  eigenvalues    EBANDS =      -825.91045293
  atomic energy  EATOM  =     18082.44932260
  Solvation  Ediel_sol  =         0.00000000
  ---------------------------------------------------
  free energy    TOTEN  =        12.42827791 eV

  energy without entropy =       12.43476173  energy(sigma->0) =       12.43043919


--------------------------------------------------------------------------------------------------------




--------------------------------------- Iteration      1(   4)  ---------------------------------------


     EDDAV:  cpu time   17.9744: real time   17.9899
       DOS:  cpu time    0.0014: real time    0.0014
    --------------------------------------------
      LOOP:  cpu time   17.9758: real time   17.9914

 eigenvalue-minimisations  :   432
 total energy-change (2. order) :-0.4659849E+02  (-0.4233556E+02)
 number of electron     143.0000000 magnetization      13.0000000
 augmentation part      143.0000000 magnetization      13.0000000

 Free energy of the ion-electron system (eV)
  ---------------------------------------------------
  alpha Z        PSCENC =         9.13722974
  Ewald energy   TEWEN  =     25248.37384770
  -Hartree energ DENC   =    -41710.43180586
  -exchange      EXHF   =         0.00000000
  -V(xc)+E(xc)   XCENC  =       584.52128167
  PAW double counting   =     15965.26744864   -17340.97210982
  entropy T*S    EENTRO =        -0.02993944
  eigenvalues    EBANDS =      -872.48548454
  atomic energy  EATOM  =     18082.44932260
  Solvation  Ediel_sol  =         0.00000000
  ---------------------------------------------------
  free energy    TOTEN  =       -34.17020932 eV

  energy without entropy =      -34.14026988  energy(sigma->0) =      -34.16022951


--------------------------------------------------------------------------------------------------------




--------------------------------------- Iteration      1(   5)  ---------------------------------------


     EDDAV:  cpu time   18.0594: real time   18.0749
       DOS:  cpu time    0.0057: real time    0.0058
    CHARGE:  cpu time    1.6613: real time    1.6680
    MIXING:  cpu time    0.0896: real time    0.0897
    --------------------------------------------
      LOOP:  cpu time   19.8161: real time   19.8383

 eigenvalue-minimisations  :   440
 total energy-change (2. order) :-0.2711005E+01  (-0.2648181E+01)
 number of electron     142.9999964 magnetization      11.9532719
 augmentation part       87.4166710 magnetization      11.5124431

 Broyden mixing:
  rms(total) = 0.28137E+01    rms(broyden)= 0.28135E+01
  rms(prec ) = 0.28821E+01
  weight for this iteration     100.00

 Free energy of the ion-electron system (eV)
  ---------------------------------------------------
  alpha Z        PSCENC =         9.13722974
  Ewald energy   TEWEN  =     25248.37384770
  -Hartree energ DENC   =    -41710.43180586
  -exchange      EXHF   =         0.00000000
  -V(xc)+E(xc)   XCENC  =       584.52128167
  PAW double counting   =     15965.26744864   -17340.97210982
  entropy T*S    EENTRO =        -0.01001463
  eigenvalues    EBANDS =      -875.21641429
  atomic energy  EATOM  =     18082.44932260
  Solvation  Ediel_sol  =         0.00000000
  ---------------------------------------------------
  free energy    TOTEN  =       -36.88121427 eV

  energy without entropy =      -36.87119963  energy(sigma->0) =      -36.87787605


--------------------------------------------------------------------------------------------------------




--------------------------------------- Iteration      1(   6)  ---------------------------------------


    POTLOK:  cpu time    5.2199: real time    5.2269
    SETDIJ:  cpu time    0.0379: real time    0.0379
     EDDAV:  cpu time   16.9426: real time   16.9550
       DOS:  cpu time    0.0047: real time    0.0047
    CHARGE:  cpu time    1.5310: real time    1.5322
    MIXING:  cpu time    0.0880: real time    0.1776
    --------------------------------------------
      LOOP:  cpu time   23.8241: real time   23.9343

 eigenvalue-minimisations  :   404
 total energy-change (2. order) : 0.1920752E+02  (-0.1284474E+02)
 number of electron     142.9999961 magnetization      11.4253716
 augmentation part       94.8652522 magnetization       6.0319124

 Broyden mixing:
  rms(total) = 0.11915E+01    rms(broyden)= 0.11912E+01
  rms(prec ) = 0.12557E+01
  weight for this iteration     100.00

 eigenvalues of (default mixing * dielectric matrix)
  average eigenvalue GAMMA=   0.8230
  0.8230

 Free energy of the ion-electron system (eV)
  ---------------------------------------------------
  alpha Z        PSCENC =         9.13722974
  Ewald energy   TEWEN  =     25248.37384770
  -Hartree energ DENC   =    -41490.31228125
  -exchange      EXHF   =         0.00000000
  -V(xc)+E(xc)   XCENC  =       584.64307770
  PAW double counting   =     16110.66457396   -17440.88670616
  entropy T*S    EENTRO =        -0.02399754
  eigenvalues    EBANDS =     -1121.71876571
  atomic energy  EATOM  =     18082.44932260
  Solvation  Ediel_sol  =         0.00000000
  ---------------------------------------------------
  free energy    TOTEN  =       -17.67369896 eV

  energy without entropy =      -17.64970142  energy(sigma->0) =      -17.66569978


--------------------------------------------------------------------------------------------------------




--------------------------------------- Iteration      1(   7)  ---------------------------------------


    POTLOK:  cpu time    5.1980: real time    5.2048
    SETDIJ:  cpu time    0.0396: real time    0.0396
     EDDAV:  cpu time   18.0762: real time   18.0952
       DOS:  cpu time    0.0013: real time    0.0013
    CHARGE:  cpu time    1.6267: real time    1.6280
    MIXING:  cpu time    0.0953: real time    0.0981
    --------------------------------------------
      LOOP:  cpu time   25.0372: real time   25.0670

 eigenvalue-minimisations  :   440
 total energy-change (2. order) : 0.3282651E+01  (-0.3055209E+01)
 number of electron     142.9999963 magnetization      10.8424723
 augmentation part       92.1450601 magnetization       5.5939401

 Broyden mixing:
  rms(total) = 0.48801E+00    rms(broyden)= 0.48790E+00
  rms(prec ) = 0.50942E+00
  weight for this iteration     100.00

 eigenvalues of (default mixing * dielectric matrix)
  average eigenvalue GAMMA=   0.7952
  0.9526  0.6377

 Free energy of the ion-electron system (eV)
  ---------------------------------------------------
  alpha Z        PSCENC =         9.13722974
  Ewald energy   TEWEN  =     25248.37384770
  -Hartree energ DENC   =    -41643.30771715
  -exchange      EXHF   =         0.00000000
  -V(xc)+E(xc)   XCENC  =       590.61040546
  PAW double counting   =     16409.21138550   -17791.42306605
  entropy T*S    EENTRO =        -0.01935299
  eigenvalues    EBANDS =      -919.42310244
  atomic energy  EATOM  =     18082.44932260
  Solvation  Ediel_sol  =         0.00000000
  ---------------------------------------------------
  free energy    TOTEN  =       -14.39104765 eV

  energy without entropy =      -14.37169466  energy(sigma->0) =      -14.38459665


--------------------------------------------------------------------------------------------------------




--------------------------------------- Iteration      1(   8)  ---------------------------------------


    POTLOK:  cpu time    5.1738: real time    5.1799
    SETDIJ:  cpu time    0.0390: real time    0.0390
     EDDAV:  cpu time   18.3744: real time   18.3987
       DOS:  cpu time    0.0016: real time    0.0016
    CHARGE:  cpu time    1.6407: real time    1.6419
    MIXING:  cpu time    0.1013: real time    0.1014
    --------------------------------------------
      LOOP:  cpu time   25.3308: real time   25.3626

 eigenvalue-minimisations  :   448
 total energy-change (2. order) : 0.6792500E+00  (-0.6638584E+00)
 number of electron     142.9999961 magnetization      10.3322606
 augmentation part       91.6623829 magnetization       4.8378282

 Broyden mixing:
  rms(total) = 0.41021E+00    rms(broyden)= 0.41013E+00
  rms(prec ) = 0.42942E+00
  weight for this iteration     100.00

 eigenvalues of (default mixing * dielectric matrix)
  average eigenvalue GAMMA=   0.7617
  1.1242  0.6571  0.5037

 Free energy of the ion-electron system (eV)
  ---------------------------------------------------
  alpha Z        PSCENC =         9.13722974
  Ewald energy   TEWEN  =     25248.37384770
  -Hartree energ DENC   =    -41670.16883317
  -exchange      EXHF   =         0.00000000
  -V(xc)+E(xc)   XCENC  =       591.28575113
  PAW double counting   =     16575.31311097   -17967.56165269
  entropy T*S    EENTRO =        -0.00393559
  eigenvalues    EBANDS =      -882.53663834
  atomic energy  EATOM  =     18082.44932260
  Solvation  Ediel_sol  =         0.00000000
  ---------------------------------------------------
  free energy    TOTEN  =       -13.71179766 eV

  energy without entropy =      -13.70786207  energy(sigma->0) =      -13.71048579


--------------------------------------------------------------------------------------------------------




--------------------------------------- Iteration      1(   9)  ---------------------------------------


    POTLOK:  cpu time    5.1404: real time    5.1543
    SETDIJ:  cpu time    0.0375: real time    0.0376
     EDDAV:  cpu time   20.1666: real time   20.1980
       DOS:  cpu time    0.0049: real time    0.0049
    CHARGE:  cpu time    1.5966: real time    1.5978
    MIXING:  cpu time    0.1107: real time    0.1108
    --------------------------------------------
      LOOP:  cpu time   27.0568: real time   27.1033

 eigenvalue-minimisations  :   512
 total energy-change (2. order) :-0.9020808E+00  (-0.1459664E+00)
 number of electron     142.9999961 magnetization       9.4299751
 augmentation part       91.6036138 magnetization       4.2276307

 Broyden mixing:
  rms(total) = 0.26032E+00    rms(broyden)= 0.26029E+00
  rms(prec ) = 0.26718E+00
  weight for this iteration     100.00

 eigenvalues of (default mixing * dielectric matrix)
  average eigenvalue GAMMA=   0.9000
  1.3179  0.9235  0.9235  0.4351

 Free energy of the ion-electron system (eV)
  ---------------------------------------------------
  alpha Z        PSCENC =         9.13722974
  Ewald energy   TEWEN  =     25248.37384770
  -Hartree energ DENC   =    -41677.60925461
  -exchange      EXHF   =         0.00000000
  -V(xc)+E(xc)   XCENC  =       589.96305526
  PAW double counting   =     16668.78069293   -18063.76724256
  entropy T*S    EENTRO =        -0.02532776
  eigenvalues    EBANDS =      -871.91620179
  atomic energy  EATOM  =     18082.44932260
  Solvation  Ediel_sol  =         0.00000000
  ---------------------------------------------------
  free energy    TOTEN  =       -14.61387849 eV

  energy without entropy =      -14.58855073  energy(sigma->0) =      -14.60543590


--------------------------------------------------------------------------------------------------------




--------------------------------------- Iteration      1(  10)  ---------------------------------------


    POTLOK:  cpu time    5.1487: real time    5.1524
    SETDIJ:  cpu time    0.0383: real time    0.0384
     EDDAV:  cpu time   19.9014: real time   19.9240
       DOS:  cpu time    0.0041: real time    0.0041
    CHARGE:  cpu time    1.6276: real time    1.6288
    MIXING:  cpu time    0.1197: real time    0.1198
    --------------------------------------------
      LOOP:  cpu time   26.8398: real time   26.8675

 eigenvalue-minimisations  :   496
 total energy-change (2. order) :-0.2669964E+01  (-0.1480448E+00)
 number of electron     142.9999962 magnetization       8.9217138
 augmentation part       91.9591066 magnetization       4.5524612

 Broyden mixing:
  rms(total) = 0.20219E+00    rms(broyden)= 0.20208E+00
  rms(prec ) = 0.20890E+00
  weight for this iteration     100.00

 eigenvalues of (default mixing * dielectric matrix)
  average eigenvalue GAMMA=   0.9273
  1.7662  1.1448  0.7456  0.4900  0.4900

 Free energy of the ion-electron system (eV)
  ---------------------------------------------------
  alpha Z        PSCENC =         9.13722974
  Ewald energy   TEWEN  =     25248.37384770
  -Hartree energ DENC   =    -41674.09071101
  -exchange      EXHF   =         0.00000000
  -V(xc)+E(xc)   XCENC  =       587.02544770
  PAW double counting   =     16735.88422546   -18129.06659567
  entropy T*S    EENTRO =        -0.03186993
  eigenvalues    EBANDS =      -876.96473898
  atomic energy  EATOM  =     18082.44932260
  Solvation  Ediel_sol  =         0.00000000
  ---------------------------------------------------
  free energy    TOTEN  =       -17.28384240 eV

  energy without entropy =      -17.25197247  energy(sigma->0) =      -17.27321909


--------------------------------------------------------------------------------------------------------




--------------------------------------- Iteration      1(  11)  ---------------------------------------


    POTLOK:  cpu time    5.1694: real time    5.6358
    SETDIJ:  cpu time    0.0381: real time    0.0381
     EDDAV:  cpu time   20.3626: real time   20.3829
       DOS:  cpu time    0.0067: real time    0.0067
    CHARGE:  cpu time    1.5789: real time    1.5801
    MIXING:  cpu time    0.1318: real time    0.1319
    --------------------------------------------
      LOOP:  cpu time   27.2873: real time   27.7754

 eigenvalue-minimisations  :   504
 total energy-change (2. order) :-0.1338917E+01  (-0.4102746E-01)
 number of electron     142.9999962 magnetization       7.9520765
 augmentation part       91.9503255 magnetization       3.8987118

 Broyden mixing:
  rms(total) = 0.16666E+00    rms(broyden)= 0.16663E+00
  rms(prec ) = 0.17098E+00
  weight for this iteration     100.00

 eigenvalues of (default mixing * dielectric matrix)
  average eigenvalue GAMMA=   1.0058
  2.0415  1.3586  0.8137  0.8137  0.4812  0.5264

 Free energy of the ion-electron system (eV)
  ---------------------------------------------------
  alpha Z        PSCENC =         9.13722974
  Ewald energy   TEWEN  =     25248.37384770
  -Hartree energ DENC   =    -41680.42746088
  -exchange      EXHF   =         0.00000000
  -V(xc)+E(xc)   XCENC  =       585.99803977
  PAW double counting   =     16759.40726078   -18153.35088190
  entropy T*S    EENTRO =        -0.02100419
  eigenvalues    EBANDS =      -870.18911323
  atomic energy  EATOM  =     18082.44932260
  Solvation  Ediel_sol  =         0.00000000
  ---------------------------------------------------
  free energy    TOTEN  =       -18.62275960 eV

  energy without entropy =      -18.60175542  energy(sigma->0) =      -18.61575821


--------------------------------------------------------------------------------------------------------




--------------------------------------- Iteration      1(  12)  ---------------------------------------


    POTLOK:  cpu time    5.1443: real time    5.1487
    SETDIJ:  cpu time    0.0388: real time    0.0388
     EDDAV:  cpu time   23.1660: real time   23.1890
       DOS:  cpu time    0.0076: real time    0.0076
    CHARGE:  cpu time    1.5937: real time    1.5976
    MIXING:  cpu time    0.1449: real time    0.1450
    --------------------------------------------
      LOOP:  cpu time   30.0954: real time   30.1268

 eigenvalue-minimisations  :   592
 total energy-change (2. order) :-0.2927269E+01  (-0.1172913E+00)
 number of electron     142.9999962 magnetization       6.4593221
 augmentation part       91.7844669 magnetization       3.0984308

 Broyden mixing:
  rms(total) = 0.14875E+00    rms(broyden)= 0.14871E+00
  rms(prec ) = 0.15174E+00
  weight for this iteration     100.00

 eigenvalues of (default mixing * dielectric matrix)
  average eigenvalue GAMMA=   1.1743
  3.1440  1.7997  0.8359  0.7401  0.7401  0.4366  0.5239

 Free energy of the ion-electron system (eV)
  ---------------------------------------------------
  alpha Z        PSCENC =         9.13722974
  Ewald energy   TEWEN  =     25248.37384770
  -Hartree energ DENC   =    -41694.68813381
  -exchange      EXHF   =         0.00000000
  -V(xc)+E(xc)   XCENC  =       584.01513551
  PAW double counting   =     16773.92798865   -18169.69856056
  entropy T*S    EENTRO =        -0.02047073
  eigenvalues    EBANDS =      -855.04638796
  atomic energy  EATOM  =     18082.44932260
  Solvation  Ediel_sol  =         0.00000000
  ---------------------------------------------------
  free energy    TOTEN  =       -21.55002886 eV

  energy without entropy =      -21.52955813  energy(sigma->0) =      -21.54320528


--------------------------------------------------------------------------------------------------------




--------------------------------------- Iteration      1(  13)  ---------------------------------------


    POTLOK:  cpu time    5.2196: real time    5.2274
    SETDIJ:  cpu time    0.0387: real time    0.0387
     EDDAV:  cpu time   18.5549: real time   18.5739
       DOS:  cpu time    0.0097: real time    0.0097
    CHARGE:  cpu time    1.6701: real time    1.6713
    MIXING:  cpu time    0.1495: real time    0.1496
    --------------------------------------------
      LOOP:  cpu time   25.6425: real time   25.6707

 eigenvalue-minimisations  :   456
 total energy-change (2. order) :-0.3454683E+01  (-0.1673937E+00)
 number of electron     142.9999962 magnetization       6.1654234
 augmentation part       91.7550682 magnetization       4.0407441

 Broyden mixing:
  rms(total) = 0.14237E+00    rms(broyden)= 0.14219E+00
  rms(prec ) = 0.14539E+00
  weight for this iteration     100.00

 eigenvalues of (default mixing * dielectric matrix)
  average eigenvalue GAMMA=   1.0647
  3.2039  1.6637  0.8697  0.7116  0.6257  0.6257  0.4085  0.4085

 Free energy of the ion-electron system (eV)
  ---------------------------------------------------
  alpha Z        PSCENC =         9.13722974
  Ewald energy   TEWEN  =     25248.37384770
  -Hartree energ DENC   =    -41703.74903968
  -exchange      EXHF   =         0.00000000
  -V(xc)+E(xc)   XCENC  =       581.36909535
  PAW double counting   =     16767.25397449   -18162.63141820
  entropy T*S    EENTRO =        -0.01406980
  eigenvalues    EBANDS =      -847.19365378
  atomic energy  EATOM  =     18082.44932260
  Solvation  Ediel_sol  =         0.00000000
  ---------------------------------------------------
  free energy    TOTEN  =       -25.00471158 eV

  energy without entropy =      -24.99064178  energy(sigma->0) =      -25.00002165


--------------------------------------------------------------------------------------------------------




--------------------------------------- Iteration      1(  14)  ---------------------------------------


    POTLOK:  cpu time    5.1054: real time    5.1146
    SETDIJ:  cpu time    0.0383: real time    0.0383
     EDDAV:  cpu time   19.9342: real time   19.9515
       DOS:  cpu time    0.0070: real time    0.0070
    CHARGE:  cpu time    1.6639: real time    1.6651
    MIXING:  cpu time    0.1675: real time    0.1676
    --------------------------------------------
      LOOP:  cpu time   26.9164: real time   26.9442

 eigenvalue-minimisations  :   488
 total energy-change (2. order) :-0.5270546E+00  (-0.2047266E-01)
 number of electron     142.9999962 magnetization       5.8800224
 augmentation part       91.7672815 magnetization       4.0209086

 Broyden mixing:
  rms(total) = 0.13035E+00    rms(broyden)= 0.13032E+00
  rms(prec ) = 0.13320E+00
  weight for this iteration     100.00

 eigenvalues of (default mixing * dielectric matrix)
  average eigenvalue GAMMA=   1.0606
  3.3800  1.7576  0.8202  0.8202  0.6070  0.6070  0.6379  0.4896  0.4260

 Free energy of the ion-electron system (eV)
  ---------------------------------------------------
  alpha Z        PSCENC =         9.13722974
  Ewald energy   TEWEN  =     25248.37384770
  -Hartree energ DENC   =    -41703.71201313
  -exchange      EXHF   =         0.00000000
  -V(xc)+E(xc)   XCENC  =       580.94130081
  PAW double counting   =     16765.99424240   -18161.15349333
  entropy T*S    EENTRO =        -0.00082703
  eigenvalues    EBANDS =      -847.56137598
  atomic energy  EATOM  =     18082.44932260
  Solvation  Ediel_sol  =         0.00000000
  ---------------------------------------------------
  free energy    TOTEN  =       -25.53176621 eV

  energy without entropy =      -25.53093919  energy(sigma->0) =      -25.53149054


--------------------------------------------------------------------------------------------------------




--------------------------------------- Iteration      1(  15)  ---------------------------------------


    POTLOK:  cpu time    5.1539: real time    5.1806
    SETDIJ:  cpu time    0.0390: real time    0.0390
     EDDAV:  cpu time   21.7329: real time   21.7593
       DOS:  cpu time    0.0075: real time    0.0075
    CHARGE:  cpu time    1.5808: real time    1.5819
    MIXING:  cpu time    0.1791: real time    0.1792
    --------------------------------------------
      LOOP:  cpu time   28.6932: real time   28.7476

 eigenvalue-minimisations  :   544
 total energy-change (2. order) :-0.4567970E+00  (-0.6410817E-02)
 number of electron     142.9999962 magnetization       4.3253343
 augmentation part       91.7928771 magnetization       2.6678588

 Broyden mixing:
  rms(total) = 0.12447E+00    rms(broyden)= 0.12446E+00
  rms(prec ) = 0.12722E+00
  weight for this iteration     100.00

 eigenvalues of (default mixing * dielectric matrix)
  average eigenvalue GAMMA=   1.2700
  4.5717  1.8983  1.2740  1.2740  0.8545  0.8545  0.6353  0.5121  0.4130  0.4130

 Free energy of the ion-electron system (eV)
  ---------------------------------------------------
  alpha Z        PSCENC =         9.13722974
  Ewald energy   TEWEN  =     25248.37384770
  -Hartree energ DENC   =    -41703.06022179
  -exchange      EXHF   =         0.00000000
  -V(xc)+E(xc)   XCENC  =       580.55273203
  PAW double counting   =     16759.40685535   -18154.25065535
  entropy T*S    EENTRO =         0.01448887
  eigenvalues    EBANDS =      -848.61216239
  atomic energy  EATOM  =     18082.44932260
  Solvation  Ediel_sol  =         0.00000000
  ---------------------------------------------------
  free energy    TOTEN  =       -25.98856324 eV

  energy without entropy =      -26.00305211  energy(sigma->0) =      -25.99339286


--------------------------------------------------------------------------------------------------------




--------------------------------------- Iteration      1(  16)  ---------------------------------------


    POTLOK:  cpu time    5.1987: real time    5.2062
    SETDIJ:  cpu time    0.0407: real time    0.0407
     EDDAV:  cpu time   20.1595: real time   20.1820
       DOS:  cpu time    0.0118: real time    0.0118
    CHARGE:  cpu time    1.6412: real time    1.6450
    MIXING:  cpu time    0.1833: real time    0.1835
    --------------------------------------------
      LOOP:  cpu time   27.2353: real time   27.2693

 eigenvalue-minimisations  :   504
 total energy-change (2. order) :-0.2058644E+01  (-0.8617086E-01)
 number of electron     142.9999962 magnetization       3.7219568
 augmentation part       91.8001213 magnetization       2.5695791

 Broyden mixing:
  rms(total) = 0.85907E-01    rms(broyden)= 0.85837E-01
  rms(prec ) = 0.87986E-01
  weight for this iteration     100.00

 eigenvalues of (default mixing * dielectric matrix)
  average eigenvalue GAMMA=   1.2722
  5.0200  1.5486  1.5486  1.5099  0.8346  0.8346  0.6901  0.6901  0.4707  0.4481
  0.3987

 Free energy of the ion-electron system (eV)
  ---------------------------------------------------
  alpha Z        PSCENC =         9.13722974
  Ewald energy   TEWEN  =     25248.37384770
  -Hartree energ DENC   =    -41703.48965882
  -exchange      EXHF   =         0.00000000
  -V(xc)+E(xc)   XCENC  =       578.91557308
  PAW double counting   =     16729.33488338   -18123.81260484
  entropy T*S    EENTRO =         0.06022180
  eigenvalues    EBANDS =      -849.01602178
  atomic energy  EATOM  =     18082.44932260
  Solvation  Ediel_sol  =         0.00000000
  ---------------------------------------------------
  free energy    TOTEN  =       -28.04720714 eV

  energy without entropy =      -28.10742893  energy(sigma->0) =      -28.06728107


--------------------------------------------------------------------------------------------------------




--------------------------------------- Iteration      1(  17)  ---------------------------------------


    POTLOK:  cpu time    5.1564: real time    5.1648
    SETDIJ:  cpu time    0.0400: real time    0.0400
     EDDAV:  cpu time   19.0481: real time   19.0698
       DOS:  cpu time    0.0100: real time    0.0100
    CHARGE:  cpu time    1.5557: real time    1.5568
    MIXING:  cpu time    0.2009: real time    0.2010
    --------------------------------------------
      LOOP:  cpu time   26.0110: real time   26.0426

 eigenvalue-minimisations  :   464
 total energy-change (2. order) :-0.1337235E+01  (-0.3627533E-01)
 number of electron     142.9999962 magnetization       3.1809743
 augmentation part       91.7977065 magnetization       2.1373378

 Broyden mixing:
  rms(total) = 0.66012E-01    rms(broyden)= 0.66001E-01
  rms(prec ) = 0.68110E-01
  weight for this iteration     100.00

 eigenvalues of (default mixing * dielectric matrix)
  average eigenvalue GAMMA=   1.3520
  5.9158  2.1910  1.4374  1.4374  0.9783  0.9783  0.7135  0.6387  0.6387  0.4576
  0.4576  0.3800

 Free energy of the ion-electron system (eV)
  ---------------------------------------------------
  alpha Z        PSCENC =         9.13722974
  Ewald energy   TEWEN  =     25248.37384770
  -Hartree energ DENC   =    -41699.15035465
  -exchange      EXHF   =         0.00000000
  -V(xc)+E(xc)   XCENC  =       577.75934695
  PAW double counting   =     16713.32060312   -18107.21324050
  entropy T*S    EENTRO =         0.05509805
  eigenvalues    EBANDS =      -854.11629490
  atomic energy  EATOM  =     18082.44932260
  Solvation  Ediel_sol  =         0.00000000
  ---------------------------------------------------
  free energy    TOTEN  =       -29.38444189 eV

  energy without entropy =      -29.43953994  energy(sigma->0) =      -29.40280791


--------------------------------------------------------------------------------------------------------




--------------------------------------- Iteration      1(  18)  ---------------------------------------


    POTLOK:  cpu time    5.1364: real time    5.1666
    SETDIJ:  cpu time    0.0381: real time    0.0381
     EDDAV:  cpu time   19.6397: real time   19.6566
       DOS:  cpu time    0.0112: real time    0.0115
    CHARGE:  cpu time    1.6192: real time    1.6204
    MIXING:  cpu time    0.2038: real time    0.2040
    --------------------------------------------
      LOOP:  cpu time   26.6484: real time   26.6971

 eigenvalue-minimisations  :   480
 total energy-change (2. order) :-0.9494269E+00  (-0.1879676E-01)
 number of electron     142.9999962 magnetization       2.6574137
 augmentation part       91.8727706 magnetization       1.7396846

 Broyden mixing:
  rms(total) = 0.58373E-01    rms(broyden)= 0.58366E-01
  rms(prec ) = 0.60411E-01
  weight for this iteration     100.00

 eigenvalues of (default mixing * dielectric matrix)
  average eigenvalue GAMMA=   1.4007
  6.3812  2.7226  1.3842  1.3842  1.1140  1.1140  0.7870  0.7870  0.6181  0.6181
  0.4580  0.4580  0.3824

 Free energy of the ion-electron system (eV)
  ---------------------------------------------------
  alpha Z        PSCENC =         9.13722974
  Ewald energy   TEWEN  =     25248.37384770
  -Hartree energ DENC   =    -41692.04339285
  -exchange      EXHF   =         0.00000000
  -V(xc)+E(xc)   XCENC  =       576.80952646
  PAW double counting   =     16691.81444288   -18084.42492565
  entropy T*S    EENTRO =         0.04204207
  eigenvalues    EBANDS =      -862.49196172
  atomic energy  EATOM  =     18082.44932260
  Solvation  Ediel_sol  =         0.00000000
  ---------------------------------------------------
  free energy    TOTEN  =       -30.33386876 eV

  energy without entropy =      -30.37591083  energy(sigma->0) =      -30.34788279


--------------------------------------------------------------------------------------------------------




--------------------------------------- Iteration      1(  19)  ---------------------------------------


    POTLOK:  cpu time    5.1757: real time    5.2503
    SETDIJ:  cpu time    0.0398: real time    0.0399
     EDDAV:  cpu time   19.9377: real time   19.9629
       DOS:  cpu time    0.0118: real time    0.0118
    CHARGE:  cpu time    1.6741: real time    1.6807
    MIXING:  cpu time    0.2470: real time    0.2472
    --------------------------------------------
      LOOP:  cpu time   27.0862: real time   27.1928

 eigenvalue-minimisations  :   496
 total energy-change (2. order) :-0.7226045E+00  (-0.1184163E-01)
 number of electron     142.9999962 magnetization       2.1214355
 augmentation part       91.8435372 magnetization       1.3237975

 Broyden mixing:
  rms(total) = 0.39400E-01    rms(broyden)= 0.39387E-01
  rms(prec ) = 0.40984E-01
  weight for this iteration     100.00

 eigenvalues of (default mixing * dielectric matrix)
  average eigenvalue GAMMA=   1.4774
  7.3690  2.9536  1.7510  1.4295  1.4295  0.8933  0.8933  0.7444  0.6914  0.6914
  0.5425  0.4556  0.4556  0.3834

 Free energy of the ion-electron system (eV)
  ---------------------------------------------------
  alpha Z        PSCENC =         9.13722974
  Ewald energy   TEWEN  =     25248.37384770
  -Hartree energ DENC   =    -41687.42814868
  -exchange      EXHF   =         0.00000000
  -V(xc)+E(xc)   XCENC  =       576.18069509
  PAW double counting   =     16683.86842302   -18076.92221674
  entropy T*S    EENTRO =         0.02766925
  eigenvalues    EBANDS =      -866.74329528
  atomic energy  EATOM  =     18082.44932260
  Solvation  Ediel_sol  =         0.00000000
  ---------------------------------------------------
  free energy    TOTEN  =       -31.05647330 eV

  energy without entropy =      -31.08414256  energy(sigma->0) =      -31.06569639


--------------------------------------------------------------------------------------------------------




--------------------------------------- Iteration      1(  20)  ---------------------------------------


    POTLOK:  cpu time    5.1860: real time    5.1974
    SETDIJ:  cpu time    0.0388: real time    0.0388
     EDDAV:  cpu time   20.2048: real time   20.2332
       DOS:  cpu time    0.0099: real time    0.0099
    CHARGE:  cpu time    1.6126: real time    1.6138
    MIXING:  cpu time    0.2384: real time    0.2385
    --------------------------------------------
      LOOP:  cpu time   27.2904: real time   27.3317

 eigenvalue-minimisations  :   504
 total energy-change (2. order) :-0.4372264E+00  (-0.5220059E-02)
 number of electron     142.9999962 magnetization       1.2254165
 augmentation part       91.8006173 magnetization       0.5346105

 Broyden mixing:
  rms(total) = 0.29236E-01    rms(broyden)= 0.29222E-01
  rms(prec ) = 0.30959E-01
  weight for this iteration     100.00

 eigenvalues of (default mixing * dielectric matrix)
  average eigenvalue GAMMA=   1.6328
  9.6446  2.6178  2.6178  1.4587  1.4587  1.0137  1.0137  0.7882  0.7882  0.6467
  0.6467  0.5070  0.4539  0.4539  0.3826

 Free energy of the ion-electron system (eV)
  ---------------------------------------------------
  alpha Z        PSCENC =         9.13722974
  Ewald energy   TEWEN  =     25248.37384770
  -Hartree energ DENC   =    -41683.58904001
  -exchange      EXHF   =         0.00000000
  -V(xc)+E(xc)   XCENC  =       575.78194389
  PAW double counting   =     16684.66282477   -18078.55157840
  entropy T*S    EENTRO =         0.01631350
  eigenvalues    EBANDS =      -869.77456344
  atomic energy  EATOM  =     18082.44932260
  Solvation  Ediel_sol  =         0.00000000
  ---------------------------------------------------
  free energy    TOTEN  =       -31.49369966 eV

  energy without entropy =      -31.51001315  energy(sigma->0) =      -31.49913749


--------------------------------------------------------------------------------------------------------




--------------------------------------- Iteration      1(  21)  ---------------------------------------


    POTLOK:  cpu time    5.2107: real time    5.2179
    SETDIJ:  cpu time    0.0418: real time    0.0418
     EDDAV:  cpu time   20.2653: real time   20.2879
       DOS:  cpu time    0.0063: real time    0.0063
    CHARGE:  cpu time    1.6400: real time    1.6412
    MIXING:  cpu time    0.2477: real time    0.2478
    --------------------------------------------
      LOOP:  cpu time   27.4118: real time   27.4430

 eigenvalue-minimisations  :   504
 total energy-change (2. order) :-0.6226098E+00  (-0.5710596E-02)
 number of electron     142.9999962 magnetization       1.0740759
 augmentation part       91.8257764 magnetization       0.6115915

 Broyden mixing:
  rms(total) = 0.20717E-01    rms(broyden)= 0.20648E-01
  rms(prec ) = 0.22225E-01
  weight for this iteration     100.00

 eigenvalues of (default mixing * dielectric matrix)
  average eigenvalue GAMMA=   1.6122
  9.9836  2.9122  2.9122  1.4346  1.4346  1.0054  1.0054  0.8140  0.8140  0.6378
  0.6378  0.5041  0.4535  0.4535  0.3962  0.3962

 Free energy of the ion-electron system (eV)
  ---------------------------------------------------
  alpha Z        PSCENC =         9.13722974
  Ewald energy   TEWEN  =     25248.37384770
  -Hartree energ DENC   =    -41676.07387559
  -exchange      EXHF   =         0.00000000
  -V(xc)+E(xc)   XCENC  =       575.06272794
  PAW double counting   =     16683.20034553   -18077.26195291
  entropy T*S    EENTRO =        -0.00234899
  eigenvalues    EBANDS =      -877.00160547
  atomic energy  EATOM  =     18082.44932260
  Solvation  Ediel_sol  =         0.00000000
  ---------------------------------------------------
  free energy    TOTEN  =       -32.11630945 eV

  energy without entropy =      -32.11396047  energy(sigma->0) =      -32.11552646


--------------------------------------------------------------------------------------------------------




--------------------------------------- Iteration      1(  22)  ---------------------------------------


    POTLOK:  cpu time    5.1877: real time    5.1956
    SETDIJ:  cpu time    0.0396: real time    0.0397
     EDDAV:  cpu time   21.7948: real time   21.8196
       DOS:  cpu time    0.0014: real time    0.0014
    CHARGE:  cpu time    1.6935: real time    1.6947
    MIXING:  cpu time    0.3214: real time    0.3243
    --------------------------------------------
      LOOP:  cpu time   29.0384: real time   29.0753

 eigenvalue-minimisations  :   552
 total energy-change (2. order) :-0.1472912E+00  (-0.6229070E-03)
 number of electron     142.9999962 magnetization       0.7436138
 augmentation part       91.8351021 magnetization       0.3399392

 Broyden mixing:
  rms(total) = 0.14827E-01    rms(broyden)= 0.14805E-01
  rms(prec ) = 0.16054E-01
  weight for this iteration     100.00

 eigenvalues of (default mixing * dielectric matrix)
  average eigenvalue GAMMA=   1.7107
 11.0754  3.2920  3.2920  1.4788  1.4788  1.2428  0.9331  0.9331  0.8128  0.8128
  0.7137  0.6237  0.6237  0.3832  0.4537  0.4537  0.4794

 Free energy of the ion-electron system (eV)
  ---------------------------------------------------
  alpha Z        PSCENC =         9.13722974
  Ewald energy   TEWEN  =     25248.37384770
  -Hartree energ DENC   =    -41673.45235826
  -exchange      EXHF   =         0.00000000
  -V(xc)+E(xc)   XCENC  =       574.87445810
  PAW double counting   =     16688.44232098   -18082.53473250
  entropy T*S    EENTRO =        -0.00698320
  eigenvalues    EBANDS =      -879.54670583
  atomic energy  EATOM  =     18082.44932260
  Solvation  Ediel_sol  =         0.00000000
  ---------------------------------------------------
  free energy    TOTEN  =       -32.26360067 eV

  energy without entropy =      -32.25661746  energy(sigma->0) =      -32.26127293


--------------------------------------------------------------------------------------------------------




--------------------------------------- Iteration      1(  23)  ---------------------------------------


    POTLOK:  cpu time    5.2340: real time    5.2480
    SETDIJ:  cpu time    0.0380: real time    0.0380
     EDDAV:  cpu time   19.8001: real time   19.8252
       DOS:  cpu time    0.0014: real time    0.0014
    CHARGE:  cpu time    1.6690: real time    1.6709
    MIXING:  cpu time    0.2906: real time    0.2959
    --------------------------------------------
      LOOP:  cpu time   27.0330: real time   27.0794

 eigenvalue-minimisations  :   488
 total energy-change (2. order) :-0.2049697E+00  (-0.6482386E-03)
 number of electron     142.9999962 magnetization       0.5179920
 augmentation part       91.8335026 magnetization       0.2204015

 Broyden mixing:
  rms(total) = 0.10169E-01    rms(broyden)= 0.10131E-01
  rms(prec ) = 0.11109E-01
  weight for this iteration     100.00

 eigenvalues of (default mixing * dielectric matrix)
  average eigenvalue GAMMA=   1.7635
 12.1581  3.5045  3.5045  1.7455  1.4539  1.4539  0.9204  0.9204  0.9924  0.7548
  0.7548  0.6552  0.6552  0.3833  0.4903  0.4766  0.4594  0.4594

 Free energy of the ion-electron system (eV)
  ---------------------------------------------------
  alpha Z        PSCENC =         9.13722974
  Ewald energy   TEWEN  =     25248.37384770
  -Hartree energ DENC   =    -41670.35199259
  -exchange      EXHF   =         0.00000000
  -V(xc)+E(xc)   XCENC  =       574.65345619
  PAW double counting   =     16690.92053677   -18085.00028198
  entropy T*S    EENTRO =        -0.01246375
  eigenvalues    EBANDS =      -882.63822509
  atomic energy  EATOM  =     18082.44932260
  Solvation  Ediel_sol  =         0.00000000
  ---------------------------------------------------
  free energy    TOTEN  =       -32.46857041 eV

  energy without entropy =      -32.45610666  energy(sigma->0) =      -32.46441582


--------------------------------------------------------------------------------------------------------




--------------------------------------- Iteration      1(  24)  ---------------------------------------


    POTLOK:  cpu time    5.1619: real time    5.1720
    SETDIJ:  cpu time    0.0396: real time    0.0396
     EDDAV:  cpu time   21.3077: real time   21.3626
       DOS:  cpu time    0.0050: real time    0.0050
    CHARGE:  cpu time    1.6193: real time    1.6204
    MIXING:  cpu time    0.3160: real time    0.3163
    --------------------------------------------
      LOOP:  cpu time   28.4495: real time   28.5159

 eigenvalue-minimisations  :   536
 total energy-change (2. order) :-0.8504012E-01  (-0.3420700E-03)
 number of electron     142.9999962 magnetization       0.3642836
 augmentation part       91.8318514 magnetization       0.1466225

 Broyden mixing:
  rms(total) = 0.80794E-02    rms(broyden)= 0.80480E-02
  rms(prec ) = 0.88261E-02
  weight for this iteration     100.00

 eigenvalues of (default mixing * dielectric matrix)
  average eigenvalue GAMMA=   1.7891
 12.8882  3.8641  3.8641  1.8826  1.4521  1.4521  1.1977  0.9227  0.9227  0.7435
  0.7435  0.6366  0.6366  0.3834  0.4521  0.4521  0.4961  0.5014  0.5014

 Free energy of the ion-electron system (eV)
  ---------------------------------------------------
  alpha Z        PSCENC =         9.13722974
  Ewald energy   TEWEN  =     25248.37384770
  -Hartree energ DENC   =    -41668.87566546
  -exchange      EXHF   =         0.00000000
  -V(xc)+E(xc)   XCENC  =       574.57049169
  PAW double counting   =     16689.75536806   -18083.70327155
  entropy T*S    EENTRO =        -0.01503747
  eigenvalues    EBANDS =      -884.24589583
  atomic energy  EATOM  =     18082.44932260
  Solvation  Ediel_sol  =         0.00000000
  ---------------------------------------------------
  free energy    TOTEN  =       -32.55361053 eV

  energy without entropy =      -32.53857306  energy(sigma->0) =      -32.54859804


--------------------------------------------------------------------------------------------------------




--------------------------------------- Iteration      1(  25)  ---------------------------------------


    POTLOK:  cpu time    5.1203: real time    5.1270
    SETDIJ:  cpu time    0.0384: real time    0.0384
     EDDAV:  cpu time   19.5078: real time   19.5284
       DOS:  cpu time    0.0050: real time    0.0050
    CHARGE:  cpu time    1.6731: real time    1.6770
    MIXING:  cpu time    0.3692: real time    0.3694
    --------------------------------------------
      LOOP:  cpu time   26.7137: real time   26.7452

 eigenvalue-minimisations  :   472
 total energy-change (2. order) :-0.4965836E-01  (-0.1513053E-03)
 number of electron     142.9999962 magnetization       0.2552736
 augmentation part       91.8281383 magnetization       0.0987140

 Broyden mixing:
  rms(total) = 0.46349E-02    rms(broyden)= 0.45998E-02
  rms(prec ) = 0.53475E-02
  weight for this iteration     100.00

 eigenvalues of (default mixing * dielectric matrix)
  average eigenvalue GAMMA=   1.8167
 13.5706  4.1346  4.1346  2.0264  1.4579  1.4579  1.3212  0.9368  0.9368  0.7716
  0.7716  0.6405  0.6405  0.6589  0.6589  0.3833  0.4838  0.4533  0.4533  0.4425

 Free energy of the ion-electron system (eV)
  ---------------------------------------------------
  alpha Z        PSCENC =         9.13722974
  Ewald energy   TEWEN  =     25248.37384770
  -Hartree energ DENC   =    -41667.99383590
  -exchange      EXHF   =         0.00000000
  -V(xc)+E(xc)   XCENC  =       574.52272863
  PAW double counting   =     16691.14167304   -18085.07188926
  entropy T*S    EENTRO =        -0.01653239
  eigenvalues    EBANDS =      -885.14581304
  atomic energy  EATOM  =     18082.44932260
  Solvation  Ediel_sol  =         0.00000000
  ---------------------------------------------------
  free energy    TOTEN  =       -32.60326889 eV

  energy without entropy =      -32.58673649  energy(sigma->0) =      -32.59775809


--------------------------------------------------------------------------------------------------------




--------------------------------------- Iteration      1(  26)  ---------------------------------------


    POTLOK:  cpu time    5.1560: real time    5.1678
    SETDIJ:  cpu time    0.0402: real time    0.0402
     EDDAV:  cpu time   18.4001: real time   18.4189
       DOS:  cpu time    0.0126: real time    0.0126
    CHARGE:  cpu time    1.5854: real time    1.5892
    MIXING:  cpu time    0.3656: real time    0.3659
    --------------------------------------------
      LOOP:  cpu time   25.5599: real time   25.5946

 eigenvalue-minimisations  :   436
 total energy-change (2. order) :-0.2358124E-01  (-0.8428201E-04)
 number of electron     142.9999962 magnetization       0.1946805
 augmentation part       91.8302063 magnetization       0.0823402

 Broyden mixing:
  rms(total) = 0.31992E-02    rms(broyden)= 0.31710E-02
  rms(prec ) = 0.38099E-02
  weight for this iteration     100.00

 eigenvalues of (default mixing * dielectric matrix)
  average eigenvalue GAMMA=   1.8291
 14.0751  4.3010  4.3010  2.1548  1.4489  1.4489  1.4702  0.9008  0.9008  0.9352
  0.8678  0.7901  0.7901  0.6366  0.6366  0.5498  0.3833  0.4840  0.4542  0.4542
  0.4277

 Free energy of the ion-electron system (eV)
  ---------------------------------------------------
  alpha Z        PSCENC =         9.13722974
  Ewald energy   TEWEN  =     25248.37384770
  -Hartree energ DENC   =    -41666.94186825
  -exchange      EXHF   =         0.00000000
  -V(xc)+E(xc)   XCENC  =       574.49157610
  PAW double counting   =     16690.96338398   -18084.82123220
  entropy T*S    EENTRO =        -0.01739030
  eigenvalues    EBANDS =      -886.26171948
  atomic energy  EATOM  =     18082.44932260
  Solvation  Ediel_sol  =         0.00000000
  ---------------------------------------------------
  free energy    TOTEN  =       -32.62685012 eV

  energy without entropy =      -32.60945982  energy(sigma->0) =      -32.62105336


--------------------------------------------------------------------------------------------------------




--------------------------------------- Iteration      1(  27)  ---------------------------------------


    POTLOK:  cpu time    5.1246: real time    5.1343
    SETDIJ:  cpu time    0.0398: real time    0.0398
     EDDAV:  cpu time   14.9009: real time   14.9203
       DOS:  cpu time    0.0112: real time    0.0112
    CHARGE:  cpu time    1.6735: real time    1.6747
    MIXING:  cpu time    0.3800: real time    0.3803
    --------------------------------------------
      LOOP:  cpu time   22.1301: real time   22.4034

 eigenvalue-minimisations  :   320
 total energy-change (2. order) :-0.1004366E-01  (-0.3135577E-04)
 number of electron     142.9999962 magnetization       0.1438309
 augmentation part       91.8337075 magnetization       0.0567362

 Broyden mixing:
  rms(total) = 0.27192E-02    rms(broyden)= 0.27063E-02
  rms(prec ) = 0.31766E-02
  weight for this iteration     100.00

 eigenvalues of (default mixing * dielectric matrix)
  average eigenvalue GAMMA=   1.8180
 14.3273  4.4467  4.4467  2.2120  1.8216  1.4528  1.4528  0.8969  0.8969  0.9531
  0.9531  0.7877  0.7877  0.6330  0.6330  0.5894  0.3833  0.4913  0.4913  0.4531
  0.4531  0.4323

 Free energy of the ion-electron system (eV)
  ---------------------------------------------------
  alpha Z        PSCENC =         9.13722974
  Ewald energy   TEWEN  =     25248.37384770
  -Hartree energ DENC   =    -41666.08583264
  -exchange      EXHF   =         0.00000000
  -V(xc)+E(xc)   XCENC  =       574.47356734
  PAW double counting   =     16690.45835318   -18084.26025048
  entropy T*S    EENTRO =        -0.01785094
  eigenvalues    EBANDS =      -887.16528028
  atomic energy  EATOM  =     18082.44932260
  Solvation  Ediel_sol  =         0.00000000
  ---------------------------------------------------
  free energy    TOTEN  =       -32.63689378 eV

  energy without entropy =      -32.61904284  energy(sigma->0) =      -32.63094347


--------------------------------------------------------------------------------------------------------




--------------------------------------- Iteration      1(  28)  ---------------------------------------


    POTLOK:  cpu time    5.1185: real time    5.3694
    SETDIJ:  cpu time    0.0387: real time    0.0387
     EDDAV:  cpu time   13.6938: real time   13.7098
       DOS:  cpu time    0.0098: real time    0.0098
    CHARGE:  cpu time    1.6533: real time    1.6544
    MIXING:  cpu time    0.4172: real time    0.4175
    --------------------------------------------
      LOOP:  cpu time   20.9312: real time   20.9569

 eigenvalue-minimisations  :   288
 total energy-change (2. order) :-0.8744346E-02  (-0.2571113E-04)
 number of electron     142.9999962 magnetization       0.0946535
 augmentation part       91.8320006 magnetization       0.0287179

 Broyden mixing:
  rms(total) = 0.16294E-02    rms(broyden)= 0.16173E-02
  rms(prec ) = 0.20149E-02
  weight for this iteration     100.00

 eigenvalues of (default mixing * dielectric matrix)
  average eigenvalue GAMMA=   1.8338
 14.4749  4.6440  4.6440  2.2997  2.2997  1.4535  1.4535  1.1768  1.1768  0.8995
  0.8995  0.7666  0.7666  0.7410  0.6199  0.6199  0.6391  0.4849  0.4549  0.4549
  0.4395  0.3831  0.3850

 Free energy of the ion-electron system (eV)
  ---------------------------------------------------
  alpha Z        PSCENC =         9.13722974
  Ewald energy   TEWEN  =     25248.37384770
  -Hartree energ DENC   =    -41665.57108339
  -exchange      EXHF   =         0.00000000
  -V(xc)+E(xc)   XCENC  =       574.46650055
  PAW double counting   =     16690.37280103   -18084.19361466
  entropy T*S    EENTRO =        -0.01808127
  eigenvalues    EBANDS =      -887.66256043
  atomic energy  EATOM  =     18082.44932260
  Solvation  Ediel_sol  =         0.00000000
  ---------------------------------------------------
  free energy    TOTEN  =       -32.64563813 eV

  energy without entropy =      -32.62755686  energy(sigma->0) =      -32.63961104


--------------------------------------------------------------------------------------------------------




--------------------------------------- Iteration      1(  29)  ---------------------------------------


    POTLOK:  cpu time    5.1778: real time    5.1886
    SETDIJ:  cpu time    0.0407: real time    0.0407
     EDDAV:  cpu time   13.2471: real time   13.2585
       DOS:  cpu time    0.0089: real time    0.0089
    CHARGE:  cpu time    1.6118: real time    1.6128
    MIXING:  cpu time    0.4662: real time    0.4719
    --------------------------------------------
      LOOP:  cpu time   20.5525: real time   20.5814

 eigenvalue-minimisations  :   276
 total energy-change (2. order) :-0.7272223E-02  (-0.2597724E-04)
 number of electron     142.9999962 magnetization       0.0753421
 augmentation part       91.8309100 magnetization       0.0285478

 Broyden mixing:
  rms(total) = 0.15279E-02    rms(broyden)= 0.15188E-02
  rms(prec ) = 0.17496E-02
  weight for this iteration     100.00

 eigenvalues of (default mixing * dielectric matrix)
  average eigenvalue GAMMA=   1.8116
 14.6526  4.7981  4.7981  2.4093  2.4093  1.4538  1.4538  1.1869  1.1869  0.9047
  0.9047  0.7713  0.7713  0.7559  0.6448  0.6448  0.6706  0.3833  0.5094  0.4815
  0.4551  0.4551  0.4284  0.3477

 Free energy of the ion-electron system (eV)
  ---------------------------------------------------
  alpha Z        PSCENC =         9.13722974
  Ewald energy   TEWEN  =     25248.37384770
  -Hartree energ DENC   =    -41664.97891602
  -exchange      EXHF   =         0.00000000
  -V(xc)+E(xc)   XCENC  =       574.45906458
  PAW double counting   =     16690.01589558   -18083.85427465
  entropy T*S    EENTRO =        -0.01819088
  eigenvalues    EBANDS =      -888.23688899
  atomic energy  EATOM  =     18082.44932260
  Solvation  Ediel_sol  =         0.00000000
  ---------------------------------------------------
  free energy    TOTEN  =       -32.65291035 eV

  energy without entropy =      -32.63471947  energy(sigma->0) =      -32.64684672


--------------------------------------------------------------------------------------------------------




--------------------------------------- Iteration      1(  30)  ---------------------------------------


    POTLOK:  cpu time    5.1649: real time    5.1747
    SETDIJ:  cpu time    0.0437: real time    0.0437
     EDDAV:  cpu time   13.2802: real time   13.2945
       DOS:  cpu time    0.0122: real time    0.0123
    CHARGE:  cpu time    1.7194: real time    1.7206
    MIXING:  cpu time    0.4478: real time    0.4481
    --------------------------------------------
      LOOP:  cpu time   20.6681: real time   20.6938

 eigenvalue-minimisations  :   272
[...]
     26      -6.5266      1.00000
     27      -6.4070      1.00000
     28      -6.3991      1.00000
     29      -6.2914      1.00000
     30      -6.2878      1.00000
     31      -6.2232      1.00000
     32      -6.1994      1.00000
     33      -6.1600      1.00000
     34      -6.1236      1.00000
     35      -6.0645      1.00000
     36      -6.0559      1.00000
     37      -5.9954      1.00000
     38      -5.9295      1.00000
     39      -5.9161      1.00000
     40      -5.8295      1.00000
     41      -5.8113      1.00000
     42      -5.7604      1.00000
     43      -5.7491      1.00000
     44      -5.7394      1.00000
     45      -5.6756      1.00000
     46      -5.6718      1.00000
     47      -5.6313      1.00000
     48      -5.6235      1.00000
     49      -5.5757      1.00000
     50      -5.5726      1.00000
     51      -5.5422      1.00000
     52      -5.4970      1.00000
     53      -5.4809      1.00000
     54      -5.4755      1.00000
     55      -5.4654      1.00000
     56      -5.4435      1.00000
     57      -5.4224      1.00000
     58      -5.4095      1.00000
     59      -5.3925      1.00000
     60      -5.3316      1.00000
     61      -5.3248      1.00000
     62      -5.3151      1.00000
     63      -5.2787      1.00000
     64      -5.2744      1.00000
     65      -5.2310      1.00000
     66      -5.2143      1.00000
     67      -5.1902      1.00000
     68      -5.1817      1.00000
     69      -5.1220      1.00000
     70      -4.5779      1.00001
     71      -4.3755      1.00213
     72      -3.9117      0.53319
     73      -3.6402     -0.03428
     74      -3.3932     -0.00091
     75      -2.9923     -0.00000
     76      -2.5851     -0.00000
     77      -2.2466     -0.00000
     78      -1.7522     -0.00000
     79      -1.7194     -0.00000
     80      -1.5402     -0.00000
     81      -1.2558     -0.00000
     82      -1.0531     -0.00000
     83      -0.7946     -0.00000
     84      -0.5958     -0.00000
     85      -0.3990     -0.00000
     86      -0.3209     -0.00000
     87      -0.1685     -0.00000
     88       0.0090     -0.00000
     89       0.1566     -0.00000
     90       0.2683     -0.00000
     91       0.3144     -0.00000
     92       0.3478     -0.00000

 spin component 2

 k-point     1 :       0.0000    0.0000    0.0000
  band No.  band energies     occupation 
      1     -10.5488      1.00000
      2      -8.9779      1.00000
      3      -8.5547      1.00000
      4      -8.2265      1.00000
      5      -7.9443      1.00000
      6      -7.8128      1.00000
      7      -7.6062      1.00000
      8      -7.4407      1.00000
      9      -7.3966      1.00000
     10      -7.3570      1.00000
     11      -7.2317      1.00000
     12      -7.1912      1.00000
     13      -7.1083      1.00000
     14      -7.0261      1.00000
     15      -7.0154      1.00000
     16      -7.0032      1.00000
     17      -6.9953      1.00000
     18      -6.9317      1.00000
     19      -6.8967      1.00000
     20      -6.7497      1.00000
     21      -6.6870      1.00000
     22      -6.6752      1.00000
     23      -6.6438      1.00000
     24      -6.6150      1.00000
     25      -6.5413      1.00000
     26      -6.5266      1.00000
     27      -6.4070      1.00000
     28      -6.3991      1.00000
     29      -6.2914      1.00000
     30      -6.2878      1.00000
     31      -6.2231      1.00000
     32      -6.1994      1.00000
     33      -6.1600      1.00000
     34      -6.1236      1.00000
     35      -6.0645      1.00000
     36      -6.0559      1.00000
     37      -5.9954      1.00000
     38      -5.9295      1.00000
     39      -5.9161      1.00000
     40      -5.8295      1.00000
     41      -5.8113      1.00000
     42      -5.7604      1.00000
     43      -5.7491      1.00000
     44      -5.7394      1.00000
     45      -5.6756      1.00000
     46      -5.6718      1.00000
     47      -5.6313      1.00000
     48      -5.6235      1.00000
     49      -5.5757      1.00000
     50      -5.5726      1.00000
     51      -5.5421      1.00000
     52      -5.4970      1.00000
     53      -5.4809      1.00000
     54      -5.4755      1.00000
     55      -5.4654      1.00000
     56      -5.4435      1.00000
     57      -5.4224      1.00000
     58      -5.4095      1.00000
     59      -5.3925      1.00000
     60      -5.3316      1.00000
     61      -5.3248      1.00000
     62      -5.3151      1.00000
     63      -5.2787      1.00000
     64      -5.2744      1.00000
     65      -5.2310      1.00000
     66      -5.2143      1.00000
     67      -5.1902      1.00000
     68      -5.1817      1.00000
     69      -5.1219      1.00000
     70      -4.5779      1.00001
     71      -4.3755      1.00213
     72      -3.9117      0.53290
     73      -3.6402     -0.03427
     74      -3.3931     -0.00091
     75      -2.9923     -0.00000
     76      -2.5850     -0.00000
     77      -2.2466     -0.00000
     78      -1.7521     -0.00000
     79      -1.7193     -0.00000
     80      -1.5400     -0.00000
     81      -1.2556     -0.00000
     82      -1.0529     -0.00000
     83      -0.7943     -0.00000
     84      -0.5956     -0.00000
     85      -0.3987     -0.00000
     86      -0.3202     -0.00000
     87      -0.1679     -0.00000
     88       0.0116     -0.00000
     89       0.1560     -0.00000
     90       0.2721     -0.00000
     91       0.3173     -0.00000
     92       0.3513     -0.00000


--------------------------------------------------------------------------------------------------------


 soft charge-density along one line, spin component            1
         0         1         2         3         4         5         6         7         8         9
 total charge-density along one line
 
 soft charge-density along one line, spin component            2
         0         1         2         3         4         5         6         7         8         9
 total charge-density along one line
 
 pseudopotential strength for first ion, spin component:            1
-11.096   0.009  -0.032  -0.001   0.003   1.463  -0.007   0.025
  0.009 -11.097   0.003   0.030  -0.003  -0.007   1.464  -0.002
 -0.032   0.003 -11.116   0.004   0.012   0.025  -0.002   1.479
 -0.001   0.030   0.004 -11.121   0.011   0.001  -0.023  -0.003
  0.003  -0.003   0.012   0.011 -11.089  -0.002   0.001  -0.009
  1.463  -0.007   0.025   0.001  -0.002   5.970   0.005  -0.016
 -0.007   1.464  -0.002  -0.023   0.001   0.005   5.971   0.003
  0.025  -0.002   1.479  -0.003  -0.009  -0.016   0.003   5.961
  0.001  -0.023  -0.003   1.483  -0.008  -0.001   0.016   0.002
 -0.002   0.001  -0.009  -0.008   1.458   0.001  -0.001   0.006
 -0.008   0.001   0.003  -0.002   0.004   0.000   0.001   0.001
 -0.015   0.002   0.005  -0.003   0.007   0.000   0.002   0.001
  0.001   0.013   0.005   0.000   0.009  -0.001  -0.013  -0.006
  0.000  -0.009   0.015   0.001   0.000   0.000   0.010  -0.016
 -0.009   0.000  -0.000   0.013   0.001   0.010   0.000   0.000
  0.001   0.017   0.006  -0.000   0.011  -0.002  -0.018  -0.008
 -0.000  -0.011   0.020   0.001   0.000   0.000   0.013  -0.022
 -0.011  -0.000  -0.001   0.017   0.001   0.013   0.000   0.001
 pseudopotential strength for first ion, spin component:            2
-11.096   0.009  -0.032  -0.001   0.003   1.463  -0.007   0.025
  0.009 -11.097   0.003   0.030  -0.003  -0.007   1.464  -0.002
 -0.032   0.003 -11.116   0.004   0.012   0.025  -0.002   1.479
 -0.001   0.030   0.004 -11.121   0.011   0.001  -0.023  -0.003
  0.003  -0.003   0.012   0.011 -11.089  -0.002   0.001  -0.009
  1.463  -0.007   0.025   0.001  -0.002   5.970   0.005  -0.016
 -0.007   1.464  -0.002  -0.023   0.001   0.005   5.971   0.003
  0.025  -0.002   1.479  -0.003  -0.009  -0.016   0.003   5.961
  0.001  -0.023  -0.003   1.483  -0.008  -0.001   0.015   0.002
 -0.002   0.001  -0.009  -0.008   1.458   0.001  -0.001   0.006
 -0.008   0.001   0.003  -0.002   0.004   0.000   0.001   0.001
 -0.015   0.002   0.005  -0.003   0.007   0.000   0.002   0.001
  0.001   0.013   0.005   0.000   0.009  -0.001  -0.013  -0.006
  0.000  -0.009   0.015   0.001   0.000   0.000   0.010  -0.016
 -0.009   0.000  -0.000   0.013   0.001   0.010   0.000   0.000
  0.001   0.017   0.006  -0.000   0.011  -0.002  -0.018  -0.008
 -0.000  -0.011   0.020   0.001   0.000   0.000   0.013  -0.022
 -0.011  -0.000  -0.001   0.017   0.001   0.013   0.000   0.001
 total augmentation occupancy for first ion, spin component:            1
  1.927   0.002  -0.010  -0.006  -0.000  -0.019  -0.000   0.007   0.004  -0.004   0.028   0.007   0.003   0.004   0.007  -0.001
  0.002   1.936   0.010   0.011   0.000   0.000  -0.021   0.002  -0.008  -0.002  -0.005  -0.009  -0.004   0.008  -0.008   0.005
 -0.010   0.010   1.925  -0.004   0.003   0.007   0.002  -0.012   0.001  -0.005   0.005  -0.006  -0.005   0.009  -0.006   0.004
 -0.006   0.011  -0.004   1.924   0.010   0.004  -0.009   0.001  -0.010   0.001   0.020  -0.006  -0.010   0.011   0.003   0.001
 -0.000   0.000   0.003   0.010   1.937  -0.004  -0.002  -0.005   0.001  -0.024  -0.011  -0.008  -0.013  -0.002   0.005   0.007
 -0.019   0.000   0.007   0.004  -0.004   0.014  -0.001   0.003   0.000  -0.001  -0.049   0.003  -0.001  -0.007   0.016   0.000
 -0.000  -0.021   0.002  -0.009  -0.002  -0.001   0.017   0.003  -0.002  -0.000   0.024  -0.000  -0.017   0.015  -0.003   0.001
  0.007   0.002  -0.012   0.001  -0.005   0.003   0.003   0.019   0.001  -0.002   0.028  -0.003  -0.012  -0.015   0.001   0.001
  0.004  -0.008   0.001  -0.010   0.001   0.000  -0.002   0.001   0.020   0.002   0.009  -0.001  -0.002   0.004  -0.021   0.000
 -0.004  -0.002  -0.005   0.001  -0.024  -0.001  -0.000  -0.002   0.002   0.015   0.035  -0.002  -0.020  -0.000   0.007   0.001
  0.028  -0.005   0.005   0.020  -0.011  -0.049   0.024   0.028   0.009   0.035   1.699  -0.168   0.102  -0.080   0.024  -0.016
  0.007  -0.009  -0.006  -0.006  -0.008   0.003  -0.000  -0.003  -0.001  -0.002  -0.168   0.019  -0.021   0.015  -0.006   0.002
  0.003  -0.004  -0.005  -0.010  -0.013  -0.001  -0.017  -0.012  -0.002  -0.020   0.102  -0.021   0.168   0.027  -0.035  -0.011
  0.004   0.008   0.009   0.011  -0.002  -0.007   0.015  -0.015   0.004  -0.000  -0.080   0.015   0.027   0.238   0.013  -0.001
  0.007  -0.008  -0.006   0.003   0.005   0.016  -0.003   0.001  -0.021   0.007   0.024  -0.006  -0.035   0.013   0.229   0.002
 -0.001   0.005   0.004   0.001   0.007   0.000   0.001   0.001   0.000   0.001  -0.016   0.002  -0.011  -0.001   0.002   0.001
  0.001  -0.005   0.004  -0.001  -0.000   0.000  -0.001   0.001  -0.000   0.000   0.012  -0.002  -0.001  -0.016  -0.001   0.000
 -0.005   0.001   0.001   0.005  -0.001  -0.001   0.000   0.000   0.001  -0.001  -0.004   0.001   0.003  -0.001  -0.015  -0.000
 total augmentation occupancy for first ion, spin component:            2
  0.000  -0.000   0.000   0.000  -0.000  -0.000   0.000  -0.000  -0.000   0.000   0.000   0.000  -0.000   0.000  -0.000  -0.000
 -0.000   0.000  -0.000  -0.000   0.000   0.000  -0.000   0.000   0.000  -0.000  -0.000  -0.000   0.000  -0.000   0.000   0.000
  0.000  -0.000   0.000   0.000  -0.000  -0.000   0.000  -0.000  -0.000   0.000   0.000   0.000  -0.000   0.000  -0.000  -0.000
  0.000  -0.000   0.000   0.000  -0.000  -0.000   0.000  -0.000  -0.000   0.000   0.000   0.000  -0.000   0.000  -0.000   0.000
 -0.000   0.000  -0.000  -0.000   0.000   0.000  -0.000   0.000   0.000  -0.000  -0.000  -0.000   0.000  -0.000   0.000   0.000
 -0.000   0.000  -0.000  -0.000   0.000   0.000  -0.000   0.000   0.000  -0.000  -0.000  -0.000   0.000  -0.000   0.000  -0.000
  0.000  -0.000   0.000   0.000  -0.000  -0.000   0.000  -0.000  -0.000   0.000   0.000   0.000  -0.000   0.000  -0.000   0.000
 -0.000   0.000  -0.000  -0.000   0.000   0.000  -0.000   0.000   0.000  -0.000  -0.000  -0.000   0.000  -0.000   0.000  -0.000
 -0.000   0.000  -0.000  -0.000   0.000   0.000  -0.000   0.000   0.000  -0.000  -0.000  -0.000   0.000  -0.000   0.000  -0.000
  0.000  -0.000   0.000   0.000  -0.000  -0.000   0.000  -0.000  -0.000   0.000   0.000   0.000  -0.000   0.000  -0.000   0.000
  0.000  -0.000   0.000   0.000  -0.000  -0.000   0.000  -0.000  -0.000   0.000   0.000   0.000  -0.000   0.000  -0.000   0.000
  0.000  -0.000   0.000   0.000  -0.000  -0.000   0.000  -0.000  -0.000   0.000   0.000   0.000  -0.000   0.000  -0.000  -0.000
 -0.000   0.000  -0.000  -0.000   0.000   0.000  -0.000   0.000   0.000  -0.000  -0.000  -0.000   0.000  -0.000   0.000  -0.000
  0.000  -0.000   0.000   0.000  -0.000  -0.000   0.000  -0.000  -0.000   0.000   0.000   0.000  -0.000  -0.000  -0.000   0.000
 -0.000   0.000  -0.000  -0.000   0.000   0.000  -0.000   0.000   0.000  -0.000  -0.000  -0.000   0.000  -0.000   0.000   0.000
 -0.000   0.000  -0.000   0.000   0.000  -0.000   0.000  -0.000  -0.000   0.000   0.000  -0.000  -0.000   0.000   0.000   0.000
  0.000  -0.000  -0.000   0.000  -0.000   0.000   0.000  -0.000   0.000  -0.000   0.000   0.000  -0.000   0.000   0.000  -0.000
 -0.000   0.000   0.000  -0.000  -0.000   0.000   0.000  -0.000   0.000   0.000   0.000  -0.000  -0.000   0.000  -0.000  -0.000


------------------------ aborting loop because EDIFF is reached ----------------------------------------


    CHARGE:  cpu time    1.6763: real time    1.6774
    FORLOC:  cpu time    0.2026: real time    0.2027
    FORNL :  cpu time   11.4546: real time   11.4612
    FORCOR:  cpu time    5.2222: real time    5.2316
    FORHAR:  cpu time    0.6775: real time    0.6779
    MIXING:  cpu time    0.0909: real time    0.0910
    OFIELD:  cpu time    0.0000: real time    0.0000

 VOLUME and BASIS-vectors are now :
 -----------------------------------------------------------------------------
  energy-cutoff  :      400.00
  volume of cell :    13526.47
      direct lattice vectors                 reciprocal lattice vectors
    23.331591277  0.000000000  0.000000000     0.042860343  0.000000000  0.000000000
     0.000000000 23.211718327  0.000000000     0.000000000  0.043081688  0.000000000
     0.000000000  0.000000000 24.976566241     0.000000000  0.000000000  0.040037529

  length of vectors
    23.331591277 23.211718327 24.976566241     0.042860343  0.043081688  0.040037529


 FORCES acting on ions
    electron-ion (+dipol)            ewald-force                    non-local-force                 convergence-correction
 -----------------------------------------------------------------------------------------------
   0.423E+03 0.852E+03 -.230E+03   -.423E+03 -.852E+03 0.230E+03   -.342E+00 -.671E+00 0.149E+00   -.799E-02 -.270E-01 0.292E-01
   -.902E+03 -.332E+03 0.807E+03   0.898E+03 0.332E+03 -.805E+03   0.440E+01 0.689E+00 -.217E+01   -.373E-02 -.178E-01 0.219E-01
   -.101E+03 0.748E+03 -.116E+04   0.102E+03 -.742E+03 0.116E+04   -.134E+01 -.548E+01 0.429E+01   0.296E-01 0.528E-01 -.202E-01
   0.101E+04 -.880E+02 -.984E+03   -.999E+03 0.883E+02 0.978E+03   -.716E+01 -.284E+00 0.591E+01   0.584E-02 -.224E-01 0.224E-01
   0.427E+03 -.117E+04 0.149E+03   -.425E+03 0.116E+04 -.149E+03   -.175E+01 0.454E+01 0.869E+00   -.550E-02 -.136E-02 0.300E-01
   -.721E+03 -.120E+04 0.655E+02   0.717E+03 0.119E+04 -.622E+02   0.398E+01 0.892E+01 -.332E+01   -.201E-01 -.837E-02 -.257E-01
   0.271E+03 -.560E+03 0.127E+04   -.270E+03 0.558E+03 -.126E+04   -.125E+01 0.247E+01 -.571E+01   0.164E-01 0.122E-01 0.286E-01
   -.880E+03 0.110E+04 -.523E+02   0.875E+03 -.109E+04 0.524E+02   0.490E+01 -.788E+01 -.537E-01   -.369E-02 -.154E-01 0.256E-01
   0.138E+04 -.250E+03 0.113E+03   -.137E+04 0.247E+03 -.113E+03   -.793E+01 0.324E+01 -.673E+00   -.144E-01 0.135E-01 0.497E-02
   -.431E+03 0.890E+03 0.101E+04   0.427E+03 -.886E+03 -.100E+04   0.384E+01 -.415E+01 -.645E+01   0.138E-01 -.323E-03 -.103E-01
   -.128E+04 -.158E+02 -.551E+03   0.127E+04 0.151E+02 0.548E+03   0.594E+01 0.725E+00 0.274E+01   0.275E-01 0.453E-02 -.937E-02
   0.863E+03 0.808E+03 0.728E+03   -.857E+03 -.801E+03 -.724E+03   -.603E+01 -.658E+01 -.379E+01   0.896E-02 0.302E-01 -.338E-01
   -.585E+02 -.784E+03 -.115E+04   0.576E+02 0.780E+03 0.115E+04   0.875E+00 0.392E+01 0.524E+01   0.856E-03 0.784E-02 -.187E-02
 -----------------------------------------------------------------------------------------------
   0.181E+01 0.495E+00 0.291E+01   0.284E-12 0.455E-12 -.455E-12   -.187E+01 -.534E+00 -.297E+01   0.475E-01 0.285E-01 0.616E-01
 
 
 POSITION                                       TOTAL-FORCE (eV/Angst)
 -----------------------------------------------------------------------------------
     11.08432     10.18387     12.25613        -0.003305     -0.009326      0.015942
     13.11886     11.60883     11.37994        -0.009604     -0.009462      0.013335
     12.27730     10.36960     14.44052         0.013363      0.018108     -0.008041
     10.15061     11.56250     14.07247        -0.000815     -0.018734      0.001210
     11.20781     12.81062     12.32438        -0.002355     -0.005980      0.009123
     13.50738     13.61336     12.78051        -0.020962     -0.004684     -0.028418
     10.96384     11.60089     10.20402         0.005010      0.006890      0.016594
     13.44577      9.49514     12.45215        -0.008989     -0.014537      0.008978
      9.11235     11.43623     11.80382        -0.005143      0.002335      0.004693
     12.21044      9.48784     10.28100         0.003152      0.000223      0.001706
     14.20108     11.49553     13.63493         0.018101      0.003012     -0.007782
      9.74056      9.54941     10.32656         0.008885      0.025262     -0.023754
     12.23330     12.73343     14.60121         0.002664      0.006892     -0.003586
 -----------------------------------------------------------------------------------
    total drift:                               -0.007317     -0.010831      0.002019


--------------------------------------------------------------------------------------------------------



  FREE ENERGIE OF THE ION-ELECTRON SYSTEM (eV)
  ---------------------------------------------------
  free  energy   TOTEN  =       -32.85636842 eV

  energy  without entropy=      -32.82798615  energy(sigma->0) =      -32.84690766
 
 d Force =-0.5550716E-04[-0.158E-03, 0.472E-04]  d Energy =-0.6565095E-04 0.101E-04
 d Force = 0.1659755E+01[ 0.166E+01, 0.166E+01]  d Ewald  = 0.1659755E+01-0.111E-06


--------------------------------------------------------------------------------------------------------


    POTLOK:  cpu time    5.0032: real time    5.0146


--------------------------------------------------------------------------------------------------------




--------------------------------------------------------------------------------------------------------


  
 reached required accuracy - stopping structural energy minimisation
     LOOP+:  cpu time   71.5855: real time   72.2845
    4ORBIT:  cpu time    0.0000: real time    0.0000

 total amount of memory used by VASP MPI-rank0   296497. kBytes
=======================================================================

   base      :      30000. kBytes
   nonl-proj :       5406. kBytes
   fftplans  :      66150. kBytes
   grid      :     149644. kBytes
   one-center:         31. kBytes
   wavefun   :      45266. kBytes
 
  
  
 General timing and accounting informations for this job:
 ========================================================
  
                  Total CPU time used (sec):     3488.300
                            User time (sec):     3463.933
                          System time (sec):       24.367
                         Elapsed time (sec):     3536.106
  
                   Maximum memory used (kb):      610200.
                   Average memory used (kb):           0.
  
                          Minor page faults:      9337523
                          Major page faults:        37279
                 Voluntary context switches:         4205
