unknown system                          
            1
    23.331591    0.000000    0.000000
     0.000000   23.211718    0.000000
     0.000000    0.000000   24.976566
   Cu
    13
Direct configuration=     1
   0.48142867  0.44650961  0.49349250
   0.56370271  0.50022941  0.45350082
   0.52336294  0.43999894  0.58176667
   0.43169836  0.49673355  0.56551847
   0.47884373  0.55413540  0.49233004
   0.57759186  0.58746450  0.50770464
   0.46988625  0.50188211  0.40555973
   0.57665813  0.40407355  0.49872187
   0.39104319  0.49612295  0.47288473
   0.52627932  0.41091497  0.41045945
   0.60450750  0.49315677  0.54391577
   0.42069359  0.41078585  0.42085862
   0.52280569  0.54564674  0.58161759
Direct configuration=     2
   0.48079311  0.44622046  0.49259917
   0.56364998  0.49997742  0.45349056
   0.52383473  0.44073311  0.58172930
   0.43223021  0.49713341  0.56514141
   0.47867275  0.55393767  0.49240220
   0.57760585  0.58701496  0.50829763
   0.46989609  0.50129089  0.40629826
   0.57660125  0.40487550  0.49863648
   0.39142080  0.49579814  0.47281518
   0.52585115  0.41103864  0.41078771
   0.60423190  0.49316525  0.54397997
   0.42083206  0.41109611  0.42064041
   0.52288206  0.54537280  0.58151263
Direct configuration=     3
   0.47980331  0.44577013  0.49120791
   0.56356785  0.49958497  0.45347458
   0.52456949  0.44187649  0.58167111
   0.43305851  0.49775615  0.56455419
   0.47840647  0.55362972  0.49251459
   0.57762764  0.58631486  0.50922115
   0.46991140  0.50037013  0.40744843
   0.57651267  0.40612442  0.49850350
   0.39200888  0.49529229  0.47270686
   0.52518433  0.41123126  0.41129892
   0.60380267  0.49317845  0.54407994
   0.42104772  0.41157929  0.42030056
   0.52300099  0.54494617  0.58134916
Direct configuration=     4
   0.47938582  0.44497369  0.49131879
   0.56363047  0.49960520  0.45352918
   0.52487992  0.44256073  0.58138535
   0.43364412  0.49815051  0.56409127
   0.47845025  0.55361722  0.49259921
   0.57770192  0.58587523  0.50989722
   0.47001596  0.50035807  0.40776030
   0.57639789  0.40703468  0.49841217
   0.39177177  0.49503676  0.47274784
   0.52504277  0.41081798  0.41132003
   0.60409860  0.49332080  0.54423463
   0.42040773  0.41117912  0.41942844
   0.52307473  0.54512435  0.58160648
Direct configuration=     5
   0.47862492  0.44352213  0.49152088
   0.56374458  0.49964208  0.45362869
   0.52544570  0.44380779  0.58086452
   0.43471143  0.49886924  0.56324756
   0.47853003  0.55359444  0.49275343
   0.57783729  0.58507399  0.51112940
   0.47020651  0.50033608  0.40832871
   0.57618869  0.40869367  0.49824572
   0.39133963  0.49457103  0.47282253
   0.52478478  0.41006478  0.41135850
   0.60463794  0.49358025  0.54451657
   0.41924131  0.41044977  0.41783895
   0.52320913  0.54544911  0.58207545
Direct configuration=     6
   0.47774582  0.44228903  0.49148894
   0.56353208  0.50010298  0.45364268
   0.52549158  0.44393623  0.58066607
   0.43469104  0.49897917  0.56312391
   0.47899631  0.55362916  0.49251799
   0.57812944  0.58533042  0.51151850
   0.47015838  0.50021548  0.40841570
   0.57631999  0.40888196  0.49810837
   0.39090708  0.49401846  0.47271922
   0.52445258  0.40950270  0.41129365
   0.60605691  0.49391547  0.54497040
   0.41863153  0.41036350  0.41678509
   0.52338920  0.54648978  0.58308038
Direct configuration=     7
   0.47699389  0.44123431  0.49146163
   0.56335033  0.50049720  0.45365465
   0.52553082  0.44404610  0.58049634
   0.43467360  0.49907319  0.56301814
   0.47939514  0.55365886  0.49231662
   0.57837933  0.58554976  0.51185131
   0.47011720  0.50011233  0.40849011
   0.57643229  0.40904301  0.49799089
   0.39053710  0.49354583  0.47263086
   0.52416844  0.40902194  0.41123817
   0.60727060  0.49420220  0.54535858
   0.41810996  0.41028971  0.41588369
   0.52354322  0.54737991  0.58393993
Direct configuration=     8
   0.47647661  0.44064896  0.49108243
   0.56294723  0.50064975  0.45412526
   0.52574849  0.44470736  0.58000100
   0.43474582  0.49898332  0.56305166
   0.47992263  0.55320014  0.49240097
   0.57858180  0.58590808  0.51186653
   0.46985899  0.49965828  0.40845175
   0.57645772  0.40911286  0.49802142
   0.39058716  0.49311980  0.47249666
   0.52370486  0.40899504  0.41140770
   0.60754263  0.49428796  0.54568091
   0.41819489  0.41081859  0.41547240
   0.52373311  0.54756422  0.58427223
Direct configuration=     9
   0.47609053  0.44021207  0.49079941
   0.56264637  0.50076361  0.45447650
   0.52591094  0.44520090  0.57963130
   0.43479973  0.49891625  0.56307668
   0.48031632  0.55285777  0.49246392
   0.57873292  0.58617552  0.51187790
   0.46966627  0.49931939  0.40842312
   0.57647669  0.40916500  0.49804421
   0.39062452  0.49280182  0.47239649
   0.52335887  0.40897496  0.41153422
   0.60774566  0.49435197  0.54592149
   0.41825828  0.41121332  0.41516542
   0.52387483  0.54770178  0.58452024
Direct configuration=    10
   0.47578887  0.43954679  0.49100860
   0.56226128  0.50069547  0.45519359
   0.52607939  0.44603767  0.57880995
   0.43504524  0.49867756  0.56304223
   0.48074093  0.55218019  0.49283440
   0.57894052  0.58641748  0.51195123
   0.46961122  0.49943610  0.40814534
   0.57634773  0.40931211  0.49815862
   0.39052638  0.49263943  0.47246647
   0.52325730  0.40882033  0.41160245
   0.60789057  0.49470182  0.54612883
   0.41783723  0.41126950  0.41438528
   0.52417528  0.54791990  0.58460392
Direct configuration=    11
   0.47573353  0.43942474  0.49104698
   0.56219064  0.50068297  0.45532515
   0.52611029  0.44619118  0.57865926
   0.43509028  0.49863377  0.56303591
   0.48081882  0.55205589  0.49290237
   0.57897860  0.58646187  0.51196468
   0.46960112  0.49945751  0.40809438
   0.57632407  0.40933910  0.49817961
   0.39050837  0.49260964  0.47247931
   0.52323867  0.40879196  0.41161497
   0.60791715  0.49476600  0.54616687
   0.41775998  0.41127981  0.41424216
   0.52423040  0.54795991  0.58461927
Direct configuration=    12
   0.47543457  0.43915015  0.49092196
   0.56223182  0.50042200  0.45543802
   0.52603523  0.44627347  0.57846934
   0.43507031  0.49845731  0.56314292
   0.48057952  0.55192492  0.49311770
   0.57904975  0.58648504  0.51197601
   0.46976415  0.49970425  0.40820868
   0.57632260  0.40924280  0.49826881
   0.39057127  0.49264183  0.47256698
   0.52332981  0.40875038  0.41163139
   0.60829483  0.49510200  0.54607467
   0.41749082  0.41114686  0.41388157
   0.52432726  0.54835335  0.58463287
Direct configuration=    13
   0.47533114  0.43905516  0.49087871
   0.56224606  0.50033172  0.45547707
   0.52600927  0.44630194  0.57840364
   0.43506340  0.49839626  0.56317995
   0.48049672  0.55187960  0.49319219
   0.57907436  0.58649306  0.51197993
   0.46982056  0.49978961  0.40824822
   0.57632209  0.40920948  0.49829968
   0.39059303  0.49265296  0.47259731
   0.52336135  0.40873600  0.41163707
   0.60842549  0.49521824  0.54604277
   0.41739770  0.41110087  0.41375682
   0.52436076  0.54848946  0.58463757
Direct configuration=    14
   0.47507868  0.43879982  0.49060014
   0.56230004  0.50014770  0.45555923
   0.52612686  0.44657746  0.57824761
   0.43503906  0.49822500  0.56340096
   0.48035396  0.55190355  0.49337530
   0.57902398  0.58651563  0.51181848
   0.46989328  0.49976940  0.40847870
   0.57633071  0.40911155  0.49848090
   0.39061953  0.49266037  0.47258489
   0.52331563  0.40876940  0.41165681
   0.60862545  0.49527204  0.54594177
   0.41745943  0.41130368  0.41356233
   0.52433534  0.54859875  0.58462379
Direct configuration=    15
   0.47508283  0.43880402  0.49060472
   0.56229915  0.50015073  0.45555788
   0.52612492  0.44657293  0.57825018
   0.43503946  0.49822782  0.56339733
   0.48035631  0.55190315  0.49337228
   0.57902481  0.58651526  0.51182113
   0.46989208  0.49976974  0.40847491
   0.57633057  0.40911316  0.49847792
   0.39061909  0.49266025  0.47258510
   0.52331638  0.40876885  0.41165649
   0.60862216  0.49527116  0.54594343
   0.41745841  0.41130035  0.41356553
   0.52433576  0.54859695  0.58462402
Direct configuration=    16
   0.47507658  0.43872165  0.49073025
   0.56227393  0.50012240  0.45564156
   0.52623022  0.44678183  0.57814096
   0.43506340  0.49810828  0.56343429
   0.48037402  0.55190302  0.49345395
   0.57890727  0.58647928  0.51166969
   0.46991929  0.49979005  0.40856074
   0.57628012  0.40905513  0.49857217
   0.39054314  0.49270026  0.47259823
   0.52335040  0.40874781  0.41161814
   0.60867323  0.49524101  0.54590051
   0.41749005  0.41143084  0.41342091
   0.52432028  0.54857278  0.58458951
Direct configuration=    17
   0.47507783  0.43873811  0.49070517
   0.56227897  0.50012806  0.45562483
   0.52620918  0.44674008  0.57816279
   0.43505862  0.49813217  0.56342690
   0.48037048  0.55190305  0.49343763
   0.57893076  0.58648647  0.51169995
   0.46991385  0.49978599  0.40854359
   0.57629021  0.40906673  0.49855333
   0.39055832  0.49269226  0.47259561
   0.52334360  0.40875202  0.41162581
   0.60866303  0.49524703  0.54590908
   0.41748373  0.41140477  0.41344981
   0.52432337  0.54857761  0.58459641
