   5   5   0   0
  0.2132730E+04  0.2169902E-08  0.2197414E-08  0.2236423E-08  0.5000000E-15
   1.0000000000000000E-004
  CAR 
 unknown system                          
      1.38872993     -9.70977180  301     -4.13877508      1.00000000
     -9.710  0.0000E+00  0.0000E+00  0.0000E+00  0.0000E+00
     -9.673  0.0000E+00  0.0000E+00  0.0000E+00  0.0000E+00
     -9.636  0.0000E+00  0.0000E+00  0.0000E+00  0.0000E+00
     -9.599  0.0000E+00  0.0000E+00  0.0000E+00  0.0000E+00
     -9.562  0.0000E+00  0.0000E+00  0.0000E+00  0.0000E+00
     -9.525  0.0000E+00  0.0000E+00  0.0000E+00  0.0000E+00
     -9.488  0.0000E+00  0.0000E+00  0.0000E+00  0.0000E+00
     -9.451  0.0000E+00  0.0000E+00  0.0000E+00  0.0000E+00
     -9.414  0.0000E+00  0.0000E+00  0.0000E+00  0.0000E+00
     -9.377  0.0000E+00  0.0000E+00  0.0000E+00  0.0000E+00
     -9.340 -0.8805E-30  0.0000E+00 -0.3257E-31  0.0000E+00
     -9.303 -0.1608E-28  0.0000E+00 -0.6274E-30  0.0000E+00
     -9.266 -0.2879E-27  0.0000E+00 -0.1128E-28  0.0000E+00
     -9.229 -0.4810E-26  0.0000E+00 -0.1892E-27  0.0000E+00
     -9.192 -0.7498E-25  0.0000E+00 -0.2963E-26  0.0000E+00
     -9.155 -0.1090E-23  0.0000E+00 -0.4330E-25  0.0000E+00
     -9.118 -0.1479E-22  0.0000E+00 -0.5906E-24  0.0000E+00
     -9.081 -0.1872E-21  0.0000E+00 -0.7517E-23  0.0000E+00
     -9.044 -0.2210E-20  0.0000E+00 -0.8928E-22  0.0000E+00
     -9.007 -0.2433E-19  0.0000E+00 -0.9895E-21  0.0000E+00
     -8.970 -0.2499E-18  0.0000E+00 -0.1023E-19  0.0000E+00
     -8.933 -0.2393E-17 -0.6472E-29 -0.9875E-19 -0.2394E-30
     -8.896 -0.2136E-16 -0.1125E-27 -0.8891E-18 -0.4403E-29
     -8.859 -0.1718E-15 -0.1923E-26 -0.7246E-17 -0.7556E-28
     -8.822 -0.1335E-14 -0.3067E-25 -0.5663E-16 -0.1210E-26
     -8.785 -0.9640E-14 -0.4564E-24 -0.4133E-15 -0.1809E-25
     -8.748 -0.6481E-13 -0.6334E-23 -0.2811E-14 -0.2524E-24
     -8.711 -0.4059E-12 -0.8201E-22 -0.1783E-13 -0.3286E-23
     -8.674 -0.2368E-11 -0.9905E-21 -0.1054E-12 -0.3993E-22
     -8.637 -0.1286E-10 -0.1116E-19 -0.5812E-12 -0.4527E-21
     -8.600 -0.6501E-10 -0.1172E-18 -0.2986E-11 -0.4789E-20
     -8.563 -0.3058E-09 -0.1148E-17 -0.1430E-10 -0.4728E-19
     -8.526 -0.1338E-08 -0.1049E-16 -0.6379E-10 -0.4354E-18
     -8.489 -0.5442E-08 -0.8637E-16 -0.2651E-09 -0.3631E-17
     -8.452 -0.2057E-07 -0.6872E-15 -0.1026E-08 -0.2905E-16
     -8.415 -0.7218E-07 -0.5077E-14 -0.3696E-08 -0.2169E-15
     -8.378 -0.2350E-06 -0.3493E-13 -0.1239E-07 -0.1509E-14
     -8.341 -0.7095E-06 -0.2239E-12 -0.3864E-07 -0.9793E-14
     -8.304 -0.1983E-05 -0.1337E-11 -0.1120E-06 -0.5925E-13
     -8.267 -0.5123E-05 -0.7431E-11 -0.3015E-06 -0.3342E-12
     -8.230 -0.1221E-04 -0.3845E-10 -0.7534E-06 -0.1757E-11
     -8.193 -0.2679E-04 -0.1852E-09 -0.1744E-05 -0.8607E-11
     -8.156 -0.5384E-04 -0.8294E-09 -0.3736E-05 -0.3929E-10
     -8.119 -0.9861E-04 -0.3454E-08 -0.7384E-05 -0.1671E-09
     -8.082 -0.1630E-03 -0.1337E-07 -0.1341E-04 -0.6615E-09
     -8.045 -0.2391E-03 -0.4803E-07 -0.2226E-04 -0.2439E-08
     -8.008 -0.3009E-03 -0.1602E-06 -0.3339E-04 -0.8365E-08
     -7.971 -0.2973E-03 -0.4953E-06 -0.4439E-04 -0.2669E-07
     -7.934 -0.1528E-03 -0.1418E-05 -0.5004E-04 -0.7916E-07
     -7.897  0.2191E-03 -0.3755E-05 -0.4194E-04 -0.2181E-06
     -7.860  0.8885E-03 -0.9178E-05 -0.9068E-05 -0.5576E-06
     -7.823  0.1874E-02 -0.2065E-04  0.6026E-04 -0.1322E-05
     -7.786  0.3115E-02 -0.4262E-04  0.1755E-03 -0.2898E-05
     -7.749  0.4463E-02 -0.8026E-04  0.3406E-03 -0.5867E-05
     -7.712  0.5708E-02 -0.1368E-03  0.5518E-03 -0.1093E-04
     -7.675  0.6622E-02 -0.2081E-03  0.7967E-03 -0.1863E-04
     -7.638  0.7021E-02 -0.2749E-03  0.1056E-02 -0.2880E-04
     -7.601  0.6820E-02 -0.2956E-03  0.1309E-02 -0.3973E-04
     -7.564  0.6061E-02 -0.2042E-03  0.1533E-02 -0.4729E-04
     -7.527  0.4913E-02  0.7966E-04  0.1715E-02 -0.4434E-04
     -7.490  0.3636E-02  0.6284E-03  0.1849E-02 -0.2109E-04
     -7.453  0.2521E-02  0.1475E-02  0.1943E-02  0.3347E-04
     -7.416  0.1805E-02  0.2583E-02  0.2009E-02  0.1290E-03
     -7.379  0.1609E-02  0.3838E-02  0.2069E-02  0.2710E-03
     -7.342  0.1905E-02  0.5060E-02  0.2139E-02  0.4582E-03
     -7.305  0.2530E-02  0.6042E-02  0.2233E-02  0.6818E-03
     -7.268  0.3259E-02  0.6601E-02  0.2353E-02  0.9260E-03
     -7.231  0.3885E-02  0.6628E-02  0.2497E-02  0.1171E-02
     -7.194  0.4297E-02  0.6129E-02  0.2656E-02  0.1398E-02
     -7.157  0.4495E-02  0.5236E-02  0.2822E-02  0.1592E-02
     -7.120  0.4564E-02  0.4200E-02  0.2991E-02  0.1747E-02
     -7.083  0.4603E-02  0.3338E-02  0.3162E-02  0.1870E-02
     -7.046  0.4679E-02  0.2947E-02  0.3335E-02  0.1980E-02
     -7.009  0.4811E-02  0.3203E-02  0.3513E-02  0.2098E-02
     -6.972  0.4989E-02  0.4084E-02  0.3697E-02  0.2249E-02
     -6.935  0.5209E-02  0.5350E-02  0.3890E-02  0.2447E-02
     -6.898  0.5478E-02  0.6607E-02  0.4093E-02  0.2691E-02
     -6.861  0.5798E-02  0.7433E-02  0.4307E-02  0.2966E-02
     -6.824  0.6139E-02  0.7532E-02  0.4534E-02  0.3245E-02
     -6.787  0.6428E-02  0.6843E-02  0.4772E-02  0.3498E-02
     -6.750  0.6555E-02  0.5559E-02  0.5015E-02  0.3704E-02
     -6.713  0.6410E-02  0.4061E-02  0.5252E-02  0.3854E-02
     -6.676  0.5922E-02  0.2781E-02  0.5471E-02  0.3957E-02
     -6.639  0.5088E-02  0.2068E-02  0.5659E-02  0.4034E-02
     -6.602  0.3988E-02  0.2089E-02  0.5806E-02  0.4111E-02
     -6.565  0.2770E-02  0.2797E-02  0.5909E-02  0.4214E-02
     -6.528  0.1620E-02  0.3963E-02  0.5969E-02  0.4361E-02
     -6.491  0.7195E-03  0.5258E-02  0.5995E-02  0.4555E-02
     -6.454  0.2084E-03  0.6337E-02  0.6003E-02  0.4790E-02
     -6.417  0.1597E-03  0.6929E-02  0.6009E-02  0.5046E-02
     -6.380  0.5688E-03  0.6887E-02  0.6030E-02  0.5301E-02
     -6.343  0.1355E-02  0.6215E-02  0.6080E-02  0.5531E-02
     -6.306  0.2375E-02  0.5055E-02  0.6168E-02  0.5718E-02
     -6.269  0.3455E-02  0.3642E-02  0.6296E-02  0.5853E-02
     -6.232  0.4428E-02  0.2254E-02  0.6460E-02  0.5936E-02
     -6.195  0.5174E-02  0.1149E-02  0.6651E-02  0.5979E-02
     -6.158  0.5646E-02  0.5218E-03  0.6860E-02  0.5998E-02
     -6.121  0.5866E-02  0.4757E-03  0.7077E-02  0.6015E-02
     -6.084  0.5910E-02  0.1009E-02  0.7296E-02  0.6053E-02
     -6.047  0.5889E-02  0.2024E-02  0.7514E-02  0.6128E-02
     -6.010  0.5923E-02  0.3342E-02  0.7733E-02  0.6251E-02
     -5.973  0.6124E-02  0.4746E-02  0.7959E-02  0.6427E-02
     -5.936  0.6573E-02  0.6024E-02  0.8202E-02  0.6650E-02
     -5.899  0.7285E-02  0.7008E-02  0.8472E-02  0.6909E-02
     -5.862  0.8175E-02  0.7606E-02  0.8774E-02  0.7190E-02
     -5.825  0.9056E-02  0.7801E-02  0.9109E-02  0.7479E-02
     -5.788  0.9669E-02  0.7637E-02  0.9467E-02  0.7762E-02
     -5.751  0.9760E-02  0.7199E-02  0.9828E-02  0.8028E-02
     -5.714  0.9177E-02  0.6606E-02  0.1017E-01  0.8272E-02
     -5.677  0.7946E-02  0.6005E-02  0.1046E-01  0.8494E-02
     -5.640  0.6292E-02  0.5563E-02  0.1069E-01  0.8700E-02
     -5.603  0.4575E-02  0.5429E-02  0.1086E-01  0.8901E-02
     -5.566  0.3176E-02  0.5672E-02  0.1098E-01  0.9111E-02
     -5.529  0.2380E-02  0.6234E-02  0.1107E-01  0.9342E-02
     -5.492  0.2291E-02  0.6918E-02  0.1115E-01  0.9598E-02
     -5.455  0.2843E-02  0.7455E-02  0.1126E-01  0.9873E-02
     -5.418  0.3855E-02  0.7619E-02  0.1140E-01  0.1016E-01
     -5.381  0.5117E-02  0.7334E-02  0.1159E-01  0.1043E-01
     -5.344  0.6455E-02  0.6722E-02  0.1183E-01  0.1068E-01
     -5.307  0.7749E-02  0.6047E-02  0.1212E-01  0.1090E-01
     -5.270  0.8928E-02  0.5613E-02  0.1245E-01  0.1111E-01
     -5.233  0.9949E-02  0.5642E-02  0.1281E-01  0.1132E-01
     -5.196  0.1079E-01  0.6204E-02  0.1321E-01  0.1154E-01
     -5.159  0.1144E-01  0.7213E-02  0.1364E-01  0.1181E-01
     -5.122  0.1190E-01  0.8474E-02  0.1408E-01  0.1213E-01
     -5.085  0.1215E-01  0.9753E-02  0.1453E-01  0.1249E-01
     -5.048  0.1220E-01  0.1084E-01  0.1498E-01  0.1289E-01
     -5.011  0.1202E-01  0.1161E-01  0.1542E-01  0.1332E-01
     -4.974  0.1169E-01  0.1200E-01  0.1586E-01  0.1376E-01
     -4.937  0.1132E-01  0.1206E-01  0.1627E-01  0.1421E-01
     -4.900  0.1114E-01  0.1184E-01  0.1669E-01  0.1464E-01
     -4.863  0.1137E-01  0.1143E-01  0.1711E-01  0.1507E-01
     -4.826  0.1212E-01  0.1087E-01  0.1756E-01  0.1547E-01
     -4.789  0.1338E-01  0.1024E-01  0.1805E-01  0.1585E-01
     -4.752  0.1498E-01  0.9632E-02  0.1860E-01  0.1620E-01
     -4.715  0.1666E-01  0.9223E-02  0.1922E-01  0.1655E-01
     -4.678  0.1823E-01  0.9202E-02  0.1990E-01  0.1689E-01
     -4.641  0.1955E-01  0.9719E-02  0.2062E-01  0.1725E-01
     -4.604  0.2053E-01  0.1080E-01  0.2138E-01  0.1765E-01
     -4.567  0.2109E-01  0.1233E-01  0.2216E-01  0.1810E-01
     -4.530  0.2108E-01  0.1406E-01  0.2294E-01  0.1862E-01
     -4.493  0.2030E-01  0.1569E-01  0.2369E-01  0.1920E-01
     -4.456  0.1862E-01  0.1699E-01  0.2438E-01  0.1983E-01
     -4.419  0.1602E-01  0.1775E-01  0.2497E-01  0.2049E-01
     -4.382  0.1273E-01  0.1785E-01  0.2544E-01  0.2115E-01
     -4.345  0.9151E-02  0.1723E-01  0.2578E-01  0.2178E-01
     -4.309  0.5755E-02  0.1585E-01  0.2599E-01  0.2237E-01
     -4.272  0.2937E-02  0.1380E-01  0.2610E-01  0.2288E-01
     -4.235  0.9121E-03  0.1125E-01  0.2614E-01  0.2330E-01
     -4.198 -0.3158E-03  0.8521E-02  0.2612E-01  0.2361E-01
     -4.161 -0.8968E-03  0.6017E-02  0.2609E-01  0.2384E-01
     -4.124 -0.1044E-02  0.4138E-02  0.2605E-01  0.2399E-01
     -4.087 -0.9446E-03  0.3161E-02  0.2602E-01  0.2411E-01
     -4.050 -0.7066E-03  0.3147E-02  0.2599E-01  0.2422E-01
     -4.013 -0.3509E-03  0.3915E-02  0.2598E-01  0.2437E-01
     -3.976  0.1568E-03  0.5092E-02  0.2598E-01  0.2456E-01
     -3.939  0.8532E-03  0.6226E-02  0.2602E-01  0.2479E-01
     -3.902  0.1722E-02  0.6932E-02  0.2608E-01  0.2504E-01
     -3.865  0.2666E-02  0.7009E-02  0.2618E-01  0.2530E-01
     -3.828  0.3513E-02  0.6494E-02  0.2631E-01  0.2554E-01
     -3.791  0.4070E-02  0.5624E-02  0.2646E-01  0.2575E-01
     -3.754  0.4195E-02  0.4726E-02  0.2661E-01  0.2592E-01
     -3.717  0.3855E-02  0.4075E-02  0.2676E-01  0.2608E-01
     -3.680  0.3140E-02  0.3791E-02  0.2687E-01  0.2622E-01
     -3.643  0.2225E-02  0.3802E-02  0.2695E-01  0.2636E-01
     -3.606  0.1307E-02  0.3904E-02  0.2700E-01  0.2650E-01
     -3.569  0.5351E-03  0.3864E-02  0.2702E-01  0.2664E-01
     -3.532 -0.1506E-04  0.3536E-02  0.2702E-01  0.2677E-01
     -3.495 -0.3360E-03  0.2906E-02  0.2701E-01  0.2688E-01
     -3.458 -0.4504E-03  0.2084E-02  0.2699E-01  0.2696E-01
     -3.421 -0.3733E-03  0.1231E-02  0.2698E-01  0.2700E-01
     -3.384 -0.9404E-04  0.4949E-03  0.2698E-01  0.2702E-01
     -3.347  0.4111E-03 -0.4053E-04  0.2699E-01  0.2702E-01
     -3.310  0.1143E-02 -0.3517E-03  0.2703E-01  0.2701E-01
     -3.273  0.2043E-02 -0.4462E-03  0.2711E-01  0.2699E-01
     -3.236  0.2972E-02 -0.3291E-03  0.2722E-01  0.2698E-01
     -3.199  0.3739E-02  0.1198E-04  0.2736E-01  0.2698E-01
     -3.162  0.4156E-02  0.5914E-03  0.2751E-01  0.2700E-01
     -3.125  0.4112E-02  0.1390E-02  0.2766E-01  0.2705E-01
     -3.088  0.3613E-02  0.2320E-02  0.2780E-01  0.2714E-01
     -3.051  0.2782E-02  0.3223E-02  0.2790E-01  0.2726E-01
     -3.014  0.1814E-02  0.3899E-02  0.2797E-01  0.2740E-01
     -2.977  0.9061E-03  0.4175E-02  0.2800E-01  0.2756E-01
     -2.940  0.2109E-03  0.3973E-02  0.2801E-01  0.2770E-01
     -2.903 -0.1816E-03  0.3337E-02  0.2800E-01  0.2783E-01
     -2.866 -0.2331E-03  0.2427E-02  0.2799E-01  0.2792E-01
     -2.829  0.6096E-04  0.1458E-02  0.2800E-01  0.2797E-01
     -2.792  0.6734E-03  0.6411E-03  0.2802E-01  0.2799E-01
     -2.755  0.1532E-02  0.1373E-03  0.2808E-01  0.2800E-01
     -2.718  0.2501E-02  0.3644E-04  0.2817E-01  0.2800E-01
     -2.681  0.3394E-02  0.3556E-03  0.2829E-01  0.2801E-01
     -2.644  0.4009E-02  0.1040E-02  0.2844E-01  0.2805E-01
     -2.607  0.4196E-02  0.1960E-02  0.2860E-01  0.2813E-01
     -2.570  0.3911E-02  0.2927E-02  0.2874E-01  0.2823E-01
     -2.533  0.3236E-02  0.3718E-02  0.2886E-01  0.2837E-01
     -2.496  0.2348E-02  0.4141E-02  0.2895E-01  0.2852E-01
     -2.459  0.1448E-02  0.4092E-02  0.2900E-01  0.2868E-01
     -2.422  0.6967E-03  0.3595E-02  0.2903E-01  0.2881E-01
     -2.385  0.1766E-03  0.2788E-02  0.2904E-01  0.2891E-01
     -2.348 -0.1112E-03  0.1871E-02  0.2903E-01  0.2898E-01
     -2.311 -0.2194E-03  0.1033E-02  0.2902E-01  0.2902E-01
     -2.274 -0.2182E-03  0.3971E-03  0.2902E-01  0.2903E-01
     -2.237 -0.1691E-03  0.1269E-05  0.2901E-01  0.2903E-01
     -2.200 -0.1120E-03 -0.1852E-03  0.2900E-01  0.2903E-01
     -2.163 -0.6569E-04 -0.2281E-03  0.2900E-01  0.2902E-01
     -2.126 -0.3503E-04 -0.1958E-03  0.2900E-01  0.2901E-01
     -2.089 -0.1791E-04 -0.1390E-03  0.2900E-01  0.2901E-01
     -2.052 -0.1080E-04 -0.8619E-04  0.2900E-01  0.2900E-01
     -2.015 -0.1153E-04 -0.4805E-04  0.2900E-01  0.2900E-01
     -1.978 -0.2034E-04 -0.2502E-04  0.2900E-01  0.2900E-01
     -1.941 -0.3980E-04 -0.1392E-04  0.2900E-01  0.2900E-01
     -1.904 -0.7347E-04 -0.1197E-04  0.2899E-01  0.2900E-01
     -1.867 -0.1226E-03 -0.1856E-04  0.2899E-01  0.2900E-01
     -1.830 -0.1805E-03 -0.3565E-04  0.2898E-01  0.2900E-01
     -1.793 -0.2248E-03 -0.6675E-04  0.2898E-01  0.2900E-01
     -1.756 -0.2119E-03 -0.1142E-03  0.2897E-01  0.2899E-01
     -1.719 -0.7843E-04 -0.1740E-03  0.2896E-01  0.2898E-01
     -1.682  0.2427E-03 -0.2287E-03  0.2897E-01  0.2898E-01
     -1.645  0.7926E-03 -0.2411E-03  0.2900E-01  0.2897E-01
     -1.608  0.1552E-02 -0.1538E-03  0.2906E-01  0.2896E-01
     -1.571  0.2420E-02  0.9956E-04  0.2915E-01  0.2897E-01
     -1.534  0.3228E-02  0.5706E-03  0.2927E-01  0.2899E-01
     -1.497  0.3791E-02  0.1267E-02  0.2941E-01  0.2903E-01
     -1.460  0.3988E-02  0.2132E-02  0.2956E-01  0.2911E-01
     -1.423  0.3823E-02  0.3052E-02  0.2970E-01  0.2922E-01
     -1.386  0.3436E-02  0.3895E-02  0.2983E-01  0.2937E-01
     -1.349  0.3051E-02  0.4553E-02  0.2994E-01  0.2954E-01
     -1.312  0.2871E-02  0.4985E-02  0.3004E-01  0.2972E-01
     -1.275  0.2982E-02  0.5208E-02  0.3015E-01  0.2991E-01
     -1.238  0.3312E-02  0.5260E-02  0.3028E-01  0.3011E-01
     -1.201  0.3663E-02  0.5154E-02  0.3041E-01  0.3030E-01
     -1.164  0.3809E-02  0.4862E-02  0.3055E-01  0.3048E-01
     -1.127  0.3607E-02  0.4340E-02  0.3069E-01  0.3064E-01
     -1.090  0.3065E-02  0.3580E-02  0.3080E-01  0.3077E-01
     -1.053  0.2346E-02  0.2653E-02  0.3089E-01  0.3087E-01
     -1.016  0.1699E-02  0.1713E-02  0.3095E-01  0.3093E-01
     -0.979  0.1363E-02  0.9621E-03  0.3100E-01  0.3097E-01
     -0.942  0.1480E-02  0.5891E-03  0.3106E-01  0.3099E-01
     -0.905  0.2052E-02  0.7157E-03  0.3113E-01  0.3102E-01
     -0.868  0.2954E-02  0.1361E-02  0.3124E-01  0.3107E-01
     -0.831  0.3990E-02  0.2432E-02  0.3139E-01  0.3116E-01
     -0.794  0.4953E-02  0.3749E-02  0.3157E-01  0.3130E-01
     -0.757  0.5684E-02  0.5073E-02  0.3178E-01  0.3148E-01
     -0.720  0.6085E-02  0.6163E-02  0.3201E-01  0.3171E-01
     -0.683  0.6116E-02  0.6820E-02  0.3223E-01  0.3197E-01
     -0.646  0.5776E-02  0.6930E-02  0.3245E-01  0.3222E-01
     -0.609  0.5105E-02  0.6479E-02  0.3264E-01  0.3246E-01
     -0.572  0.4180E-02  0.5560E-02  0.3279E-01  0.3267E-01
     -0.535  0.3119E-02  0.4343E-02  0.3291E-01  0.3283E-01
     -0.498  0.2062E-02  0.3037E-02  0.3298E-01  0.3294E-01
     -0.461  0.1143E-02  0.1836E-02  0.3302E-01  0.3301E-01
     -0.424  0.4507E-03  0.8792E-03  0.3304E-01  0.3304E-01
     -0.387  0.1088E-04  0.2253E-03  0.3304E-01  0.3305E-01
     -0.350 -0.2066E-03 -0.1413E-03  0.3303E-01  0.3304E-01
     -0.313 -0.2657E-03 -0.2865E-03  0.3302E-01  0.3303E-01
     -0.276 -0.2361E-03 -0.2930E-03  0.3302E-01  0.3302E-01
     -0.239 -0.1733E-03 -0.2342E-03  0.3301E-01  0.3301E-01
     -0.202 -0.1110E-03 -0.1603E-03  0.3300E-01  0.3301E-01
     -0.165 -0.6353E-04 -0.9727E-04  0.3300E-01  0.3300E-01
     -0.128 -0.3294E-04 -0.5325E-04  0.3300E-01  0.3300E-01
     -0.091 -0.1559E-04 -0.2655E-04  0.3300E-01  0.3300E-01
     -0.054 -0.6766E-05 -0.1212E-04  0.3300E-01  0.3300E-01
     -0.017 -0.2704E-05 -0.5093E-05  0.3300E-01  0.3300E-01
      0.020 -0.9972E-06 -0.1973E-05  0.3300E-01  0.3300E-01
      0.057 -0.3401E-06 -0.7067E-06  0.3300E-01  0.3300E-01
      0.094 -0.1074E-06 -0.2343E-06  0.3300E-01  0.3300E-01
      0.131 -0.3144E-07 -0.7199E-07  0.3300E-01  0.3300E-01
      0.168 -0.8542E-08 -0.2052E-07  0.3300E-01  0.3300E-01
      0.205 -0.2155E-08 -0.5432E-08  0.3300E-01  0.3300E-01
      0.242 -0.5054E-09 -0.1336E-08  0.3300E-01  0.3300E-01
      0.279 -0.1102E-09 -0.3054E-09  0.3300E-01  0.3300E-01
      0.316 -0.2234E-10 -0.6495E-10  0.3300E-01  0.3300E-01
      0.353 -0.4217E-11 -0.1285E-10  0.3300E-01  0.3300E-01
      0.390 -0.7408E-12 -0.2366E-11  0.3300E-01  0.3300E-01
      0.427 -0.1212E-12 -0.4057E-12  0.3300E-01  0.3300E-01
      0.464 -0.1846E-13 -0.6479E-13  0.3300E-01  0.3300E-01
      0.501 -0.2617E-14 -0.9633E-14  0.3300E-01  0.3300E-01
      0.538 -0.3481E-15 -0.1332E-14  0.3300E-01  0.3300E-01
      0.575 -0.4201E-16 -0.1741E-15  0.3300E-01  0.3300E-01
      0.612 -0.6002E-17 -0.2401E-16  0.3300E-01  0.3300E-01
      0.649  0.0000E+00  0.0000E+00  0.3300E-01  0.3300E-01
      0.686  0.0000E+00  0.0000E+00  0.3300E-01  0.3300E-01
      0.723  0.0000E+00  0.0000E+00  0.3300E-01  0.3300E-01
      0.760  0.0000E+00  0.0000E+00  0.3300E-01  0.3300E-01
      0.797  0.0000E+00  0.0000E+00  0.3300E-01  0.3300E-01
      0.834  0.0000E+00  0.0000E+00  0.3300E-01  0.3300E-01
      0.871  0.0000E+00  0.0000E+00  0.3300E-01  0.3300E-01
      0.908  0.0000E+00  0.0000E+00  0.3300E-01  0.3300E-01
      0.945  0.0000E+00  0.0000E+00  0.3300E-01  0.3300E-01
      0.982  0.0000E+00  0.0000E+00  0.3300E-01  0.3300E-01
      1.019  0.0000E+00  0.0000E+00  0.3300E-01  0.3300E-01
      1.056  0.0000E+00  0.0000E+00  0.3300E-01  0.3300E-01
      1.093  0.0000E+00  0.0000E+00  0.3300E-01  0.3300E-01
      1.130  0.0000E+00  0.0000E+00  0.3300E-01  0.3300E-01
      1.167  0.0000E+00  0.0000E+00  0.3300E-01  0.3300E-01
      1.204  0.0000E+00  0.0000E+00  0.3300E-01  0.3300E-01
      1.241  0.0000E+00  0.0000E+00  0.3300E-01  0.3300E-01
      1.278  0.0000E+00  0.0000E+00  0.3300E-01  0.3300E-01
      1.315  0.0000E+00  0.0000E+00  0.3300E-01  0.3300E-01
      1.352  0.0000E+00  0.0000E+00  0.3300E-01  0.3300E-01
      1.389  0.0000E+00  0.0000E+00  0.3300E-01  0.3300E-01
