    5    5 1000    2
  0.2132730E+04  0.2169902E-08  0.2197414E-08  0.2236423E-08  0.5000000E-15
   1.0000000000000000E-004
  CAR 
 unknown system                          
     50      1     33
 
  0.1262379E-14  0.1262379E-14  0.1262379E-14  0.1000000E+01
    1       -7.709772     -7.327680   1.000000   1.000000
    2       -7.584262     -7.191400   1.000000   1.000000
    3       -7.235563     -6.888394   1.000000   1.000000
    4       -7.012812     -6.822985   1.000000   1.000000
    5       -6.821199     -6.483374   1.000000   1.000000
    6       -6.672940     -6.361936   1.000000   1.000000
    7       -6.228102     -5.952934   1.000000   1.000000
    8       -6.057281     -5.829742   1.000000   1.000000
    9       -5.886351     -5.688010   1.000000   1.000000
   10       -5.756238     -5.471764   1.000000   1.000000
   11       -5.714063     -5.407519   1.000000   1.000000
   12       -5.398950     -5.194550   1.000000   1.000000
   13       -5.244398     -5.060976   1.000000   1.000000
   14       -5.191725     -5.013565   1.000000   1.000000
   15       -5.075739     -4.916372   1.000000   1.000000
   16       -5.006654     -4.816277   1.000000   1.000009
   17       -4.945798     -4.748339   1.000000   1.000071
   18       -4.812538     -4.590639   1.000010   1.003169
   19       -4.726931     -4.517495   1.000130   1.011102
   20       -4.714016     -4.496146   1.000183   1.014942
   21       -4.664099     -4.397754   1.000646   1.034770
   22       -4.570635     -4.373920   1.004621   1.035062
   23       -4.557925     -4.296590   1.005796   0.987199
   24       -4.480297     -4.247996   1.018217   0.894361
   25       -4.459619     -3.952619   1.022871  -0.016373
   26       -4.425485     -3.860397   1.030483  -0.032065
   27       -3.780733     -3.593350  -0.014811  -0.000396
   28       -3.164381     -2.990633  -0.000000  -0.000000
   29       -2.630073     -2.501219  -0.000000  -0.000000
   30       -1.480696     -1.362959  -0.000000  -0.000000
   31       -1.174616     -1.154721  -0.000000  -0.000000
   32       -0.805403     -0.744144  -0.000000  -0.000000
   33       -0.635783     -0.611270  -0.000000  -0.000000
