       N       E                     dE             d eps       ncg     rms          rms(c)
DAV:   1     0.394865894721E+03    0.39487E+03   -0.64751E+03   132   0.626E+02
DAV:   2     0.267844553242E+03   -0.12702E+03   -0.12087E+03   254   0.565E+01
DAV:   3     0.720156263945E+02   -0.19583E+03   -0.18526E+03   264   0.599E+01
DAV:   4    -0.383436065095E+01   -0.75850E+02   -0.64589E+02   184   0.556E+01
DAV:   5    -0.143493390092E+02   -0.10515E+02   -0.96835E+01   168   0.222E+01    0.114E+01
DAV:   6    -0.121460945819E+02    0.22032E+01   -0.15892E+01   134   0.188E+01    0.113E+01
DAV:   7    -0.127555425685E+02   -0.60945E+00   -0.10795E+01   134   0.270E+01    0.126E+01
DAV:   8    -0.121541951354E+02    0.60135E+00   -0.74853E+00   143   0.178E+01    0.105E+01
DAV:   9    -0.108984851533E+02    0.12557E+01   -0.31514E+00   135   0.150E+01    0.562E+00
DAV:  10    -0.111142248699E+02   -0.21574E+00   -0.59200E-01   135   0.654E+00    0.226E+00
DAV:  11    -0.113074228595E+02   -0.19320E+00   -0.11537E-01   143   0.348E+00    0.158E+00
DAV:  12    -0.116348953598E+02   -0.32747E+00   -0.86573E-02   133   0.246E+00    0.128E+00
DAV:  13    -0.121379420828E+02   -0.50305E+00   -0.14926E-01   133   0.197E+00    0.823E-01
DAV:  14    -0.124402899098E+02   -0.30235E+00   -0.71123E-02   142   0.185E+00    0.916E-01
DAV:  15    -0.126439609551E+02   -0.20367E+00   -0.31286E-02   132   0.105E+00    0.114E+00
DAV:  16    -0.127901248213E+02   -0.14616E+00   -0.22184E-02   142   0.742E-01    0.483E-01
DAV:  17    -0.130456455652E+02   -0.25552E+00   -0.37506E-02   140   0.875E-01    0.838E-01
DAV:  18    -0.131309249641E+02   -0.85279E-01   -0.83685E-03   133   0.683E-01    0.274E-01
DAV:  19    -0.132323981740E+02   -0.10147E+00   -0.36517E-03   148   0.283E-01    0.161E-01
DAV:  20    -0.133783801058E+02   -0.14598E+00   -0.48008E-03   140   0.238E-01    0.197E-01
DAV:  21    -0.135019851697E+02   -0.12361E+00   -0.48937E-03   141   0.220E-01    0.104E-01
DAV:  22    -0.135942020759E+02   -0.92217E-01   -0.34054E-03   148   0.172E-01    0.939E-02
DAV:  23    -0.136934693417E+02   -0.99267E-01   -0.52521E-03   141   0.234E-01    0.597E-02
DAV:  24    -0.137395914643E+02   -0.46122E-01   -0.23548E-03   141   0.144E-01    0.342E-02
DAV:  25    -0.137539696408E+02   -0.14378E-01   -0.54671E-04   134   0.742E-02    0.233E-02
DAV:  26    -0.137628998048E+02   -0.89302E-02   -0.33559E-04   116   0.551E-02    0.160E-02
DAV:  27    -0.137686271337E+02   -0.57273E-02   -0.22253E-04   109   0.484E-02    0.950E-03
DAV:  28    -0.137721312984E+02   -0.35042E-02   -0.17398E-04   101   0.352E-02    0.716E-03
DAV:  29    -0.137734538238E+02   -0.13225E-02   -0.54474E-05    93   0.223E-02    0.641E-03
DAV:  30    -0.137740755553E+02   -0.62173E-03   -0.54118E-05    93   0.173E-02    0.384E-03
DAV:  31    -0.137743786893E+02   -0.30313E-03   -0.14725E-05    92   0.113E-02    0.277E-03
DAV:  32    -0.137745827665E+02   -0.20408E-03   -0.10965E-05    86   0.920E-03    0.232E-03
DAV:  33    -0.137747383868E+02   -0.15562E-03   -0.83156E-06    92   0.762E-03    0.123E-03
DAV:  34    -0.137748058782E+02   -0.67491E-04   -0.40894E-06    86   0.582E-03
   1 F= -.13774806E+02 E0= -.13771881E+02  d E =-.137748E+02  mag=     2.5228
       N       E                     dE             d eps       ncg     rms          rms(c)
DAV:   1    -0.138597290398E+02   -0.84991E-01   -0.97301E+01   132   0.456E+01    0.293E+00
DAV:   2    -0.139714935323E+02   -0.11176E+00   -0.25023E+00   132   0.101E+01    0.562E+00
DAV:   3    -0.139391673778E+02    0.32326E-01   -0.14583E+00   141   0.817E+00    0.402E+00
DAV:   4    -0.139234106488E+02    0.15757E-01   -0.89948E-02   140   0.510E+00    0.181E+00
DAV:   5    -0.139044471691E+02    0.18963E-01   -0.72343E-02   132   0.323E+00    0.109E+00
DAV:   6    -0.139020337765E+02    0.24134E-02   -0.24580E-02   133   0.164E+00    0.759E-01
DAV:   7    -0.138981869547E+02    0.38468E-02   -0.11989E-02   142   0.127E+00    0.673E-01
DAV:   8    -0.138955295993E+02    0.26574E-02   -0.88015E-03   134   0.963E-01    0.172E-01
DAV:   9    -0.138978725064E+02   -0.23429E-02   -0.20581E-03   133   0.288E-01    0.379E-01
DAV:  10    -0.138998259971E+02   -0.19535E-02   -0.10693E-03   142   0.295E-01    0.551E-02
DAV:  11    -0.139029356603E+02   -0.31097E-02   -0.18712E-04    84   0.840E-02    0.549E-02
DAV:  12    -0.139073092459E+02   -0.43736E-02   -0.19819E-04   100   0.580E-02    0.338E-02
DAV:  13    -0.139122757204E+02   -0.49665E-02   -0.11371E-04    85   0.487E-02    0.254E-02
DAV:  14    -0.139163409574E+02   -0.40652E-02   -0.14276E-04   100   0.447E-02    0.199E-02
DAV:  15    -0.139206345403E+02   -0.42936E-02   -0.89642E-05    85   0.368E-02    0.160E-02
DAV:  16    -0.139272304357E+02   -0.65959E-02   -0.36766E-04   100   0.445E-02    0.112E-02
DAV:  17    -0.139298788894E+02   -0.26485E-02   -0.79808E-05    93   0.256E-02    0.105E-02
DAV:  18    -0.139316185886E+02   -0.17397E-02   -0.73439E-05    94   0.226E-02    0.121E-02
DAV:  19    -0.139326977048E+02   -0.10791E-02   -0.31419E-05    93   0.170E-02    0.430E-03
DAV:  20    -0.139336535589E+02   -0.95585E-03   -0.39848E-05    85   0.177E-02    0.233E-03
DAV:  21    -0.139340629178E+02   -0.40936E-03   -0.19838E-05    94   0.132E-02    0.169E-03
DAV:  22    -0.139343580700E+02   -0.29515E-03   -0.13191E-05    85   0.982E-03    0.146E-03
DAV:  23    -0.139345746417E+02   -0.21657E-03   -0.99641E-06   101   0.801E-03    0.739E-04
DAV:  24    -0.139346820472E+02   -0.10741E-03   -0.60330E-06    86   0.632E-03    0.736E-04
DAV:  25    -0.139347370634E+02   -0.55016E-04   -0.45517E-06    94   0.497E-03
   2 F= -.13934737E+02 E0= -.13937734E+02  d E =-.159931E+00  mag=     2.2737
       N       E                     dE             d eps       ncg     rms          rms(c)
DAV:   1    -0.139347579777E+02   -0.75930E-04   -0.12371E-02   134   0.509E-01    0.312E-02
DAV:   2    -0.139347633143E+02   -0.53366E-05   -0.23848E-04    93   0.113E-01
   3 F= -.13934763E+02 E0= -.13937777E+02  d E =-.159957E+00  mag=     2.2732
       N       E                     dE             d eps       ncg     rms          rms(c)
DAV:   1    -0.139405566492E+02   -0.57987E-02   -0.40645E+00   133   0.926E+00    0.441E-01
DAV:   2    -0.139436795645E+02   -0.31229E-02   -0.68292E-02   132   0.158E+00    0.344E-01
DAV:   3    -0.139441046757E+02   -0.42511E-03   -0.73838E-03   134   0.911E-01    0.270E-01
DAV:   4    -0.139434444148E+02    0.66026E-03   -0.27985E-03   134   0.585E-01    0.212E-01
DAV:   5    -0.139438053513E+02   -0.36094E-03   -0.20537E-03   141   0.428E-01    0.382E-01
DAV:   6    -0.139429811353E+02    0.82422E-03   -0.80156E-04   117   0.347E-01    0.887E-02
DAV:   7    -0.139432280430E+02   -0.24691E-03   -0.29456E-04   101   0.204E-01    0.602E-02
DAV:   8    -0.139434249303E+02   -0.19689E-03   -0.11735E-04    84   0.124E-01    0.352E-02
DAV:   9    -0.139435919533E+02   -0.16702E-03   -0.40862E-05    86   0.772E-02    0.241E-02
DAV:  10    -0.139437968523E+02   -0.20490E-03   -0.12236E-05    84   0.227E-02    0.785E-03
DAV:  11    -0.139439740402E+02   -0.17719E-03   -0.59265E-06    77   0.117E-02    0.480E-03
DAV:  12    -0.139441906104E+02   -0.21657E-03   -0.59860E-06    85   0.728E-03    0.352E-03
DAV:  13    -0.139444227365E+02   -0.23213E-03   -0.66457E-06    86   0.655E-03    0.301E-03
DAV:  14    -0.139446322734E+02   -0.20954E-03   -0.55741E-06    85   0.675E-03    0.243E-03
DAV:  15    -0.139448790981E+02   -0.24682E-03   -0.80941E-06    86   0.706E-03    0.202E-03
DAV:  16    -0.139451432651E+02   -0.26417E-03   -0.11337E-05    86   0.808E-03    0.145E-03
DAV:  17    -0.139453105842E+02   -0.16732E-03   -0.92317E-06    94   0.783E-03    0.100E-03
DAV:  18    -0.139453889458E+02   -0.78362E-04   -0.57002E-06   102   0.618E-03
   4 F= -.13945389E+02 E0= -.13949904E+02  d E =-.106256E-01  mag=     2.2339
       N       E                     dE             d eps       ncg     rms          rms(c)
DAV:   1    -0.139411213187E+02    0.41893E-02   -0.80414E+00   132   0.130E+01    0.620E-01
DAV:   2    -0.139486655989E+02   -0.75443E-02   -0.13412E-01   132   0.229E+00    0.649E-01
DAV:   3    -0.139511074684E+02   -0.24419E-02   -0.18304E-02   141   0.160E+00    0.108E+00
DAV:   4    -0.139473232525E+02    0.37842E-02   -0.11338E-02   140   0.107E+00    0.397E-01
DAV:   5    -0.139472880851E+02    0.35167E-04   -0.38647E-03   133   0.671E-01    0.226E-01
DAV:   6    -0.139470611435E+02    0.22694E-03   -0.16765E-03   133   0.445E-01    0.141E-01
DAV:   7    -0.139471302563E+02   -0.69113E-04   -0.63300E-04   133   0.292E-01
   5 F= -.13947130E+02 E0= -.13953445E+02  d E =-.123669E-01  mag=     2.2091
       N       E                     dE             d eps       ncg     rms          rms(c)
DAV:   1    -0.139485388801E+02   -0.14777E-02   -0.48588E+00   132   0.100E+01    0.425E-01
DAV:   2    -0.139578248752E+02   -0.92860E-02   -0.97373E-02   132   0.197E+00    0.139E+00
DAV:   3    -0.139527760984E+02    0.50488E-02   -0.24847E-02   132   0.144E+00    0.431E-01
DAV:   4    -0.139538718489E+02   -0.10958E-02   -0.22629E-03   132   0.548E-01    0.187E-01
DAV:   5    -0.139537389426E+02    0.13291E-03   -0.87878E-04   133   0.354E-01    0.107E-01
DAV:   6    -0.139542699737E+02   -0.53103E-03   -0.25624E-04    84   0.148E-01    0.759E-02
DAV:   7    -0.139546018571E+02   -0.33188E-03   -0.17197E-04    86   0.138E-01    0.445E-02
DAV:   8    -0.139547553671E+02   -0.15351E-03   -0.88922E-05    85   0.106E-01    0.329E-02
DAV:   9    -0.139550024671E+02   -0.24710E-03   -0.29163E-05    84   0.493E-02    0.186E-02
DAV:  10    -0.139552144008E+02   -0.21193E-03   -0.11753E-05    85   0.337E-02    0.104E-02
DAV:  11    -0.139555178860E+02   -0.30349E-03   -0.95507E-06    84   0.133E-02    0.722E-03
DAV:  12    -0.139559470193E+02   -0.42913E-03   -0.12707E-05    85   0.106E-02    0.481E-03
DAV:  13    -0.139564098062E+02   -0.46279E-03   -0.13402E-05    85   0.962E-03    0.380E-03
DAV:  14    -0.139567933696E+02   -0.38356E-03   -0.11858E-05   102   0.867E-03    0.318E-03
DAV:  15    -0.139572730533E+02   -0.47968E-03   -0.18350E-05    85   0.109E-02    0.238E-03
DAV:  16    -0.139576415730E+02   -0.36852E-03   -0.19642E-05    94   0.107E-02    0.160E-03
DAV:  17    -0.139578185495E+02   -0.17698E-03   -0.11833E-05    94   0.915E-03    0.898E-04
DAV:  18    -0.139579257045E+02   -0.10715E-03   -0.87905E-06    94   0.733E-03    0.734E-04
DAV:  19    -0.139579725226E+02   -0.46818E-04   -0.48442E-06   102   0.592E-03
   6 F= -.13957973E+02 E0= -.13965784E+02  d E =-.108423E-01  mag=     2.1573
       N       E                     dE             d eps       ncg     rms          rms(c)
DAV:   1    -0.139150818702E+02    0.42844E-01   -0.44015E+01   132   0.302E+01    0.115E+00
DAV:   2    -0.139936686042E+02   -0.78587E-01   -0.84280E-01   132   0.547E+00    0.343E+00
DAV:   3    -0.139666002812E+02    0.27068E-01   -0.22948E-01   132   0.379E+00    0.118E+00
DAV:   4    -0.139679687746E+02   -0.13685E-02   -0.10887E-02   132   0.126E+00    0.454E-01
DAV:   5    -0.139672776638E+02    0.69111E-03   -0.51992E-03   133   0.859E-01    0.316E-01
DAV:   6    -0.139676822151E+02   -0.40455E-03   -0.25867E-03   132   0.490E-01    0.322E-01
DAV:   7    -0.139672188979E+02    0.46332E-03   -0.99890E-04   134   0.322E-01    0.102E-01
DAV:   8    -0.139676931569E+02   -0.47426E-03   -0.30405E-04    85   0.185E-01    0.759E-02
DAV:   9    -0.139679716243E+02   -0.27847E-03   -0.11075E-04    85   0.134E-01    0.336E-02
DAV:  10    -0.139682152431E+02   -0.24362E-03   -0.49666E-05    94   0.778E-02    0.213E-02
DAV:  11    -0.139684890309E+02   -0.27379E-03   -0.23359E-05    84   0.443E-02    0.157E-02
DAV:  12    -0.139688351787E+02   -0.34615E-03   -0.19201E-05    85   0.212E-02    0.687E-03
DAV:  13    -0.139691875479E+02   -0.35237E-03   -0.13878E-05   101   0.134E-02    0.518E-03
DAV:  14    -0.139694943756E+02   -0.30683E-03   -0.97439E-06    85   0.104E-02    0.388E-03
DAV:  15    -0.139697843023E+02   -0.28993E-03   -0.85173E-06   102   0.844E-03    0.273E-03
DAV:  16    -0.139701010250E+02   -0.31672E-03   -0.10466E-05    86   0.800E-03    0.240E-03
DAV:  17    -0.139703627930E+02   -0.26177E-03   -0.91989E-06   102   0.795E-03    0.169E-03
DAV:  18    -0.139706101041E+02   -0.24731E-03   -0.11161E-05    86   0.812E-03    0.109E-03
DAV:  19    -0.139707272317E+02   -0.11713E-03   -0.65881E-06   102   0.683E-03    0.732E-04
DAV:  20    -0.139708005454E+02   -0.73314E-04   -0.44159E-06    94   0.522E-03
   7 F= -.13970801E+02 E0= -.13982255E+02  d E =-.236703E-01  mag=     2.1106
       N       E                     dE             d eps       ncg     rms          rms(c)
DAV:   1    -0.137369305164E+02    0.23380E+00   -0.17955E+02   132   0.619E+01    0.208E+00
DAV:   2    -0.139737561658E+02   -0.23683E+00   -0.28328E+00   132   0.100E+01    0.362E+00
DAV:   3    -0.139734045230E+02    0.35164E-03   -0.42528E-01   140   0.606E+00    0.205E+00
DAV:   4    -0.139564511271E+02    0.16953E-01   -0.20769E-02   140   0.274E+00    0.874E-01
DAV:   5    -0.139540216040E+02    0.24295E-02   -0.16477E-02   132   0.135E+00    0.571E-01
DAV:   6    -0.139551859921E+02   -0.11644E-02   -0.81521E-03   140   0.979E-01    0.562E-01
DAV:   7    -0.139554055229E+02   -0.21953E-03   -0.43071E-03   141   0.769E-01    0.307E-01
DAV:   8    -0.139560928991E+02   -0.68738E-03   -0.18086E-03   132   0.549E-01    0.146E-01
DAV:   9    -0.139569479942E+02   -0.85510E-03   -0.87121E-04   126   0.291E-01    0.917E-02
DAV:  10    -0.139574356113E+02   -0.48762E-03   -0.19102E-04    84   0.198E-01    0.386E-02
DAV:  11    -0.139579163574E+02   -0.48075E-03   -0.73632E-05    94   0.764E-02    0.261E-02
DAV:  12    -0.139584919559E+02   -0.57560E-03   -0.45867E-05    85   0.348E-02    0.135E-02
DAV:  13    -0.139588892550E+02   -0.39730E-03   -0.22296E-05   102   0.231E-02    0.810E-03
DAV:  14    -0.139592486323E+02   -0.35938E-03   -0.13006E-05    85   0.136E-02    0.452E-03
DAV:  15    -0.139595043311E+02   -0.25570E-03   -0.89613E-06   102   0.958E-03    0.296E-03
DAV:  16    -0.139597405605E+02   -0.23623E-03   -0.75596E-06    86   0.776E-03    0.218E-03
DAV:  17    -0.139599769279E+02   -0.23637E-03   -0.80265E-06    94   0.778E-03    0.235E-03
DAV:  18    -0.139601624428E+02   -0.18551E-03   -0.71413E-06    94   0.735E-03    0.123E-03
DAV:  19    -0.139602757832E+02   -0.11334E-03   -0.52850E-06    94   0.618E-03    0.974E-04
DAV:  20    -0.139603553850E+02   -0.79602E-04   -0.43764E-06   102   0.520E-03
   8 F= -.13960355E+02 E0= -.13978397E+02  d E =-.132251E-01  mag=     2.0747
       N       E                     dE             d eps       ncg     rms          rms(c)
DAV:   1    -0.138592649567E+02    0.10101E+00   -0.91148E+01   132   0.436E+01    0.162E+00
DAV:   2    -0.139997782253E+02   -0.14051E+00   -0.16402E+00   133   0.778E+00    0.277E+00
DAV:   3    -0.139681595881E+02    0.31619E-01   -0.10839E-01   133   0.515E+00    0.131E+00
DAV:   4    -0.139681976983E+02   -0.38110E-04   -0.30287E-02   133   0.197E+00    0.734E-01
DAV:   5    -0.139689519748E+02   -0.75428E-03   -0.76161E-03   140   0.109E+00    0.484E-01
DAV:   6    -0.139692785685E+02   -0.32659E-03   -0.78660E-03   134   0.898E-01    0.371E-01
DAV:   7    -0.139702308994E+02   -0.95233E-03   -0.19908E-03   133   0.473E-01    0.297E-01
DAV:   8    -0.139706666483E+02   -0.43575E-03   -0.16723E-03   133   0.451E-01    0.164E-01
DAV:   9    -0.139710563963E+02   -0.38975E-03   -0.71353E-04   132   0.300E-01    0.720E-02
DAV:  10    -0.139713793499E+02   -0.32295E-03   -0.14356E-04    86   0.128E-01    0.469E-02
DAV:  11    -0.139716255732E+02   -0.24622E-03   -0.49261E-05    86   0.411E-02    0.220E-02
DAV:  12    -0.139718277423E+02   -0.20217E-03   -0.24436E-05   102   0.301E-02    0.130E-02
DAV:  13    -0.139719770638E+02   -0.14932E-03   -0.87265E-06    85   0.178E-02    0.387E-03
DAV:  14    -0.139721381585E+02   -0.16109E-03   -0.59556E-06    94   0.101E-02    0.297E-03
DAV:  15    -0.139722646086E+02   -0.12645E-03   -0.37544E-06    93   0.713E-03    0.161E-03
DAV:  16    -0.139723786855E+02   -0.11408E-03   -0.34322E-06    94   0.509E-03    0.119E-03
DAV:  17    -0.139724712979E+02   -0.92612E-04   -0.30046E-06   102   0.486E-03
   9 F= -.13972471E+02 E0= -.13985904E+02  d E =-.253410E-01  mag=     2.0906
       N       E                     dE             d eps       ncg     rms          rms(c)
DAV:   1    -0.139744722453E+02   -0.20936E-02   -0.10690E+00   132   0.463E+00    0.147E-01
DAV:   2    -0.139758022450E+02   -0.13300E-02   -0.17468E-02   142   0.776E-01    0.237E-01
DAV:   3    -0.139758923133E+02   -0.90068E-04   -0.16932E-03   140   0.448E-01    0.197E-01
DAV:   4    -0.139758314701E+02    0.60843E-04   -0.40876E-04   100   0.236E-01
  10 F= -.13975831E+02 E0= -.13989514E+02  d E =-.336017E-02  mag=     2.0901
       N       E                     dE             d eps       ncg     rms          rms(c)
DAV:   1    -0.139729848777E+02    0.29074E-02   -0.96418E+00   132   0.139E+01    0.434E-01
DAV:   2    -0.139855552508E+02   -0.12570E-01   -0.15403E-01   133   0.229E+00    0.625E-01
DAV:   3    -0.139860578450E+02   -0.50259E-03   -0.13916E-02   140   0.127E+00    0.556E-01
DAV:   4    -0.139851356477E+02    0.92220E-03   -0.25585E-03   132   0.679E-01    0.246E-01
DAV:   5    -0.139852066479E+02   -0.71000E-04   -0.92578E-04   132   0.362E-01
  11 F= -.13985207E+02 E0= -.13999755E+02  d E =-.127354E-01  mag=     2.0863
       N       E                     dE             d eps       ncg     rms          rms(c)
DAV:   1    -0.139539977479E+02    0.31138E-01   -0.38780E+01   132   0.280E+01    0.860E-01
DAV:   2    -0.140038909821E+02   -0.49893E-01   -0.61323E-01   132   0.450E+00    0.992E-01
DAV:   3    -0.140071819891E+02   -0.32910E-02   -0.49204E-02   140   0.234E+00    0.102E+00
DAV:   4    -0.140030484181E+02    0.41336E-02   -0.69027E-03   140   0.131E+00    0.394E-01
DAV:   5    -0.140035450455E+02   -0.49663E-03   -0.30236E-03   132   0.622E-01    0.224E-01
DAV:   6    -0.140038611974E+02   -0.31615E-03   -0.16383E-03   132   0.262E-01    0.122E-01
DAV:   7    -0.140043817596E+02   -0.52056E-03   -0.82821E-04   134   0.306E-01    0.112E-01
DAV:   8    -0.140044851174E+02   -0.10336E-03   -0.38358E-04   110   0.247E-01    0.564E-02
DAV:   9    -0.140047203412E+02   -0.23522E-03   -0.54189E-05    84   0.825E-02    0.187E-02
DAV:  10    -0.140049236809E+02   -0.20334E-03   -0.20394E-05    93   0.340E-02    0.128E-02
DAV:  11    -0.140051455337E+02   -0.22185E-03   -0.15147E-05    84   0.241E-02    0.886E-03
DAV:  12    -0.140053093429E+02   -0.16381E-03   -0.78139E-06    94   0.159E-02    0.330E-03
DAV:  13    -0.140054701905E+02   -0.16085E-03   -0.60663E-06    85   0.970E-03    0.341E-03
DAV:  14    -0.140055913806E+02   -0.12119E-03   -0.42686E-06    94   0.752E-03    0.159E-03
DAV:  15    -0.140056921682E+02   -0.10079E-03   -0.34534E-06    85   0.516E-03    0.132E-03
DAV:  16    -0.140058345584E+02   -0.14239E-03   -0.50581E-06   102   0.576E-03    0.870E-04
DAV:  17    -0.140059113797E+02   -0.76821E-04   -0.34468E-06    94   0.480E-03
  12 F= -.14005911E+02 E0= -.14022574E+02  d E =-.334401E-01  mag=     2.0647
       N       E                     dE             d eps       ncg     rms          rms(c)
DAV:   1    -0.138440612087E+02    0.16177E+00   -0.15803E+02   132   0.572E+01    0.172E+00
DAV:   2    -0.140427211535E+02   -0.19866E+00   -0.24331E+00   132   0.903E+00    0.145E+00
DAV:   3    -0.140531708930E+02   -0.10450E-01   -0.17050E-01   132   0.426E+00    0.133E+00
DAV:   4    -0.140454300435E+02    0.77408E-02   -0.22480E-02   132   0.218E+00    0.636E-01
DAV:   5    -0.140458714365E+02   -0.44139E-03   -0.65514E-03   132   0.103E+00    0.454E-01
DAV:   6    -0.140459400272E+02   -0.68591E-04   -0.55193E-03   132   0.623E-01    0.276E-01
DAV:   7    -0.140468903794E+02   -0.95035E-03   -0.42047E-03   133   0.737E-01    0.231E-01
DAV:   8    -0.140470507365E+02   -0.16036E-03   -0.13948E-03   132   0.455E-01    0.779E-02
DAV:   9    -0.140474836782E+02   -0.43294E-03   -0.14866E-04    84   0.119E-01    0.327E-02
DAV:  10    -0.140478907910E+02   -0.40711E-03   -0.80926E-05    93   0.572E-02    0.185E-02
DAV:  11    -0.140481463410E+02   -0.25555E-03   -0.31604E-05    93   0.418E-02    0.111E-02
DAV:  12    -0.140483455765E+02   -0.19924E-03   -0.17659E-05    93   0.252E-02    0.567E-03
DAV:  13    -0.140485332274E+02   -0.18765E-03   -0.11007E-05    94   0.151E-02    0.311E-03
DAV:  14    -0.140486633278E+02   -0.13010E-03   -0.65088E-06    93   0.906E-03    0.190E-03
DAV:  15    -0.140487730755E+02   -0.10975E-03   -0.51114E-06    85   0.639E-03    0.157E-03
DAV:  16    -0.140488841721E+02   -0.11110E-03   -0.51360E-06   102   0.629E-03    0.107E-03
DAV:  17    -0.140489433557E+02   -0.59184E-04   -0.36175E-06    94   0.522E-03
  13 F= -.14048943E+02 E0= -.14069349E+02  d E =-.764721E-01  mag=     2.0445
       N       E                     dE             d eps       ncg     rms          rms(c)
DAV:   1    -0.133605322528E+02    0.68835E+00   -0.67780E+02   132   0.124E+02    0.377E+00
DAV:   2    -0.141374260754E+02   -0.77689E+00   -0.93244E+00   133   0.185E+01    0.257E+00
DAV:   3    -0.141733399030E+02   -0.35914E-01   -0.46840E-01   132   0.692E+00    0.160E+00
DAV:   4    -0.141618045633E+02    0.11535E-01   -0.78049E-02   132   0.339E+00    0.924E-01
DAV:   5    -0.141625507750E+02   -0.74621E-03   -0.17238E-02   132   0.150E+00    0.796E-01
DAV:   6    -0.141623720116E+02    0.17876E-03   -0.18946E-02   132   0.158E+00    0.455E-01
DAV:   7    -0.141643880986E+02   -0.20161E-02   -0.59658E-03   149   0.802E-01    0.197E-01
DAV:   8    -0.141650172190E+02   -0.62912E-03   -0.10713E-03   133   0.406E-01    0.114E-01
DAV:   9    -0.141657579216E+02   -0.74070E-03   -0.45421E-04   116   0.237E-01    0.650E-02
DAV:  10    -0.141663869557E+02   -0.62903E-03   -0.17513E-04    93   0.118E-01    0.298E-02
DAV:  11    -0.141669305821E+02   -0.54363E-03   -0.92084E-05    85   0.571E-02    0.140E-02
DAV:  12    -0.141672262513E+02   -0.29567E-03   -0.27677E-05   101   0.338E-02    0.627E-03
DAV:  13    -0.141675000254E+02   -0.27377E-03   -0.15606E-05    85   0.150E-02    0.397E-03
DAV:  14    -0.141677641374E+02   -0.26411E-03   -0.12096E-05    93   0.112E-02    0.283E-03
DAV:  15    -0.141680367142E+02   -0.27258E-03   -0.14473E-05    85   0.110E-02    0.214E-03
DAV:  16    -0.141681766339E+02   -0.13992E-03   -0.86151E-06   102   0.930E-03    0.154E-03
DAV:  17    -0.141683282799E+02   -0.15165E-03   -0.10137E-05    84   0.893E-03    0.118E-03
DAV:  18    -0.141684152970E+02   -0.87017E-04   -0.69959E-06   102   0.759E-03
  14 F= -.14168415E+02 E0= -.14192090E+02  d E =-.195944E+00  mag=     2.0560
       N       E                     dE             d eps       ncg     rms          rms(c)
DAV:   1    -0.762148652828E+01    0.65468E+01   -0.30224E+03   132   0.282E+02    0.196E+01
DAV:   2    -0.150783312635E+02   -0.74568E+01   -0.80626E+01   133   0.519E+01    0.123E+01
DAV:   3    -0.151074569873E+02   -0.29126E-01   -0.67328E+00   133   0.243E+01    0.104E+01
DAV:   4    -0.146806687096E+02    0.42679E+00   -0.35792E+00   133   0.154E+01    0.587E+00
DAV:   5    -0.146554522000E+02    0.25217E-01   -0.29090E-01   133   0.570E+00    0.472E+00
DAV:   6    -0.146621578390E+02   -0.67056E-02   -0.69410E-02   132   0.272E+00    0.417E+00
DAV:   7    -0.146591484132E+02    0.30094E-02   -0.32910E-02   132   0.172E+00    0.288E+00
DAV:   8    -0.146633035418E+02   -0.41551E-02   -0.24117E-02   141   0.109E+00    0.129E+00
DAV:   9    -0.146660968008E+02   -0.27933E-02   -0.13045E-02   133   0.128E+00    0.626E-01
DAV:  10    -0.146674176328E+02   -0.13208E-02   -0.56508E-03   133   0.958E-01    0.378E-01
DAV:  11    -0.146696972695E+02   -0.22796E-02   -0.23920E-03   133   0.516E-01    0.236E-01
DAV:  12    -0.146716638460E+02   -0.19666E-02   -0.85935E-04   140   0.183E-01    0.160E-01
DAV:  13    -0.146735893841E+02   -0.19255E-02   -0.38857E-04   110   0.182E-01    0.703E-02
DAV:  14    -0.146749867680E+02   -0.13974E-02   -0.15285E-04    92   0.111E-01    0.339E-02
DAV:  15    -0.146761981761E+02   -0.12114E-02   -0.69614E-05    85   0.471E-02    0.182E-02
DAV:  16    -0.146771949438E+02   -0.99677E-03   -0.37566E-05    92   0.254E-02    0.891E-03
DAV:  17    -0.146780157102E+02   -0.82077E-03   -0.25654E-05    93   0.174E-02    0.631E-03
DAV:  18    -0.146788335563E+02   -0.81785E-03   -0.23944E-05    92   0.154E-02    0.429E-03
DAV:  19    -0.146798037888E+02   -0.97023E-03   -0.35347E-05    93   0.168E-02    0.357E-03
DAV:  20    -0.146803096591E+02   -0.50587E-03   -0.21612E-05   102   0.143E-02    0.289E-03
DAV:  21    -0.146807228064E+02   -0.41315E-03   -0.18337E-05   101   0.125E-02    0.146E-03
DAV:  22    -0.146810700295E+02   -0.34722E-03   -0.20250E-05   102   0.117E-02    0.896E-04
DAV:  23    -0.146811727592E+02   -0.10273E-03   -0.10546E-05   102   0.959E-03    0.526E-04
DAV:  24    -0.146812244074E+02   -0.51648E-04   -0.65882E-06   102   0.680E-03
  15 F= -.14681224E+02 E0= -.14711875E+02  d E =-.708753E+00  mag=     2.1274
       N       E                     dE             d eps       ncg     rms          rms(c)
DAV:   1     0.425632889013E+02    0.57244E+02   -0.73536E+03   180   0.442E+02    0.762E+01
DAV:   2    -0.320729867807E+02   -0.74636E+02   -0.60988E+02   142   0.145E+02    0.558E+01
DAV:   3    -0.168364460839E+02    0.15237E+02   -0.14366E+02   132   0.865E+01    0.250E+01
DAV:   4    -0.104778330198E+02    0.63586E+01   -0.46108E+01   140   0.594E+01    0.206E+01
DAV:   5    -0.905155270821E+01    0.14263E+01   -0.51753E+00   136   0.209E+01    0.198E+01
DAV:   6    -0.867048814597E+01    0.38106E+00   -0.10360E+00   143   0.802E+00    0.154E+01
DAV:   7    -0.915516238671E+01   -0.48467E+00   -0.27426E+00   140   0.148E+01    0.160E+01
DAV:   8    -0.865191419106E+01    0.50325E+00   -0.27505E+00   134   0.118E+01    0.873E+00
DAV:   9    -0.896607604404E+01   -0.31416E+00   -0.24001E+00   132   0.108E+01    0.761E+00
DAV:  10    -0.878248302359E+01    0.18359E+00   -0.32911E-01   134   0.391E+00    0.497E+00
DAV:  11    -0.901888305227E+01   -0.23640E+00   -0.48657E-01   140   0.268E+00    0.761E+00
DAV:  12    -0.893433696331E+01    0.84546E-01   -0.18633E-01   142   0.135E+00    0.781E+00
DAV:  13    -0.880912224857E+01    0.12521E+00   -0.85215E-02   141   0.129E+00    0.631E+00
DAV:  14    -0.872452612423E+01    0.84596E-01   -0.15826E-01   140   0.170E+00    0.526E+00
DAV:  15    -0.874366546608E+01   -0.19139E-01   -0.34570E-02   156   0.102E+00    0.494E+00
DAV:  16    -0.875362144210E+01   -0.99560E-02   -0.66672E-03   132   0.552E-01    0.514E+00
DAV:  17    -0.862636584196E+01    0.12726E+00   -0.75494E-02   132   0.143E+00    0.456E+00
DAV:  18    -0.858140178281E+01    0.44964E-01   -0.27879E-02   166   0.116E+00    0.393E+00
DAV:  19    -0.863045216467E+01   -0.49050E-01   -0.56612E-02   132   0.131E+00    0.250E+00
DAV:  20    -0.868230513358E+01   -0.51853E-01   -0.14080E-02   132   0.721E-01    0.249E+00
DAV:  21    -0.874817647164E+01   -0.65871E-01   -0.61641E-02   132   0.106E+00    0.222E+00
DAV:  22    -0.880490603971E+01   -0.56730E-01   -0.19025E-02   150   0.669E-01    0.175E+00
DAV:  23    -0.887623253019E+01   -0.71326E-01   -0.13113E-02   140   0.518E-01    0.154E+00
DAV:  24    -0.895314769520E+01   -0.76915E-01   -0.26069E-02   140   0.888E-01    0.951E-01
DAV:  25    -0.898671354433E+01   -0.33566E-01   -0.23406E-02   140   0.736E-01    0.109E+00
DAV:  26    -0.900688216512E+01   -0.20169E-01   -0.17870E-03   133   0.289E-01    0.998E-01
DAV:  27    -0.902052024823E+01   -0.13638E-01   -0.11099E-03   125   0.174E-01    0.972E-01
DAV:  28    -0.908492019967E+01   -0.64400E-01   -0.81064E-03   148   0.426E-01    0.878E-01
DAV:  29    -0.909595723367E+01   -0.11037E-01   -0.13793E-03   150   0.345E-01    0.786E-01
DAV:  30    -0.909243225985E+01    0.35250E-02   -0.28205E-03   140   0.232E-01    0.767E-01
DAV:  31    -0.909110882865E+01    0.13234E-02   -0.32868E-04   111   0.992E-02    0.807E-01
DAV:  32    -0.909859993448E+01   -0.74911E-02   -0.91997E-04   124   0.136E-01    0.711E-01
DAV:  33    -0.911650922764E+01   -0.17909E-01   -0.28078E-03   140   0.250E-01    0.541E-01
DAV:  34    -0.914428738691E+01   -0.27778E-01   -0.34567E-03   149   0.229E-01    0.405E-01
DAV:  35    -0.915892633432E+01   -0.14639E-01   -0.12981E-03   158   0.134E-01    0.339E-01
DAV:  36    -0.916946199514E+01   -0.10536E-01   -0.11956E-03   142   0.133E-01    0.274E-01
DAV:  37    -0.917731732821E+01   -0.78553E-02   -0.56515E-04   142   0.105E-01    0.231E-01
DAV:  38    -0.917889206776E+01   -0.15747E-02   -0.27866E-04   102   0.617E-02    0.217E-01
DAV:  39    -0.917968615179E+01   -0.79408E-03   -0.28844E-04   110   0.787E-02    0.186E-01
DAV:  40    -0.918141668815E+01   -0.17305E-02   -0.12061E-04    95   0.589E-02    0.161E-01
DAV:  41    -0.918297748454E+01   -0.15608E-02   -0.74946E-05    84   0.382E-02    0.148E-01
DAV:  42    -0.918239731876E+01    0.58017E-03   -0.18811E-04    94   0.647E-02    0.133E-01
DAV:  43    -0.918260950261E+01   -0.21218E-03   -0.72379E-05    94   0.381E-02    0.116E-01
DAV:  44    -0.918267925805E+01   -0.69755E-04   -0.90664E-05    93   0.417E-02
  16 F= -.91826793E+01 E0= -.92019382E+01  d E =0.478979E+01  mag=     0.9838
       N       E                     dE             d eps       ncg     rms          rms(c)
DAV:   1     0.405062544391E+02    0.49689E+02   -0.66452E+03   156   0.421E+02    0.636E+01
DAV:   2    -0.583932199049E+02   -0.98899E+02   -0.12444E+03   164   0.170E+02    0.620E+01
DAV:   3    -0.222748264163E+02    0.36118E+02   -0.55361E+02   215   0.852E+01    0.345E+01
DAV:   4    -0.204161870833E+02    0.18586E+01   -0.63415E+01   152   0.502E+01    0.286E+01
DAV:   5    -0.177715392357E+02    0.26446E+01   -0.75295E+00   141   0.268E+01    0.278E+01
DAV:   6    -0.171433811130E+02    0.62816E+00   -0.24514E+00   143   0.126E+01    0.262E+01
DAV:   7    -0.169055876274E+02    0.23779E+00   -0.58415E-01   141   0.660E+00    0.246E+01
DAV:   8    -0.170149419739E+02   -0.10935E+00   -0.26053E+00   141   0.147E+01    0.213E+01
DAV:   9    -0.161346945926E+02    0.88025E+00   -0.13587E+00   140   0.118E+01    0.154E+01
DAV:  10    -0.140243830770E+02    0.21103E+01   -0.20839E+00   140   0.122E+01    0.100E+01
DAV:  11    -0.133675977944E+02    0.65679E+00   -0.78425E-01   149   0.700E+00    0.633E+00
DAV:  12    -0.139611965303E+02   -0.59360E+00   -0.47865E-01   132   0.605E+00    0.592E+00
DAV:  13    -0.139455068731E+02    0.15690E-01   -0.62394E-01   157   0.712E+00    0.407E+00
DAV:  14    -0.141215043346E+02   -0.17600E+00   -0.11913E-01   132   0.266E+00    0.327E+00
DAV:  15    -0.142127604153E+02   -0.91256E-01   -0.57745E-02   141   0.200E+00    0.262E+00
DAV:  16    -0.142983834539E+02   -0.85623E-01   -0.40608E-02   140   0.175E+00    0.177E+00
DAV:  17    -0.143596962123E+02   -0.61313E-01   -0.15089E-02   142   0.938E-01    0.132E+00
DAV:  18    -0.144349324301E+02   -0.75236E-01   -0.12156E-02   132   0.777E-01    0.905E-01
DAV:  19    -0.145173558876E+02   -0.82423E-01   -0.12464E-02   148   0.679E-01    0.521E-01
DAV:  20    -0.145779883227E+02   -0.60632E-01   -0.48522E-03   140   0.371E-01    0.336E-01
DAV:  21    -0.146268316289E+02   -0.48843E-01   -0.43662E-03   148   0.391E-01    0.173E-01
DAV:  22    -0.146524308060E+02   -0.25599E-01   -0.14329E-03   132   0.241E-01    0.115E-01
DAV:  23    -0.146724267160E+02   -0.19996E-01   -0.83959E-04   124   0.161E-01    0.651E-02
DAV:  24    -0.146905628421E+02   -0.18136E-01   -0.44734E-04   108   0.982E-02    0.463E-02
DAV:  25    -0.147151628696E+02   -0.24600E-01   -0.89059E-04   132   0.101E-01    0.453E-02
DAV:  26    -0.147250812451E+02   -0.99184E-02   -0.16247E-04    93   0.569E-02    0.312E-02
DAV:  27    -0.147298773736E+02   -0.47961E-02   -0.89066E-05   101   0.559E-02    0.292E-02
DAV:  28    -0.147347234584E+02   -0.48461E-02   -0.67223E-05    85   0.366E-02    0.200E-02
DAV:  29    -0.147424181748E+02   -0.76947E-02   -0.21518E-04   100   0.391E-02    0.118E-02
DAV:  30    -0.147467466005E+02   -0.43284E-02   -0.80819E-05    93   0.331E-02    0.913E-03
DAV:  31    -0.147485756521E+02   -0.18291E-02   -0.61648E-05    93   0.243E-02    0.656E-03
DAV:  32    -0.147494948111E+02   -0.91916E-03   -0.48076E-05   102   0.201E-02    0.370E-03
DAV:  33    -0.147497292144E+02   -0.23440E-03   -0.24623E-05   102   0.150E-02    0.191E-03
DAV:  34    -0.147499475426E+02   -0.21833E-03   -0.12225E-05   101   0.950E-03    0.130E-03
DAV:  35    -0.147501442622E+02   -0.19672E-03   -0.72981E-06   102   0.785E-03    0.100E-03
DAV:  36    -0.147502269348E+02   -0.82673E-04   -0.40424E-06   102   0.541E-03
  17 F= -.14750227E+02 E0= -.14781127E+02  d E =-.777756E+00  mag=     2.1361
