 vasp.6.1.2 22Jul20 (build Feb  1 2022 14:42:14) gamma-only                      
 executed on             LinuxPGI date 2022.02.04  13:56:53
 running on    8 total cores
 distrk:  each k-point on    8 cores,    1 groups
 distr:  one band on NCORE=   8 cores,    1 groups


--------------------------------------------------------------------------------------------------------


 INCAR:
 POTCAR:    PAW_PBE Pd 04Jan2005                  
 -----------------------------------------------------------------------------
|                                                                             |
|           W    W    AA    RRRRR   N    N  II  N    N   GGGG   !!!           |
|           W    W   A  A   R    R  NN   N  II  NN   N  G    G  !!!           |
|           W    W  A    A  R    R  N N  N  II  N N  N  G       !!!           |
|           W WW W  AAAAAA  RRRRR   N  N N  II  N  N N  G  GGG   !            |
|           WW  WW  A    A  R   R   N   NN  II  N   NN  G    G                |
|           W    W  A    A  R    R  N    N  II  N    N   GGGG   !!!           |
|                                                                             |
|     You use a magnetic or noncollinear calculation, but did not specify     |
|     the initial magnetic moment with the MAGMOM tag. Note that a            |
|     default of 1 will be used for all atoms. This ferromagnetic setup       |
|     may break the symmetry of the crystal, in particular it may rule        |
|     out finding an antiferromagnetic solution. Thence, we recommend         |
|     setting the initial magnetic moment manually or verifying carefully     |
|     that this magnetic setup is desired.                                    |
|                                                                             |
 -----------------------------------------------------------------------------

 -----------------------------------------------------------------------------
|                                                                             |
|           W    W    AA    RRRRR   N    N  II  N    N   GGGG   !!!           |
|           W    W   A  A   R    R  NN   N  II  NN   N  G    G  !!!           |
|           W    W  A    A  R    R  N N  N  II  N N  N  G       !!!           |
|           W WW W  AAAAAA  RRRRR   N  N N  II  N  N N  G  GGG   !            |
|           WW  WW  A    A  R   R   N   NN  II  N   NN  G    G                |
|           W    W  A    A  R    R  N    N  II  N    N   GGGG   !!!           |
|                                                                             |
|     The value NCORE = 16 specified in the INCAR file was overwritten,       |
|     because it was not compatible with the 8 processes available:           |
|     NCORE = 8                                                               |
|     was used instead, please check that this makes sense for your           |
|     machine.                                                                |
|                                                                             |
 -----------------------------------------------------------------------------

 -----------------------------------------------------------------------------
|                                                                             |
|           W    W    AA    RRRRR   N    N  II  N    N   GGGG   !!!           |
|           W    W   A  A   R    R  NN   N  II  NN   N  G    G  !!!           |
|           W    W  A    A  R    R  N N  N  II  N N  N  G       !!!           |
|           W WW W  AAAAAA  RRRRR   N  N N  II  N  N N  G  GGG   !            |
|           WW  WW  A    A  R   R   N   NN  II  N   NN  G    G                |
|           W    W  A    A  R    R  N    N  II  N    N   GGGG   !!!           |
|                                                                             |
|     For optimal performance we recommend to set                             |
|       NCORE = 4 - approx SQRT(number of cores).                             |
|     NCORE specifies how many cores store one orbital (NPAR=cpu/NCORE).      |
|     This setting can greatly improve the performance of VASP for DFT.       |
|     The default, NCORE=1 might be grossly inefficient on modern             |
|     multi-core architectures or massively parallel machines. Do your        |
|     own testing!!!!                                                         |
|     Unfortunately you need to use the default for GW and RPA                |
|     calculations (for HF NCORE is supported but not extensively tested      |
|     yet).                                                                   |
|                                                                             |
 -----------------------------------------------------------------------------

 POTCAR:    PAW_PBE Pd 04Jan2005                  
   SHA256 =  dd6f6f02930356371984e2b707ff5e456046761dc76b07c1eba30abd15eb3c39 Pd/POTCAR             
   COPYR  = (c) Copyright 04Jan2005 Georg Kresse                                                    
   COPYR  = This file is part of the software VASP. Any use, copying, and all other rights are regul
   COPYR  = If you do not have a valid VASP license, you may not use, copy or distribute this file. 
   VRHFIN =Pd : s1 d9                                                                               
   LEXCH  = PE                                                                                      
   EATOM  =   809.7530 eV,   59.5152 Ry                                                             
                                                                                                    
   TITEL  = PAW_PBE Pd 04Jan2005                                                                    
   LULTRA =        F    use ultrasoft PP ?                                                          
   IUNSCR =        1    unscreen: 0-lin 1-nonlin 2-no                                               
   RPACOR =    2.000    partial core radius                                                         
   POMASS =  106.420; ZVAL   =   10.000    mass and valenz                                          
   RCORE  =    2.600    outmost cutoff radius                                                       
   RWIGS  =    2.710; RWIGS  =    1.434    wigner-seitz radius (au A)                               
   ENMAX  =  250.925; ENMIN  =  188.194 eV                                                          
   ICORE  =        3    local potential                                                             
   LCOR   =        T    correct aug charges                                                         
   LPAW   =        T    paw PP                                                                      
   EAUG   =  416.230                                                                                
   DEXC   =    0.000                                                                                
   RMAX   =    2.653    core radius for proj-oper                                                   
   RAUG   =    1.300    factor for augmentation sphere                                              
   RDEP   =    2.734    radius for radial grids                                                     
   RDEPT  =    2.103    core radius for aug-charge                                                  
                                                                                                    
   Atomic configuration                                                                             
   12 entries                                                                                       
     n  l   j            E        occ.                                                              
     1  0  0.50    -24164.6631   2.0000                                                             
     2  0  0.50     -3530.9218   2.0000                                                             
     2  1  1.50     -3165.6822   6.0000                                                             
     3  0  0.50      -639.4577   2.0000                                                             
     3  1  1.50      -519.4532   6.0000                                                             
     3  2  2.50      -328.9757  10.0000                                                             
     4  0  0.50       -88.7014   2.0000                                                             
     4  1  1.50       -54.4540   6.0000                                                             
     4  2  2.50        -6.6878   9.0000                                                             
     5  0  0.50        -4.3543   1.0000                                                             
     5  1  0.50        -1.3606   0.0000                                                             
     4  3  2.50        -1.3606   0.0000                                                             
   Description                                                                                      
     l       E           TYP  RCUT    TYP  RCUT                                                     
     2     -6.6878251     23  2.400                                                                 
     2     -8.0484077     23  2.400                                                                 
     0     -4.3542939     23  2.400                                                                 
     0      4.3406793     23  2.400                                                                 
     1     -4.0817478     23  2.600                                                                 
     1     15.8380318     23  2.600                                                                 
     3     -4.0817478     23  2.400                                                                 
  local pseudopotential read in
  partial core-charges read in
  partial kinetic energy density read in
  atomic valenz-charges read in
  non local Contribution for L=            2  read in
    real space projection operators read in
  non local Contribution for L=            2  read in
    real space projection operators read in
  non local Contribution for L=            0  read in
    real space projection operators read in
  non local Contribution for L=            0  read in
    real space projection operators read in
  non local Contribution for L=            1  read in
    real space projection operators read in
  non local Contribution for L=            1  read in
    real space projection operators read in
    PAW grid and wavefunctions read in
 
   number of l-projection  operators is LMAX  =            6
   number of lm-projection operators is LMMAX =           18
 
  PAW_PBE Pd 04Jan2005                  :
 energy of atom  1       EATOM= -809.7530
 kinetic energy error for atom=    0.0091 (will be added to EATOM!!)
 
 
 POSCAR: Pd
  positions in cartesian coordinates
  No initial velocities read in
 exchange correlation table for  LEXCH =        8
   RHO(1)=    0.500       N(1)  =     2000
   RHO(2)=  100.500       N(2)  =     4000
 


--------------------------------------------------------------------------------------------------------


 ion  position               nearest neighbor table
   1  0.583  0.518  0.407-   4 2.34   2 2.52
   2  0.528  0.586  0.480-   3 2.48   5 2.49   1 2.52
   3  0.487  0.581  0.584-   5 2.42   2 2.48
   4  0.569  0.413  0.403-   1 2.34
   5  0.425  0.542  0.502-   3 2.42   2 2.49
 

IMPORTANT INFORMATION: All symmetrisations will be switched off!
NOSYMM: (Re-)initialisation of all symmetry stuff for point group C_1.


----------------------------------------------------------------------------------------

                                     Primitive cell                                     

  volume of cell :   10663.6520

  direct lattice vectors                    reciprocal lattice vectors
    21.699016540  0.000000000  0.000000000     0.046085038  0.000000000  0.000000000
     0.000000000 21.974144382  0.000000000     0.000000000  0.045508029  0.000000000
     0.000000000  0.000000000 22.364229456     0.000000000  0.000000000  0.044714261

  length of vectors
    21.699016540 21.974144382 22.364229456     0.046085038  0.045508029  0.044714261

  position of ions in fractional coordinates (direct lattice)
     0.583394432  0.518204993  0.406967697
     0.528179257  0.585947736  0.480184258
     0.486979849  0.580864693  0.583691217
     0.569293644  0.412921111  0.403259600
     0.425031725  0.542232384  0.502368672

  ion indices of the primitive-cell ions
   primitive index   ion index
                 1           1
                 2           2
                 3           3
                 4           4
                 5           5

----------------------------------------------------------------------------------------

 
 
 KPOINTS: KPOINTS created by Atomic Simulation Env

Automatic generation of k-mesh.
Space group operators:
 irot       det(A)        alpha          n_x          n_y          n_z        tau_x        tau_y        tau_z
    1     1.000000     0.000000     1.000000     0.000000     0.000000     0.000000     0.000000     0.000000
 
 Subroutine IBZKPT returns following result:
 ===========================================
 
 Found      1 irreducible k-points:
 
 Following reciprocal coordinates:
            Coordinates               Weight
  0.000000  0.000000  0.000000      1.000000
 
 Following cartesian coordinates:
            Coordinates               Weight
  0.000000  0.000000  0.000000      1.000000
 


--------------------------------------------------------------------------------------------------------




 Dimension of arrays:
   k-points           NKPTS =      1   k-points in BZ     NKDIM =      1   number of bands    NBANDS=     33
   number of dos      NEDOS =    301   number of ions     NIONS =      5
   non local maximal  LDIM  =      6   non local SUM 2l+1 LMDIM =     18
   total plane-waves  NPLWV = ******
   max r-space proj   IRMAX =      1   max aug-charges    IRDMAX=   6141
   dimension x,y,z NGX =   108 NGY =  108 NGZ =  112
   dimension x,y,z NGXF=   216 NGYF=  216 NGZF=  224
   support grid    NGXF=   216 NGYF=  216 NGZF=  224
   ions per type =               5
   NGX,Y,Z   is equivalent  to a cutoff of   8.27,  8.17,  8.33 a.u.
   NGXF,Y,Z  is equivalent  to a cutoff of  16.55, 16.34, 16.65 a.u.

 SYSTEM =  unknown system                          
 POSCAR =  Pd                                      

 Startparameter for this run:
   NWRITE =      2    write-flag & timer
   PREC   = normal    normal or accurate (medium, high low for compatibility)
   ISTART =      0    job   : 0-new  1-cont  2-samecut
   ICHARG =      2    charge: 1-file 2-atom 10-const
   ISPIN  =      2    spin polarized calculation?
   LNONCOLLINEAR =      F non collinear calculations
   LSORBIT =      F    spin-orbit coupling
   INIWAV =      1    electr: 0-lowe 1-rand  2-diag
   LASPH  =      F    aspherical Exc in radial PAW
   METAGGA=      F    non-selfconsistent MetaGGA calc.

 Electronic Relaxation 1
   ENCUT  =  400.0 eV  29.40 Ry    5.42 a.u.  35.39 35.83 36.47*2*pi/ulx,y,z
   ENINI  =  400.0     initial cutoff
   ENAUG  =  416.2 eV  augmentation charge cutoff
   NELM   =     60;   NELMIN=  2; NELMDL=  0     # of ELM steps 
   EDIFF  = 0.1E-03   stopping-criterion for ELM
   LREAL  =      F    real-space projection
   NLSPLINE    = F    spline interpolate recip. space projectors
   LCOMPAT=      F    compatible to vasp.4.4
   GGA_COMPAT  = T    GGA compatible to vasp.4.4-vasp.4.6
   LMAXPAW     = -100 max onsite density
   LMAXMIX     =    2 max onsite mixed and CHGCAR
   VOSKOWN=      0    Vosko Wilk Nusair interpolation
   ROPT   =    0.00000
 Ionic relaxation
   EDIFFG = 0.1E-02   stopping-criterion for IOM
   NSW    =   1000    number of steps for IOM
   NBLOCK =      1;   KBLOCK =   1000    inner block; outer block 
   IBRION =      2    ionic relax: 0-MD 1-quasi-New 2-CG
   NFREE  =      1    steps in history (QN), initial steepest desc. (CG)
   ISIF   =      0    stress and relaxation
   IWAVPR =     11    prediction:  0-non 1-charg 2-wave 3-comb
   ISYM   =      0    0-nonsym 1-usesym 2-fastsym
   LCORR  =      T    Harris-Foulkes like correction to forces

   POTIM  = 0.5000    time-step for ionic-motion
   TEIN   =    0.0    initial temperature
   TEBEG  =    0.0;   TEEND  =   0.0 temperature during run
   SMASS  =  -3.00    Nose mass-parameter (am)
   estimated Nose-frequenzy (Omega)   =  0.10E-29 period in steps = 0.13E+47 mass=  -0.108E-25a.u.
   SCALEE = 1.0000    scale energy and forces
   NPACO  =    256;   APACO  = 16.0  distance and # of slots for P.C.
   PSTRESS=    0.0 pullay stress

  Mass of Ions in am
   POMASS = 106.42
  Ionic Valenz
   ZVAL   =  10.00
  Atomic Wigner-Seitz radii
   RWIGS  =  -1.00
  virtual crystal weights 
   VCA    =   1.00
   NELECT =      50.0000    total number of electrons
   NUPDOWN=      -1.0000    fix difference up-down

 DOS related values:
   EMIN   =  10.00;   EMAX   =-10.00  energy-range for DOS
   EFERMI =   0.00
   ISMEAR =     1;   SIGMA  =   0.20  broadening in eV -4-tet -1-fermi 0-gaus

 Electronic relaxation 2 (details)
   IALGO  =     38    algorithm
   LDIAG  =      T    sub-space diagonalisation (order eigenvalues)
   LSUBROT=      F    optimize rotation matrix (better conditioning)
   TURBO    =      0    0=normal 1=particle mesh
   IRESTART =      0    0=no restart 2=restart with 2 vectors
   NREBOOT  =      0    no. of reboots
   NMIN     =      0    reboot dimension
   EREF     =   0.00    reference energy to select bands
   IMIX   =      4    mixing-type and parameters
     AMIX     =   0.40;   BMIX     =  1.00
     AMIX_MAG =   1.60;   BMIX_MAG =  1.00
     AMIN     =   0.10
     WC   =   100.;   INIMIX=   1;  MIXPRE=   1;  MAXMIX= -45

 Intra band minimization:
   WEIMIN = 0.0010     energy-eigenvalue tresh-hold
   EBREAK =  0.76E-06  absolut break condition
   DEPER  =   0.30     relativ break condition  

   TIME   =   0.40     timestep for ELM

  volume/ion in A,a.u.               =    2132.73     14392.38
  Fermi-wavevector in a.u.,A,eV,Ry     =   0.274008  0.517800  1.021529  0.075080
  Thomas-Fermi vector in A             =   1.116183
 
 Write flags
   LWAVE        =      F    write WAVECAR
   LDOWNSAMPLE  =      F    k-point downsampling of WAVECAR
   LCHARG       =      F    write CHGCAR
   LVTOT        =      F    write LOCPOT, total local potential
   LVHAR        =      F    write LOCPOT, Hartree potential only
   LELF         =      F    write electronic localiz. function (ELF)
   LORBIT       =      0    0 simple, 1 ext, 2 COOP (PROOUT), +10 PAW based schemes


 Dipole corrections
   LMONO  =      F    monopole corrections only (constant potential shift)
   LDIPOL =      F    correct potential (dipole corrections)
   IDIPOL =      0    1-x, 2-y, 3-z, 4-all directions 
   EPSILON=  1.0000000 bulk dielectric constant

 Exchange correlation treatment:
   GGA     =    PE    GGA type
   LEXCH   =     8    internal setting for exchange type
   VOSKOWN=      0    Vosko Wilk Nusair interpolation
   LHFCALC =     F    Hartree Fock is set to
   LHFONE  =     F    Hartree Fock one center treatment
   AEXX    =    0.0000 exact exchange contribution

 Linear response parameters
   LEPSILON=     F    determine dielectric tensor
   LRPA    =     F    only Hartree local field effects (RPA)
   LNABLA  =     F    use nabla operator in PAW spheres
   LVEL    =     F    velocity operator in full k-point grid
   LINTERFAST=   F  fast interpolation
   KINTER  =     0    interpolate to denser k-point grid
   CSHIFT  =0.1000    complex shift for real part using Kramers Kronig
   OMEGAMAX=  -1.0    maximum frequency
   DEG_THRESHOLD= 0.2000000E-02 threshold for treating states as degnerate
   RTIME   =   -0.100 relaxation time in fs
  (WPLASMAI=    0.000 imaginary part of plasma frequency in eV, 0.658/RTIME)
   DFIELD  = 0.0000000 0.0000000 0.0000000 field for delta impulse in time
 
 Orbital magnetization related:
   ORBITALMAG=     F  switch on orbital magnetization
   LCHIMAG   =     F  perturbation theory with respect to B field
   DQ        =  0.001000  dq finite difference perturbation B field
   LLRAUG    =     F  two centre corrections for induced B field



--------------------------------------------------------------------------------------------------------


 conjugate gradient relaxation of ions
 charge density and potential will be updated during run
 spin polarized calculation
 Variant of blocked Davidson
 Davidson routine will perform the subspace rotation
 perform sub-space diagonalisation
    after iterative eigenvector-optimisation
 modified Broyden-mixing scheme, WC =      100.0
 initial mixing is a Kerker type mixing with AMIX =  0.4000 and BMIX =      1.0000
 Hartree-type preconditioning will be used
 using additional bands             8
 reciprocal scheme for non local part
 use partial core corrections
 calculate Harris-corrections to forces 
   (improved forces if not selfconsistent)
 use gradient corrections 
 use of overlap-Matrix (Vanderbilt PP)
 Methfessel and Paxton  Order N= 1 SIGMA  =   0.20


--------------------------------------------------------------------------------------------------------


  energy-cutoff  :      400.00
  volume of cell :    10663.65
      direct lattice vectors                 reciprocal lattice vectors
    21.699016540  0.000000000  0.000000000     0.046085038  0.000000000  0.000000000
     0.000000000 21.974144382  0.000000000     0.000000000  0.045508029  0.000000000
     0.000000000  0.000000000 22.364229456     0.000000000  0.000000000  0.044714261

  length of vectors
    21.699016540 21.974144382 22.364229456     0.046085038  0.045508029  0.044714261


 
 k-points in units of 2pi/SCALE and weight: KPOINTS created by Atomic Simulation Env
   0.00000000  0.00000000  0.00000000       1.000
 
 k-points in reciprocal lattice and weights: KPOINTS created by Atomic Simulation Env
   0.00000000  0.00000000  0.00000000       1.000
 
 position of ions in fractional coordinates (direct lattice) 
   0.58339443  0.51820499  0.40696770
   0.52817926  0.58594774  0.48018426
   0.48697985  0.58086469  0.58369122
   0.56929364  0.41292111  0.40325960
   0.42503173  0.54223238  0.50236867
 
 position of ions in cartesian coordinates  (Angst):
  12.65908543 11.38711133  9.10151895
  11.46097042 12.87570015 10.73895093
  10.56698380 12.76400463 13.05380430
  12.35311219  9.07358812  9.01859022
   9.22277044 11.91509269 11.23508825
 


--------------------------------------------------------------------------------------------------------


 use parallel FFT for orbitals z direction half grid
 k-point   1 :   0.0000 0.0000 0.0000  plane waves:   96881

 maximum and minimum number of plane-waves per node :     12115    12106

 maximum number of plane-waves:     96881
 maximum index in each direction: 
   IXMAX=   35   IYMAX=   35   IZMAX=   36
   IXMIN=  -35   IYMIN=  -35   IZMIN=    0


 parallel 3D FFT for wavefunctions:
    minimum data exchange during FFTs selected (reduces bandwidth)
 parallel 3D FFT for charge:
    minimum data exchange during FFTs selected (reduces bandwidth)


 total amount of memory used by VASP MPI-rank0   201663. kBytes
=======================================================================

   base      :      30000. kBytes
   nonl-proj :       2711. kBytes
   fftplans  :      47837. kBytes
   grid      :     108307. kBytes
   one-center:         15. kBytes
   wavefun   :      12793. kBytes
 
     INWAV:  cpu time    0.0000: real time    0.0000
 Broyden mixing: mesh for mixing (old mesh)
   NGX = 71   NGY = 71   NGZ = 73
  (NGX  =216   NGY  =216   NGZ  =224)
  gives a total of 367993 points

 initial charge density was supplied:
 charge density of overlapping atoms calculated
 number of electron      50.0000000 magnetization       5.0000000
 keeping initial charge density in first step


--------------------------------------------------------------------------------------------------------


 Maximum index for augmentation-charges           753 (set IRDMAX)


--------------------------------------------------------------------------------------------------------


 First call to EWALD:  gamma=   0.081
 Maximum number of real-space cells 3x 3x 3
 Maximum number of reciprocal cells 3x 3x 3

    FEWALD:  cpu time    0.0010: real time    0.0010


--------------------------------------- Iteration      1(   1)  ---------------------------------------


    POTLOK:  cpu time    3.0796: real time    3.0992
    SETDIJ:  cpu time    0.0243: real time    0.0244
     EDDAV:  cpu time    2.2961: real time    2.3020
       DOS:  cpu time    0.0032: real time    0.0032
    --------------------------------------------
      LOOP:  cpu time    5.4032: real time    5.4287

 eigenvalue-minimisations  :   132
 total energy-change (2. order) : 0.3948659E+03  (-0.6475086E+03)
 number of electron      50.0000000 magnetization       5.0000000
 augmentation part       50.0000000 magnetization       5.0000000

 Free energy of the ion-electron system (eV)
  ---------------------------------------------------
  alpha Z        PSCENC =         1.52797618
  Ewald energy   TEWEN  =      2213.78979490
  -Hartree energ DENC   =     -6070.83407814
  -exchange      EXHF   =         0.00000000
  -V(xc)+E(xc)   XCENC  =      -153.28903024
  PAW double counting   =      4033.23964144    -3722.16140761
  entropy T*S    EENTRO =         0.01295496
  eigenvalues    EBANDS =        43.86058034
  atomic energy  EATOM  =      4048.71946290
  Solvation  Ediel_sol  =         0.00000000
  ---------------------------------------------------
  free energy    TOTEN  =       394.86589472 eV

  energy without entropy =      394.85293976  energy(sigma->0) =      394.86157640


--------------------------------------------------------------------------------------------------------




--------------------------------------- Iteration      1(   2)  ---------------------------------------


     EDDAV:  cpu time    3.7040: real time    3.7101
       DOS:  cpu time    0.0032: real time    0.0032
    --------------------------------------------
      LOOP:  cpu time    3.7072: real time    3.7133

 eigenvalue-minimisations  :   254
 total energy-change (2. order) :-0.1270213E+03  (-0.1208725E+03)
 number of electron      50.0000000 magnetization       5.0000000
 augmentation part       50.0000000 magnetization       5.0000000

 Free energy of the ion-electron system (eV)
  ---------------------------------------------------
  alpha Z        PSCENC =         1.52797618
  Ewald energy   TEWEN  =      2213.78979490
  -Hartree energ DENC   =     -6070.83407814
  -exchange      EXHF   =         0.00000000
  -V(xc)+E(xc)   XCENC  =      -153.28903024
  PAW double counting   =      4033.23964144    -3722.16140761
  entropy T*S    EENTRO =        -0.04518163
  eigenvalues    EBANDS =       -83.10262455
  atomic energy  EATOM  =      4048.71946290
  Solvation  Ediel_sol  =         0.00000000
  ---------------------------------------------------
  free energy    TOTEN  =       267.84455324 eV

  energy without entropy =      267.88973487  energy(sigma->0) =      267.85961378


--------------------------------------------------------------------------------------------------------




--------------------------------------- Iteration      1(   3)  ---------------------------------------


     EDDAV:  cpu time    4.1669: real time    4.1720
       DOS:  cpu time    0.0057: real time    0.0057
    --------------------------------------------
      LOOP:  cpu time    4.1726: real time    4.1778

 eigenvalue-minimisations  :   264
 total energy-change (2. order) :-0.1958289E+03  (-0.1852648E+03)
 number of electron      50.0000000 magnetization       5.0000000
 augmentation part       50.0000000 magnetization       5.0000000

 Free energy of the ion-electron system (eV)
  ---------------------------------------------------
  alpha Z        PSCENC =         1.52797618
  Ewald energy   TEWEN  =      2213.78979490
  -Hartree energ DENC   =     -6070.83407814
  -exchange      EXHF   =         0.00000000
  -V(xc)+E(xc)   XCENC  =      -153.28903024
  PAW double counting   =      4033.23964144    -3722.16140761
  entropy T*S    EENTRO =        -0.01144476
  eigenvalues    EBANDS =      -278.96528827
  atomic energy  EATOM  =      4048.71946290
  Solvation  Ediel_sol  =         0.00000000
  ---------------------------------------------------
  free energy    TOTEN  =        72.01562639 eV

  energy without entropy =       72.02707115  energy(sigma->0) =       72.01944131


--------------------------------------------------------------------------------------------------------




--------------------------------------- Iteration      1(   4)  ---------------------------------------


     EDDAV:  cpu time    2.9432: real time    2.9464
       DOS:  cpu time    0.0030: real time    0.0030
    --------------------------------------------
      LOOP:  cpu time    2.9461: real time    2.9494

 eigenvalue-minimisations  :   184
 total energy-change (2. order) :-0.7584999E+02  (-0.6458906E+02)
 number of electron      50.0000000 magnetization       5.0000000
 augmentation part       50.0000000 magnetization       5.0000000

 Free energy of the ion-electron system (eV)
  ---------------------------------------------------
  alpha Z        PSCENC =         1.52797618
  Ewald energy   TEWEN  =      2213.78979490
  -Hartree energ DENC   =     -6070.83407814
  -exchange      EXHF   =         0.00000000
  -V(xc)+E(xc)   XCENC  =      -153.28903024
  PAW double counting   =      4033.23964144    -3722.16140761
  entropy T*S    EENTRO =        -0.01937805
  eigenvalues    EBANDS =      -354.80734202
  atomic energy  EATOM  =      4048.71946290
  Solvation  Ediel_sol  =         0.00000000
  ---------------------------------------------------
  free energy    TOTEN  =        -3.83436065 eV

  energy without entropy =       -3.81498260  energy(sigma->0) =       -3.82790130


--------------------------------------------------------------------------------------------------------




--------------------------------------- Iteration      1(   5)  ---------------------------------------


     EDDAV:  cpu time    2.6928: real time    2.6976
       DOS:  cpu time    0.0035: real time    0.0035
    CHARGE:  cpu time    0.4159: real time    0.4182
    MIXING:  cpu time    0.0433: real time    0.0434
    --------------------------------------------
      LOOP:  cpu time    3.1555: real time    3.1627

 eigenvalue-minimisations  :   168
 total energy-change (2. order) :-0.1051498E+02  (-0.9683541E+01)
 number of electron      50.0000029 magnetization       4.6857915
 augmentation part       21.7121629 magnetization       3.4174905

 Broyden mixing:
  rms(total) = 0.11436E+01    rms(broyden)= 0.11433E+01
  rms(prec ) = 0.11801E+01
  weight for this iteration     100.00

 Free energy of the ion-electron system (eV)
  ---------------------------------------------------
  alpha Z        PSCENC =         1.52797618
  Ewald energy   TEWEN  =      2213.78979490
  -Hartree energ DENC   =     -6070.83407814
  -exchange      EXHF   =         0.00000000
  -V(xc)+E(xc)   XCENC  =      -153.28903024
  PAW double counting   =      4033.23964144    -3722.16140761
  entropy T*S    EENTRO =        -0.02229909
  eigenvalues    EBANDS =      -365.31939934
  atomic energy  EATOM  =      4048.71946290
  Solvation  Ediel_sol  =         0.00000000
  ---------------------------------------------------
  free energy    TOTEN  =       -14.34933901 eV

  energy without entropy =      -14.32703992  energy(sigma->0) =      -14.34190598


--------------------------------------------------------------------------------------------------------




--------------------------------------- Iteration      1(   6)  ---------------------------------------


    POTLOK:  cpu time    3.3894: real time    3.3961
    SETDIJ:  cpu time    0.0210: real time    0.0210
     EDDAV:  cpu time    2.2924: real time    2.2983
       DOS:  cpu time    0.0031: real time    0.0031
    CHARGE:  cpu time    0.4048: real time    0.4052
    MIXING:  cpu time    0.0460: real time    0.0460
    --------------------------------------------
      LOOP:  cpu time    6.1566: real time    6.1698

 eigenvalue-minimisations  :   134
 total energy-change (2. order) : 0.2203244E+01  (-0.1589161E+01)
 number of electron      50.0000034 magnetization       4.5720395
 augmentation part       21.6017557 magnetization       2.7110405

 Broyden mixing:
  rms(total) = 0.11341E+01    rms(broyden)= 0.11340E+01
  rms(prec ) = 0.12598E+01
  weight for this iteration     100.00

 eigenvalues of (default mixing * dielectric matrix)
  average eigenvalue GAMMA=   0.4903
  0.4903

 Free energy of the ion-electron system (eV)
  ---------------------------------------------------
  alpha Z        PSCENC =         1.52797618
  Ewald energy   TEWEN  =      2213.78979490
  -Hartree energ DENC   =     -6097.11157404
  -exchange      EXHF   =         0.00000000
  -V(xc)+E(xc)   XCENC  =      -151.24730093
  PAW double counting   =      4271.73194751    -3961.62255421
  entropy T*S    EENTRO =        -0.03888543
  eigenvalues    EBANDS =      -337.89496146
  atomic energy  EATOM  =      4048.71946290
  Solvation  Ediel_sol  =         0.00000000
  ---------------------------------------------------
  free energy    TOTEN  =       -12.14609458 eV

  energy without entropy =      -12.10720915  energy(sigma->0) =      -12.13313277


--------------------------------------------------------------------------------------------------------




--------------------------------------- Iteration      1(   7)  ---------------------------------------


    POTLOK:  cpu time    2.7651: real time    2.7736
    SETDIJ:  cpu time    0.0220: real time    0.0220
     EDDAV:  cpu time    2.2965: real time    2.3010
       DOS:  cpu time    0.0035: real time    0.0034
    CHARGE:  cpu time    0.4072: real time    0.4077
    MIXING:  cpu time    0.0485: real time    0.0485
    --------------------------------------------
      LOOP:  cpu time    5.5427: real time    5.5562

 eigenvalue-minimisations  :   134
 total energy-change (2. order) :-0.6094480E+00  (-0.1079464E+01)
 number of electron      50.0000030 magnetization       4.4755197
 augmentation part       21.5819523 magnetization       1.9810717

 Broyden mixing:
  rms(total) = 0.12578E+01    rms(broyden)= 0.12576E+01
  rms(prec ) = 0.14130E+01
  weight for this iteration     100.00

 eigenvalues of (default mixing * dielectric matrix)
  average eigenvalue GAMMA=   0.4810
  0.7397  0.2223

 Free energy of the ion-electron system (eV)
  ---------------------------------------------------
  alpha Z        PSCENC =         1.52797618
  Ewald energy   TEWEN  =      2213.78979490
  -Hartree energ DENC   =     -6104.42599003
  -exchange      EXHF   =         0.00000000
  -V(xc)+E(xc)   XCENC  =      -150.81509525
  PAW double counting   =      4326.64616396    -4016.79725248
  entropy T*S    EENTRO =         0.02975711
  eigenvalues    EBANDS =      -331.43035986
  atomic energy  EATOM  =      4048.71946290
  Solvation  Ediel_sol  =         0.00000000
  ---------------------------------------------------
  free energy    TOTEN  =       -12.75554257 eV

  energy without entropy =      -12.78529968  energy(sigma->0) =      -12.76546161


--------------------------------------------------------------------------------------------------------




--------------------------------------- Iteration      1(   8)  ---------------------------------------


    POTLOK:  cpu time    2.7658: real time    2.7761
    SETDIJ:  cpu time    0.0197: real time    0.0198
     EDDAV:  cpu time    2.4073: real time    2.4121
       DOS:  cpu time    0.0035: real time    0.0035
    CHARGE:  cpu time    0.4039: real time    0.4080
    MIXING:  cpu time    0.0514: real time    0.0515
    --------------------------------------------
      LOOP:  cpu time    5.6517: real time    5.6709

 eigenvalue-minimisations  :   143
 total energy-change (2. order) : 0.6013474E+00  (-0.7485283E+00)
 number of electron      50.0000030 magnetization       4.3230884
 augmentation part       21.3297092 magnetization       3.1859038

 Broyden mixing:
  rms(total) = 0.10459E+01    rms(broyden)= 0.10456E+01
  rms(prec ) = 0.11684E+01
  weight for this iteration     100.00

 eigenvalues of (default mixing * dielectric matrix)
  average eigenvalue GAMMA=   0.4827
  0.9496  0.2927  0.2056

 Free energy of the ion-electron system (eV)
  ---------------------------------------------------
  alpha Z        PSCENC =         1.52797618
  Ewald energy   TEWEN  =      2213.78979490
  -Hartree energ DENC   =     -6113.83376674
  -exchange      EXHF   =         0.00000000
  -V(xc)+E(xc)   XCENC  =      -150.61797661
  PAW double counting   =      4390.56031038    -4081.01221445
  entropy T*S    EENTRO =        -0.02112246
  eigenvalues    EBANDS =      -321.26665921
  atomic energy  EATOM  =      4048.71946290
  Solvation  Ediel_sol  =         0.00000000
  ---------------------------------------------------
  free energy    TOTEN  =       -12.15419514 eV

  energy without entropy =      -12.13307267  energy(sigma->0) =      -12.14715431


--------------------------------------------------------------------------------------------------------




--------------------------------------- Iteration      1(   9)  ---------------------------------------


    POTLOK:  cpu time    2.7613: real time    2.7701
    SETDIJ:  cpu time    0.0219: real time    0.0219
     EDDAV:  cpu time    2.3107: real time    2.3136
       DOS:  cpu time    0.0036: real time    0.0036
    CHARGE:  cpu time    0.4079: real time    0.4085
    MIXING:  cpu time    0.0559: real time    0.0559
    --------------------------------------------
      LOOP:  cpu time    5.5613: real time    5.5737

 eigenvalue-minimisations  :   135
 total energy-change (2. order) : 0.1255710E+01  (-0.3151414E+00)
 number of electron      50.0000030 magnetization       4.1601136
 augmentation part       21.6333830 magnetization       2.1633949

 Broyden mixing:
  rms(total) = 0.56232E+00    rms(broyden)= 0.56198E+00
  rms(prec ) = 0.63251E+00
  weight for this iteration     100.00

 eigenvalues of (default mixing * dielectric matrix)
  average eigenvalue GAMMA=   0.5813
  1.3230  0.4665  0.3658  0.1699

 Free energy of the ion-electron system (eV)
  ---------------------------------------------------
  alpha Z        PSCENC =         1.52797618
  Ewald energy   TEWEN  =      2213.78979490
  -Hartree energ DENC   =     -6116.44829450
  -exchange      EXHF   =         0.00000000
  -V(xc)+E(xc)   XCENC  =      -150.11225804
  PAW double counting   =      4436.20541594    -4127.10834355
  entropy T*S    EENTRO =         0.00681409
  eigenvalues    EBANDS =      -317.47905306
  atomic energy  EATOM  =      4048.71946290
  Solvation  Ediel_sol  =         0.00000000
  ---------------------------------------------------
  free energy    TOTEN  =       -10.89848515 eV

  energy without entropy =      -10.90529924  energy(sigma->0) =      -10.90075652


--------------------------------------------------------------------------------------------------------




--------------------------------------- Iteration      1(  10)  ---------------------------------------


    POTLOK:  cpu time    2.7712: real time    2.7737
    SETDIJ:  cpu time    0.0221: real time    0.0221
     EDDAV:  cpu time    2.3037: real time    2.3081
       DOS:  cpu time    0.0037: real time    0.0037
    CHARGE:  cpu time    0.4096: real time    0.4107
    MIXING:  cpu time    0.0600: real time    0.0600
    --------------------------------------------
      LOOP:  cpu time    5.5703: real time    5.5784

 eigenvalue-minimisations  :   135
 total energy-change (2. order) :-0.2157397E+00  (-0.5919963E-01)
 number of electron      50.0000029 magnetization       4.0454005
 augmentation part       21.5739569 magnetization       2.3863143

 Broyden mixing:
  rms(total) = 0.22612E+00    rms(broyden)= 0.22570E+00
  rms(prec ) = 0.23870E+00
  weight for this iteration     100.00

 eigenvalues of (default mixing * dielectric matrix)
  average eigenvalue GAMMA=   0.6278
  1.5565  0.5403  0.5403  0.3301  0.1717

 Free energy of the ion-electron system (eV)
  ---------------------------------------------------
  alpha Z        PSCENC =         1.52797618
  Ewald energy   TEWEN  =      2213.78979490
  -Hartree energ DENC   =     -6124.85545501
  -exchange      EXHF   =         0.00000000
  -V(xc)+E(xc)   XCENC  =      -150.14140714
  PAW double counting   =      4479.11070522    -4169.94039156
  entropy T*S    EENTRO =        -0.00270117
  eigenvalues    EBANDS =      -309.32220919
  atomic energy  EATOM  =      4048.71946290
  Solvation  Ediel_sol  =         0.00000000
  ---------------------------------------------------
  free energy    TOTEN  =       -11.11422487 eV

  energy without entropy =      -11.11152370  energy(sigma->0) =      -11.11332448


--------------------------------------------------------------------------------------------------------




--------------------------------------- Iteration      1(  11)  ---------------------------------------


    POTLOK:  cpu time    2.7636: real time    2.7710
    SETDIJ:  cpu time    0.0265: real time    0.0266
     EDDAV:  cpu time    2.3993: real time    2.4023
       DOS:  cpu time    0.0035: real time    0.0035
    CHARGE:  cpu time    0.4075: real time    0.4131
    MIXING:  cpu time    0.0634: real time    0.0634
    --------------------------------------------
      LOOP:  cpu time    5.6639: real time    5.6799

 eigenvalue-minimisations  :   143
 total energy-change (2. order) :-0.1931980E+00  (-0.1153657E-01)
 number of electron      50.0000029 magnetization       3.8932425
 augmentation part       21.5362390 magnetization       2.2635106

 Broyden mixing:
  rms(total) = 0.15797E+00    rms(broyden)= 0.15793E+00
  rms(prec ) = 0.16522E+00
  weight for this iteration     100.00

 eigenvalues of (default mixing * dielectric matrix)
  average eigenvalue GAMMA=   0.6669
  1.6717  0.6637  0.6637  0.1725  0.3290  0.5010

 Free energy of the ion-electron system (eV)
  ---------------------------------------------------
  alpha Z        PSCENC =         1.52797618
  Ewald energy   TEWEN  =      2213.78979490
  -Hartree energ DENC   =     -6128.45452568
  -exchange      EXHF   =         0.00000000
  -V(xc)+E(xc)   XCENC  =      -150.24268115
  PAW double counting   =      4493.07926105    -4183.86477612
  entropy T*S    EENTRO =        -0.00623648
  eigenvalues    EBANDS =      -305.85569845
  atomic energy  EATOM  =      4048.71946290
  Solvation  Ediel_sol  =         0.00000000
  ---------------------------------------------------
  free energy    TOTEN  =       -11.30742286 eV

  energy without entropy =      -11.30118638  energy(sigma->0) =      -11.30534403


--------------------------------------------------------------------------------------------------------




--------------------------------------- Iteration      1(  12)  ---------------------------------------


    POTLOK:  cpu time    3.1870: real time    3.2001
    SETDIJ:  cpu time    0.0279: real time    0.0279
     EDDAV:  cpu time    3.0072: real time    3.0128
       DOS:  cpu time    0.0036: real time    0.0036
    CHARGE:  cpu time    0.4085: real time    0.4089
    MIXING:  cpu time    0.0672: real time    0.0673
    --------------------------------------------
      LOOP:  cpu time    6.7014: real time    6.7206

 eigenvalue-minimisations  :   133
 total energy-change (2. order) :-0.3274725E+00  (-0.8657320E-02)
 number of electron      50.0000029 magnetization       3.6816970
 augmentation part       21.5178964 magnetization       2.0617842

 Broyden mixing:
  rms(total) = 0.12795E+00    rms(broyden)= 0.12793E+00
  rms(prec ) = 0.13748E+00
  weight for this iteration     100.00

 eigenvalues of (default mixing * dielectric matrix)
  average eigenvalue GAMMA=   0.7414
  1.5710  1.4618  0.5864  0.5864  0.1722  0.3354  0.4769

 Free energy of the ion-electron system (eV)
  ---------------------------------------------------
  alpha Z        PSCENC =         1.52797618
  Ewald energy   TEWEN  =      2213.78979490
  -Hartree energ DENC   =     -6131.35792102
  -exchange      EXHF   =         0.00000000
  -V(xc)+E(xc)   XCENC  =      -150.44202139
  PAW double counting   =      4501.66094572    -4192.35185799
  entropy T*S    EENTRO =        -0.01403860
  eigenvalues    EBANDS =      -303.16723604
  atomic energy  EATOM  =      4048.71946290
  Solvation  Ediel_sol  =         0.00000000
  ---------------------------------------------------
  free energy    TOTEN  =       -11.63489536 eV

  energy without entropy =      -11.62085676  energy(sigma->0) =      -11.63021583


--------------------------------------------------------------------------------------------------------




--------------------------------------- Iteration      1(  13)  ---------------------------------------


    POTLOK:  cpu time    2.9238: real time    2.9341
    SETDIJ:  cpu time    0.0213: real time    0.0213
     EDDAV:  cpu time    2.2823: real time    2.2868
       DOS:  cpu time    0.0038: real time    0.0038
    CHARGE:  cpu time    0.4063: real time    0.4068
    MIXING:  cpu time    0.0749: real time    0.0750
    --------------------------------------------
      LOOP:  cpu time    5.7124: real time    5.7278

 eigenvalue-minimisations  :   133
 total energy-change (2. order) :-0.5030467E+00  (-0.1492647E-01)
 number of electron      50.0000029 magnetization       3.5648819
 augmentation part       21.5265052 magnetization       1.9057988

 Broyden mixing:
  rms(total) = 0.82274E-01    rms(broyden)= 0.82207E-01
  rms(prec ) = 0.87303E-01
  weight for this iteration     100.00

 eigenvalues of (default mixing * dielectric matrix)
  average eigenvalue GAMMA=   0.7876
  1.8010  1.8010  0.6260  0.6260  0.1722  0.3307  0.4719  0.4719

 Free energy of the ion-electron system (eV)
  ---------------------------------------------------
  alpha Z        PSCENC =         1.52797618
  Ewald energy   TEWEN  =      2213.78979490
  -Hartree energ DENC   =     -6134.51832025
  -exchange      EXHF   =         0.00000000
  -V(xc)+E(xc)   XCENC  =      -150.76781751
  PAW double counting   =      4508.28957860    -4198.86645787
  entropy T*S    EENTRO =        -0.00846977
  eigenvalues    EBANDS =      -300.30368926
  atomic energy  EATOM  =      4048.71946290
  Solvation  Ediel_sol  =         0.00000000
  ---------------------------------------------------
  free energy    TOTEN  =       -12.13794208 eV

  energy without entropy =      -12.12947232  energy(sigma->0) =      -12.13511883


--------------------------------------------------------------------------------------------------------




--------------------------------------- Iteration      1(  14)  ---------------------------------------


    POTLOK:  cpu time    2.7545: real time    2.7639
    SETDIJ:  cpu time    0.0236: real time    0.0236
     EDDAV:  cpu time    2.3917: real time    2.3981
       DOS:  cpu time    0.0035: real time    0.0035
    CHARGE:  cpu time    0.4095: real time    0.4099
    MIXING:  cpu time    0.0765: real time    0.0766
    --------------------------------------------
      LOOP:  cpu time    5.6592: real time    5.6755

 eigenvalue-minimisations  :   142
 total energy-change (2. order) :-0.3023478E+00  (-0.7112326E-02)
 number of electron      50.0000029 magnetization       3.5180470
 augmentation part       21.5118812 magnetization       1.8635523

 Broyden mixing:
  rms(total) = 0.91649E-01    rms(broyden)= 0.91622E-01
  rms(prec ) = 0.96960E-01
  weight for this iteration     100.00

 eigenvalues of (default mixing * dielectric matrix)
  average eigenvalue GAMMA=   0.7837
  1.8586  1.8586  0.7625  0.7625  0.1722  0.4826  0.4826  0.3370  0.3370

 Free energy of the ion-electron system (eV)
  ---------------------------------------------------
  alpha Z        PSCENC =         1.52797618
  Ewald energy   TEWEN  =      2213.78979490
  -Hartree energ DENC   =     -6136.37589628
  -exchange      EXHF   =         0.00000000
  -V(xc)+E(xc)   XCENC  =      -150.96242445
  PAW double counting   =      4510.95209580    -4201.46696274
  entropy T*S    EENTRO =        -0.02127551
  eigenvalues    EBANDS =      -298.60306071
  atomic energy  EATOM  =      4048.71946290
  Solvation  Ediel_sol  =         0.00000000
  ---------------------------------------------------
  free energy    TOTEN  =       -12.44028991 eV

  energy without entropy =      -12.41901440  energy(sigma->0) =      -12.43319807


--------------------------------------------------------------------------------------------------------




--------------------------------------- Iteration      1(  15)  ---------------------------------------


    POTLOK:  cpu time    2.7487: real time    2.7591
    SETDIJ:  cpu time    0.0212: real time    0.0212
     EDDAV:  cpu time    2.2850: real time    2.2912
       DOS:  cpu time    0.0035: real time    0.0035
    CHARGE:  cpu time    0.4080: real time    0.4084
    MIXING:  cpu time    0.0848: real time    0.0849
    --------------------------------------------
      LOOP:  cpu time    5.5513: real time    5.5684

 eigenvalue-minimisations  :   132
 total energy-change (2. order) :-0.2036710E+00  (-0.3128627E-02)
 number of electron      50.0000029 magnetization       3.4985889
 augmentation part       21.5088918 magnetization       1.8484796

 Broyden mixing:
  rms(total) = 0.11417E+00    rms(broyden)= 0.11416E+00
  rms(prec ) = 0.12452E+00
  weight for this iteration     100.00

 eigenvalues of (default mixing * dielectric matrix)
  average eigenvalue GAMMA=   0.7563
  1.8184  1.8184  0.8595  0.8595  0.4956  0.4956  0.1722  0.3737  0.3737  0.2968

 Free energy of the ion-electron system (eV)
  ---------------------------------------------------
  alpha Z        PSCENC =         1.52797618
  Ewald energy   TEWEN  =      2213.78979490
  -Hartree energ DENC   =     -6136.65119074
  -exchange      EXHF   =         0.00000000
  -V(xc)+E(xc)   XCENC  =      -151.12636964
  PAW double counting   =      4510.40550552    -4200.92780558
  entropy T*S    EENTRO =        -0.02673411
  eigenvalues    EBANDS =      -298.35460039
  atomic energy  EATOM  =      4048.71946290
  Solvation  Ediel_sol  =         0.00000000
  ---------------------------------------------------
  free energy    TOTEN  =       -12.64396096 eV

  energy without entropy =      -12.61722685  energy(sigma->0) =      -12.63504959


--------------------------------------------------------------------------------------------------------




--------------------------------------- Iteration      1(  16)  ---------------------------------------


    POTLOK:  cpu time    2.7630: real time    2.7677
    SETDIJ:  cpu time    0.0217: real time    0.0217
     EDDAV:  cpu time    2.7258: real time    2.7291
       DOS:  cpu time    0.0049: real time    0.0049
    CHARGE:  cpu time    0.4586: real time    0.4591
    MIXING:  cpu time    0.0968: real time    0.0969
    --------------------------------------------
      LOOP:  cpu time    6.0707: real time    6.0794

 eigenvalue-minimisations  :   142
 total energy-change (2. order) :-0.1461639E+00  (-0.2218363E-02)
 number of electron      50.0000028 magnetization       3.4096765
 augmentation part       21.5254235 magnetization       1.8017796

 Broyden mixing:
  rms(total) = 0.48269E-01    rms(broyden)= 0.48258E-01
  rms(prec ) = 0.52368E-01
  weight for this iteration     100.00

 eigenvalues of (default mixing * dielectric matrix)
  average eigenvalue GAMMA=   0.8224
  1.8017  1.5735  1.5735  1.0350  0.7231  0.5615  0.5615  0.1722  0.3965  0.3534
  0.2941

 Free energy of the ion-electron system (eV)
  ---------------------------------------------------
  alpha Z        PSCENC =         1.52797618
  Ewald energy   TEWEN  =      2213.78979490
  -Hartree energ DENC   =     -6136.23178760
  -exchange      EXHF   =         0.00000000
  -V(xc)+E(xc)   XCENC  =      -151.27261053
  PAW double counting   =      4508.71741013    -4199.28948575
  entropy T*S    EENTRO =        -0.02475106
  eigenvalues    EBANDS =      -298.72613399
  atomic energy  EATOM  =      4048.71946290
  Solvation  Ediel_sol  =         0.00000000
  ---------------------------------------------------
  free energy    TOTEN  =       -12.79012482 eV

  energy without entropy =      -12.76537376  energy(sigma->0) =      -12.78187447


--------------------------------------------------------------------------------------------------------




--------------------------------------- Iteration      1(  17)  ---------------------------------------


    POTLOK:  cpu time    3.2225: real time    3.2331
    SETDIJ:  cpu time    0.0379: real time    0.0379
     EDDAV:  cpu time    3.3833: real time    3.3871
       DOS:  cpu time    0.0074: real time    0.0074
    CHARGE:  cpu time    0.5784: real time    0.5791
    MIXING:  cpu time    0.1455: real time    0.1457
    --------------------------------------------
      LOOP:  cpu time    7.3751: real time    7.3903

 eigenvalue-minimisations  :   140
 total energy-change (2. order) :-0.2555207E+00  (-0.3750613E-02)
 number of electron      50.0000028 magnetization       3.3321467
 augmentation part       21.5410172 magnetization       1.7946438

 Broyden mixing:
  rms(total) = 0.83798E-01    rms(broyden)= 0.83763E-01
  rms(prec ) = 0.91474E-01
  weight for this iteration     100.00

 eigenvalues of (default mixing * dielectric matrix)
  average eigenvalue GAMMA=   0.8194
  1.9471  1.5197  1.5197  0.8232  0.8232  0.6210  0.6210  0.6962  0.1722  0.4382
  0.3454  0.3054

 Free energy of the ion-electron system (eV)
  ---------------------------------------------------
  alpha Z        PSCENC =         1.52797618
  Ewald energy   TEWEN  =      2213.78979490
  -Hartree energ DENC   =     -6136.78172856
  -exchange      EXHF   =         0.00000000
  -V(xc)+E(xc)   XCENC  =      -151.50135352
  PAW double counting   =      4506.76267621    -4197.35976485
  entropy T*S    EENTRO =        -0.01480207
  eigenvalues    EBANDS =      -298.18790675
  atomic energy  EATOM  =      4048.71946290
  Solvation  Ediel_sol  =         0.00000000
  ---------------------------------------------------
  free energy    TOTEN  =       -13.04564557 eV

  energy without entropy =      -13.03084349  energy(sigma->0) =      -13.04071154


--------------------------------------------------------------------------------------------------------




--------------------------------------- Iteration      1(  18)  ---------------------------------------


    POTLOK:  cpu time    3.4827: real time    3.4875
    SETDIJ:  cpu time    0.0264: real time    0.0265
     EDDAV:  cpu time    3.2689: real time    3.2745
       DOS:  cpu time    0.0116: real time    0.0116
    CHARGE:  cpu time    0.5723: real time    0.5730
    MIXING:  cpu time    0.1391: real time    0.1393
    --------------------------------------------
      LOOP:  cpu time    7.5010: real time    7.5124

 eigenvalue-minimisations  :   133
 total energy-change (2. order) :-0.8527940E-01  (-0.8368456E-03)
 number of electron      50.0000028 magnetization       3.2454221
 augmentation part       21.5282060 magnetization       1.7122765

 Broyden mixing:
  rms(total) = 0.27440E-01    rms(broyden)= 0.27433E-01
  rms(prec ) = 0.29683E-01
  weight for this iteration     100.00

 eigenvalues of (default mixing * dielectric matrix)
  average eigenvalue GAMMA=   0.8518
  2.2410  1.4583  1.4583  1.0910  1.0910  0.5949  0.5949  0.6405  0.6405  0.1722
  0.4386  0.3461  0.3059

 Free energy of the ion-electron system (eV)
  ---------------------------------------------------
  alpha Z        PSCENC =         1.52797618
  Ewald energy   TEWEN  =      2213.78979490
  -Hartree energ DENC   =     -6137.82948686
  -exchange      EXHF   =         0.00000000
  -V(xc)+E(xc)   XCENC  =      -151.56453209
  PAW double counting   =      4506.21231240    -4196.75645806
  entropy T*S    EENTRO =        -0.01955329
  eigenvalues    EBANDS =      -297.21044105
  atomic energy  EATOM  =      4048.71946290
  Solvation  Ediel_sol  =         0.00000000
  ---------------------------------------------------
  free energy    TOTEN  =       -13.13092496 eV

  energy without entropy =      -13.11137167  energy(sigma->0) =      -13.12440720


--------------------------------------------------------------------------------------------------------




--------------------------------------- Iteration      1(  19)  ---------------------------------------


    POTLOK:  cpu time    3.4637: real time    3.4675
    SETDIJ:  cpu time    0.0290: real time    0.0290
     EDDAV:  cpu time    3.5123: real time    3.5163
       DOS:  cpu time    0.0040: real time    0.0040
    CHARGE:  cpu time    0.5713: real time    0.5737
    MIXING:  cpu time    0.1568: real time    0.1570
    --------------------------------------------
      LOOP:  cpu time    7.7372: real time    7.7475

 eigenvalue-minimisations  :   148
 total energy-change (2. order) :-0.1014732E+00  (-0.3651712E-03)
 number of electron      50.0000028 magnetization       3.1346872
 augmentation part       21.5290354 magnetization       1.6163202

 Broyden mixing:
  rms(total) = 0.16056E-01    rms(broyden)= 0.16047E-01
  rms(prec ) = 0.17804E-01
  weight for this iteration     100.00

 eigenvalues of (default mixing * dielectric matrix)
  average eigenvalue GAMMA=   0.9120
  2.3959  1.8444  1.8444  1.0990  1.0990  0.6939  0.6939  0.6205  0.6205  0.5944
  0.1722  0.4375  0.3463  0.3060

 Free energy of the ion-electron system (eV)
  ---------------------------------------------------
  alpha Z        PSCENC =         1.52797618
  Ewald energy   TEWEN  =      2213.78979490
  -Hartree energ DENC   =     -6138.49045582
  -exchange      EXHF   =         0.00000000
  -V(xc)+E(xc)   XCENC  =      -151.65747776
  PAW double counting   =      4504.98494074    -4195.50815782
  entropy T*S    EENTRO =        -0.01912090
  eigenvalues    EBANDS =      -296.57936059
  atomic energy  EATOM  =      4048.71946290
  Solvation  Ediel_sol  =         0.00000000
  ---------------------------------------------------
  free energy    TOTEN  =       -13.23239817 eV

  energy without entropy =      -13.21327727  energy(sigma->0) =      -13.22602454


--------------------------------------------------------------------------------------------------------




--------------------------------------- Iteration      1(  20)  ---------------------------------------


    POTLOK:  cpu time    3.4945: real time    3.4997
    SETDIJ:  cpu time    0.0301: real time    0.0302
     EDDAV:  cpu time    3.3772: real time    3.3811
       DOS:  cpu time    0.0091: real time    0.0091
    CHARGE:  cpu time    0.5666: real time    0.5672
    MIXING:  cpu time    0.1666: real time    0.1668
    --------------------------------------------
      LOOP:  cpu time    7.6441: real time    7.6540

 eigenvalue-minimisations  :   140
 total energy-change (2. order) :-0.1459819E+00  (-0.4800762E-03)
 number of electron      50.0000028 magnetization       3.0107881
 augmentation part       21.5325330 magnetization       1.5282462

 Broyden mixing:
  rms(total) = 0.19718E-01    rms(broyden)= 0.19716E-01
  rms(prec ) = 0.21541E-01
  weight for this iteration     100.00

 eigenvalues of (default mixing * dielectric matrix)
  average eigenvalue GAMMA=   0.9544
  2.9050  1.7107  1.7107  1.3252  1.3252  0.6129  0.6129  0.7481  0.7481  0.6783
  0.6783  0.1722  0.4356  0.3464  0.3059

 Free energy of the ion-electron system (eV)
  ---------------------------------------------------
  alpha Z        PSCENC =         1.52797618
  Ewald energy   TEWEN  =      2213.78979490
  -Hartree energ DENC   =     -6139.26135450
  -exchange      EXHF   =         0.00000000
  -V(xc)+E(xc)   XCENC  =      -151.79443041
  PAW double counting   =      4503.23322460    -4193.74555549
  entropy T*S    EENTRO =        -0.01604287
  eigenvalues    EBANDS =      -295.83145542
  atomic energy  EATOM  =      4048.71946290
  Solvation  Ediel_sol  =         0.00000000
  ---------------------------------------------------
  free energy    TOTEN  =       -13.37838011 eV

  energy without entropy =      -13.36233724  energy(sigma->0) =      -13.37303248


--------------------------------------------------------------------------------------------------------




--------------------------------------- Iteration      1(  21)  ---------------------------------------


    POTLOK:  cpu time    2.9031: real time    2.9137
    SETDIJ:  cpu time    0.0214: real time    0.0214
     EDDAV:  cpu time    2.3812: real time    2.3843
       DOS:  cpu time    0.0062: real time    0.0062
    CHARGE:  cpu time    0.5675: real time    0.5682
    MIXING:  cpu time    0.1698: real time    0.1700
    --------------------------------------------
      LOOP:  cpu time    6.0493: real time    6.0637

 eigenvalue-minimisations  :   141
 total energy-change (2. order) :-0.1236051E+00  (-0.4893682E-03)
 number of electron      50.0000028 magnetization       2.8983458
 augmentation part       21.5288390 magnetization       1.4503065

 Broyden mixing:
  rms(total) = 0.10442E-01    rms(broyden)= 0.10436E-01
  rms(prec ) = 0.11127E-01
  weight for this iteration     100.00

 eigenvalues of (default mixing * dielectric matrix)
  average eigenvalue GAMMA=   1.0228
  3.6528  2.0135  1.6076  1.6076  1.1007  1.1007  0.6129  0.6129  0.7522  0.7522
  0.1722  0.6455  0.6455  0.4352  0.3464  0.3059

 Free energy of the ion-electron system (eV)
  ---------------------------------------------------
  alpha Z        PSCENC =         1.52797618
  Ewald energy   TEWEN  =      2213.78979490
  -Hartree energ DENC   =     -6140.19450782
  -exchange      EXHF   =         0.00000000
  -V(xc)+E(xc)   XCENC  =      -151.90407726
  PAW double counting   =      4502.06568710    -4192.55225261
  entropy T*S    EENTRO =        -0.01575046
  eigenvalues    EBANDS =      -294.93831808
  atomic energy  EATOM  =      4048.71946290
  Solvation  Ediel_sol  =         0.00000000
  ---------------------------------------------------
  free energy    TOTEN  =       -13.50198517 eV

  energy without entropy =      -13.48623471  energy(sigma->0) =      -13.49673502


--------------------------------------------------------------------------------------------------------




--------------------------------------- Iteration      1(  22)  ---------------------------------------


    POTLOK:  cpu time    3.0313: real time    3.0401
    SETDIJ:  cpu time    0.0205: real time    0.0206
     EDDAV:  cpu time    2.6316: real time    2.6364
       DOS:  cpu time    0.0050: real time    0.0050
    CHARGE:  cpu time    0.5823: real time    0.5829
    MIXING:  cpu time    0.1928: real time    0.1930
    --------------------------------------------
      LOOP:  cpu time    6.4636: real time    6.4781

 eigenvalue-minimisations  :   148
 total energy-change (2. order) :-0.9221691E-01  (-0.3405381E-03)
 number of electron      50.0000028 magnetization       2.7419966
 augmentation part       21.5282749 magnetization       1.3291161

 Broyden mixing:
  rms(total) = 0.93901E-02    rms(broyden)= 0.93846E-02
  rms(prec ) = 0.10030E-01
  weight for this iteration     100.00

 eigenvalues of (default mixing * dielectric matrix)
  average eigenvalue GAMMA=   1.1216
  4.8303  2.2598  1.7623  1.7623  1.1580  1.1580  0.8397  0.8397  0.6119  0.6119
  0.1722  0.6760  0.6760  0.6219  0.4353  0.3464  0.3059

 Free energy of the ion-electron system (eV)
  ---------------------------------------------------
  alpha Z        PSCENC =         1.52797618
  Ewald energy   TEWEN  =      2213.78979490
  -Hartree energ DENC   =     -6140.81924313
  -exchange      EXHF   =         0.00000000
  -V(xc)+E(xc)   XCENC  =      -151.98962650
  PAW double counting   =      4501.13509261    -4191.60429959
  entropy T*S    EENTRO =        -0.01458630
  eigenvalues    EBANDS =      -294.33877313
  atomic energy  EATOM  =      4048.71946290
  Solvation  Ediel_sol  =         0.00000000
  ---------------------------------------------------
  free energy    TOTEN  =       -13.59420208 eV

  energy without entropy =      -13.57961578  energy(sigma->0) =      -13.58933998


--------------------------------------------------------------------------------------------------------




--------------------------------------- Iteration      1(  23)  ---------------------------------------


    POTLOK:  cpu time    3.4794: real time    3.4870
    SETDIJ:  cpu time    0.0315: real time    0.0315
     EDDAV:  cpu time    2.7864: real time    2.7898
       DOS:  cpu time    0.0049: real time    0.0050
    CHARGE:  cpu time    0.5778: real time    0.5784
    MIXING:  cpu time    0.2064: real time    0.2067
    --------------------------------------------
      LOOP:  cpu time    7.0864: real time    7.0984

 eigenvalue-minimisations  :   141
 total energy-change (2. order) :-0.9926727E-01  (-0.5252123E-03)
 number of electron      50.0000028 magnetization       2.6514227
 augmentation part       21.5304435 magnetization       1.2835535

 Broyden mixing:
  rms(total) = 0.59740E-02    rms(broyden)= 0.59648E-02
  rms(prec ) = 0.64076E-02
  weight for this iteration     100.00

 eigenvalues of (default mixing * dielectric matrix)
  average eigenvalue GAMMA=   1.2926
  7.6563  2.2882  1.9736  1.5749  1.5749  1.0878  1.0878  0.1722  0.6117  0.6117
  0.6996  0.6996  0.7720  0.7584  0.6104  0.4353  0.3464  0.3059

 Free energy of the ion-electron system (eV)
  ---------------------------------------------------
  alpha Z        PSCENC =         1.52797618
  Ewald energy   TEWEN  =      2213.78979490
  -Hartree energ DENC   =     -6141.49332901
  -exchange      EXHF   =         0.00000000
  -V(xc)+E(xc)   XCENC  =      -152.08540252
  PAW double counting   =      4500.24301045    -4190.69084302
  entropy T*S    EENTRO =        -0.01194053
  eigenvalues    EBANDS =      -293.69219868
  atomic energy  EATOM  =      4048.71946290
  Solvation  Ediel_sol  =         0.00000000
  ---------------------------------------------------
  free energy    TOTEN  =       -13.69346934 eV

  energy without entropy =      -13.68152881  energy(sigma->0) =      -13.68948916


--------------------------------------------------------------------------------------------------------




--------------------------------------- Iteration      1(  24)  ---------------------------------------


    POTLOK:  cpu time    3.2562: real time    3.2751
    SETDIJ:  cpu time    0.0245: real time    0.0245
     EDDAV:  cpu time    3.1676: real time    3.1733
       DOS:  cpu time    0.0062: real time    0.0062
    CHARGE:  cpu time    0.5644: real time    0.5650
    MIXING:  cpu time    0.2139: real time    0.2142
    --------------------------------------------
      LOOP:  cpu time    7.2328: real time    7.2583

 eigenvalue-minimisations  :   141
 total energy-change (2. order) :-0.4612212E-01  (-0.2354790E-03)
 number of electron      50.0000028 magnetization       2.6128435
 augmentation part       21.5305250 magnetization       1.2716966

 Broyden mixing:
  rms(total) = 0.34241E-02    rms(broyden)= 0.34175E-02
  rms(prec ) = 0.38033E-02
  weight for this iteration     100.00

 eigenvalues of (default mixing * dielectric matrix)
  average eigenvalue GAMMA=   1.3715
  9.2926  2.2466  2.2466  1.5617  1.5617  1.0710  1.0710  1.1835  0.1722  0.6121
  0.6121  0.7196  0.7196  0.6524  0.6524  0.5967  0.4353  0.3464  0.3059

 Free energy of the ion-electron system (eV)
  ---------------------------------------------------
  alpha Z        PSCENC =         1.52797618
  Ewald energy   TEWEN  =      2213.78979490
  -Hartree energ DENC   =     -6141.86398429
  -exchange      EXHF   =         0.00000000
  -V(xc)+E(xc)   XCENC  =      -152.12911036
  PAW double counting   =      4500.15255331    -4190.58956597
  entropy T*S    EENTRO =        -0.01058183
  eigenvalues    EBANDS =      -293.33613631
  atomic energy  EATOM  =      4048.71946290
  Solvation  Ediel_sol  =         0.00000000
  ---------------------------------------------------
  free energy    TOTEN  =       -13.73959146 eV

  energy without entropy =      -13.72900963  energy(sigma->0) =      -13.73606419


--------------------------------------------------------------------------------------------------------




--------------------------------------- Iteration      1(  25)  ---------------------------------------


    POTLOK:  cpu time    3.5484: real time    3.5522
    SETDIJ:  cpu time    0.0409: real time    0.0409
     EDDAV:  cpu time    3.1838: real time    3.1877
       DOS:  cpu time    0.0037: real time    0.0037
    CHARGE:  cpu time    0.5499: real time    0.5505
    MIXING:  cpu time    0.2184: real time    0.2186
    --------------------------------------------
      LOOP:  cpu time    7.5451: real time    7.5537

 eigenvalue-minimisations  :   134
 total energy-change (2. order) :-0.1437818E-01  (-0.5467144E-04)
 number of electron      50.0000028 magnetization       2.5866004
 augmentation part       21.5306065 magnetization       1.2569349

 Broyden mixing:
  rms(total) = 0.23275E-02    rms(broyden)= 0.23253E-02
  rms(prec ) = 0.27152E-02
  weight for this iteration     100.00

 eigenvalues of (default mixing * dielectric matrix)
  average eigenvalue GAMMA=   1.4101
 10.0297  2.3635  2.3635  1.5912  1.5912  1.4643  1.0836  1.0836  0.1722  0.6119
  0.6119  0.7752  0.7752  0.6786  0.6786  0.3059  0.3464  0.4353  0.6304  0.6090

 Free energy of the ion-electron system (eV)
  ---------------------------------------------------
  alpha Z        PSCENC =         1.52797618
  Ewald energy   TEWEN  =      2213.78979490
  -Hartree energ DENC   =     -6141.91366912
  -exchange      EXHF   =         0.00000000
  -V(xc)+E(xc)   XCENC  =      -152.14267131
  PAW double counting   =      4500.28738344    -4190.71814084
  entropy T*S    EENTRO =        -0.01003005
  eigenvalues    EBANDS =      -293.29407573
  atomic energy  EATOM  =      4048.71946290
  Solvation  Ediel_sol  =         0.00000000
  ---------------------------------------------------
  free energy    TOTEN  =       -13.75396964 eV

  energy without entropy =      -13.74393959  energy(sigma->0) =      -13.75062629


--------------------------------------------------------------------------------------------------------




--------------------------------------- Iteration      1(  26)  ---------------------------------------


    POTLOK:  cpu time    3.5288: real time    3.5364
    SETDIJ:  cpu time    0.0281: real time    0.0281
     EDDAV:  cpu time    2.9125: real time    2.9162
       DOS:  cpu time    0.0038: real time    0.0038
    CHARGE:  cpu time    0.4015: real time    0.4037
    MIXING:  cpu time    0.1937: real time    0.1939
    --------------------------------------------
      LOOP:  cpu time    7.0683: real time    7.0821

 eigenvalue-minimisations  :   116
 total energy-change (2. order) :-0.8930164E-02  (-0.3355851E-04)
 number of electron      50.0000028 magnetization       2.5657562
 augmentation part       21.5306398 magnetization       1.2446479

 Broyden mixing:
  rms(total) = 0.16017E-02    rms(broyden)= 0.15997E-02
  rms(prec ) = 0.19506E-02
  weight for this iteration     100.00

 eigenvalues of (default mixing * dielectric matrix)
  average eigenvalue GAMMA=   1.4423
 10.5849  2.6448  2.4966  1.6436  1.6436  1.5218  1.1008  1.1008  0.8877  0.8877
  0.1722  0.6120  0.6120  0.7088  0.7088  0.3059  0.3464  0.4353  0.6406  0.6406
  0.5938

 Free energy of the ion-electron system (eV)
  ---------------------------------------------------
  alpha Z        PSCENC =         1.52797618
  Ewald energy   TEWEN  =      2213.78979490
  -Hartree energ DENC   =     -6141.84328263
  -exchange      EXHF   =         0.00000000
  -V(xc)+E(xc)   XCENC  =      -152.15230131
  PAW double counting   =      4500.38398459    -4190.81033810
  entropy T*S    EENTRO =        -0.00972520
  eigenvalues    EBANDS =      -293.36847113
  atomic energy  EATOM  =      4048.71946290
  Solvation  Ediel_sol  =         0.00000000
  ---------------------------------------------------
  free energy    TOTEN  =       -13.76289980 eV

  energy without entropy =      -13.75317460  energy(sigma->0) =      -13.75965807


--------------------------------------------------------------------------------------------------------




--------------------------------------- Iteration      1(  27)  ---------------------------------------


    POTLOK:  cpu time    2.7479: real time    2.7548
    SETDIJ:  cpu time    0.0197: real time    0.0197
     EDDAV:  cpu time    2.0053: real time    2.0094
       DOS:  cpu time    0.0037: real time    0.0037
    CHARGE:  cpu time    0.4178: real time    0.4183
    MIXING:  cpu time    0.1877: real time    0.1880
    --------------------------------------------
      LOOP:  cpu time    5.3821: real time    5.3938

 eigenvalue-minimisations  :   109
 total energy-change (2. order) :-0.5727329E-02  (-0.2225257E-04)
 number of electron      50.0000028 magnetization       2.5488813
 augmentation part       21.5314242 magnetization       1.2340505

 Broyden mixing:
  rms(total) = 0.95038E-03    rms(broyden)= 0.94884E-03
  rms(prec ) = 0.12017E-02
  weight for this iteration     100.00

 eigenvalues of (default mixing * dielectric matrix)
  average eigenvalue GAMMA=   1.4709
 11.0098  3.1789  2.5230  1.6417  1.6417  1.4100  1.4100  1.0838  1.0838  0.1722
  0.6120  0.6120  0.3059  0.3464  0.4353  0.7311  0.7311  0.7819  0.7222  0.7222
  0.6165  0.5888

 Free energy of the ion-electron system (eV)
  ---------------------------------------------------
  alpha Z        PSCENC =         1.52797618
  Ewald energy   TEWEN  =      2213.78979490
  -Hartree energ DENC   =     -6141.72282904
  -exchange      EXHF   =         0.00000000
  -V(xc)+E(xc)   XCENC  =      -152.15957775
  PAW double counting   =      4500.46891209    -4190.89182495
  entropy T*S    EENTRO =        -0.00935437
  eigenvalues    EBANDS =      -293.49118709
  atomic energy  EATOM  =      4048.71946290
  Solvation  Ediel_sol  =         0.00000000
  ---------------------------------------------------
  free energy    TOTEN  =       -13.76862713 eV

  energy without entropy =      -13.75927276  energy(sigma->0) =      -13.76550901


--------------------------------------------------------------------------------------------------------




--------------------------------------- Iteration      1(  28)  ---------------------------------------


    POTLOK:  cpu time    2.7213: real time    2.7307
    SETDIJ:  cpu time    0.0212: real time    0.0216
     EDDAV:  cpu time    1.9185: real time    1.9231
       DOS:  cpu time    0.0034: real time    0.0034
    CHARGE:  cpu time    0.4085: real time    0.4108
    MIXING:  cpu time    0.1994: real time    0.1996
    --------------------------------------------
      LOOP:  cpu time    5.2724: real time    5.2892

 eigenvalue-minimisations  :   101
 total energy-change (2. order) :-0.3504165E-02  (-0.1739757E-04)
 number of electron      50.0000028 magnetization       2.5380988
 augmentation part       21.5314453 magnetization       1.2290822

 Broyden mixing:
  rms(total) = 0.71575E-03    rms(broyden)= 0.71446E-03
  rms(prec ) = 0.88649E-03
  weight for this iteration     100.00

 eigenvalues of (default mixing * dielectric matrix)
  average eigenvalue GAMMA=   1.4924
 11.3718  3.6467  2.5423  1.6057  1.6057  1.5389  1.5389  1.0832  1.0832  0.1722
  0.6120  0.6120  0.9069  0.9069  0.7207  0.7207  0.3059  0.3464  0.4353  0.6931
  0.6931  0.6193  0.5648

 Free energy of the ion-electron system (eV)
  ---------------------------------------------------
  alpha Z        PSCENC =         1.52797618
  Ewald energy   TEWEN  =      2213.78979490
  -Hartree energ DENC   =     -6141.60675309
  -exchange      EXHF   =         0.00000000
  -V(xc)+E(xc)   XCENC  =      -152.16437345
  PAW double counting   =      4500.53356115    -4190.95292767
  entropy T*S    EENTRO =        -0.00916064
  eigenvalues    EBANDS =      -293.60971158
  atomic energy  EATOM  =      4048.71946290
  Solvation  Ediel_sol  =         0.00000000
  ---------------------------------------------------
  free energy    TOTEN  =       -13.77213130 eV

  energy without entropy =      -13.76297066  energy(sigma->0) =      -13.76907775


--------------------------------------------------------------------------------------------------------




--------------------------------------- Iteration      1(  29)  ---------------------------------------


    POTLOK:  cpu time    2.7211: real time    2.7322
    SETDIJ:  cpu time    0.0193: real time    0.0193
     EDDAV:  cpu time    2.3119: real time    2.3181
       DOS:  cpu time    0.0054: real time    0.0054
    CHARGE:  cpu time    0.5828: real time    0.5834
    MIXING:  cpu time    0.2813: real time    0.2817
    --------------------------------------------
      LOOP:  cpu time    5.9219: real time    5.9402

 eigenvalue-minimisations  :    93
 total energy-change (2. order) :-0.1322525E-02  (-0.5447409E-05)
 number of electron      50.0000028 magnetization       2.5313982
 augmentation part       21.5318633 magnetization       1.2258809

 Broyden mixing:
  rms(total) = 0.64066E-03    rms(broyden)= 0.64019E-03
  rms(prec ) = 0.75958E-03
  weight for this iteration     100.00

 eigenvalues of (default mixing * dielectric matrix)
  average eigenvalue GAMMA=   1.5162
 11.5387  4.2050  2.5065  1.7812  1.7812  1.6001  1.6001  1.1022  1.1022  1.0324
  1.0324  0.1722  0.6120  0.6120  0.7367  0.7367  0.3059  0.3464  0.6844  0.6844
  0.4353  0.6161  0.6161  0.5496

 Free energy of the ion-electron system (eV)
  ---------------------------------------------------
  alpha Z        PSCENC =         1.52797618
  Ewald energy   TEWEN  =      2213.78979490
  -Hartree energ DENC   =     -6141.52091440
  -exchange      EXHF   =         0.00000000
  -V(xc)+E(xc)   XCENC  =      -152.16670723
  PAW double counting   =      4500.54277707    -4190.95947656
  entropy T*S    EENTRO =        -0.00894367
  eigenvalues    EBANDS =      -293.69742302
  atomic energy  EATOM  =      4048.71946290
  Solvation  Ediel_sol  =         0.00000000
  ---------------------------------------------------
  free energy    TOTEN  =       -13.77345382 eV

  energy without entropy =      -13.76451016  energy(sigma->0) =      -13.77047260


--------------------------------------------------------------------------------------------------------




--------------------------------------- Iteration      1(  30)  ---------------------------------------


    POTLOK:  cpu time    2.9951: real time    3.0042
    SETDIJ:  cpu time    0.0215: real time    0.0215
     EDDAV:  cpu time    1.9553: real time    1.9591
       DOS:  cpu time    0.0055: real time    0.0055
    CHARGE:  cpu time    0.5823: real time    0.5830
    MIXING:  cpu time    0.3030: real time    0.3034
    --------------------------------------------
      LOOP:  cpu time    5.8627: real time    5.8767

 eigenvalue-minimisations  :    93
 total energy-change (2. order) :-0.6217315E-03  (-0.5411834E-05)
 number of electron      50.0000028 magnetization       2.5287153
 augmentation part       21.5316200 magnetization       1.2251982

 Broyden mixing:
  rms(total) = 0.38382E-03    rms(broyden)= 0.38301E-03
  rms(prec ) = 0.47948E-03
  weight for this iteration     100.00

 eigenvalues of (default mixing * dielectric matrix)
  average eigenvalue GAMMA=   1.5210
[...]
  ---------------------------------------------------
  alpha Z        PSCENC =         1.52797618
  Ewald energy   TEWEN  =      2470.71358843
  -Hartree energ DENC   =     -6420.72948028
  -exchange      EXHF   =         0.00000000
  -V(xc)+E(xc)   XCENC  =      -152.01611931
  PAW double counting   =      4419.18453158    -4107.14107717
  entropy T*S    EENTRO =         0.09269368
  eigenvalues    EBANDS =      -275.10152354
  atomic energy  EATOM  =      4048.71946290
  Solvation  Ediel_sol  =         0.00000000
  ---------------------------------------------------
  free energy    TOTEN  =       -14.74994754 eV

  energy without entropy =      -14.84264122  energy(sigma->0) =      -14.78084544


--------------------------------------------------------------------------------------------------------




--------------------------------------- Iteration     17(  35)  ---------------------------------------


    POTLOK:  cpu time    3.5013: real time    3.5264
    SETDIJ:  cpu time    0.0284: real time    0.0284
     EDDAV:  cpu time    2.6320: real time    2.6431
       DOS:  cpu time    0.0077: real time    0.0077
    CHARGE:  cpu time    0.4020: real time    0.4022
    MIXING:  cpu time    0.3661: real time    0.3663
    --------------------------------------------
      LOOP:  cpu time    6.9375: real time    6.9740

 eigenvalue-minimisations  :   102
 total energy-change (2. order) :-0.1967196E-03  (-0.7298071E-06)
 number of electron      49.9999973 magnetization       2.1358381
 augmentation part       21.6604848 magnetization       1.2546964

 Broyden mixing:
  rms(total) = 0.10001E-03    rms(broyden)= 0.99971E-04
  rms(prec ) = 0.11570E-03
  weight for this iteration     100.00

 eigenvalues of (default mixing * dielectric matrix)
  average eigenvalue GAMMA=   1.2799
  7.7555  3.2834  2.9332  2.9332  1.9731  1.9731  1.6715  1.6715  1.3835  1.3835
  1.0794  1.0794  1.0172  1.0172  0.9567  0.9567  0.1589  0.7614  0.7614  0.6651
  0.6651  0.4919  0.4919  0.7644  0.7644  0.3823  0.4248  0.6368  0.6368  0.6448
  0.5765  0.5765  0.5504  0.4939

 Free energy of the ion-electron system (eV)
  ---------------------------------------------------
  alpha Z        PSCENC =         1.52797618
  Ewald energy   TEWEN  =      2470.71358843
  -Hartree energ DENC   =     -6420.72376765
  -exchange      EXHF   =         0.00000000
  -V(xc)+E(xc)   XCENC  =      -152.01636069
  PAW double counting   =      4419.19504433    -4107.15185584
  entropy T*S    EENTRO =         0.09270471
  eigenvalues    EBANDS =      -275.10693662
  atomic energy  EATOM  =      4048.71946290
  Solvation  Ediel_sol  =         0.00000000
  ---------------------------------------------------
  free energy    TOTEN  =       -14.75014426 eV

  energy without entropy =      -14.84284897  energy(sigma->0) =      -14.78104583


--------------------------------------------------------------------------------------------------------




--------------------------------------- Iteration     17(  36)  ---------------------------------------


    POTLOK:  cpu time    2.7228: real time    2.7276
    SETDIJ:  cpu time    0.0282: real time    0.0282
     EDDAV:  cpu time    1.9301: real time    1.9315
       DOS:  cpu time    0.0072: real time    0.0072
    --------------------------------------------
      LOOP:  cpu time    4.6883: real time    4.6944

 eigenvalue-minimisations  :   102
 total energy-change (2. order) :-0.8267260E-04  (-0.4042381E-06)
 number of electron      49.9999973 magnetization       2.1358381
 augmentation part       21.6604848 magnetization       1.2546964

 Free energy of the ion-electron system (eV)
  ---------------------------------------------------
  alpha Z        PSCENC =         1.52797618
  Ewald energy   TEWEN  =      2470.71358843
  -Hartree energ DENC   =     -6420.72146910
  -exchange      EXHF   =         0.00000000
  -V(xc)+E(xc)   XCENC  =      -152.01646166
  PAW double counting   =      4419.18859900    -4107.14541346
  entropy T*S    EENTRO =         0.09270031
  eigenvalues    EBANDS =      -275.10920953
  atomic energy  EATOM  =      4048.71946290
  Solvation  Ediel_sol  =         0.00000000
  ---------------------------------------------------
  free energy    TOTEN  =       -14.75022693 eV

  energy without entropy =      -14.84292725  energy(sigma->0) =      -14.78112704


--------------------------------------------------------------------------------------------------------




 average (electrostatic) potential at core
  the test charge radii are     1.1199
  (the norm of the test charge is              1.0000)
       1 -83.3072       2 -83.9084       3 -83.0946       4 -82.8299       5 -83.1992
 
 
 
 E-fermi :  -4.1388     XC(G=0):  -0.2556     alpha+bet : -0.1155


 spin component 1

 k-point     1 :       0.0000    0.0000    0.0000
  band No.  band energies     occupation 
      1      -7.7098      1.00000
      2      -7.5843      1.00000
      3      -7.2356      1.00000
      4      -7.0128      1.00000
      5      -6.8212      1.00000
      6      -6.6729      1.00000
      7      -6.2281      1.00000
      8      -6.0573      1.00000
      9      -5.8864      1.00000
     10      -5.7562      1.00000
     11      -5.7141      1.00000
     12      -5.3989      1.00000
     13      -5.2444      1.00000
     14      -5.1917      1.00000
     15      -5.0757      1.00000
     16      -5.0067      1.00000
     17      -4.9458      1.00000
     18      -4.8125      1.00001
     19      -4.7269      1.00013
     20      -4.7140      1.00018
     21      -4.6641      1.00065
     22      -4.5706      1.00462
     23      -4.5579      1.00580
     24      -4.4803      1.01822
     25      -4.4596      1.02287
     26      -4.4255      1.03048
     27      -3.7807     -0.01481
     28      -3.1644     -0.00000
     29      -2.6301     -0.00000
     30      -1.4807     -0.00000
     31      -1.1746     -0.00000
     32      -0.8054     -0.00000
     33      -0.6358     -0.00000

 spin component 2

 k-point     1 :       0.0000    0.0000    0.0000
  band No.  band energies     occupation 
      1      -7.3277      1.00000
      2      -7.1914      1.00000
      3      -6.8884      1.00000
      4      -6.8230      1.00000
      5      -6.4834      1.00000
      6      -6.3619      1.00000
      7      -5.9529      1.00000
      8      -5.8297      1.00000
      9      -5.6880      1.00000
     10      -5.4718      1.00000
     11      -5.4075      1.00000
     12      -5.1946      1.00000
     13      -5.0610      1.00000
     14      -5.0136      1.00000
     15      -4.9164      1.00000
     16      -4.8163      1.00001
     17      -4.7483      1.00007
     18      -4.5906      1.00317
     19      -4.5175      1.01110
     20      -4.4961      1.01494
     21      -4.3978      1.03477
     22      -4.3739      1.03506
     23      -4.2966      0.98720
     24      -4.2480      0.89436
     25      -3.9526     -0.01637
     26      -3.8604     -0.03206
     27      -3.5934     -0.00040
     28      -2.9906     -0.00000
     29      -2.5012     -0.00000
     30      -1.3630     -0.00000
     31      -1.1547     -0.00000
     32      -0.7441     -0.00000
     33      -0.6113     -0.00000


--------------------------------------------------------------------------------------------------------


 soft charge-density along one line, spin component            1
         0         1         2         3         4         5         6         7         8         9
 total charge-density along one line
 
 soft charge-density along one line, spin component            2
         0         1         2         3         4         5         6         7         8         9
 total charge-density along one line
 
 pseudopotential strength for first ion, spin component:            1
 -8.538   0.119   0.023  -0.060   0.033  -8.508   0.114   0.022
  0.119  -8.519  -0.061   0.032  -0.005   0.114  -8.490  -0.058
  0.023  -0.061  -8.399   0.058  -0.102   0.022  -0.058  -8.375
 -0.060   0.032   0.058  -8.336   0.083  -0.057   0.031   0.055
  0.033  -0.005  -0.102   0.083  -8.458   0.032  -0.005  -0.098
 -8.508   0.114   0.022  -0.057   0.032  -8.456   0.109   0.021
  0.114  -8.490  -0.058   0.031  -0.005   0.109  -8.438  -0.056
  0.022  -0.058  -8.375   0.055  -0.098   0.021  -0.056  -8.328
 -0.057   0.031   0.055  -8.315   0.079  -0.055   0.029   0.053
  0.032  -0.005  -0.098   0.079  -8.431   0.031  -0.005  -0.094
 -0.001   0.020  -0.020  -0.050  -0.043  -0.001   0.020  -0.019
 -0.002   0.034  -0.034  -0.085  -0.072  -0.002   0.034  -0.033
  0.015  -0.014  -0.004  -0.002  -0.007   0.014  -0.014  -0.003
 -0.002   0.011  -0.021   0.019  -0.001  -0.002   0.011  -0.020
  0.010  -0.002  -0.011  -0.017   0.022   0.010  -0.002  -0.010
  0.015  -0.015  -0.004  -0.002  -0.008   0.015  -0.015  -0.004
 -0.002   0.013  -0.023   0.020  -0.001  -0.002   0.013  -0.022
  0.012  -0.002  -0.011  -0.018   0.024   0.012  -0.002  -0.011
 pseudopotential strength for first ion, spin component:            2
 -8.307   0.076  -0.002  -0.025  -0.001  -8.287   0.073  -0.002
  0.076  -8.318  -0.013   0.001   0.030   0.073  -8.297  -0.013
 -0.002  -0.013  -8.248   0.041  -0.069  -0.002  -0.013  -8.230
 -0.025   0.001   0.041  -8.202   0.074  -0.024   0.001   0.040
 -0.001   0.030  -0.069   0.074  -8.317  -0.001   0.028  -0.066
 -8.287   0.073  -0.002  -0.024  -0.001  -8.244   0.069  -0.002
  0.073  -8.297  -0.013   0.001   0.028   0.069  -8.254  -0.012
 -0.002  -0.013  -8.230   0.040  -0.066  -0.002  -0.012  -8.190
 -0.024   0.001   0.040  -8.187   0.071  -0.023   0.001   0.038
 -0.001   0.028  -0.066   0.071  -8.296  -0.001   0.027  -0.064
  0.000   0.013  -0.012  -0.034  -0.023   0.000   0.012  -0.011
  0.000   0.021  -0.020  -0.057  -0.039   0.000   0.021  -0.019
  0.020  -0.017  -0.005  -0.001  -0.008   0.019  -0.017  -0.005
 -0.001   0.010  -0.023   0.021  -0.001  -0.001   0.009  -0.023
  0.010  -0.001  -0.012  -0.018   0.023   0.009  -0.001  -0.012
  0.023  -0.020  -0.006  -0.001  -0.010   0.022  -0.019  -0.006
 -0.001   0.011  -0.026   0.024  -0.000  -0.001   0.011  -0.025
  0.011  -0.001  -0.014  -0.021   0.025   0.011  -0.001  -0.013
 total augmentation occupancy for first ion, spin component:            1
  1.608   0.083   0.109  -0.022   0.177  -0.547   0.218   0.013  -0.146  -0.013   0.003   0.006   0.066   0.024   0.009   0.013
  0.083   1.821  -0.216   0.057  -0.354   0.223  -0.599   0.019   0.099   0.239  -0.580   0.118  -0.063  -0.014   0.037  -0.013
  0.109  -0.216   1.765   0.072   0.026   0.007   0.022  -0.347   0.006  -0.197   0.430  -0.112  -0.031  -0.031  -0.058   0.001
 -0.022   0.057   0.072   1.966  -0.012  -0.149   0.099   0.014  -0.457   0.095   1.142  -0.309   0.005   0.123  -0.126  -0.005
  0.177  -0.354   0.026  -0.012   2.101  -0.015   0.237  -0.202   0.089  -0.724   0.742  -0.210  -0.030   0.030   0.043  -0.003
 -0.547   0.223   0.007  -0.149  -0.015   1.231  -0.419  -0.080   0.254  -0.085  -0.031  -0.001  -0.212  -0.045  -0.007   0.023
  0.218  -0.599   0.022   0.099   0.237  -0.419   1.176   0.081  -0.200  -0.181   0.367  -0.024   0.168   0.038  -0.050  -0.018
  0.013   0.019  -0.347   0.014  -0.202  -0.080   0.081   0.811  -0.050   0.298  -0.296   0.026   0.077   0.079   0.089  -0.008
 -0.146   0.099   0.006  -0.457   0.089   0.254  -0.200  -0.050   0.888  -0.130  -0.578   0.039  -0.034  -0.182   0.173   0.003
 -0.013   0.239  -0.197   0.095  -0.724  -0.085  -0.181   0.298  -0.130   1.229  -0.431   0.019   0.085  -0.028  -0.069  -0.009
  0.003  -0.580   0.430   1.142   0.742  -0.031   0.367  -0.296  -0.578  -0.431   1.732  -0.319  -0.045   0.167  -0.198   0.005
  0.006   0.118  -0.112  -0.309  -0.210  -0.001  -0.024   0.026   0.039   0.019  -0.319   0.092   0.006  -0.017   0.022  -0.000
  0.066  -0.063  -0.031   0.005  -0.030  -0.212   0.168   0.077  -0.034   0.085  -0.045   0.006   0.085   0.013  -0.000  -0.008
  0.024  -0.014  -0.031   0.123   0.030  -0.045   0.038   0.079  -0.182  -0.028   0.167  -0.017   0.013   0.058  -0.025  -0.001
  0.009   0.037  -0.058  -0.126   0.043  -0.007  -0.050   0.089   0.173  -0.069  -0.198   0.022  -0.000  -0.025   0.064  -0.000
  0.013  -0.013   0.001  -0.005  -0.003   0.023  -0.018  -0.008   0.003  -0.009   0.005  -0.000  -0.008  -0.001  -0.000   0.002
 -0.005   0.019  -0.031   0.023   0.000   0.003  -0.004  -0.010   0.018   0.001  -0.006  -0.001  -0.001  -0.005   0.002  -0.000
  0.013  -0.005  -0.016  -0.018   0.032   0.002   0.004  -0.009  -0.017   0.009   0.011  -0.000  -0.000   0.002  -0.005   0.000
 total augmentation occupancy for first ion, spin component:            2
  0.725  -0.283  -0.126   0.191  -0.181  -0.312   0.138   0.056  -0.086   0.082   0.065  -0.012   0.054   0.010  -0.010   0.012
 -0.283   0.548   0.249  -0.178   0.179   0.135  -0.226  -0.109   0.084  -0.085  -0.086   0.032  -0.030  -0.016   0.005  -0.010
 -0.126   0.249   0.275  -0.096   0.197   0.059  -0.108  -0.112   0.045  -0.088   0.017  -0.020  -0.015  -0.008   0.003  -0.005
  0.191  -0.178  -0.096   0.176  -0.070  -0.084   0.085   0.038  -0.073   0.027   0.071  -0.053   0.017   0.008  -0.004   0.003
 -0.181   0.179   0.197  -0.070   0.241   0.081  -0.083  -0.083   0.032  -0.093   0.052  -0.051  -0.017  -0.009  -0.005  -0.005
 -0.312   0.135   0.059  -0.084   0.081   0.082  -0.057  -0.024   0.030  -0.030  -0.035   0.007  -0.015  -0.003   0.005  -0.005
  0.138  -0.226  -0.108   0.085  -0.083  -0.057   0.047   0.038  -0.033   0.036   0.027  -0.005   0.008   0.005  -0.001   0.004
  0.056  -0.109  -0.112   0.038  -0.083  -0.024   0.038   0.008  -0.015   0.033   0.016  -0.004   0.003   0.001  -0.003   0.002
 -0.086   0.084   0.045  -0.073   0.032   0.030  -0.033  -0.015  -0.004  -0.010  -0.007   0.000  -0.006   0.000  -0.001  -0.002
  0.082  -0.085  -0.088   0.027  -0.093  -0.030   0.036   0.033  -0.010  -0.002   0.024  -0.006   0.003   0.005   0.003   0.002
  0.065  -0.086   0.017   0.071   0.052  -0.035   0.027   0.016  -0.007   0.024   0.006  -0.040   0.014  -0.005   0.005   0.000
 -0.012   0.032  -0.020  -0.053  -0.051   0.007  -0.005  -0.004   0.000  -0.006  -0.040   0.029  -0.002   0.001  -0.001   0.000
  0.054  -0.030  -0.015   0.017  -0.017  -0.015   0.008   0.003  -0.006   0.003   0.014  -0.002   0.001   0.001  -0.001   0.001
  0.010  -0.016  -0.008   0.008  -0.009  -0.003   0.005   0.001   0.000   0.005  -0.005   0.001   0.001  -0.001  -0.000   0.000
 -0.010   0.005   0.003  -0.004  -0.005   0.005  -0.001  -0.003  -0.001   0.003   0.005  -0.001  -0.001  -0.000  -0.002  -0.000
  0.012  -0.010  -0.005   0.003  -0.005  -0.005   0.004   0.002  -0.002   0.002   0.000   0.000   0.001   0.000  -0.000   0.000
  0.002  -0.002  -0.004   0.004  -0.002  -0.001   0.001   0.002  -0.001   0.001   0.001  -0.001   0.000   0.000  -0.000   0.000
  0.001   0.001  -0.000  -0.002   0.001  -0.001  -0.000   0.000   0.001  -0.001  -0.001   0.000   0.000  -0.000   0.000   0.000


------------------------ aborting loop because EDIFF is reached ----------------------------------------


    CHARGE:  cpu time    0.3994: real time    0.3998
    FORLOC:  cpu time    0.0647: real time    0.0648
    FORNL :  cpu time    0.7048: real time    0.7051
    FORCOR:  cpu time    2.6150: real time    2.6164
    FORHAR:  cpu time    0.3115: real time    0.3117
    MIXING:  cpu time    0.3666: real time    0.3668
    OFIELD:  cpu time    0.0000: real time    0.0000

 VOLUME and BASIS-vectors are now :
 -----------------------------------------------------------------------------
  energy-cutoff  :      400.00
  volume of cell :    10663.65
      direct lattice vectors                 reciprocal lattice vectors
    21.699016540  0.000000000  0.000000000     0.046085038  0.000000000  0.000000000
     0.000000000 21.974144382  0.000000000     0.000000000  0.045508029  0.000000000
     0.000000000  0.000000000 22.364229456     0.000000000  0.000000000  0.044714261

  length of vectors
    21.699016540 21.974144382 22.364229456     0.046085038  0.045508029  0.044714261


 FORCES acting on ions
    electron-ion (+dipol)            ewald-force                    non-local-force                 convergence-correction
 -----------------------------------------------------------------------------------------------
   -.367E+03 -.604E+02 0.311E+03   0.362E+03 0.592E+02 -.306E+03   0.500E+01 0.101E+01 -.429E+01   -.795E-04 0.142E-03 0.271E-03
   -.574E+02 -.468E+03 0.653E+02   0.565E+02 0.462E+03 -.647E+02   0.832E+00 0.640E+01 -.158E+01   -.904E-04 0.133E-03 0.921E-03
   -.474E+00 -.461E+02 -.500E+03   -.901E-01 0.459E+02 0.493E+03   0.823E-01 -.655E+00 0.716E+01   -.177E-04 0.299E-03 0.319E-03
   -.389E+02 0.447E+03 0.811E+02   0.384E+02 -.441E+03 -.808E+02   -.291E+00 -.569E+01 0.140E+00   -.103E-03 0.572E-04 0.159E-03
   0.464E+03 0.128E+03 0.425E+02   -.457E+03 -.126E+03 -.413E+02   -.562E+01 -.235E+01 -.950E+00   0.516E-03 0.171E-03 0.635E-03
 -----------------------------------------------------------------------------------------------
   -.822E-02 0.130E+01 -.487E+00   0.000E+00 0.853E-13 0.924E-13   0.810E-02 -.130E+01 0.482E+00   0.226E-03 0.802E-03 0.231E-02
 
 
 POSITION                                       TOTAL-FORCE (eV/Angst)
 -----------------------------------------------------------------------------------
     12.68583     11.68605      9.23335         0.196890     -0.153230     -0.175158
     11.36195     13.12581     10.68211        -0.114345      0.546997     -0.958344
     10.99937     12.41665     12.92254        -0.482226     -0.762583      0.458977
     11.69679      9.43277      9.69028        -0.755548      0.646616      0.437668
      9.51899     11.35421     10.61968         1.155229     -0.277800      0.236857
 -----------------------------------------------------------------------------------
    total drift:                                0.000108     -0.000868     -0.002540


--------------------------------------------------------------------------------------------------------



  FREE ENERGIE OF THE ION-ELECTRON SYSTEM (eV)
  ---------------------------------------------------
  free  energy   TOTEN  =       -14.75022693 eV

  energy  without entropy=      -14.84292725  energy(sigma->0) =      -14.78112704
 
 d Force = 0.1223887E+02[-0.135E+01, 0.258E+02]  d Energy = 0.5567548E+01 0.667E+01
 d Force = 0.3824028E+03[ 0.285E+03, 0.480E+03]  d Ewald  = 0.3598675E+03 0.225E+02


--------------------------------------------------------------------------------------------------------


    POTLOK:  cpu time    2.8043: real time    2.8151


--------------------------------------------------------------------------------------------------------




--------------------------------------------------------------------------------------------------------


  
 reached required accuracy - stopping structural energy minimisation
     LOOP+:  cpu time  240.4113: real time  241.6426
    4ORBIT:  cpu time    0.0000: real time    0.0000

 total amount of memory used by VASP MPI-rank0   201663. kBytes
=======================================================================

   base      :      30000. kBytes
   nonl-proj :       2711. kBytes
   fftplans  :      47837. kBytes
   grid      :     108307. kBytes
   one-center:         15. kBytes
   wavefun   :      12793. kBytes
 
  
  
 General timing and accounting informations for this job:
 ========================================================
  
                  Total CPU time used (sec):     2337.457
                            User time (sec):     2307.680
                          System time (sec):       29.776
                         Elapsed time (sec):     2383.531
  
                   Maximum memory used (kb):      453108.
                   Average memory used (kb):           0.
  
                          Minor page faults:      9372423
                          Major page faults:        33482
                 Voluntary context switches:         4062
