<?xml version="1.0" encoding="ISO-8859-1"?>
<modeling>
 <generator>
  <i name="program" type="string">vasp </i>
  <i name="version" type="string">6.1.2  </i>
  <i name="subversion" type="string">22Jul20 (build Feb  1 2022 14:42:14) gamma-only                       parallel </i>
  <i name="platform" type="string">LinuxPGI </i>
  <i name="date" type="string">2022 02 04 </i>
  <i name="time" type="string">13:56:53 </i>
 </generator>
 <incar>
  <i type="int" name="ISPIN">     2</i>
  <i type="int" name="IBRION">     2</i>
  <i type="int" name="NSW">  1000</i>
  <i type="int" name="ISIF">     0</i>
  <i type="int" name="ISYM">     0</i>
  <i name="ENCUT">    400.00000000</i>
  <i type="logical" name="LREAL"> F  </i>
  <i type="int" name="ISMEAR">     1</i>
  <i name="SIGMA">      0.20000000</i>
  <i type="logical" name="LWAVE"> F  </i>
  <i type="logical" name="LCHARG"> F  </i>
  <i type="int" name="KPAR">     1</i>
  <i type="int" name="NCORE">    16</i>
  <i type="string" name="GGA"> PE</i>
  <i type="int" name="ISPIN">     2</i>
 </incar>
 <structure name="primitive_cell" >
  <crystal>
   <varray name="basis" >
    <v>      21.69901654       0.00000000       0.00000000 </v>
    <v>       0.00000000      21.97414438       0.00000000 </v>
    <v>       0.00000000       0.00000000      22.36422946 </v>
   </varray>
   <i name="volume">  10663.65200685 </i>
   <varray name="rec_basis" >
    <v>       0.04608504       0.00000000       0.00000000 </v>
    <v>       0.00000000       0.04550803       0.00000000 </v>
    <v>       0.00000000       0.00000000       0.04471426 </v>
   </varray>
  </crystal>
  <varray name="positions" >
   <v>       0.58339443       0.51820499       0.40696770 </v>
   <v>       0.52817926       0.58594774       0.48018426 </v>
   <v>       0.48697985       0.58086469       0.58369122 </v>
   <v>       0.56929364       0.41292111       0.40325960 </v>
   <v>       0.42503173       0.54223238       0.50236867 </v>
  </varray>
 </structure>
 <varray name="primitive_index" >
  <v type="int" >        1 </v>
  <v type="int" >        2 </v>
  <v type="int" >        3 </v>
  <v type="int" >        4 </v>
  <v type="int" >        5 </v>
 </varray>
 <kpoints>
  <generation param="Gamma">
   <v type="int" name="divisions">       1        1        1 </v>
   <v name="usershift">      0.00000000       0.00000000       0.00000000 </v>
   <v name="genvec1">      1.00000000       0.00000000       0.00000000 </v>
   <v name="genvec2">      0.00000000       1.00000000       0.00000000 </v>
   <v name="genvec3">      0.00000000       0.00000000       1.00000000 </v>
   <v name="shift">      0.00000000       0.00000000       0.00000000 </v>
  </generation>
  <varray name="kpointlist" >
   <v>       0.00000000       0.00000000       0.00000000 </v>
  </varray>
  <varray name="weights" >
   <v>       1.00000000 </v>
  </varray>
 </kpoints>
 <parameters>
  <separator name="general" >
   <i type="string" name="SYSTEM">unknown system</i>
   <i type="logical" name="LCOMPAT"> F  </i>
  </separator>
  <separator name="electronic" >
   <i type="string" name="PREC">normal</i>
   <i name="ENMAX">    400.00000000</i>
   <i name="ENAUG">    416.23000000</i>
   <i name="EDIFF">      0.00010000</i>
   <i type="int" name="IALGO">    38</i>
   <i type="int" name="IWAVPR">    11</i>
   <i type="int" name="NBANDS">    33</i>
   <i type="int" name="NBANDSLOW">    -1</i>
   <i type="int" name="NBANDSHIGH">    -1</i>
   <i name="NELECT">     50.00000000</i>
   <i type="int" name="TURBO">     0</i>
   <i type="int" name="IRESTART">     0</i>
   <i type="int" name="NREBOOT">     0</i>
   <i type="int" name="NMIN">     0</i>
   <i name="EREF">      0.00000000</i>
   <separator name="electronic smearing" >
    <i type="int" name="ISMEAR">     1</i>
    <i name="SIGMA">      0.20000000</i>
    <i name="KSPACING">      0.50000000</i>
    <i type="logical" name="KGAMMA"> T  </i>
    <i type="logical" name="KBLOWUP"> T  </i>
   </separator>
   <separator name="electronic projectors" >
    <i type="logical" name="LREAL"> F  </i>
    <v name="ROPT">      0.00000000</v>
    <i type="int" name="LMAXPAW">  -100</i>
    <i type="int" name="LMAXMIX">     2</i>
    <i type="logical" name="NLSPLINE"> F  </i>
   </separator>
   <separator name="electronic startup" >
    <i type="int" name="ISTART">     0</i>
    <i type="int" name="ICHARG">     2</i>
    <i type="int" name="INIWAV">     1</i>
   </separator>
   <separator name="electronic spin" >
    <i type="int" name="ISPIN">     2</i>
    <i type="logical" name="LNONCOLLINEAR"> F  </i>
    <v name="MAGMOM">      1.00000000      1.00000000      1.00000000      1.00000000      1.00000000</v>
    <i name="NUPDOWN">     -1.00000000</i>
    <i type="logical" name="LSORBIT"> F  </i>
    <v name="SAXIS">      0.00000000      0.00000000      1.00000000</v>
    <i type="logical" name="LSPIRAL"> F  </i>
    <v name="QSPIRAL">      0.00000000      0.00000000      0.00000000</v>
    <i type="logical" name="LZEROZ"> F  </i>
   </separator>
   <separator name="electronic exchange-correlation" >
    <i type="logical" name="LASPH"> F  </i>
    <i type="logical" name="LMETAGGA"> F  </i>
   </separator>
   <separator name="electronic convergence" >
    <i type="int" name="NELM">    60</i>
    <i type="int" name="NELMDL">     0</i>
    <i type="int" name="NELMIN">     2</i>
    <i name="ENINI">    400.00000000</i>
    <separator name="electronic convergence detail" >
     <i type="logical" name="LDIAG"> T  </i>
     <i type="logical" name="LSUBROT"> F  </i>
     <i name="WEIMIN">      0.00100000</i>
     <i name="EBREAK">      0.00000076</i>
     <i name="DEPER">      0.30000000</i>
     <i type="int" name="NRMM">     4</i>
     <i name="TIME">      0.40000000</i>
    </separator>
   </separator>
   <separator name="electronic mixer" >
    <i name="AMIX">      0.40000000</i>
    <i name="BMIX">      1.00000000</i>
    <i name="AMIN">      0.10000000</i>
    <i name="AMIX_MAG">      1.60000000</i>
    <i name="BMIX_MAG">      1.00000000</i>
    <separator name="electronic mixer details" >
     <i type="int" name="IMIX">     4</i>
     <i type="logical" name="MIXFIRST"> F  </i>
     <i type="int" name="MAXMIX">   -45</i>
     <i name="WC">    100.00000000</i>
     <i type="int" name="INIMIX">     1</i>
     <i type="int" name="MIXPRE">     1</i>
     <i type="int" name="MREMOVE">     5</i>
    </separator>
   </separator>
   <separator name="electronic dipolcorrection" >
    <i type="logical" name="LDIPOL"> F  </i>
    <i type="logical" name="LMONO"> F  </i>
    <i type="int" name="IDIPOL">     0</i>
    <i name="EPSILON">      1.00000000</i>
    <v name="DIPOL">   -100.00000000   -100.00000000   -100.00000000</v>
    <i name="EFIELD">      0.00000000</i>
   </separator>
  </separator>
  <separator name="grids" >
   <i type="int" name="NGX">   108</i>
   <i type="int" name="NGY">   108</i>
   <i type="int" name="NGZ">   112</i>
   <i type="int" name="NGXF">   216</i>
   <i type="int" name="NGYF">   216</i>
   <i type="int" name="NGZF">   224</i>
   <i type="logical" name="ADDGRID"> F  </i>
  </separator>
  <separator name="ionic" >
   <i type="int" name="NSW">  1000</i>
   <i type="int" name="IBRION">     2</i>
   <i type="int" name="MDALGO">     0</i>
   <i type="int" name="ISIF">     0</i>
   <i name="PSTRESS">      0.00000000</i>
   <i name="EDIFFG">      0.00100000</i>
   <i type="int" name="NFREE">     1</i>
   <i name="POTIM">      0.50000000</i>
   <i name="SMASS">     -3.00000000</i>
   <i name="SCALEE">      1.00000000</i>
  </separator>
  <separator name="ionic md" >
   <i name="TEBEG">      0.00010000</i>
   <i name="TEEND">      0.00010000</i>
   <i type="int" name="NBLOCK">     1</i>
   <i type="int" name="KBLOCK">  1000</i>
   <i type="int" name="NPACO">   256</i>
   <i name="APACO">     16.00000000</i>
  </separator>
  <separator name="symmetry" >
   <i type="int" name="ISYM">     0</i>
   <i name="SYMPREC">      0.00001000</i>
  </separator>
  <separator name="dos" >
   <i type="int" name="LORBIT">     0</i>
   <v name="RWIGS">     -1.00000000</v>
   <i type="int" name="NEDOS">   301</i>
   <i name="EMIN">     10.00000000</i>
   <i name="EMAX">    -10.00000000</i>
   <i name="EFERMI">      0.00000000</i>
  </separator>
  <separator name="writing" >
   <i type="int" name="NWRITE">     2</i>
   <i type="logical" name="LWAVE"> F  </i>
   <i type="logical" name="LDOWNSAMPLE"> F  </i>
   <i type="logical" name="LCHARG"> F  </i>
   <i type="logical" name="LPARD"> F  </i>
   <i type="logical" name="LVTOT"> F  </i>
   <i type="logical" name="LVHAR"> F  </i>
   <i type="logical" name="LELF"> F  </i>
   <i type="logical" name="LOPTICS"> F  </i>
   <v name="STM">      0.00000000      0.00000000      0.00000000      0.00000000      0.00000000      0.00000000      0.00000000</v>
  </separator>
  <separator name="performance" >
   <i type="int" name="NPAR">     1</i>
   <i type="int" name="NSIM">     4</i>
   <i type="int" name="NBLK">    -1</i>
   <i type="logical" name="LPLANE"> T  </i>
   <i type="logical" name="LSCALAPACK"> T  </i>
   <i type="logical" name="LSCAAWARE"> F  </i>
   <i type="logical" name="LSCALU"> F  </i>
   <i type="logical" name="LASYNC"> F  </i>
   <i type="logical" name="LORBITALREAL"> F  </i>
  </separator>
  <separator name="miscellaneous" >
   <i type="int" name="IDIOT">     3</i>
   <i type="int" name="PHON_NSTRUCT">    -1</i>
   <i type="logical" name="LMUSIC"> F  </i>
   <v name="POMASS">    106.42000000</v>
   <v name="DARWINR">      0.00000000</v>
   <v name="DARWINV">      1.00000000</v>
   <i type="logical" name="LCORR"> T  </i>
  </separator>
  <i type="logical" name="GGA_COMPAT"> T  </i>
  <i type="logical" name="LBERRY"> F  </i>
  <i type="int" name="ICORELEVEL">     0</i>
  <i type="logical" name="LDAU"> F  </i>
  <i type="int" name="I_CONSTRAINED_M">     0</i>
  <separator name="electronic exchange-correlation" >
   <i type="string" name="GGA">PE</i>
   <i type="int" name="VOSKOWN">     0</i>
   <i type="logical" name="LHFCALC"> F  </i>
   <i type="string" name="PRECFOCK"></i>
   <i type="logical" name="LSYMGRAD"> F  </i>
   <i type="logical" name="LHFONE"> F  </i>
   <i type="logical" name="LRHFCALC"> F  </i>
   <i type="logical" name="LTHOMAS"> F  </i>
   <i type="logical" name="LMODELHF"> F  </i>
   <i type="logical" name="LFOCKACE"> F  </i>
   <i name="ENCUT4O">     -1.00000000</i>
   <i type="int" name="EXXOEP">     0</i>
   <i type="int" name="FOURORBIT">     0</i>
   <i name="AEXX">      0.00000000</i>
   <i name="HFALPHA">      0.00000000</i>
   <i name="MCALPHA">      0.00000000</i>
   <i name="ALDAX">      1.00000000</i>
   <i name="AGGAX">      1.00000000</i>
   <i name="ALDAC">      1.00000000</i>
   <i name="AGGAC">      1.00000000</i>
   <i type="int" name="NKREDX">     1</i>
   <i type="int" name="NKREDY">     1</i>
   <i type="int" name="NKREDZ">     1</i>
   <i type="logical" name="SHIFTRED"> F  </i>
   <i type="logical" name="ODDONLY"> F  </i>
   <i type="logical" name="EVENONLY"> F  </i>
   <i type="int" name="LMAXFOCK">     0</i>
   <i type="int" name="NMAXFOCKAE">     0</i>
   <i type="logical" name="LFOCKAEDFT"> F  </i>
   <i name="HFSCREEN">      0.00000000</i>
   <i name="HFSCREENC">      0.00000000</i>
   <i type="int" name="NBANDSGWLOW">     0</i>
  </separator>
  <separator name="vdW DFT" >
   <i type="logical" name="LUSE_VDW"> F  </i>
   <i name="Zab_VDW">     -0.84910000</i>
   <i name="PARAM1">      0.12340000</i>
   <i name="PARAM2">      1.00000000</i>
   <i name="PARAM3">      0.00000000</i>
  </separator>
  <separator name="model GW" >
   <i type="int" name="MODEL_GW">     0</i>
   <i name="MODEL_EPS0">   1279.63824082</i>
   <i name="MODEL_ALPHA">      1.00000000</i>
  </separator>
  <separator name="linear response parameters" >
   <i type="logical" name="LEPSILON"> F  </i>
   <i type="logical" name="LRPA"> F  </i>
   <i type="logical" name="LNABLA"> F  </i>
   <i type="logical" name="LVEL"> F  </i>
   <i type="int" name="KINTER">     0</i>
   <i name="CSHIFT">      0.10000000</i>
   <i name="OMEGAMAX">     -1.00000000</i>
   <i name="DEG_THRESHOLD">      0.00200000</i>
   <i name="RTIME">     -0.10000000</i>
   <i name="WPLASMAI">      0.00000000</i>
   <v name="DFIELD">      0.00000000      0.00000000      0.00000000</v>
   <v name="WPLASMA">      0.00000000      0.00000000      0.00000000      0.00000000      0.00000000      0.00000000      0.00000000      0.00000000      0.00000000</v>
  </separator>
  <separator name="orbital magnetization" >
   <i type="logical" name="NUCIND"> F  </i>
   <v name="MAGPOS">      0.00000000      0.00000000      0.00000000</v>
   <i type="logical" name="LNICSALL"> T  </i>
   <i type="logical" name="ORBITALMAG"> F  </i>
   <i type="logical" name="LMAGBLOCH"> F  </i>
   <i type="logical" name="LCHIMAG"> F  </i>
   <i type="logical" name="LGAUGE"> T  </i>
   <i type="int" name="MAGATOM">     0</i>
   <v name="MAGDIPOL">      0.00000000      0.00000000      0.00000000</v>
   <v name="AVECCONST">      0.00000000      0.00000000      0.00000000</v>
  </separator>
  <separator name="response functions" >
   <i type="logical" name="LFINITE_TEMPERATURE"> F  </i>
   <i type="logical" name="LADDER"> F  </i>
   <i type="logical" name="LRPAFORCE"> F  </i>
   <i type="logical" name="LFXC"> F  </i>
   <i type="logical" name="LHARTREE"> T  </i>
   <i type="int" name="IBSE">     0</i>
   <v type="int" name="KPOINT">    -1     0     0     0</v>
   <i type="logical" name="LTCTC"> F  </i>
   <i type="logical" name="LTCTE"> F  </i>
   <i type="logical" name="LTETE"> F  </i>
   <i type="logical" name="LTRIPLET"> F  </i>
   <i type="logical" name="LFXCEPS"> F  </i>
   <i type="logical" name="LFXHEG"> F  </i>
   <i type="int" name="NATURALO">     2</i>
   <i type="logical" name="LHOLEGF"> F  </i>
   <i type="logical" name="L2ORDER"> F  </i>
   <i type="logical" name="LDMP1"> F  </i>
   <i type="logical" name="LMP2LT"> F  </i>
   <i type="logical" name="LSMP2LT"> F  </i>
   <i type="logical" name="LGWLF"> F  </i>
   <i name="ENCUTGW">     -2.00000000</i>
   <i name="ENCUTGWSOFT">     -2.00000000</i>
   <i name="ENCUTLF">     -1.00000000</i>
   <i type="logical" name="LESF_SPLINES"> F  </i>
   <i type="int" name="LMAXMP2">    -1</i>
   <i name="SCISSOR">      0.00000000</i>
   <i type="int" name="NOMEGA">     0</i>
   <i type="int" name="NOMEGAR">     0</i>
   <i type="int" name="NBANDSGW">    -1</i>
   <i type="int" name="NBANDSO">    -1</i>
   <i type="int" name="NBANDSV">    -1</i>
   <i type="int" name="NELM">     1</i>
   <i type="int" name="NELMHF">     1</i>
   <i type="int" name="DIM">     3</i>
   <i type="int" name="IESPILON">     4</i>
   <i type="int" name="ANTIRES">     0</i>
   <i name="OMEGAMAX">    -30.00000000</i>
   <i name="OMEGAMIN">    -30.00000000</i>
   <i name="OMEGATL">   -200.00000000</i>
   <i type="int" name="OMEGAGRID">     0</i>
   <i name="CSHIFT">     -0.10000000</i>
   <i type="logical" name="LSELFENERGY"> F  </i>
   <i type="logical" name="LSPECTRAL"> F  </i>
   <i type="logical" name="LSPECTRALGW"> F  </i>
   <i type="logical" name="LSINGLES"> F  </i>
   <i type="logical" name="LFERMIGW"> F  </i>
   <i type="logical" name="ODDONLYGW"> F  </i>
   <i type="logical" name="EVENONLYGW"> F  </i>
   <i type="int" name="NKREDLFX">     1</i>
   <i type="int" name="NKREDLFY">     1</i>
   <i type="int" name="NKREDLFZ">     1</i>
   <i type="int" name="MAXMEM">  2800</i>
   <i type="int" name="TELESCOPE">     0</i>
   <i type="int" name="NTAUPAR">    -1</i>
   <i type="int" name="NOMEGAPAR">    -1</i>
   <i name="LAMBDA">      1.00000000</i>
  </separator>
  <separator name="External order field" >
   <i name="OFIELD_KAPPA">      0.00000000</i>
   <v name="OFIELD_K">      0.00000000      0.00000000      0.00000000</v>
   <i name="OFIELD_Q6_NEAR">      0.00000000</i>
   <i name="OFIELD_Q6_FAR">      0.00000000</i>
   <i name="OFIELD_A">      0.00000000</i>
  </separator>
 </parameters>
 <atominfo>
  <atoms>       5 </atoms>
  <types>       1 </types>
  <array name="atoms" >
   <dimension dim="1">ion</dimension>
   <field type="string">element</field>
   <field type="int">atomtype</field>
   <set>
    <rc><c>Pd</c><c>   1</c></rc>
    <rc><c>Pd</c><c>   1</c></rc>
    <rc><c>Pd</c><c>   1</c></rc>
    <rc><c>Pd</c><c>   1</c></rc>
    <rc><c>Pd</c><c>   1</c></rc>
   </set>
  </array>
  <array name="atomtypes" >
   <dimension dim="1">type</dimension>
   <field type="int">atomspertype</field>
   <field type="string">element</field>
   <field>mass</field>
   <field>valence</field>
   <field type="string">pseudopotential</field>
   <set>
    <rc><c>   5</c><c>Pd</c><c>    106.42000000</c><c>     10.00000000</c><c>  PAW_PBE Pd 04Jan2005                  </c></rc>
   </set>
  </array>
 </atominfo>
 <structure name="initialpos" >
  <crystal>
   <varray name="basis" >
    <v>      21.69901654       0.00000000       0.00000000 </v>
    <v>       0.00000000      21.97414438       0.00000000 </v>
    <v>       0.00000000       0.00000000      22.36422946 </v>
   </varray>
   <i name="volume">  10663.65200685 </i>
   <varray name="rec_basis" >
    <v>       0.04608504       0.00000000       0.00000000 </v>
    <v>       0.00000000       0.04550803       0.00000000 </v>
    <v>       0.00000000       0.00000000       0.04471426 </v>
   </varray>
  </crystal>
  <varray name="positions" >
   <v>       0.58339443       0.51820499       0.40696770 </v>
   <v>       0.52817926       0.58594774       0.48018426 </v>
   <v>       0.48697985       0.58086469       0.58369122 </v>
   <v>       0.56929364       0.41292111       0.40325960 </v>
   <v>       0.42503173       0.54223238       0.50236867 </v>
  </varray>
 </structure>
 <calculation>
  <scstep>
   <time name="dav">    2.30    2.30</time>
   <time name="total">    5.40    5.43</time>
   <energy>
    <i name="alphaZ">      1.52797618 </i>
    <i name="ewald">   2213.78979490 </i>
    <i name="hartreedc">  -6070.83407814 </i>
    <i name="XCdc">   -153.28903024 </i>
    <i name="pawpsdc">   4033.23964144 </i>
    <i name="pawaedc">  -3722.16140761 </i>
    <i name="eentropy">      0.01295496 </i>
    <i name="bandstr">     43.86058034 </i>
    <i name="atom">   4048.71946290 </i>
    <i name="e_fr_energy">    394.86589472 </i>
    <i name="e_wo_entrp">    394.85293976 </i>
    <i name="e_0_energy">    394.86157640 </i>
   </energy>
  </scstep>
  <scstep>
   <time name="dav">    3.70    3.71</time>
   <time name="total">    3.71    3.71</time>
   <energy>
    <i name="e_fr_energy">    267.84455324 </i>
    <i name="e_wo_entrp">    267.88973487 </i>
    <i name="e_0_energy">    267.85961378 </i>
   </energy>
  </scstep>
  <scstep>
   <time name="dav">    4.17    4.17</time>
   <time name="total">    4.17    4.18</time>
   <energy>
    <i name="e_fr_energy">     72.01562639 </i>
    <i name="e_wo_entrp">     72.02707115 </i>
    <i name="e_0_energy">     72.01944131 </i>
   </energy>
  </scstep>
  <scstep>
   <time name="dav">    2.94    2.95</time>
   <time name="total">    2.95    2.95</time>
   <energy>
    <i name="e_fr_energy">     -3.83436065 </i>
    <i name="e_wo_entrp">     -3.81498260 </i>
    <i name="e_0_energy">     -3.82790130 </i>
   </energy>
  </scstep>
  <scstep>
   <time name="dav">    2.69    2.70</time>
   <time name="total">    3.16    3.16</time>
   <energy>
    <i name="e_fr_energy">    -14.34933901 </i>
    <i name="e_wo_entrp">    -14.32703992 </i>
    <i name="e_0_energy">    -14.34190598 </i>
   </energy>
  </scstep>
  <scstep>
   <time name="dav">    2.29    2.30</time>
   <time name="total">    6.16    6.17</time>
   <energy>
    <i name="e_fr_energy">    -12.14609458 </i>
    <i name="e_wo_entrp">    -12.10720915 </i>
    <i name="e_0_energy">    -12.13313277 </i>
   </energy>
  </scstep>
  <scstep>
   <time name="dav">    2.30    2.30</time>
   <time name="total">    5.54    5.56</time>
   <energy>
    <i name="e_fr_energy">    -12.75554257 </i>
    <i name="e_wo_entrp">    -12.78529968 </i>
    <i name="e_0_energy">    -12.76546161 </i>
   </energy>
  </scstep>
  <scstep>
   <time name="dav">    2.41    2.41</time>
   <time name="total">    5.65    5.67</time>
   <energy>
    <i name="e_fr_energy">    -12.15419514 </i>
    <i name="e_wo_entrp">    -12.13307267 </i>
    <i name="e_0_energy">    -12.14715431 </i>
   </energy>
  </scstep>
  <scstep>
   <time name="dav">    2.31    2.31</time>
   <time name="total">    5.56    5.57</time>
   <energy>
    <i name="e_fr_energy">    -10.89848515 </i>
    <i name="e_wo_entrp">    -10.90529924 </i>
    <i name="e_0_energy">    -10.90075652 </i>
   </energy>
  </scstep>
  <scstep>
   <time name="dav">    2.30    2.31</time>
   <time name="total">    5.57    5.58</time>
   <energy>
    <i name="e_fr_energy">    -11.11422487 </i>
    <i name="e_wo_entrp">    -11.11152370 </i>
    <i name="e_0_energy">    -11.11332448 </i>
   </energy>
  </scstep>
  <scstep>
   <time name="dav">    2.40    2.40</time>
   <time name="total">    5.66    5.68</time>
   <energy>
    <i name="e_fr_energy">    -11.30742286 </i>
    <i name="e_wo_entrp">    -11.30118638 </i>
    <i name="e_0_energy">    -11.30534403 </i>
   </energy>
  </scstep>
  <scstep>
   <time name="dav">    3.01    3.01</time>
   <time name="total">    6.70    6.72</time>
   <energy>
    <i name="e_fr_energy">    -11.63489536 </i>
    <i name="e_wo_entrp">    -11.62085676 </i>
    <i name="e_0_energy">    -11.63021583 </i>
   </energy>
  </scstep>
  <scstep>
   <time name="dav">    2.28    2.29</time>
   <time name="total">    5.71    5.73</time>
   <energy>
    <i name="e_fr_energy">    -12.13794208 </i>
    <i name="e_wo_entrp">    -12.12947232 </i>
    <i name="e_0_energy">    -12.13511883 </i>
   </energy>
  </scstep>
  <scstep>
   <time name="dav">    2.39    2.40</time>
   <time name="total">    5.66    5.68</time>
   <energy>
    <i name="e_fr_energy">    -12.44028991 </i>
    <i name="e_wo_entrp">    -12.41901440 </i>
    <i name="e_0_energy">    -12.43319807 </i>
   </energy>
  </scstep>
  <scstep>
   <time name="dav">    2.29    2.29</time>
   <time name="total">    5.55    5.57</time>
   <energy>
    <i name="e_fr_energy">    -12.64396096 </i>
    <i name="e_wo_entrp">    -12.61722685 </i>
    <i name="e_0_energy">    -12.63504959 </i>
   </energy>
  </scstep>
  <scstep>
   <time name="dav">    2.73    2.73</time>
   <time name="total">    6.07    6.08</time>
   <energy>
    <i name="e_fr_energy">    -12.79012482 </i>
    <i name="e_wo_entrp">    -12.76537376 </i>
    <i name="e_0_energy">    -12.78187447 </i>
   </energy>
  </scstep>
  <scstep>
   <time name="dav">    3.38    3.39</time>
   <time name="total">    7.38    7.39</time>
   <energy>
    <i name="e_fr_energy">    -13.04564557 </i>
    <i name="e_wo_entrp">    -13.03084349 </i>
    <i name="e_0_energy">    -13.04071154 </i>
   </energy>
  </scstep>
  <scstep>
   <time name="dav">    3.27    3.27</time>
   <time name="total">    7.50    7.51</time>
   <energy>
    <i name="e_fr_energy">    -13.13092496 </i>
    <i name="e_wo_entrp">    -13.11137167 </i>
    <i name="e_0_energy">    -13.12440720 </i>
   </energy>
  </scstep>
  <scstep>
   <time name="dav">    3.51    3.52</time>
   <time name="total">    7.74    7.75</time>
   <energy>
    <i name="e_fr_energy">    -13.23239817 </i>
    <i name="e_wo_entrp">    -13.21327727 </i>
    <i name="e_0_energy">    -13.22602454 </i>
   </energy>
  </scstep>
  <scstep>
   <time name="dav">    3.38    3.38</time>
   <time name="total">    7.64    7.65</time>
   <energy>
    <i name="e_fr_energy">    -13.37838011 </i>
    <i name="e_wo_entrp">    -13.36233724 </i>
    <i name="e_0_energy">    -13.37303248 </i>
   </energy>
  </scstep>
  <scstep>
   <time name="dav">    2.38    2.38</time>
   <time name="total">    6.05    6.06</time>
   <energy>
    <i name="e_fr_energy">    -13.50198517 </i>
    <i name="e_wo_entrp">    -13.48623471 </i>
    <i name="e_0_energy">    -13.49673502 </i>
   </energy>
  </scstep>
  <scstep>
   <time name="dav">    2.63    2.64</time>
   <time name="total">    6.46    6.48</time>
   <energy>
    <i name="e_fr_energy">    -13.59420208 </i>
    <i name="e_wo_entrp">    -13.57961578 </i>
    <i name="e_0_energy">    -13.58933998 </i>
   </energy>
  </scstep>
  <scstep>
   <time name="dav">    2.79    2.79</time>
   <time name="total">    7.09    7.10</time>
   <energy>
    <i name="e_fr_energy">    -13.69346934 </i>
    <i name="e_wo_entrp">    -13.68152881 </i>
    <i name="e_0_energy">    -13.68948916 </i>
   </energy>
  </scstep>
  <scstep>
   <time name="dav">    3.17    3.17</time>
   <time name="total">    7.23    7.26</time>
   <energy>
    <i name="e_fr_energy">    -13.73959146 </i>
    <i name="e_wo_entrp">    -13.72900963 </i>
    <i name="e_0_energy">    -13.73606419 </i>
   </energy>
  </scstep>
  <scstep>
   <time name="dav">    3.18    3.19</time>
   <time name="total">    7.55    7.55</time>
   <energy>
    <i name="e_fr_energy">    -13.75396964 </i>
    <i name="e_wo_entrp">    -13.74393959 </i>
    <i name="e_0_energy">    -13.75062629 </i>
   </energy>
  </scstep>
  <scstep>
   <time name="dav">    2.91    2.92</time>
   <time name="total">    7.07    7.08</time>
   <energy>
    <i name="e_fr_energy">    -13.76289980 </i>
    <i name="e_wo_entrp">    -13.75317460 </i>
    <i name="e_0_energy">    -13.75965807 </i>
   </energy>
  </scstep>
  <scstep>
   <time name="dav">    2.01    2.01</time>
   <time name="total">    5.38    5.39</time>
   <energy>
    <i name="e_fr_energy">    -13.76862713 </i>
    <i name="e_wo_entrp">    -13.75927276 </i>
    <i name="e_0_energy">    -13.76550901 </i>
   </energy>
  </scstep>
  <scstep>
   <time name="dav">    1.92    1.92</time>
   <time name="total">    5.27    5.29</time>
   <energy>
    <i name="e_fr_energy">    -13.77213130 </i>
    <i name="e_wo_entrp">    -13.76297066 </i>
    <i name="e_0_energy">    -13.76907775 </i>
   </energy>
  </scstep>
  <scstep>
   <time name="dav">    2.31    2.32</time>
   <time name="total">    5.92    5.94</time>
   <energy>
    <i name="e_fr_energy">    -13.77345382 </i>
    <i name="e_wo_entrp">    -13.76451016 </i>
    <i name="e_0_energy">    -13.77047260 </i>
   </energy>
  </scstep>
  <scstep>
   <time name="dav">    1.96    1.96</time>
   <time name="total">    5.86    5.88</time>
   <energy>
    <i name="e_fr_energy">    -13.77407556 </i>
    <i name="e_wo_entrp">    -13.76519564 </i>
    <i name="e_0_energy">    -13.77111558 </i>
   </energy>
  </scstep>
  <scstep>
   <time name="dav">    2.58    2.58</time>
   <time name="total">    6.99    7.00</time>
   <energy>
    <i name="e_fr_energy">    -13.77437869 </i>
    <i name="e_wo_entrp">    -13.76552842 </i>
    <i name="e_0_energy">    -13.77142860 </i>
   </energy>
  </scstep>
  <scstep>
   <time name="dav">    1.75    1.75</time>
   <time name="total">    5.70    5.71</time>
   <energy>
    <i name="e_fr_energy">    -13.77458277 </i>
    <i name="e_wo_entrp">    -13.76574592 </i>
    <i name="e_0_energy">    -13.77163715 </i>
   </energy>
  </scstep>
  <scstep>
   <time name="dav">    2.19    2.19</time>
   <time name="total">    5.59    5.60</time>
   <energy>
    <i name="e_fr_energy">    -13.77473839 </i>
    <i name="e_wo_entrp">    -13.76595200 </i>
    <i name="e_0_energy">    -13.77180959 </i>
   </energy>
  </scstep>
  <scstep>
   <time name="dav">    1.74    1.74</time>
   <time name="total">    4.56    4.57</time>
   <energy>
    <i name="alphaZ">      1.52797618 </i>
    <i name="ewald">   2213.78979490 </i>
    <i name="hartreedc">  -6141.33774865 </i>
    <i name="XCdc">   -152.16987177 </i>
    <i name="pawpsdc">   4500.61800147 </i>
    <i name="pawaedc">  -4191.03057187 </i>
    <i name="eentropy">     -0.00877356 </i>
    <i name="bandstr">   -293.88307547 </i>
    <i name="atom">   4048.71946290 </i>
    <i name="e_fr_energy">    -13.77480588 </i>
    <i name="e_wo_entrp">    -13.76603232 </i>
    <i name="e_0_energy">    -13.77188136 </i>
   </energy>
  </scstep>
  <structure>
   <crystal>
    <varray name="basis" >
     <v>      21.69901654       0.00000000       0.00000000 </v>
     <v>       0.00000000      21.97414438       0.00000000 </v>
     <v>       0.00000000       0.00000000      22.36422946 </v>
    </varray>
    <i name="volume">  10663.65200685 </i>
    <varray name="rec_basis" >
     <v>       0.04608504       0.00000000       0.00000000 </v>
     <v>       0.00000000       0.04550803       0.00000000 </v>
     <v>       0.00000000       0.00000000       0.04471426 </v>
    </varray>
   </crystal>
   <varray name="positions" >
    <v>       0.58339443       0.51820499       0.40696770 </v>
    <v>       0.52817926       0.58594774       0.48018426 </v>
    <v>       0.48697985       0.58086469       0.58369122 </v>
    <v>       0.56929364       0.41292111       0.40325960 </v>
    <v>       0.42503173       0.54223238       0.50236867 </v>
   </varray>
  </structure>
  <varray name="forces" >
   <v>      -0.02406182       1.55720071       0.34739398 </v>
   <v>       0.52251376      -0.12776301      -0.60771279 </v>
   <v>       0.43650770       0.25415673       0.89721593 </v>
   <v>      -0.27204498      -1.19671405       0.04814018 </v>
   <v>      -0.66291466      -0.48688039      -0.68503731 </v>
  </varray>
  <energy>
   <i name="e_fr_energy">    -13.77480588 </i>
   <i name="e_wo_entrp">    -13.76603232 </i>
   <i name="e_0_energy">    -13.77188136 </i>
  </energy>
  <time name="totalsc">  207.54  208.03</time>
 </calculation>
 <calculation>
  <scstep>
   <time name="dav">    2.29    2.30</time>
   <time name="total">    5.47    5.49</time>
   <energy>
    <i name="alphaZ">      1.52797618 </i>
    <i name="ewald">   2145.68079679 </i>
    <i name="hartreedc">  -6074.76475547 </i>
    <i name="XCdc">   -152.53709335 </i>
    <i name="pawpsdc">   4500.62591160 </i>
    <i name="pawaedc">  -4191.03837267 </i>
    <i name="eentropy">      0.01224828 </i>
    <i name="bandstr">   -292.08590330 </i>
    <i name="atom">   4048.71946290 </i>
    <i name="e_fr_energy">    -13.85972904 </i>
    <i name="e_wo_entrp">    -13.87197732 </i>
    <i name="e_0_energy">    -13.86381180 </i>
   </energy>
  </scstep>
  <scstep>
   <time name="dav">    2.65    2.65</time>
   <time name="total">    6.00    6.00</time>
   <energy>
    <i name="e_fr_energy">    -13.97149353 </i>
    <i name="e_wo_entrp">    -13.97026377 </i>
    <i name="e_0_energy">    -13.97108361 </i>
   </energy>
  </scstep>
  <scstep>
   <time name="dav">    2.96    2.97</time>
   <time name="total">    6.94    6.95</time>
   <energy>
    <i name="e_fr_energy">    -13.93916738 </i>
    <i name="e_wo_entrp">    -13.99645019 </i>
    <i name="e_0_energy">    -13.95826165 </i>
   </energy>
  </scstep>
  <scstep>
   <time name="dav">    2.51    2.51</time>
   <time name="total">    5.93    5.94</time>
   <energy>
    <i name="e_fr_energy">    -13.92341065 </i>
    <i name="e_wo_entrp">    -13.91416020 </i>
    <i name="e_0_energy">    -13.92032716 </i>
   </energy>
  </scstep>
  <scstep>
   <time name="dav">    3.24    3.25</time>
   <time name="total">    7.30    7.31</time>
   <energy>
    <i name="e_fr_energy">    -13.90444717 </i>
    <i name="e_wo_entrp">    -13.92160036 </i>
    <i name="e_0_energy">    -13.91016490 </i>
   </energy>
  </scstep>
  <scstep>
   <time name="dav">    3.24    3.24</time>
   <time name="total">    6.90    6.92</time>
   <energy>
    <i name="e_fr_energy">    -13.90203378 </i>
    <i name="e_wo_entrp">    -13.90236843 </i>
    <i name="e_0_energy">    -13.90214533 </i>
   </energy>
  </scstep>
  <scstep>
   <time name="dav">    2.41    2.41</time>
   <time name="total">    5.65    5.67</time>
   <energy>
    <i name="e_fr_energy">    -13.89818695 </i>
    <i name="e_wo_entrp">    -13.89979917 </i>
    <i name="e_0_energy">    -13.89872436 </i>
   </energy>
  </scstep>
  <scstep>
   <time name="dav">    6.82    7.59</time>
   <time name="total">   17.68   18.97</time>
   <energy>
    <i name="e_fr_energy">    -13.89552960 </i>
    <i name="e_wo_entrp">    -13.90041602 </i>
    <i name="e_0_energy">    -13.89715841 </i>
   </energy>
  </scstep>
  <scstep>
   <time name="dav">    2.63    2.63</time>
   <time name="total">    7.32    7.82</time>
   <energy>
    <i name="e_fr_energy">    -13.89787251 </i>
    <i name="e_wo_entrp">    -13.90825478 </i>
    <i name="e_0_energy">    -13.90133326 </i>
   </energy>
  </scstep>
  <scstep>
   <time name="dav">    2.38    2.39</time>
   <time name="total">    5.95    5.95</time>
   <energy>
    <i name="e_fr_energy">    -13.89982600 </i>
    <i name="e_wo_entrp">    -13.90625372 </i>
    <i name="e_0_energy">    -13.90196857 </i>
   </energy>
  </scstep>
  <scstep>
   <time name="dav">    1.71    1.72</time>
   <time name="total">    5.00    5.02</time>
   <energy>
    <i name="e_fr_energy">    -13.90293566 </i>
    <i name="e_wo_entrp">    -13.90920426 </i>
    <i name="e_0_energy">    -13.90502519 </i>
   </energy>
  </scstep>
  <scstep>
   <time name="dav">    2.28    2.28</time>
   <time name="total">    6.02    6.03</time>
   <energy>
    <i name="e_fr_energy">    -13.90730925 </i>
    <i name="e_wo_entrp">    -13.91377574 </i>
    <i name="e_0_energy">    -13.90946474 </i>
   </energy>
  </scstep>
  <scstep>
   <time name="dav">    1.72    1.73</time>
   <time name="total">    5.03    5.04</time>
   <energy>
    <i name="e_fr_energy">    -13.91227572 </i>
    <i name="e_wo_entrp">    -13.91913544 </i>
    <i name="e_0_energy">    -13.91456229 </i>
   </energy>
  </scstep>
  <scstep>
   <time name="dav">   25.36   29.28</time>
   <time name="total">   36.11   40.85</time>
   <energy>
    <i name="e_fr_energy">    -13.91634096 </i>
    <i name="e_wo_entrp">    -13.92350069 </i>
    <i name="e_0_energy">    -13.91872754 </i>
   </energy>
  </scstep>
  <scstep>
   <time name="dav">   14.61   17.67</time>
   <time name="total">   21.59   25.87</time>
   <energy>
    <i name="e_fr_energy">    -13.92063454 </i>
    <i name="e_wo_entrp">    -13.92820559 </i>
    <i name="e_0_energy">    -13.92315822 </i>
   </energy>
  </scstep>
  <scstep>
   <time name="dav">    2.72    2.72</time>
   <time name="total">    6.89    6.90</time>
   <energy>
    <i name="e_fr_energy">    -13.92723044 </i>
    <i name="e_wo_entrp">    -13.93531664 </i>
    <i name="e_0_energy">    -13.92992584 </i>
   </energy>
  </scstep>
  <scstep>
   <time name="dav">    2.61    2.62</time>
   <time name="total">    6.00    6.01</time>
   <energy>
    <i name="e_fr_energy">    -13.92987889 </i>
    <i name="e_wo_entrp">    -13.93833535 </i>
    <i name="e_0_energy">    -13.93269771 </i>
   </energy>
  </scstep>
  <scstep>
   <time name="dav">    1.81    1.81</time>
   <time name="total">    5.14    5.16</time>
   <energy>
    <i name="e_fr_energy">    -13.93161859 </i>
    <i name="e_wo_entrp">    -13.94031980 </i>
    <i name="e_0_energy">    -13.93451899 </i>
   </energy>
  </scstep>
  <scstep>
   <time name="dav">    1.80    1.81</time>
   <time name="total">    5.15    5.17</time>
   <energy>
    <i name="e_fr_energy">    -13.93269770 </i>
    <i name="e_wo_entrp">    -13.94146887 </i>
    <i name="e_0_energy">    -13.93562143 </i>
   </energy>
  </scstep>
  <scstep>
   <time name="dav">    1.72    1.72</time>
   <time name="total">    5.08    5.08</time>
   <energy>
    <i name="e_fr_energy">    -13.93365356 </i>
    <i name="e_wo_entrp">    -13.94254851 </i>
    <i name="e_0_energy">    -13.93661854 </i>
   </energy>
  </scstep>
  <scstep>
   <time name="dav">    2.45    2.46</time>
   <time name="total">    6.02    6.04</time>
   <energy>
    <i name="e_fr_energy">    -13.93406292 </i>
    <i name="e_wo_entrp">    -13.94299376 </i>
    <i name="e_0_energy">    -13.93703986 </i>
   </energy>
  </scstep>
  <scstep>
   <time name="dav">    2.47    2.48</time>
   <time name="total">    6.76    6.77</time>
   <energy>
    <i name="e_fr_energy">    -13.93435807 </i>
    <i name="e_wo_entrp">    -13.94332754 </i>
    <i name="e_0_energy">    -13.93734789 </i>
   </energy>
  </scstep>
  <scstep>
   <time name="dav">    2.74    2.75</time>
   <time name="total">    7.08    7.10</time>
   <energy>
    <i name="e_fr_energy">    -13.93457464 </i>
    <i name="e_wo_entrp">    -13.94356040 </i>
    <i name="e_0_energy">    -13.93756990 </i>
   </energy>
  </scstep>
  <scstep>
   <time name="dav">    2.48    2.48</time>
   <time name="total">    6.68    6.70</time>
   <energy>
    <i name="e_fr_energy">    -13.93468205 </i>
    <i name="e_wo_entrp">    -13.94366608 </i>
    <i name="e_0_energy">    -13.93767672 </i>
   </energy>
  </scstep>
  <scstep>
   <time name="dav">    1.82    1.83</time>
   <time name="total">    4.59    4.60</time>
   <energy>
    <i name="alphaZ">      1.52797618 </i>
    <i name="ewald">   2145.68079679 </i>
    <i name="hartreedc">  -6083.45552679 </i>
    <i name="XCdc">   -152.32902140 </i>
    <i name="pawpsdc">   4430.21024092 </i>
    <i name="pawaedc">  -4119.05317267 </i>
    <i name="eentropy">      0.00899176 </i>
    <i name="bandstr">   -285.24448475 </i>
    <i name="atom">   4048.71946290 </i>
    <i name="e_fr_energy">    -13.93473706 </i>
    <i name="e_wo_entrp">    -13.94372882 </i>
    <i name="e_0_energy">    -13.93773432 </i>
   </energy>
  </scstep>
  <structure>
   <crystal>
    <varray name="basis" >
     <v>      21.69901654       0.00000000       0.00000000 </v>
     <v>       0.00000000      21.97414438       0.00000000 </v>
     <v>       0.00000000       0.00000000      22.36422946 </v>
    </varray>
    <i name="volume">  10663.65200685 </i>
    <varray name="rec_basis" >
     <v>       0.04608504       0.00000000       0.00000000 </v>
     <v>       0.00000000       0.04550803       0.00000000 </v>
     <v>       0.00000000       0.00000000       0.04471426 </v>
    </varray>
   </crystal>
   <varray name="positions" >
    <v>       0.58334094       0.52162371       0.40771707 </v>
    <v>       0.52934094       0.58566724       0.47887334 </v>
    <v>       0.48795032       0.58142268       0.58562663 </v>
    <v>       0.56868882       0.41029381       0.40336344 </v>
    <v>       0.42355789       0.54116347       0.50089095 </v>
   </varray>
  </structure>
  <varray name="forces" >
   <v>       0.07325392       0.07191363      -0.05054575 </v>
   <v>      -0.24049969       0.06775944       0.23743677 </v>
   <v>       0.20007413      -0.00875452      -0.06788139 </v>
   <v>      -0.12232638      -0.03979461       0.10869344 </v>
   <v>       0.08949802      -0.09112394      -0.22770308 </v>
  </varray>
  <energy>
   <i name="e_fr_energy">    -13.93473706 </i>
   <i name="e_wo_entrp">    -13.94372882 </i>
   <i name="e_0_energy">    -13.93773432 </i>
  </energy>
  <time name="totalsc">  216.72  227.86</time>
 </calculation>
 <calculation>
  <scstep>
   <time name="dav">    3.11    3.11</time>
   <time name="total">    6.72    6.73</time>
   <energy>
    <i name="alphaZ">      1.52797618 </i>
    <i name="ewald">   2144.95515871 </i>
    <i name="hartreedc">  -6082.73758922 </i>
    <i name="XCdc">   -152.33272562 </i>
    <i name="pawpsdc">   4430.20973160 </i>
    <i name="pawaedc">  -4119.05255508 </i>
    <i name="eentropy">      0.00930240 </i>
    <i name="bandstr">   -285.23351985 </i>
    <i name="atom">   4048.71946290 </i>
    <i name="e_fr_energy">    -13.93475798 </i>
    <i name="e_wo_entrp">    -13.94406037 </i>
    <i name="e_0_energy">    -13.93785878 </i>
   </energy>
  </scstep>
  <scstep>
   <time name="dav">    2.57    2.57</time>
   <time name="total">    5.32    5.33</time>
   <energy>
    <i name="alphaZ">      1.52797618 </i>
    <i name="ewald">   2144.95515871 </i>
    <i name="hartreedc">  -6082.80670191 </i>
    <i name="XCdc">   -152.33072565 </i>
    <i name="pawpsdc">   4430.02763142 </i>
    <i name="pawaedc">  -4118.86081660 </i>
    <i name="eentropy">      0.00904001 </i>
    <i name="bandstr">   -285.17578837 </i>
    <i name="atom">   4048.71946290 </i>
    <i name="e_fr_energy">    -13.93476331 </i>
    <i name="e_wo_entrp">    -13.94380332 </i>
    <i name="e_0_energy">    -13.93777665 </i>
   </energy>
  </scstep>
  <structure>
   <crystal>
    <varray name="basis" >
     <v>      21.69901654       0.00000000       0.00000000 </v>
     <v>       0.00000000      21.97414438       0.00000000 </v>
     <v>       0.00000000       0.00000000      22.36422946 </v>
    </varray>
    <i name="volume">  10663.65200685 </i>
    <varray name="rec_basis" >
     <v>       0.04608504       0.00000000       0.00000000 </v>
     <v>       0.00000000       0.04550803       0.00000000 </v>
     <v>       0.00000000       0.00000000       0.04471426 </v>
    </varray>
   </crystal>
   <varray name="positions" >
    <v>       0.58334033       0.52166241       0.40772555 </v>
    <v>       0.52935409       0.58566407       0.47885850 </v>
    <v>       0.48796131       0.58142899       0.58564854 </v>
    <v>       0.56868197       0.41026407       0.40336462 </v>
    <v>       0.42354121       0.54115137       0.50087423 </v>
   </varray>
  </structure>
  <varray name="forces" >
   <v>       0.07837260       0.04391067      -0.06282265 </v>
   <v>      -0.25504099       0.07600441       0.25515980 </v>
   <v>       0.18994001      -0.01575307      -0.08933310 </v>
   <v>      -0.11997708      -0.02286309       0.10966421 </v>
   <v>       0.10670546      -0.08129891      -0.21266826 </v>
  </varray>
  <energy>
   <i name="e_fr_energy">    -13.93476331 </i>
   <i name="e_wo_entrp">    -13.94380332 </i>
   <i name="e_0_energy">    -13.93777665 </i>
  </energy>
  <time name="totalsc">   19.75   19.85</time>
 </calculation>
 <calculation>
  <scstep>
   <time name="dav">    3.29    3.30</time>
   <time name="total">    7.04    7.06</time>
   <energy>
    <i name="alphaZ">      1.52797618 </i>
    <i name="ewald">   2144.74487486 </i>
    <i name="hartreedc">  -6082.68175688 </i>
    <i name="XCdc">   -152.34298581 </i>
    <i name="pawpsdc">   4429.99867633 </i>
    <i name="pawaedc">  -4118.83163376 </i>
    <i name="eentropy">      0.01213059 </i>
    <i name="bandstr">   -285.08730106 </i>
    <i name="atom">   4048.71946290 </i>
    <i name="e_fr_energy">    -13.94055665 </i>
    <i name="e_wo_entrp">    -13.95268724 </i>
    <i name="e_0_energy">    -13.94460018 </i>
   </energy>
  </scstep>
  <scstep>
   <time name="dav">    2.35    2.36</time>
   <time name="total">    6.36    6.38</time>
   <energy>
    <i name="e_fr_energy">    -13.94367956 </i>
    <i name="e_wo_entrp">    -13.95776828 </i>
    <i name="e_0_energy">    -13.94837580 </i>
   </energy>
  </scstep>
  <scstep>
   <time name="dav">    2.76    2.76</time>
   <time name="total">    6.60    6.61</time>
   <energy>
    <i name="e_fr_energy">    -13.94410468 </i>
    <i name="e_wo_entrp">    -13.95646145 </i>
    <i name="e_0_energy">    -13.94822360 </i>
   </energy>
  </scstep>
  <scstep>
   <time name="dav">    3.32    3.32</time>
   <time name="total">    7.06    7.08</time>
   <energy>
    <i name="e_fr_energy">    -13.94344441 </i>
    <i name="e_wo_entrp">    -13.95535448 </i>
    <i name="e_0_energy">    -13.94741444 </i>
   </energy>
  </scstep>
  <scstep>
   <time name="dav">    3.01    3.01</time>
   <time name="total">    7.24    7.49</time>
   <energy>
    <i name="e_fr_energy">    -13.94380535 </i>
    <i name="e_wo_entrp">    -13.96129810 </i>
    <i name="e_0_energy">    -13.94963627 </i>
   </energy>
  </scstep>
  <scstep>
   <time name="dav">    2.73    2.73</time>
   <time name="total">    6.35    6.36</time>
   <energy>
    <i name="e_fr_energy">    -13.94298114 </i>
    <i name="e_wo_entrp">    -13.95516837 </i>
    <i name="e_0_energy">    -13.94704355 </i>
   </energy>
  </scstep>
  <scstep>
   <time name="dav">    1.93    1.93</time>
   <time name="total">    5.54    5.56</time>
   <energy>
    <i name="e_fr_energy">    -13.94322804 </i>
    <i name="e_wo_entrp">    -13.95669328 </i>
    <i name="e_0_energy">    -13.94771645 </i>
   </energy>
  </scstep>
  <scstep>
   <time name="dav">    1.84    1.84</time>
   <time name="total">    5.79    5.80</time>
   <energy>
    <i name="e_fr_energy">    -13.94342493 </i>
    <i name="e_wo_entrp">    -13.95642944 </i>
    <i name="e_0_energy">    -13.94775977 </i>
   </energy>
  </scstep>
  <scstep>
   <time name="dav">    2.48    2.48</time>
   <time name="total">    6.37    6.38</time>
   <energy>
    <i name="e_fr_energy">    -13.94359195 </i>
    <i name="e_wo_entrp">    -13.95695196 </i>
    <i name="e_0_energy">    -13.94804529 </i>
   </energy>
  </scstep>
  <scstep>
   <time name="dav">    2.45    2.45</time>
   <time name="total">    6.68    6.69</time>
   <energy>
    <i name="e_fr_energy">    -13.94379685 </i>
    <i name="e_wo_entrp">    -13.95701570 </i>
    <i name="e_0_energy">    -13.94820314 </i>
   </energy>
  </scstep>
  <scstep>
   <time name="dav">    1.62    1.63</time>
   <time name="total">    5.43    5.45</time>
   <energy>
    <i name="e_fr_energy">    -13.94397404 </i>
    <i name="e_wo_entrp">    -13.95719983 </i>
    <i name="e_0_energy">    -13.94838264 </i>
   </energy>
  </scstep>
  <scstep>
   <time name="dav">    2.44    2.45</time>
   <time name="total">    6.38    6.40</time>
   <energy>
    <i name="e_fr_energy">    -13.94419061 </i>
    <i name="e_wo_entrp">    -13.95744012 </i>
    <i name="e_0_energy">    -13.94860711 </i>
   </energy>
  </scstep>
  <scstep>
   <time name="dav">    1.73    1.73</time>
   <time name="total">    5.10    5.11</time>
   <energy>
    <i name="e_fr_energy">    -13.94442274 </i>
    <i name="e_wo_entrp">    -13.95772674 </i>
    <i name="e_0_energy">    -13.94885741 </i>
   </energy>
  </scstep>
  <scstep>
   <time name="dav">    1.71    1.72</time>
   <time name="total">    5.03    5.04</time>
   <energy>
    <i name="e_fr_energy">    -13.94463227 </i>
    <i name="e_wo_entrp">    -13.95796836 </i>
    <i name="e_0_energy">    -13.94907764 </i>
   </energy>
  </scstep>
  <scstep>
   <time name="dav">    1.73    1.74</time>
   <time name="total">    5.03    5.05</time>
   <energy>
    <i name="e_fr_energy">    -13.94487910 </i>
    <i name="e_wo_entrp">    -13.95827047 </i>
    <i name="e_0_energy">    -13.94934289 </i>
   </energy>
  </scstep>
  <scstep>
   <time name="dav">    2.51    2.51</time>
   <time name="total">    6.20    6.21</time>
   <energy>
    <i name="e_fr_energy">    -13.94514327 </i>
    <i name="e_wo_entrp">    -13.95862187 </i>
    <i name="e_0_energy">    -13.94963613 </i>
   </energy>
  </scstep>
  <scstep>
   <time name="dav">    2.56    2.56</time>
   <time name="total">    6.65    6.66</time>
   <energy>
    <i name="e_fr_energy">    -13.94531058 </i>
    <i name="e_wo_entrp">    -13.95883106 </i>
    <i name="e_0_energy">    -13.94981741 </i>
   </energy>
  </scstep>
  <scstep>
   <time name="dav">    1.91    1.91</time>
   <time name="total">    4.71    4.72</time>
   <energy>
    <i name="alphaZ">      1.52797618 </i>
    <i name="ewald">   2144.74487486 </i>
    <i name="hartreedc">  -6083.43318211 </i>
    <i name="XCdc">   -152.32791014 </i>
    <i name="pawpsdc">   4427.11623904 </i>
    <i name="pawaedc">  -4115.85267448 </i>
    <i name="eentropy">      0.01354651 </i>
    <i name="bandstr">   -284.45372171 </i>
    <i name="atom">   4048.71946290 </i>
    <i name="e_fr_energy">    -13.94538895 </i>
    <i name="e_wo_entrp">    -13.95893546 </i>
    <i name="e_0_energy">    -13.94990445 </i>
   </energy>
  </scstep>
  <structure>
   <crystal>
    <varray name="basis" >
     <v>      21.69901654       0.00000000       0.00000000 </v>
     <v>       0.00000000      21.97414438       0.00000000 </v>
     <v>       0.00000000       0.00000000      22.36422946 </v>
    </varray>
    <i name="volume">  10663.65200685 </i>
    <varray name="rec_basis" >
     <v>       0.04608504       0.00000000       0.00000000 </v>
     <v>       0.00000000       0.04550803       0.00000000 </v>
     <v>       0.00000000       0.00000000       0.04471426 </v>
    </varray>
   </crystal>
   <varray name="positions" >
    <v>       0.58351220       0.52193593       0.40762851 </v>
    <v>       0.52884590       0.58581679       0.47934233 </v>
    <v>       0.48843477       0.58142320       0.58555555 </v>
    <v>       0.56838333       0.41007782       0.40360709 </v>
    <v>       0.42370272       0.54091717       0.50033797 </v>
   </varray>
  </structure>
  <varray name="forces" >
   <v>       0.01661829       0.06449397       0.01186383 </v>
   <v>      -0.09977785       0.03422495       0.07790747 </v>
   <v>       0.13348727      -0.03689129      -0.04164863 </v>
   <v>      -0.11641708       0.03427455       0.11539194 </v>
   <v>       0.06608937      -0.09610218      -0.16351462 </v>
  </varray>
  <energy>
   <i name="e_fr_energy">    -13.94538895 </i>
   <i name="e_wo_entrp">    -13.95893546 </i>
   <i name="e_0_energy">    -13.94990445 </i>
  </energy>
  <time name="totalsc">  116.79  117.35</time>
 </calculation>
 <calculation>
  <scstep>
   <time name="dav">    2.25    2.25</time>
   <time name="total">    5.50    5.51</time>
   <energy>
    <i name="alphaZ">      1.52797618 </i>
    <i name="ewald">   2144.60041836 </i>
    <i name="hartreedc">  -6083.36936516 </i>
    <i name="XCdc">   -152.34269087 </i>
    <i name="pawpsdc">   4427.11641369 </i>
    <i name="pawaedc">  -4115.85273002 </i>
    <i name="eentropy">      0.01620060 </i>
    <i name="bandstr">   -284.35680700 </i>
    <i name="atom">   4048.71946290 </i>
    <i name="e_fr_energy">    -13.94112132 </i>
    <i name="e_wo_entrp">    -13.95732192 </i>
    <i name="e_0_energy">    -13.94652152 </i>
   </energy>
  </scstep>
  <scstep>
   <time name="dav">    2.26    2.27</time>
   <time name="total">    5.49    5.50</time>
   <energy>
    <i name="e_fr_energy">    -13.94866560 </i>
    <i name="e_wo_entrp">    -13.97560149 </i>
    <i name="e_0_energy">    -13.95764423 </i>
   </energy>
  </scstep>
  <scstep>
   <time name="dav">    2.36    2.36</time>
   <time name="total">    5.59    5.60</time>
   <energy>
    <i name="e_fr_energy">    -13.95110747 </i>
    <i name="e_wo_entrp">    -13.95705948 </i>
    <i name="e_0_energy">    -13.95309147 </i>
   </energy>
  </scstep>
  <scstep>
   <time name="dav">    2.35    2.36</time>
   <time name="total">    5.58    5.59</time>
   <energy>
    <i name="e_fr_energy">    -13.94732325 </i>
    <i name="e_wo_entrp">    -13.96903023 </i>
    <i name="e_0_energy">    -13.95455891 </i>
   </energy>
  </scstep>
  <scstep>
   <time name="dav">    2.26    2.27</time>
   <time name="total">    5.51    5.52</time>
   <energy>
    <i name="e_fr_energy">    -13.94728809 </i>
    <i name="e_wo_entrp">    -13.96743294 </i>
    <i name="e_0_energy">    -13.95400304 </i>
   </energy>
  </scstep>
  <scstep>
   <time name="dav">    2.26    2.27</time>
   <time name="total">    5.52    5.53</time>
   <energy>
    <i name="e_fr_energy">    -13.94706114 </i>
    <i name="e_wo_entrp">    -13.96625082 </i>
    <i name="e_0_energy">    -13.95345770 </i>
   </energy>
  </scstep>
  <scstep>
   <time name="dav">    2.26    2.26</time>
   <time name="total">    5.04    5.06</time>
   <energy>
    <i name="alphaZ">      1.52797618 </i>
    <i name="ewald">   2144.60041836 </i>
    <i name="hartreedc">  -6084.26162620 </i>
    <i name="XCdc">   -152.32172792 </i>
    <i name="pawpsdc">   4425.15105615 </i>
    <i name="pawaedc">  -4113.78156990 </i>
    <i name="eentropy">      0.01894315 </i>
    <i name="bandstr">   -283.60006297 </i>
    <i name="atom">   4048.71946290 </i>
    <i name="e_fr_energy">    -13.94713026 </i>
    <i name="e_wo_entrp">    -13.96607341 </i>
    <i name="e_0_energy">    -13.95344464 </i>
   </energy>
  </scstep>
  <structure>
   <crystal>
    <varray name="basis" >
     <v>      21.69901654       0.00000000       0.00000000 </v>
     <v>       0.00000000      21.97414438       0.00000000 </v>
     <v>       0.00000000       0.00000000      22.36422946 </v>
    </varray>
    <i name="volume">  10663.65200685 </i>
    <varray name="rec_basis" >
     <v>       0.04608504       0.00000000       0.00000000 </v>
     <v>       0.00000000       0.04550803       0.00000000 </v>
     <v>       0.00000000       0.00000000       0.04471426 </v>
    </varray>
   </crystal>
   <varray name="positions" >
    <v>       0.58375392       0.52232062       0.40749202 </v>
    <v>       0.52813115       0.58603159       0.48002280 </v>
    <v>       0.48910066       0.58141506       0.58542476 </v>
    <v>       0.56796331       0.40981586       0.40394811 </v>
    <v>       0.42392987       0.54058779       0.49958376 </v>
   </varray>
  </structure>
  <varray name="forces" >
   <v>      -0.05906207       0.07058037       0.09838675 </v>
   <v>       0.11479750      -0.00368283      -0.16504456 </v>
   <v>       0.04142400      -0.07462455       0.02306245 </v>
   <v>      -0.11197950       0.12293878       0.12577886 </v>
   <v>       0.01482008      -0.11521177      -0.08218350 </v>
  </varray>
  <energy>
   <i name="e_fr_energy">    -13.94713026 </i>
   <i name="e_wo_entrp">    -13.96607341 </i>
   <i name="e_0_energy">    -13.95344464 </i>
  </energy>
  <time name="totalsc">   45.40   45.56</time>
 </calculation>
 <calculation>
  <scstep>
   <time name="dav">    2.25    2.26</time>
   <time name="total">    5.50    5.51</time>
   <energy>
    <i name="alphaZ">      1.52797618 </i>
    <i name="ewald">   2147.79974024 </i>
    <i name="hartreedc">  -6087.54452639 </i>
    <i name="XCdc">   -152.32947042 </i>
    <i name="pawpsdc">   4424.90342028 </i>
    <i name="pawaedc">  -4113.53050504 </i>
    <i name="eentropy">      0.02451955 </i>
    <i name="bandstr">   -283.51915617 </i>
    <i name="atom">   4048.71946290 </i>
    <i name="e_fr_energy">    -13.94853888 </i>
    <i name="e_wo_entrp">    -13.97305843 </i>
    <i name="e_0_energy">    -13.95671206 </i>
   </energy>
  </scstep>
  <scstep>
   <time name="dav">    2.25    2.26</time>
   <time name="total">    5.98    6.00</time>
   <energy>
    <i name="e_fr_energy">    -13.95782488 </i>
    <i name="e_wo_entrp">    -13.96811072 </i>
    <i name="e_0_energy">    -13.96125349 </i>
   </energy>
  </scstep>
  <scstep>
   <time name="dav">    2.24    2.25</time>
   <time name="total">    5.48    5.49</time>
   <energy>
    <i name="e_fr_energy">    -13.95277610 </i>
    <i name="e_wo_entrp">    -13.98163152 </i>
    <i name="e_0_energy">    -13.96239457 </i>
   </energy>
  </scstep>
  <scstep>
   <time name="dav">    2.94    2.95</time>
   <time name="total">    6.39    6.40</time>
   <energy>
    <i name="e_fr_energy">    -13.95387185 </i>
    <i name="e_wo_entrp">    -13.97428199 </i>
    <i name="e_0_energy">    -13.96067523 </i>
   </energy>
  </scstep>
  <scstep>
   <time name="dav">    3.30    3.31</time>
   <time name="total">    7.34    7.35</time>
   <energy>
    <i name="e_fr_energy">    -13.95373894 </i>
    <i name="e_wo_entrp">    -13.97684586 </i>
    <i name="e_0_energy">    -13.96144125 </i>
   </energy>
  </scstep>
  <scstep>
   <time name="dav">    1.87    1.88</time>
   <time name="total">    5.27    5.29</time>
   <energy>
    <i name="e_fr_energy">    -13.95426997 </i>
    <i name="e_wo_entrp">    -13.97626043 </i>
    <i name="e_0_energy">    -13.96160012 </i>
   </energy>
  </scstep>
  <scstep>
   <time name="dav">    2.07    2.08</time>
   <time name="total">    6.06    6.08</time>
   <energy>
    <i name="e_fr_energy">    -13.95460186 </i>
    <i name="e_wo_entrp">    -13.97756287 </i>
    <i name="e_0_energy">    -13.96225553 </i>
   </energy>
  </scstep>
  <scstep>
   <time name="dav">    2.44    2.45</time>
   <time name="total">    6.36    6.38</time>
   <energy>
    <i name="e_fr_energy">    -13.95475537 </i>
    <i name="e_wo_entrp">    -13.97795005 </i>
    <i name="e_0_energy">    -13.96248693 </i>
   </energy>
  </scstep>
  <scstep>
   <time name="dav">    1.94    1.94</time>
   <time name="total">    5.63    5.64</time>
   <energy>
    <i name="e_fr_energy">    -13.95500247 </i>
    <i name="e_wo_entrp">    -13.97811243 </i>
    <i name="e_0_energy">    -13.96270579 </i>
   </energy>
  </scstep>
  <scstep>
   <time name="dav">    1.71    1.71</time>
   <time name="total">    5.00    5.01</time>
   <energy>
    <i name="e_fr_energy">    -13.95521440 </i>
    <i name="e_wo_entrp">    -13.97815910 </i>
    <i name="e_0_energy">    -13.96286263 </i>
   </energy>
  </scstep>
  <scstep>
   <time name="dav">    1.70    1.71</time>
   <time name="total">    4.99    5.00</time>
   <energy>
    <i name="e_fr_energy">    -13.95551789 </i>
    <i name="e_wo_entrp">    -13.97850532 </i>
    <i name="e_0_energy">    -13.96318036 </i>
   </energy>
  </scstep>
  <scstep>
   <time name="dav">    1.71    1.71</time>
   <time name="total">    5.01    5.01</time>
   <energy>
    <i name="e_fr_energy">    -13.95594702 </i>
    <i name="e_wo_entrp">    -13.97901574 </i>
    <i name="e_0_energy">    -13.96363659 </i>
   </energy>
  </scstep>
  <scstep>
   <time name="dav">    2.48    2.48</time>
   <time name="total">    6.11    6.12</time>
   <energy>
    <i name="e_fr_energy">    -13.95640981 </i>
    <i name="e_wo_entrp">    -13.97953359 </i>
    <i name="e_0_energy">    -13.96411773 </i>
   </energy>
  </scstep>
  <scstep>
   <time name="dav">    2.77    2.77</time>
   <time name="total">    7.03    7.04</time>
   <energy>
    <i name="e_fr_energy">    -13.95679337 </i>
    <i name="e_wo_entrp">    -13.97997734 </i>
    <i name="e_0_energy">    -13.96452136 </i>
   </energy>
  </scstep>
  <scstep>
   <time name="dav">    1.85    1.85</time>
   <time name="total">    5.56    5.57</time>
   <energy>
    <i name="e_fr_energy">    -13.95727305 </i>
    <i name="e_wo_entrp">    -13.98055866 </i>
    <i name="e_0_energy">    -13.96503492 </i>
   </energy>
  </scstep>
  <scstep>
   <time name="dav">    2.49    2.49</time>
   <time name="total">    6.31    6.32</time>
   <energy>
    <i name="e_fr_energy">    -13.95764157 </i>
    <i name="e_wo_entrp">    -13.98101131 </i>
    <i name="e_0_energy">    -13.96543149 </i>
   </energy>
  </scstep>
  <scstep>
   <time name="dav">    2.62    2.62</time>
   <time name="total">    6.94    6.95</time>
   <energy>
    <i name="e_fr_energy">    -13.95781855 </i>
    <i name="e_wo_entrp">    -13.98121980 </i>
    <i name="e_0_energy">    -13.96561897 </i>
   </energy>
  </scstep>
  <scstep>
   <time name="dav">    1.83    1.83</time>
   <time name="total">    5.61    5.62</time>
   <energy>
    <i name="e_fr_energy">    -13.95792570 </i>
    <i name="e_wo_entrp">    -13.98134535 </i>
    <i name="e_0_energy">    -13.96573225 </i>
   </energy>
  </scstep>
  <scstep>
   <time name="dav">    2.78    2.79</time>
   <time name="total">    6.26    6.27</time>
   <energy>
    <i name="alphaZ">      1.52797618 </i>
    <i name="ewald">   2147.79974024 </i>
    <i name="hartreedc">  -6088.11708078 </i>
    <i name="XCdc">   -152.32041905 </i>
    <i name="pawpsdc">   4422.72178227 </i>
    <i name="pawaedc">  -4111.26515501 </i>
    <i name="eentropy">      0.02343499 </i>
    <i name="bandstr">   -283.04771427 </i>
    <i name="atom">   4048.71946290 </i>
    <i name="e_fr_energy">    -13.95797252 </i>
    <i name="e_wo_entrp">    -13.98140751 </i>
    <i name="e_0_energy">    -13.96578419 </i>
   </energy>
  </scstep>
  <structure>
   <crystal>
    <varray name="basis" >
     <v>      21.69901654       0.00000000       0.00000000 </v>
     <v>       0.00000000      21.97414438       0.00000000 </v>
     <v>       0.00000000       0.00000000      22.36422946 </v>
    </varray>
    <i name="volume">  10663.65200685 </i>
    <varray name="rec_basis" >
     <v>       0.04608504       0.00000000       0.00000000 </v>
     <v>       0.00000000       0.04550803       0.00000000 </v>
     <v>       0.00000000       0.00000000       0.04471426 </v>
    </varray>
   </crystal>
   <varray name="positions" >
    <v>       0.58370200       0.52270535       0.40769866 </v>
    <v>       0.52811382       0.58612492       0.47989414 </v>
    <v>       0.48954043       0.58120073       0.58542550 </v>
    <v>       0.56744081       0.41003599       0.40446118 </v>
    <v>       0.42408185       0.54010393       0.49899196 </v>
   </varray>
  </structure>
  <varray name="forces" >
   <v>      -0.03744298       0.01099985       0.06229693 </v>
   <v>       0.08213604       0.02927536      -0.12391969 </v>
   <v>       0.00998316      -0.09625335      -0.02785984 </v>
   <v>      -0.11104289       0.14744181       0.12649906 </v>
   <v>       0.05636667      -0.09146366      -0.03701646 </v>
  </varray>
  <energy>
   <i name="e_fr_energy">    -13.95797252 </i>
   <i name="e_wo_entrp">    -13.98140751 </i>
   <i name="e_0_energy">    -13.96578419 </i>
  </energy>
  <time name="totalsc">  121.58  121.84</time>
 </calculation>
 <calculation>
  <scstep>
   <time name="dav">    2.25    2.26</time>
   <time name="total">    5.92    5.93</time>
   <energy>
    <i name="alphaZ">      1.52797618 </i>
    <i name="ewald">   2157.60886867 </i>
    <i name="hartreedc">  -6098.04386977 </i>
    <i name="XCdc">   -152.34268819 </i>
    <i name="pawpsdc">   4422.71980841 </i>
    <i name="pawaedc">  -4111.26308535 </i>
    <i name="eentropy">      0.03959194 </i>
    <i name="bandstr">   -282.88114666 </i>
    <i name="atom">   4048.71946290 </i>
    <i name="e_fr_energy">    -13.91508187 </i>
    <i name="e_wo_entrp">    -13.95467381 </i>
    <i name="e_0_energy">    -13.92827918 </i>
   </energy>
  </scstep>
  <scstep>
   <time name="dav">    3.25    3.25</time>
   <time name="total">    6.87    6.88</time>
   <energy>
    <i name="e_fr_energy">    -13.99366860 </i>
    <i name="e_wo_entrp">    -13.99780779 </i>
    <i name="e_0_energy">    -13.99504833 </i>
   </energy>
  </scstep>
  <scstep>
   <time name="dav">    3.29    3.30</time>
   <time name="total">    7.26    7.27</time>
   <energy>
    <i name="e_fr_energy">    -13.96660028 </i>
    <i name="e_wo_entrp">    -14.01842234 </i>
    <i name="e_0_energy">    -13.98387430 </i>
   </energy>
  </scstep>
  <scstep>
   <time name="dav">    2.25    2.25</time>
   <time name="total">    5.71    5.72</time>
   <energy>
    <i name="e_fr_energy">    -13.96796877 </i>
    <i name="e_wo_entrp">    -13.99980006 </i>
    <i name="e_0_energy">    -13.97857920 </i>
   </energy>
  </scstep>
  <scstep>
   <time name="dav">    2.26    2.27</time>
   <time name="total">    5.49    5.50</time>
   <energy>
    <i name="e_fr_energy">    -13.96727766 </i>
    <i name="e_wo_entrp">    -14.00376875 </i>
    <i name="e_0_energy">    -13.97944136 </i>
   </energy>
  </scstep>
  <scstep>
   <time name="dav">    3.30    3.31</time>
   <time name="total">    7.24    7.26</time>
   <energy>
    <i name="e_fr_energy">    -13.96768222 </i>
    <i name="e_wo_entrp">    -13.99729929 </i>
    <i name="e_0_energy">    -13.97755457 </i>
   </energy>
  </scstep>
  <scstep>
   <time name="dav">    2.28    2.28</time>
   <time name="total">    5.80    5.82</time>
   <energy>
    <i name="e_fr_energy">    -13.96721890 </i>
    <i name="e_wo_entrp">    -14.00201438 </i>
    <i name="e_0_energy">    -13.97881739 </i>
   </energy>
  </scstep>
  <scstep>
   <time name="dav">    1.71    1.72</time>
   <time name="total">    4.97    4.98</time>
   <energy>
    <i name="e_fr_energy">    -13.96769316 </i>
    <i name="e_wo_entrp">    -14.00249060 </i>
    <i name="e_0_energy">    -13.97929231 </i>
   </energy>
  </scstep>
  <scstep>
   <time name="dav">    1.71    1.72</time>
   <time name="total">    4.99    5.00</time>
   <energy>
    <i name="e_fr_energy">    -13.96797162 </i>
    <i name="e_wo_entrp">    -14.00197471 </i>
    <i name="e_0_energy">    -13.97930599 </i>
   </energy>
  </scstep>
  <scstep>
   <time name="dav">    2.66    2.66</time>
   <time name="total">    6.21    6.22</time>
   <energy>
    <i name="e_fr_energy">    -13.96821524 </i>
    <i name="e_wo_entrp">    -14.00223957 </i>
    <i name="e_0_energy">    -13.97955668 </i>
   </energy>
  </scstep>
  <scstep>
   <time name="dav">    2.46    2.46</time>
   <time name="total">    6.63    6.64</time>
   <energy>
    <i name="e_fr_energy">    -13.96848903 </i>
    <i name="e_wo_entrp">    -14.00258060 </i>
    <i name="e_0_energy">    -13.97985289 </i>
   </energy>
  </scstep>
  <scstep>
   <time name="dav">    2.38    2.38</time>
   <time name="total">    6.41    6.42</time>
   <energy>
    <i name="e_fr_energy">    -13.96883518 </i>
    <i name="e_wo_entrp">    -14.00295601 </i>
    <i name="e_0_energy">    -13.98020879 </i>
   </energy>
  </scstep>
  <scstep>
   <time name="dav">    1.90    1.90</time>
   <time name="total">    5.20    5.21</time>
   <energy>
    <i name="e_fr_energy">    -13.96918755 </i>
    <i name="e_wo_entrp">    -14.00333592 </i>
    <i name="e_0_energy">    -13.98057034 </i>
   </energy>
  </scstep>
  <scstep>
   <time name="dav">    1.72    1.72</time>
   <time name="total">    5.02    5.03</time>
   <energy>
    <i name="e_fr_energy">    -13.96949438 </i>
    <i name="e_wo_entrp">    -14.00365135 </i>
    <i name="e_0_energy">    -13.98088004 </i>
   </energy>
  </scstep>
  <scstep>
   <time name="dav">    1.92    1.92</time>
   <time name="total">    5.23    5.24</time>
   <energy>
    <i name="e_fr_energy">    -13.96978430 </i>
    <i name="e_wo_entrp">    -14.00400058 </i>
    <i name="e_0_energy">    -13.98118973 </i>
   </energy>
  </scstep>
  <scstep>
   <time name="dav">    2.54    2.54</time>
   <time name="total">    6.48    6.50</time>
   <energy>
    <i name="e_fr_energy">    -13.97010102 </i>
    <i name="e_wo_entrp">    -14.00436732 </i>
    <i name="e_0_energy">    -13.98152312 </i>
   </energy>
  </scstep>
  <scstep>
   <time name="dav">    2.77    2.78</time>
   <time name="total">    7.05    7.06</time>
   <energy>
    <i name="e_fr_energy">    -13.97036279 </i>
    <i name="e_wo_entrp">    -14.00466575 </i>
    <i name="e_0_energy">    -13.98179711 </i>
   </energy>
  </scstep>
  <scstep>
   <time name="dav">    1.72    1.72</time>
   <time name="total">    5.46    5.47</time>
   <energy>
    <i name="e_fr_energy">    -13.97061010 </i>
    <i name="e_wo_entrp">    -14.00494223 </i>
    <i name="e_0_energy">    -13.98205415 </i>
   </energy>
  </scstep>
  <scstep>
   <time name="dav">    2.78    2.78</time>
   <time name="total">    6.76    6.77</time>
   <energy>
    <i name="e_fr_energy">    -13.97072723 </i>
    <i name="e_wo_entrp">    -14.00508161 </i>
    <i name="e_0_energy">    -13.98217869 </i>
   </energy>
  </scstep>
  <scstep>
   <time name="dav">    1.82    1.82</time>
   <time name="total">    5.04    5.05</time>
   <energy>
    <i name="alphaZ">      1.52797618 </i>
    <i name="ewald">   2157.60886867 </i>
    <i name="hartreedc">  -6099.47413865 </i>
    <i name="XCdc">   -152.31208300 </i>
    <i name="pawpsdc">   4418.26002227 </i>
    <i name="pawaedc">  -4106.59314868 </i>
    <i name="eentropy">      0.03436369 </i>
    <i name="bandstr">   -281.74212393 </i>
    <i name="atom">   4048.71946290 </i>
    <i name="e_fr_energy">    -13.97080055 </i>
    <i name="e_wo_entrp">    -14.00516424 </i>
    <i name="e_0_energy">    -13.98225511 </i>
   </energy>
  </scstep>
  <structure>
   <crystal>
    <varray name="basis" >
     <v>      21.69901654       0.00000000       0.00000000 </v>
     <v>       0.00000000      21.97414438       0.00000000 </v>
     <v>       0.00000000       0.00000000      22.36422946 </v>
    </varray>
    <i name="volume">  10663.65200685 </i>
    <varray name="rec_basis" >
     <v>       0.04608504       0.00000000       0.00000000 </v>
     <v>       0.00000000       0.04550803       0.00000000 </v>
     <v>       0.00000000       0.00000000       0.04471426 </v>
    </varray>
   </crystal>
   <varray name="positions" >
    <v>       0.58354624       0.52385952       0.40831861 </v>
    <v>       0.52806183       0.58640489       0.47950816 </v>
    <v>       0.49085974       0.58055776       0.58542772 </v>
    <v>       0.56587330       0.41069638       0.40600041 </v>
    <v>       0.42453781       0.53865237       0.49721654 </v>
   </varray>
  </structure>
  <varray name="forces" >
   <v>       0.04980363      -0.17861003      -0.06885568 </v>
   <v>      -0.03803727       0.14381709       0.02874642 </v>
   <v>      -0.07580544      -0.15908643      -0.17463961 </v>
   <v>      -0.10957542       0.22966751       0.13592708 </v>
   <v>       0.17361451      -0.03578814       0.07882179 </v>
  </varray>
  <energy>
   <i name="e_fr_energy">    -13.97080055 </i>
   <i name="e_wo_entrp">    -14.00516424 </i>
   <i name="e_0_energy">    -13.98225511 </i>
  </energy>
  <time name="totalsc">  128.65  128.95</time>
 </calculation>
 <calculation>
  <scstep>
   <time name="dav">    2.67    2.67</time>
   <time name="total">    6.54    6.56</time>
   <energy>
    <i name="alphaZ">      1.52797618 </i>
    <i name="ewald">   2178.14981018 </i>
    <i name="hartreedc">  -6120.01597973 </i>
    <i name="XCdc">   -152.34621620 </i>
    <i name="pawpsdc">   4418.25832866 </i>
    <i name="pawaedc">  -4106.59134516 </i>
    <i name="eentropy">      0.05585422 </i>
    <i name="bandstr">   -281.49482157 </i>
    <i name="atom">   4048.71946290 </i>
    <i name="e_fr_energy">    -13.73693052 </i>
    <i name="e_wo_entrp">    -13.79278473 </i>
    <i name="e_0_energy">    -13.75554859 </i>
   </energy>
  </scstep>
  <scstep>
   <time name="dav">    2.90    2.90</time>
   <time name="total">    6.54    6.55</time>
   <energy>
    <i name="e_fr_energy">    -13.97375617 </i>
    <i name="e_wo_entrp">    -14.00117333 </i>
    <i name="e_0_energy">    -13.98289522 </i>
   </energy>
  </scstep>
  <scstep>
   <time name="dav">    3.39    3.39</time>
   <time name="total">    6.80    6.81</time>
   <energy>
    <i name="e_fr_energy">    -13.97340452 </i>
    <i name="e_wo_entrp">    -14.04324701 </i>
    <i name="e_0_energy">    -13.99668535 </i>
   </energy>
  </scstep>
  <scstep>
   <time name="dav">   11.41   12.78</time>
   <time name="total">   16.24   17.94</time>
   <energy>
    <i name="e_fr_energy">    -13.95645113 </i>
    <i name="e_wo_entrp">    -14.01035465 </i>
    <i name="e_0_energy">    -13.97441897 </i>
   </energy>
  </scstep>
  <scstep>
   <time name="dav">    3.28    3.29</time>
   <time name="total">    6.95    6.96</time>
   <energy>
    <i name="e_fr_energy">    -13.95402160 </i>
    <i name="e_wo_entrp">    -14.01449511 </i>
    <i name="e_0_energy">    -13.97417944 </i>
   </energy>
  </scstep>
  <scstep>
   <time name="dav">    2.78    2.79</time>
   <time name="total">    6.74    6.76</time>
   <energy>
    <i name="e_fr_energy">    -13.95518599 </i>
    <i name="e_wo_entrp">    -14.00213701 </i>
    <i name="e_0_energy">    -13.97083633 </i>
   </energy>
  </scstep>
  <scstep>
   <time name="dav">    2.48    2.49</time>
   <time name="total">    6.11    6.12</time>
   <energy>
    <i name="e_fr_energy">    -13.95540552 </i>
    <i name="e_wo_entrp">    -14.00959816 </i>
    <i name="e_0_energy">    -13.97346974 </i>
   </energy>
  </scstep>
  <scstep>
   <time name="dav">    3.34    3.35</time>
   <time name="total">    7.02    7.04</time>
   <energy>
    <i name="e_fr_energy">    -13.95609290 </i>
    <i name="e_wo_entrp">    -14.00991093 </i>
    <i name="e_0_energy">    -13.97403224 </i>
   </energy>
  </scstep>
  <scstep>
   <time name="dav">    2.18    2.18</time>
   <time name="total">    5.66    5.66</time>
   <energy>
    <i name="e_fr_energy">    -13.95694799 </i>
    <i name="e_wo_entrp">    -14.01068692 </i>
    <i name="e_0_energy">    -13.97486097 </i>
   </energy>
  </scstep>
  <scstep>
   <time name="dav">    2.52    2.53</time>
   <time name="total">    6.42    6.44</time>
   <energy>
    <i name="e_fr_energy">    -13.95743561 </i>
    <i name="e_wo_entrp">    -14.01142973 </i>
    <i name="e_0_energy">    -13.97543365 </i>
   </energy>
  </scstep>
  <scstep>
   <time name="dav">    2.11    2.12</time>
   <time name="total">    5.96    5.97</time>
   <energy>
    <i name="e_fr_energy">    -13.95791636 </i>
    <i name="e_wo_entrp">    -14.01208945 </i>
    <i name="e_0_energy">    -13.97597406 </i>
   </energy>
  </scstep>
  <scstep>
   <time name="dav">    1.71    1.71</time>
   <time name="total">    5.16    5.17</time>
   <energy>
    <i name="e_fr_energy">    -13.95849196 </i>
    <i name="e_wo_entrp">    -14.01247804 </i>
    <i name="e_0_energy">    -13.97648732 </i>
   </energy>
  </scstep>
  <scstep>
   <time name="dav">    2.40    2.41</time>
   <time name="total">    6.18    6.19</time>
   <energy>
    <i name="e_fr_energy">    -13.95888926 </i>
    <i name="e_wo_entrp">    -14.01302788 </i>
    <i name="e_0_energy">    -13.97693546 </i>
   </energy>
  </scstep>
  <scstep>
   <time name="dav">    2.52    2.54</time>
   <time name="total">    6.78    6.81</time>
   <energy>
    <i name="e_fr_energy">    -13.95924863 </i>
    <i name="e_wo_entrp">    -14.01337500 </i>
    <i name="e_0_energy">    -13.97729076 </i>
   </energy>
  </scstep>
  <scstep>
   <time name="dav">    2.76    2.76</time>
   <time name="total">    7.06    7.09</time>
   <energy>
    <i name="e_fr_energy">    -13.95950433 </i>
    <i name="e_wo_entrp">    -14.01360284 </i>
    <i name="e_0_energy">    -13.97753717 </i>
   </energy>
  </scstep>
  <scstep>
   <time name="dav">    2.53    2.54</time>
   <time name="total">    6.79    6.83</time>
   <energy>
    <i name="e_fr_energy">    -13.95974056 </i>
    <i name="e_wo_entrp">    -14.01382948 </i>
    <i name="e_0_energy">    -13.97777020 </i>
   </energy>
  </scstep>
  <scstep>
   <time name="dav">    2.65    2.66</time>
   <time name="total">    6.96    6.98</time>
   <energy>
    <i name="e_fr_energy">    -13.95997693 </i>
    <i name="e_wo_entrp">    -14.01411884 </i>
    <i name="e_0_energy">    -13.97802423 </i>
   </energy>
  </scstep>
  <scstep>
   <time name="dav">    1.81    1.81</time>
   <time name="total">    5.85    5.87</time>
   <energy>
    <i name="e_fr_energy">    -13.96016244 </i>
    <i name="e_wo_entrp">    -14.01427769 </i>
    <i name="e_0_energy">    -13.97820086 </i>
   </energy>
  </scstep>
  <scstep>
   <time name="dav">    1.82    1.82</time>
   <time name="total">    5.16    5.16</time>
   <energy>
    <i name="e_fr_energy">    -13.96027578 </i>
    <i name="e_wo_entrp">    -14.01439204 </i>
    <i name="e_0_energy">    -13.97831454 </i>
   </energy>
  </scstep>
  <scstep>
   <time name="dav">    2.63    2.63</time>
   <time name="total">    5.40    5.41</time>
   <energy>
    <i name="alphaZ">      1.52797618 </i>
    <i name="ewald">   2178.14981018 </i>
    <i name="hartreedc">  -6122.42288221 </i>
    <i name="XCdc">   -152.29249981 </i>
    <i name="pawpsdc">   4413.12065302 </i>
    <i name="pawaedc">  -4101.11430102 </i>
    <i name="eentropy">      0.05412598 </i>
    <i name="bandstr">   -279.70270060 </i>
    <i name="atom">   4048.71946290 </i>
    <i name="e_fr_energy">    -13.96035539 </i>
    <i name="e_wo_entrp">    -14.01448136 </i>
    <i name="e_0_energy">    -13.97839738 </i>
   </energy>
  </scstep>
  <structure>
   <crystal>
    <varray name="basis" >
     <v>      21.69901654       0.00000000       0.00000000 </v>
     <v>       0.00000000      21.97414438       0.00000000 </v>
     <v>       0.00000000       0.00000000      22.36422946 </v>
    </varray>
    <i name="volume">  10663.65200685 </i>
    <varray name="rec_basis" >
     <v>       0.04608504       0.00000000       0.00000000 </v>
     <v>       0.00000000       0.04550803       0.00000000 </v>
     <v>       0.00000000       0.00000000       0.04471426 </v>
    </varray>
   </crystal>
   <varray name="positions" >
    <v>       0.58323472       0.52616786       0.40955850 </v>
    <v>       0.52795784       0.58696484       0.47873620 </v>
    <v>       0.49349836       0.57927182       0.58543217 </v>
    <v>       0.56273828       0.41201716       0.40907887 </v>
    <v>       0.42544971       0.53574924       0.49366571 </v>
   </varray>
  </structure>
  <varray name="forces" >
   <v>       0.27659755      -0.61520518      -0.39482440 </v>
   <v>      -0.34591161       0.41670437       0.40741326 </v>
   <v>      -0.18617553      -0.24464323      -0.40096419 </v>
   <v>      -0.10775379       0.40582383       0.15320534 </v>
   <v>       0.36324338       0.03732021       0.23516999 </v>
  </varray>
  <energy>
   <i name="e_fr_energy">    -13.96035539 </i>
   <i name="e_wo_entrp">    -14.01448136 </i>
   <i name="e_0_energy">    -13.97839738 </i>
  </energy>
  <time name="totalsc">  143.86  145.90</time>
 </calculation>
 <calculation>
  <scstep>
   <time name="dav">    3.32    3.33</time>
   <time name="total">    7.21    7.22</time>
   <energy>
    <i name="alphaZ">      1.52797618 </i>
    <i name="ewald">   2163.31268079 </i>
    <i name="hartreedc">  -6107.38654975 </i>
    <i name="XCdc">   -152.27026932 </i>
    <i name="pawpsdc">   4413.12173142 </i>
    <i name="pawaedc">  -4101.11535980 </i>
    <i name="eentropy">      0.03186872 </i>
    <i name="bandstr">   -279.80080608 </i>
    <i name="atom">   4048.71946290 </i>
    <i name="e_fr_energy">    -13.85926496 </i>
    <i name="e_wo_entrp">    -13.89113367 </i>
    <i name="e_0_energy">    -13.86988786 </i>
   </energy>
  </scstep>
  <scstep>
   <time name="dav">    8.54    8.55</time>
   <time name="total">   12.69   12.72</time>
   <energy>
    <i name="e_fr_energy">    -13.99977823 </i>
    <i name="e_wo_entrp">    -14.05972841 </i>
    <i name="e_0_energy">    -14.01976162 </i>
   </energy>
  </scstep>
  <scstep>
   <time name="dav">    2.35    2.35</time>
   <time name="total">    6.31    6.33</time>
   <energy>
    <i name="e_fr_energy">    -13.96815959 </i>
    <i name="e_wo_entrp">    -13.99100432 </i>
    <i name="e_0_energy">    -13.97577450 </i>
   </energy>
  </scstep>
  <scstep>
   <time name="dav">    3.01    3.02</time>
   <time name="total">    6.26    6.27</time>
   <energy>
    <i name="e_fr_energy">    -13.96819770 </i>
    <i name="e_wo_entrp">    -14.01789267 </i>
    <i name="e_0_energy">    -13.98476269 </i>
   </energy>
  </scstep>
  <scstep>
   <time name="dav">    2.35    2.35</time>
   <time name="total">    5.60    5.60</time>
   <energy>
    <i name="e_fr_energy">    -13.96895197 </i>
    <i name="e_wo_entrp">    -14.01077190 </i>
    <i name="e_0_energy">    -13.98289195 </i>
   </energy>
  </scstep>
  <scstep>
   <time name="dav">    2.28    2.28</time>
   <time name="total">    5.53    5.54</time>
   <energy>
    <i name="e_fr_energy">    -13.96927857 </i>
    <i name="e_wo_entrp">    -14.00924849 </i>
    <i name="e_0_energy">    -13.98260187 </i>
   </energy>
  </scstep>
  <scstep>
   <time name="dav">    3.31    3.32</time>
   <time name="total">    7.22    7.24</time>
   <energy>
    <i name="e_fr_energy">    -13.97023090 </i>
    <i name="e_wo_entrp">    -14.00649348 </i>
    <i name="e_0_energy">    -13.98231843 </i>
   </energy>
  </scstep>
  <scstep>
   <time name="dav">    2.75    2.75</time>
   <time name="total">    6.97    6.99</time>
   <energy>
    <i name="e_fr_energy">    -13.97066665 </i>
    <i name="e_wo_entrp">    -14.01169847 </i>
    <i name="e_0_energy">    -13.98434392 </i>
   </energy>
  </scstep>
  <scstep>
   <time name="dav">    3.26    3.27</time>
   <time name="total">    6.71    6.72</time>
   <energy>
    <i name="e_fr_energy">    -13.97105640 </i>
    <i name="e_wo_entrp">    -14.01220709 </i>
    <i name="e_0_energy">    -13.98477329 </i>
   </energy>
  </scstep>
  <scstep>
   <time name="dav">    2.54    2.55</time>
   <time name="total">    6.50    6.51</time>
   <energy>
    <i name="e_fr_energy">    -13.97137935 </i>
    <i name="e_wo_entrp">    -14.01113224 </i>
[...]
       <r>    -1.7189    -0.0784    28.9643 </r>
       <r>    -1.6819     0.2427    28.9733 </r>
       <r>    -1.6449     0.7926    29.0026 </r>
       <r>    -1.6079     1.5521    29.0600 </r>
       <r>    -1.5709     2.4201    29.1496 </r>
       <r>    -1.5339     3.2276    29.2690 </r>
       <r>    -1.4969     3.7906    29.4092 </r>
       <r>    -1.4599     3.9877    29.5567 </r>
       <r>    -1.4229     3.8227    29.6982 </r>
       <r>    -1.3859     3.4364    29.8253 </r>
       <r>    -1.3489     3.0514    29.9382 </r>
       <r>    -1.3119     2.8710    30.0444 </r>
       <r>    -1.2749     2.9821    30.1547 </r>
       <r>    -1.2379     3.3119    30.2772 </r>
       <r>    -1.2009     3.6628    30.4127 </r>
       <r>    -1.1639     3.8090    30.5537 </r>
       <r>    -1.1269     3.6068    30.6871 </r>
       <r>    -1.0899     3.0652    30.8005 </r>
       <r>    -1.0529     2.3461    30.8873 </r>
       <r>    -1.0159     1.6992    30.9501 </r>
       <r>    -0.9790     1.3632    31.0006 </r>
       <r>    -0.9420     1.4799    31.0553 </r>
       <r>    -0.9050     2.0518    31.1312 </r>
       <r>    -0.8680     2.9543    31.2405 </r>
       <r>    -0.8310     3.9896    31.3881 </r>
       <r>    -0.7940     4.9532    31.5714 </r>
       <r>    -0.7570     5.6842    31.7817 </r>
       <r>    -0.7200     6.0854    32.0068 </r>
       <r>    -0.6830     6.1157    32.2330 </r>
       <r>    -0.6460     5.7764    32.4467 </r>
       <r>    -0.6090     5.1053    32.6356 </r>
       <r>    -0.5720     4.1801    32.7902 </r>
       <r>    -0.5350     3.1185    32.9056 </r>
       <r>    -0.4980     2.0622    32.9819 </r>
       <r>    -0.4610     1.1433    33.0242 </r>
       <r>    -0.4240     0.4507    33.0409 </r>
       <r>    -0.3870     0.0109    33.0413 </r>
       <r>    -0.3500    -0.2066    33.0336 </r>
       <r>    -0.3130    -0.2657    33.0238 </r>
       <r>    -0.2760    -0.2361    33.0151 </r>
       <r>    -0.2391    -0.1733    33.0087 </r>
       <r>    -0.2021    -0.1110    33.0046 </r>
       <r>    -0.1651    -0.0635    33.0022 </r>
       <r>    -0.1281    -0.0329    33.0010 </r>
       <r>    -0.0911    -0.0156    33.0004 </r>
       <r>    -0.0541    -0.0068    33.0002 </r>
       <r>    -0.0171    -0.0027    33.0001 </r>
       <r>     0.0199    -0.0010    33.0000 </r>
       <r>     0.0569    -0.0003    33.0000 </r>
       <r>     0.0939    -0.0001    33.0000 </r>
       <r>     0.1309    -0.0000    33.0000 </r>
       <r>     0.1679    -0.0000    33.0000 </r>
       <r>     0.2049    -0.0000    33.0000 </r>
       <r>     0.2419    -0.0000    33.0000 </r>
       <r>     0.2789    -0.0000    33.0000 </r>
       <r>     0.3159    -0.0000    33.0000 </r>
       <r>     0.3529    -0.0000    33.0000 </r>
       <r>     0.3899    -0.0000    33.0000 </r>
       <r>     0.4269    -0.0000    33.0000 </r>
       <r>     0.4639    -0.0000    33.0000 </r>
       <r>     0.5008    -0.0000    33.0000 </r>
       <r>     0.5378    -0.0000    33.0000 </r>
       <r>     0.5748    -0.0000    33.0000 </r>
       <r>     0.6118    -0.0000    33.0000 </r>
       <r>     0.6488     0.0000    33.0000 </r>
       <r>     0.6858     0.0000    33.0000 </r>
       <r>     0.7228     0.0000    33.0000 </r>
       <r>     0.7598     0.0000    33.0000 </r>
       <r>     0.7968     0.0000    33.0000 </r>
       <r>     0.8338     0.0000    33.0000 </r>
       <r>     0.8708     0.0000    33.0000 </r>
       <r>     0.9078     0.0000    33.0000 </r>
       <r>     0.9448     0.0000    33.0000 </r>
       <r>     0.9818     0.0000    33.0000 </r>
       <r>     1.0188     0.0000    33.0000 </r>
       <r>     1.0558     0.0000    33.0000 </r>
       <r>     1.0928     0.0000    33.0000 </r>
       <r>     1.1298     0.0000    33.0000 </r>
       <r>     1.1668     0.0000    33.0000 </r>
       <r>     1.2038     0.0000    33.0000 </r>
       <r>     1.2407     0.0000    33.0000 </r>
       <r>     1.2777     0.0000    33.0000 </r>
       <r>     1.3147     0.0000    33.0000 </r>
       <r>     1.3517     0.0000    33.0000 </r>
       <r>     1.3887     0.0000    33.0000 </r>
      </set>
      <set comment="spin 2">
       <r>    -9.7098     0.0000     0.0000 </r>
       <r>    -9.6728     0.0000     0.0000 </r>
       <r>    -9.6358     0.0000     0.0000 </r>
       <r>    -9.5988     0.0000     0.0000 </r>
       <r>    -9.5618     0.0000     0.0000 </r>
       <r>    -9.5248     0.0000     0.0000 </r>
       <r>    -9.4878     0.0000     0.0000 </r>
       <r>    -9.4508     0.0000     0.0000 </r>
       <r>    -9.4138     0.0000     0.0000 </r>
       <r>    -9.3768     0.0000     0.0000 </r>
       <r>    -9.3398     0.0000     0.0000 </r>
       <r>    -9.3028     0.0000     0.0000 </r>
       <r>    -9.2658     0.0000     0.0000 </r>
       <r>    -9.2288     0.0000     0.0000 </r>
       <r>    -9.1918     0.0000     0.0000 </r>
       <r>    -9.1548     0.0000     0.0000 </r>
       <r>    -9.1179     0.0000     0.0000 </r>
       <r>    -9.0809     0.0000     0.0000 </r>
       <r>    -9.0439     0.0000     0.0000 </r>
       <r>    -9.0069     0.0000     0.0000 </r>
       <r>    -8.9699     0.0000     0.0000 </r>
       <r>    -8.9329    -0.0000    -0.0000 </r>
       <r>    -8.8959    -0.0000    -0.0000 </r>
       <r>    -8.8589    -0.0000    -0.0000 </r>
       <r>    -8.8219    -0.0000    -0.0000 </r>
       <r>    -8.7849    -0.0000    -0.0000 </r>
       <r>    -8.7479    -0.0000    -0.0000 </r>
       <r>    -8.7109    -0.0000    -0.0000 </r>
       <r>    -8.6739    -0.0000    -0.0000 </r>
       <r>    -8.6369    -0.0000    -0.0000 </r>
       <r>    -8.5999    -0.0000    -0.0000 </r>
       <r>    -8.5629    -0.0000    -0.0000 </r>
       <r>    -8.5259    -0.0000    -0.0000 </r>
       <r>    -8.4889    -0.0000    -0.0000 </r>
       <r>    -8.4519    -0.0000    -0.0000 </r>
       <r>    -8.4149    -0.0000    -0.0000 </r>
       <r>    -8.3780    -0.0000    -0.0000 </r>
       <r>    -8.3410    -0.0000    -0.0000 </r>
       <r>    -8.3040    -0.0000    -0.0000 </r>
       <r>    -8.2670    -0.0000    -0.0000 </r>
       <r>    -8.2300    -0.0000    -0.0000 </r>
       <r>    -8.1930    -0.0000    -0.0000 </r>
       <r>    -8.1560    -0.0000    -0.0000 </r>
       <r>    -8.1190    -0.0000    -0.0000 </r>
       <r>    -8.0820    -0.0000    -0.0000 </r>
       <r>    -8.0450    -0.0000    -0.0000 </r>
       <r>    -8.0080    -0.0002    -0.0000 </r>
       <r>    -7.9710    -0.0005    -0.0000 </r>
       <r>    -7.9340    -0.0014    -0.0001 </r>
       <r>    -7.8970    -0.0038    -0.0002 </r>
       <r>    -7.8600    -0.0092    -0.0006 </r>
       <r>    -7.8230    -0.0206    -0.0013 </r>
       <r>    -7.7860    -0.0426    -0.0029 </r>
       <r>    -7.7490    -0.0803    -0.0059 </r>
       <r>    -7.7120    -0.1368    -0.0109 </r>
       <r>    -7.6750    -0.2081    -0.0186 </r>
       <r>    -7.6381    -0.2749    -0.0288 </r>
       <r>    -7.6011    -0.2956    -0.0397 </r>
       <r>    -7.5641    -0.2042    -0.0473 </r>
       <r>    -7.5271     0.0797    -0.0443 </r>
       <r>    -7.4901     0.6284    -0.0211 </r>
       <r>    -7.4531     1.4747     0.0335 </r>
       <r>    -7.4161     2.5830     0.1290 </r>
       <r>    -7.3791     3.8382     0.2710 </r>
       <r>    -7.3421     5.0603     0.4582 </r>
       <r>    -7.3051     6.0423     0.6818 </r>
       <r>    -7.2681     6.6011     0.9260 </r>
       <r>    -7.2311     6.6285     1.1712 </r>
       <r>    -7.1941     6.1286     1.3979 </r>
       <r>    -7.1571     5.2357     1.5916 </r>
       <r>    -7.1201     4.2001     1.7470 </r>
       <r>    -7.0831     3.3383     1.8705 </r>
       <r>    -7.0461     2.9469     1.9795 </r>
       <r>    -7.0091     3.2028     2.0980 </r>
       <r>    -6.9721     4.0839     2.2491 </r>
       <r>    -6.9351     5.3503     2.4470 </r>
       <r>    -6.8982     6.6068     2.6914 </r>
       <r>    -6.8612     7.4329     2.9664 </r>
       <r>    -6.8242     7.5324     3.2451 </r>
       <r>    -6.7872     6.8432     3.4983 </r>
       <r>    -6.7502     5.5593     3.7039 </r>
       <r>    -6.7132     4.0606     3.8541 </r>
       <r>    -6.6762     2.7806     3.9570 </r>
       <r>    -6.6392     2.0680     4.0335 </r>
       <r>    -6.6022     2.0891     4.1108 </r>
       <r>    -6.5652     2.7966     4.2143 </r>
       <r>    -6.5282     3.9633     4.3609 </r>
       <r>    -6.4912     5.2581     4.5554 </r>
       <r>    -6.4542     6.3375     4.7899 </r>
       <r>    -6.4172     6.9289     5.0462 </r>
       <r>    -6.3802     6.8869     5.3010 </r>
       <r>    -6.3432     6.2154     5.5309 </r>
       <r>    -6.3062     5.0549     5.7179 </r>
       <r>    -6.2692     3.6423     5.8527 </r>
       <r>    -6.2322     2.2539     5.9361 </r>
       <r>    -6.1952     1.1487     5.9785 </r>
       <r>    -6.1583     0.5218     5.9979 </r>
       <r>    -6.1213     0.4757     6.0155 </r>
       <r>    -6.0843     1.0094     6.0528 </r>
       <r>    -6.0473     2.0236     6.1277 </r>
       <r>    -6.0103     3.3418     6.2513 </r>
       <r>    -5.9733     4.7464     6.4269 </r>
       <r>    -5.9363     6.0240     6.6497 </r>
       <r>    -5.8993     7.0082     6.9090 </r>
       <r>    -5.8623     7.6062     7.1904 </r>
       <r>    -5.8253     7.8011     7.4790 </r>
       <r>    -5.7883     7.6370     7.7615 </r>
       <r>    -5.7513     7.1995     8.0279 </r>
       <r>    -5.7143     6.6063     8.2723 </r>
       <r>    -5.6773     6.0054     8.4944 </r>
       <r>    -5.6403     5.5633     8.7003 </r>
       <r>    -5.6033     5.4286     8.9011 </r>
       <r>    -5.5663     5.6722     9.1109 </r>
       <r>    -5.5293     6.2342     9.3416 </r>
       <r>    -5.4923     6.9180     9.5975 </r>
       <r>    -5.4553     7.4550     9.8733 </r>
       <r>    -5.4184     7.6187    10.1552 </r>
       <r>    -5.3814     7.3345    10.4265 </r>
       <r>    -5.3444     6.7216    10.6752 </r>
       <r>    -5.3074     6.0469    10.8989 </r>
       <r>    -5.2704     5.6130    11.1065 </r>
       <r>    -5.2334     5.6418    11.3152 </r>
       <r>    -5.1964     6.2036    11.5447 </r>
       <r>    -5.1594     7.2125    11.8116 </r>
       <r>    -5.1224     8.4737    12.1251 </r>
       <r>    -5.0854     9.7529    12.4859 </r>
       <r>    -5.0484    10.8422    12.8870 </r>
       <r>    -5.0114    11.6064    13.3163 </r>
       <r>    -4.9744    12.0005    13.7603 </r>
       <r>    -4.9374    12.0553    14.2063 </r>
       <r>    -4.9004    11.8403    14.6443 </r>
       <r>    -4.8634    11.4260    15.0670 </r>
       <r>    -4.8264    10.8699    15.4692 </r>
       <r>    -4.7894    10.2362    15.8478 </r>
       <r>    -4.7524     9.6319    16.2042 </r>
       <r>    -4.7154     9.2228    16.5454 </r>
       <r>    -4.6785     9.2023    16.8858 </r>
       <r>    -4.6415     9.7193    17.2454 </r>
       <r>    -4.6045    10.8025    17.6450 </r>
       <r>    -4.5675    12.3290    18.1011 </r>
       <r>    -4.5305    14.0555    18.6211 </r>
       <r>    -4.4935    15.6943    19.2017 </r>
       <r>    -4.4565    16.9880    19.8302 </r>
       <r>    -4.4195    17.7475    20.4868 </r>
       <r>    -4.3825    17.8503    21.1471 </r>
       <r>    -4.3455    17.2251    21.7844 </r>
       <r>    -4.3085    15.8534    22.3709 </r>
       <r>    -4.2715    13.7999    22.8814 </r>
       <r>    -4.2345    11.2500    23.2976 </r>
       <r>    -4.1975     8.5206    23.6128 </r>
       <r>    -4.1605     6.0172    23.8354 </r>
       <r>    -4.1235     4.1385    23.9885 </r>
       <r>    -4.0865     3.1610    24.1055 </r>
       <r>    -4.0495     3.1469    24.2219 </r>
       <r>    -4.0125     3.9152    24.3667 </r>
       <r>    -3.9755     5.0919    24.5551 </r>
       <r>    -3.9386     6.2260    24.7854 </r>
       <r>    -3.9016     6.9318    25.0419 </r>
       <r>    -3.8646     7.0091    25.3012 </r>
       <r>    -3.8276     6.4944    25.5414 </r>
       <r>    -3.7906     5.6244    25.7495 </r>
       <r>    -3.7536     4.7257    25.9243 </r>
       <r>    -3.7166     4.0750    26.0751 </r>
       <r>    -3.6796     3.7908    26.2153 </r>
       <r>    -3.6426     3.8022    26.3560 </r>
       <r>    -3.6056     3.9035    26.5004 </r>
       <r>    -3.5686     3.8643    26.6434 </r>
       <r>    -3.5316     3.5360    26.7742 </r>
       <r>    -3.4946     2.9064    26.8817 </r>
       <r>    -3.4576     2.0837    26.9588 </r>
       <r>    -3.4206     1.2313    27.0043 </r>
       <r>    -3.3836     0.4949    27.0227 </r>
       <r>    -3.3466    -0.0405    27.0212 </r>
       <r>    -3.3096    -0.3517    27.0081 </r>
       <r>    -3.2726    -0.4462    26.9916 </r>
       <r>    -3.2356    -0.3291    26.9795 </r>
       <r>    -3.1987     0.0120    26.9799 </r>
       <r>    -3.1617     0.5914    27.0018 </r>
       <r>    -3.1247     1.3898    27.0532 </r>
       <r>    -3.0877     2.3202    27.1390 </r>
       <r>    -3.0507     3.2228    27.2583 </r>
       <r>    -3.0137     3.8987    27.4025 </r>
       <r>    -2.9767     4.1753    27.5570 </r>
       <r>    -2.9397     3.9728    27.7039 </r>
       <r>    -2.9027     3.3374    27.8274 </r>
       <r>    -2.8657     2.4271    27.9172 </r>
       <r>    -2.8287     1.4578    27.9711 </r>
       <r>    -2.7917     0.6411    27.9949 </r>
       <r>    -2.7547     0.1373    27.9999 </r>
       <r>    -2.7177     0.0364    28.0013 </r>
       <r>    -2.6807     0.3556    28.0144 </r>
       <r>    -2.6437     1.0396    28.0529 </r>
       <r>    -2.6067     1.9604    28.1254 </r>
       <r>    -2.5697     2.9269    28.2337 </r>
       <r>    -2.5327     3.7181    28.3713 </r>
       <r>    -2.4957     4.1409    28.5244 </r>
       <r>    -2.4588     4.0921    28.6758 </r>
       <r>    -2.4218     3.5951    28.8088 </r>
       <r>    -2.3848     2.7883    28.9120 </r>
       <r>    -2.3478     1.8713    28.9812 </r>
       <r>    -2.3108     1.0332    29.0194 </r>
       <r>    -2.2738     0.3971    29.0341 </r>
       <r>    -2.2368     0.0013    29.0342 </r>
       <r>    -2.1998    -0.1852    29.0273 </r>
       <r>    -2.1628    -0.2281    29.0189 </r>
       <r>    -2.1258    -0.1958    29.0116 </r>
       <r>    -2.0888    -0.1390    29.0065 </r>
       <r>    -2.0518    -0.0862    29.0033 </r>
       <r>    -2.0148    -0.0480    29.0015 </r>
       <r>    -1.9778    -0.0250    29.0006 </r>
       <r>    -1.9408    -0.0139    29.0001 </r>
       <r>    -1.9038    -0.0120    28.9997 </r>
       <r>    -1.8668    -0.0186    28.9990 </r>
       <r>    -1.8298    -0.0356    28.9977 </r>
       <r>    -1.7928    -0.0667    28.9952 </r>
       <r>    -1.7558    -0.1142    28.9910 </r>
       <r>    -1.7189    -0.1740    28.9845 </r>
       <r>    -1.6819    -0.2287    28.9761 </r>
       <r>    -1.6449    -0.2411    28.9671 </r>
       <r>    -1.6079    -0.1538    28.9615 </r>
       <r>    -1.5709     0.0996    28.9651 </r>
       <r>    -1.5339     0.5706    28.9862 </r>
       <r>    -1.4969     1.2667    29.0331 </r>
       <r>    -1.4599     2.1317    29.1120 </r>
       <r>    -1.4229     3.0523    29.2249 </r>
       <r>    -1.3859     3.8945    29.3690 </r>
       <r>    -1.3489     4.5530    29.5374 </r>
       <r>    -1.3119     4.9852    29.7218 </r>
       <r>    -1.2749     5.2083    29.9145 </r>
       <r>    -1.2379     5.2601    30.1091 </r>
       <r>    -1.2009     5.1540    30.2998 </r>
       <r>    -1.1639     4.8620    30.4797 </r>
       <r>    -1.1269     4.3400    30.6402 </r>
       <r>    -1.0899     3.5802    30.7727 </r>
       <r>    -1.0529     2.6532    30.8708 </r>
       <r>    -1.0159     1.7133    30.9342 </r>
       <r>    -0.9790     0.9621    30.9698 </r>
       <r>    -0.9420     0.5891    30.9916 </r>
       <r>    -0.9050     0.7157    31.0181 </r>
       <r>    -0.8680     1.3605    31.0684 </r>
       <r>    -0.8310     2.4324    31.1584 </r>
       <r>    -0.7940     3.7486    31.2971 </r>
       <r>    -0.7570     5.0728    31.4847 </r>
       <r>    -0.7200     6.1629    31.7127 </r>
       <r>    -0.6830     6.8205    31.9651 </r>
       <r>    -0.6460     6.9298    32.2214 </r>
       <r>    -0.6090     6.4789    32.4611 </r>
       <r>    -0.5720     5.5596    32.6668 </r>
       <r>    -0.5350     4.3427    32.8274 </r>
       <r>    -0.4980     3.0365    32.9398 </r>
       <r>    -0.4610     1.8359    33.0077 </r>
       <r>    -0.4240     0.8792    33.0402 </r>
       <r>    -0.3870     0.2253    33.0486 </r>
       <r>    -0.3500    -0.1413    33.0433 </r>
       <r>    -0.3130    -0.2865    33.0327 </r>
       <r>    -0.2760    -0.2930    33.0219 </r>
       <r>    -0.2391    -0.2342    33.0132 </r>
       <r>    -0.2021    -0.1603    33.0073 </r>
       <r>    -0.1651    -0.0973    33.0037 </r>
       <r>    -0.1281    -0.0532    33.0017 </r>
       <r>    -0.0911    -0.0265    33.0007 </r>
       <r>    -0.0541    -0.0121    33.0003 </r>
       <r>    -0.0171    -0.0051    33.0001 </r>
       <r>     0.0199    -0.0020    33.0000 </r>
       <r>     0.0569    -0.0007    33.0000 </r>
       <r>     0.0939    -0.0002    33.0000 </r>
       <r>     0.1309    -0.0001    33.0000 </r>
       <r>     0.1679    -0.0000    33.0000 </r>
       <r>     0.2049    -0.0000    33.0000 </r>
       <r>     0.2419    -0.0000    33.0000 </r>
       <r>     0.2789    -0.0000    33.0000 </r>
       <r>     0.3159    -0.0000    33.0000 </r>
       <r>     0.3529    -0.0000    33.0000 </r>
       <r>     0.3899    -0.0000    33.0000 </r>
       <r>     0.4269    -0.0000    33.0000 </r>
       <r>     0.4639    -0.0000    33.0000 </r>
       <r>     0.5008    -0.0000    33.0000 </r>
       <r>     0.5378    -0.0000    33.0000 </r>
       <r>     0.5748    -0.0000    33.0000 </r>
       <r>     0.6118    -0.0000    33.0000 </r>
       <r>     0.6488     0.0000    33.0000 </r>
       <r>     0.6858     0.0000    33.0000 </r>
       <r>     0.7228     0.0000    33.0000 </r>
       <r>     0.7598     0.0000    33.0000 </r>
       <r>     0.7968     0.0000    33.0000 </r>
       <r>     0.8338     0.0000    33.0000 </r>
       <r>     0.8708     0.0000    33.0000 </r>
       <r>     0.9078     0.0000    33.0000 </r>
       <r>     0.9448     0.0000    33.0000 </r>
       <r>     0.9818     0.0000    33.0000 </r>
       <r>     1.0188     0.0000    33.0000 </r>
       <r>     1.0558     0.0000    33.0000 </r>
       <r>     1.0928     0.0000    33.0000 </r>
       <r>     1.1298     0.0000    33.0000 </r>
       <r>     1.1668     0.0000    33.0000 </r>
       <r>     1.2038     0.0000    33.0000 </r>
       <r>     1.2407     0.0000    33.0000 </r>
       <r>     1.2777     0.0000    33.0000 </r>
       <r>     1.3147     0.0000    33.0000 </r>
       <r>     1.3517     0.0000    33.0000 </r>
       <r>     1.3887     0.0000    33.0000 </r>
      </set>
     </set>
    </array>
   </total>
  </dos>
 </calculation>
 <structure name="finalpos" >
  <crystal>
   <varray name="basis" >
    <v>      21.69901654       0.00000000       0.00000000 </v>
    <v>       0.00000000      21.97414438       0.00000000 </v>
    <v>       0.00000000       0.00000000      22.36422946 </v>
   </varray>
   <i name="volume">  10663.65200685 </i>
   <varray name="rec_basis" >
    <v>       0.04608504       0.00000000       0.00000000 </v>
    <v>       0.00000000       0.04550803       0.00000000 </v>
    <v>       0.00000000       0.00000000       0.04471426 </v>
   </varray>
  </crystal>
  <varray name="positions" >
   <v>       0.58462685       0.53180924       0.41286221 </v>
   <v>       0.52361574       0.59732983       0.47764256 </v>
   <v>       0.50690632       0.56505720       0.57782193 </v>
   <v>       0.53904694       0.42926673       0.43329364 </v>
   <v>       0.43868305       0.51670793       0.47485111 </v>
  </varray>
 </structure>
</modeling>
