unknown system                          
            1
    21.699017    0.000000    0.000000
     0.000000   21.974144    0.000000
     0.000000    0.000000   22.364229
   Pd
     5
Direct configuration=     1
   0.58339443  0.51820499  0.40696770
   0.52817926  0.58594774  0.48018426
   0.48697985  0.58086469  0.58369122
   0.56929364  0.41292111  0.40325960
   0.42503173  0.54223238  0.50236867
Direct configuration=     2
   0.58334094  0.52162371  0.40771707
   0.52934094  0.58566724  0.47887334
   0.48795032  0.58142268  0.58562663
   0.56868882  0.41029381  0.40336344
   0.42355789  0.54116347  0.50089095
Direct configuration=     3
   0.58334033  0.52166241  0.40772555
   0.52935409  0.58566407  0.47885850
   0.48796131  0.58142899  0.58564854
   0.56868197  0.41026407  0.40336462
   0.42354121  0.54115137  0.50087423
Direct configuration=     4
   0.58351220  0.52193593  0.40762851
   0.52884590  0.58581679  0.47934233
   0.48843477  0.58142320  0.58555555
   0.56838333  0.41007782  0.40360709
   0.42370272  0.54091717  0.50033797
Direct configuration=     5
   0.58375392  0.52232062  0.40749202
   0.52813115  0.58603159  0.48002280
   0.48910066  0.58141506  0.58542476
   0.56796331  0.40981586  0.40394811
   0.42392987  0.54058779  0.49958376
Direct configuration=     6
   0.58370200  0.52270535  0.40769866
   0.52811382  0.58612492  0.47989414
   0.48954043  0.58120073  0.58542550
   0.56744081  0.41003599  0.40446118
   0.42408185  0.54010393  0.49899196
Direct configuration=     7
   0.58354624  0.52385952  0.40831861
   0.52806183  0.58640489  0.47950816
   0.49085974  0.58055776  0.58542772
   0.56587330  0.41069638  0.40600041
   0.42453781  0.53865237  0.49721654
Direct configuration=     8
   0.58323472  0.52616786  0.40955850
   0.52795784  0.58696484  0.47873620
   0.49349836  0.57927182  0.58543217
   0.56273828  0.41201716  0.40907887
   0.42544971  0.53574924  0.49366571
Direct configuration=     9
   0.58345787  0.52451437  0.40867035
   0.52803233  0.58656374  0.47928916
   0.49160829  0.58019295  0.58542898
   0.56498392  0.41107107  0.40687374
   0.42479650  0.53782878  0.49620921
Direct configuration=    10
   0.58346971  0.52458829  0.40871282
   0.52798758  0.58667283  0.47927248
   0.49176329  0.58003959  0.58535191
   0.56472113  0.41125543  0.40714143
   0.42493720  0.53761478  0.49599280
Direct configuration=    11
   0.58350524  0.52481002  0.40884024
   0.52785333  0.58700007  0.47922243
   0.49222829  0.57957952  0.58512068
   0.56393274  0.41180851  0.40794449
   0.42535930  0.53697279  0.49534360
Direct configuration=    12
   0.58357631  0.52525349  0.40909507
   0.52758483  0.58765457  0.47912233
   0.49315829  0.57865939  0.58465823
   0.56235597  0.41291467  0.40955062
   0.42620350  0.53568880  0.49404519
Direct configuration=    13
   0.58371844  0.52614044  0.40960474
   0.52704784  0.58896356  0.47892212
   0.49501830  0.57681911  0.58373333
   0.55920243  0.41512698  0.41276288
   0.42789189  0.53312083  0.49144837
Direct configuration=    14
   0.58400270  0.52791433  0.41062407
   0.52597386  0.59158155  0.47852172
   0.49873832  0.57313855  0.58188352
   0.55289534  0.41955161  0.41918740
   0.43126868  0.52798487  0.48625473
Direct configuration=    15
   0.58457123  0.53146211  0.41266274
   0.52382591  0.59681752  0.47772091
   0.50617836  0.56577744  0.57818391
   0.54028116  0.42840088  0.43203644
   0.43802226  0.51771297  0.47586744
Direct configuration=    16
   0.58570827  0.53855766  0.41674007
   0.51952999  0.60728947  0.47611930
   0.52105842  0.55105521  0.57078469
   0.51505281  0.44609940  0.45773451
   0.45152941  0.49716917  0.45509287
Direct configuration=    17
   0.58462685  0.53180924  0.41286221
   0.52361574  0.59732983  0.47764256
   0.50690632  0.56505720  0.57782193
   0.53904694  0.42926673  0.43329364
   0.43868305  0.51670793  0.47485111
