  10  10   0   0
  0.1280531E+04  0.2325020E-08  0.2276544E-08  0.2419286E-08  0.5000000E-15
   1.0000000000000000E-004
  CAR 
 unknown system                          
      2.07363143    -11.54581396  301     -4.13425623      1.00000000
    -11.546  0.0000E+00  0.0000E+00  0.0000E+00  0.0000E+00
    -11.500  0.0000E+00  0.0000E+00  0.0000E+00  0.0000E+00
    -11.455  0.0000E+00  0.0000E+00  0.0000E+00  0.0000E+00
    -11.410  0.0000E+00  0.0000E+00  0.0000E+00  0.0000E+00
    -11.364  0.0000E+00  0.0000E+00  0.0000E+00  0.0000E+00
    -11.319  0.0000E+00  0.0000E+00  0.0000E+00  0.0000E+00
    -11.273  0.0000E+00  0.0000E+00  0.0000E+00  0.0000E+00
    -11.228  0.0000E+00  0.0000E+00  0.0000E+00  0.0000E+00
    -11.183 -0.4147E-30  0.0000E+00 -0.1882E-31  0.0000E+00
    -11.137 -0.1531E-28  0.0000E+00 -0.7140E-30  0.0000E+00
    -11.092 -0.5220E-27 -0.2607E-29 -0.2441E-28 -0.1183E-30
    -11.046 -0.1603E-25 -0.9125E-28 -0.7522E-27 -0.4261E-29
    -11.001 -0.4436E-24 -0.2952E-26 -0.2089E-25 -0.1383E-27
    -10.956 -0.1106E-22 -0.8604E-25 -0.5229E-24 -0.4044E-26
    -10.910 -0.2482E-21 -0.2259E-23 -0.1179E-22 -0.1066E-24
    -10.865 -0.5019E-20 -0.5343E-22 -0.2397E-21 -0.2532E-23
    -10.819 -0.9139E-19 -0.1138E-20 -0.4389E-20 -0.5420E-22
    -10.774 -0.1498E-17 -0.2183E-19 -0.7240E-19 -0.1045E-20
    -10.729 -0.2088E-16 -0.3771E-18 -0.1020E-17 -0.1817E-19
    -10.683 -0.2850E-15 -0.5864E-17 -0.1396E-16 -0.2844E-18
    -10.638 -0.3392E-14 -0.7963E-16 -0.1679E-15 -0.3899E-17
    -10.592 -0.3634E-13 -0.1001E-14 -0.1818E-14 -0.4933E-16
    -10.547 -0.3501E-12 -0.1131E-13 -0.1771E-13 -0.5626E-15
    -10.502 -0.3030E-11 -0.1149E-12 -0.1553E-12 -0.5777E-14
    -10.456 -0.2355E-10 -0.1049E-11 -0.1224E-11 -0.5338E-13
    -10.411 -0.1642E-09 -0.8598E-11 -0.8680E-11 -0.4437E-12
    -10.365 -0.1027E-08 -0.6329E-10 -0.5532E-10 -0.3317E-11
    -10.320 -0.5757E-08 -0.4180E-09 -0.3167E-09 -0.2229E-10
    -10.275 -0.2887E-07 -0.2475E-08 -0.1627E-08 -0.1346E-09
    -10.229 -0.1294E-06 -0.1312E-07 -0.7502E-08 -0.7302E-09
    -10.184 -0.5173E-06 -0.6219E-07 -0.3099E-07 -0.3554E-08
    -10.138 -0.1840E-05 -0.2632E-06 -0.1145E-06 -0.1550E-07
    -10.093 -0.5802E-05 -0.9927E-06 -0.3779E-06 -0.6057E-07
    -10.048 -0.1614E-04 -0.3325E-05 -0.1111E-05 -0.2115E-06
    -10.002 -0.3933E-04 -0.9855E-05 -0.2896E-05 -0.6589E-06
     -9.957 -0.8288E-04 -0.2568E-04 -0.6659E-05 -0.1825E-05
     -9.911 -0.1477E-03 -0.5829E-04 -0.1337E-04 -0.4471E-05
     -9.866 -0.2123E-03 -0.1134E-03 -0.2300E-04 -0.9618E-05
     -9.821 -0.2129E-03 -0.1830E-03 -0.3267E-04 -0.1793E-04
     -9.775 -0.3892E-04 -0.2266E-03 -0.3443E-04 -0.2821E-04
     -9.730  0.4332E-03 -0.1555E-03 -0.1477E-04 -0.3527E-04
     -9.684  0.1261E-02  0.1546E-03  0.4246E-04 -0.2825E-04
     -9.639  0.2345E-02  0.8059E-03  0.1489E-03  0.8333E-05
     -9.594  0.3409E-02  0.1787E-02  0.3037E-03  0.8944E-04
     -9.548  0.4093E-02  0.2905E-02  0.4895E-03  0.2213E-03
     -9.503  0.4131E-02  0.3821E-02  0.6770E-03  0.3948E-03
     -9.457  0.3509E-02  0.4200E-02  0.8363E-03  0.5855E-03
     -9.412  0.2469E-02  0.3891E-02  0.9484E-03  0.7621E-03
     -9.367  0.1370E-02  0.3017E-02  0.1011E-02  0.8991E-03
     -9.321  0.5065E-03  0.1903E-02  0.1034E-02  0.9854E-03
     -9.276 -0.3773E-05  0.8953E-03  0.1033E-02  0.1026E-02
     -9.231 -0.2047E-03  0.2059E-03  0.1024E-02  0.1035E-02
     -9.185 -0.2171E-03 -0.1364E-03  0.1014E-02  0.1029E-02
     -9.140 -0.1555E-03 -0.2265E-03  0.1007E-02  0.1019E-02
     -9.094 -0.8906E-04 -0.1899E-03  0.1003E-02  0.1010E-02
     -9.049 -0.4299E-04 -0.1204E-03  0.1001E-02  0.1005E-02
     -9.004 -0.1797E-04 -0.6299E-04  0.1000E-02  0.1002E-02
     -8.958 -0.6801E-05 -0.2818E-04  0.1000E-02  0.1001E-02
     -8.913 -0.3123E-05 -0.1097E-04  0.1000E-02  0.1000E-02
     -8.867 -0.4031E-05 -0.3750E-05  0.9998E-03  0.1000E-02
     -8.822 -0.1033E-04 -0.1134E-05  0.9993E-03  0.1000E-02
     -8.777 -0.2664E-04 -0.3084E-06  0.9981E-03  0.1000E-02
     -8.731 -0.6079E-04 -0.9373E-07  0.9954E-03  0.1000E-02
     -8.686 -0.1197E-03 -0.1117E-06  0.9899E-03  0.1000E-02
     -8.640 -0.1984E-03 -0.3968E-06  0.9809E-03  0.1000E-02
     -8.595 -0.2614E-03 -0.1437E-05  0.9690E-03  0.9999E-03
     -8.550 -0.2269E-03 -0.4650E-05  0.9587E-03  0.9997E-03
     -8.504  0.2666E-04 -0.1331E-04  0.9600E-03  0.9991E-03
     -8.459  0.6155E-03 -0.3348E-04  0.9879E-03  0.9976E-03
     -8.413  0.1577E-02 -0.7329E-04  0.1059E-02  0.9942E-03
     -8.368  0.2814E-02 -0.1373E-03  0.1187E-02  0.9880E-03
     -8.323  0.4102E-02 -0.2131E-03  0.1373E-02  0.9783E-03
     -8.277  0.5174E-02 -0.2524E-03  0.1608E-02  0.9669E-03
     -8.232  0.5819E-02 -0.1608E-03  0.1872E-02  0.9596E-03
     -8.186  0.5951E-02  0.1833E-03  0.2143E-02  0.9679E-03
     -8.141  0.5623E-02  0.8703E-03  0.2398E-02  0.1007E-02
     -8.096  0.5009E-02  0.1886E-02  0.2625E-02  0.1093E-02
     -8.050  0.4368E-02  0.3081E-02  0.2824E-02  0.1233E-02
     -8.005  0.3985E-02  0.4222E-02  0.3005E-02  0.1425E-02
     -7.959  0.4072E-02  0.5091E-02  0.3189E-02  0.1656E-02
     -7.914  0.4713E-02  0.5571E-02  0.3403E-02  0.1909E-02
     -7.869  0.5868E-02  0.5634E-02  0.3670E-02  0.2164E-02
     -7.823  0.7422E-02  0.5294E-02  0.4007E-02  0.2405E-02
     -7.778  0.9211E-02  0.4607E-02  0.4425E-02  0.2614E-02
     -7.732  0.1102E-01  0.3716E-02  0.4925E-02  0.2783E-02
     -7.687  0.1262E-01  0.2883E-02  0.5498E-02  0.2913E-02
     -7.642  0.1385E-01  0.2399E-02  0.6127E-02  0.3022E-02
     -7.596  0.1472E-01  0.2421E-02  0.6795E-02  0.3132E-02
     -7.551  0.1544E-01  0.2875E-02  0.7496E-02  0.3263E-02
     -7.505  0.1627E-01  0.3533E-02  0.8235E-02  0.3423E-02
     -7.460  0.1735E-01  0.4213E-02  0.9022E-02  0.3614E-02
     -7.415  0.1851E-01  0.4921E-02  0.9863E-02  0.3838E-02
     -7.369  0.1929E-01  0.5801E-02  0.1074E-01  0.4101E-02
     -7.324  0.1919E-01  0.6947E-02  0.1161E-01  0.4417E-02
     -7.278  0.1790E-01  0.8254E-02  0.1242E-01  0.4791E-02
     -7.233  0.1555E-01  0.9469E-02  0.1313E-01  0.5221E-02
     -7.188  0.1260E-01  0.1037E-01  0.1370E-01  0.5692E-02
     -7.142  0.9624E-02  0.1093E-01  0.1414E-01  0.6188E-02
     -7.097  0.7030E-02  0.1129E-01  0.1446E-01  0.6701E-02
     -7.051  0.5019E-02  0.1165E-01  0.1468E-01  0.7230E-02
     -7.006  0.3661E-02  0.1213E-01  0.1485E-01  0.7780E-02
     -6.961  0.3002E-02  0.1270E-01  0.1499E-01  0.8357E-02
     -6.915  0.3066E-02  0.1325E-01  0.1513E-01  0.8958E-02
     -6.870  0.3774E-02  0.1366E-01  0.1530E-01  0.9578E-02
     -6.824  0.4917E-02  0.1388E-01  0.1552E-01  0.1021E-01
     -6.779  0.6243E-02  0.1393E-01  0.1580E-01  0.1084E-01
     -6.734  0.7604E-02  0.1384E-01  0.1615E-01  0.1147E-01
     -6.688  0.9001E-02  0.1362E-01  0.1656E-01  0.1209E-01
     -6.643  0.1050E-01  0.1318E-01  0.1703E-01  0.1269E-01
     -6.597  0.1211E-01  0.1239E-01  0.1758E-01  0.1325E-01
     -6.552  0.1367E-01  0.1113E-01  0.1821E-01  0.1375E-01
     -6.507  0.1498E-01  0.9396E-02  0.1889E-01  0.1418E-01
     -6.461  0.1590E-01  0.7307E-02  0.1961E-01  0.1451E-01
     -6.416  0.1639E-01  0.5064E-02  0.2035E-01  0.1474E-01
     -6.370  0.1646E-01  0.2939E-02  0.2110E-01  0.1488E-01
     -6.325  0.1611E-01  0.1271E-02  0.2183E-01  0.1493E-01
     -6.280  0.1524E-01  0.4227E-03  0.2252E-01  0.1495E-01
     -6.234  0.1380E-01  0.6995E-03  0.2315E-01  0.1498E-01
     -6.189  0.1189E-01  0.2229E-02  0.2369E-01  0.1509E-01
     -6.143  0.9884E-02  0.4881E-02  0.2414E-01  0.1531E-01
     -6.098  0.8330E-02  0.8279E-02  0.2451E-01  0.1568E-01
     -6.053  0.7772E-02  0.1190E-01  0.2487E-01  0.1622E-01
     -6.007  0.8492E-02  0.1519E-01  0.2525E-01  0.1691E-01
     -5.962  0.1034E-01  0.1768E-01  0.2572E-01  0.1771E-01
     -5.916  0.1275E-01  0.1903E-01  0.2630E-01  0.1858E-01
     -5.871  0.1499E-01  0.1907E-01  0.2698E-01  0.1944E-01
     -5.826  0.1647E-01  0.1793E-01  0.2773E-01  0.2026E-01
     -5.780  0.1697E-01  0.1600E-01  0.2850E-01  0.2098E-01
     -5.735  0.1665E-01  0.1387E-01  0.2926E-01  0.2161E-01
     -5.689  0.1586E-01  0.1217E-01  0.2998E-01  0.2217E-01
     -5.644  0.1496E-01  0.1131E-01  0.3066E-01  0.2268E-01
     -5.599  0.1426E-01  0.1137E-01  0.3130E-01  0.2320E-01
     -5.553  0.1408E-01  0.1210E-01  0.3194E-01  0.2375E-01
     -5.508  0.1476E-01  0.1304E-01  0.3261E-01  0.2434E-01
     -5.462  0.1655E-01  0.1374E-01  0.3336E-01  0.2496E-01
     -5.417  0.1941E-01  0.1390E-01  0.3424E-01  0.2559E-01
     -5.372  0.2289E-01  0.1344E-01  0.3528E-01  0.2620E-01
     -5.326  0.2618E-01  0.1242E-01  0.3647E-01  0.2677E-01
     -5.281  0.2841E-01  0.1107E-01  0.3776E-01  0.2727E-01
     -5.235  0.2906E-01  0.9693E-02  0.3908E-01  0.2771E-01
     -5.190  0.2811E-01  0.8645E-02  0.4036E-01  0.2810E-01
     -5.145  0.2607E-01  0.8205E-02  0.4154E-01  0.2847E-01
     -5.099  0.2367E-01  0.8499E-02  0.4262E-01  0.2886E-01
     -5.054  0.2165E-01  0.9509E-02  0.4360E-01  0.2929E-01
     -5.008  0.2048E-01  0.1112E-01  0.4453E-01  0.2980E-01
     -4.963  0.2027E-01  0.1313E-01  0.4545E-01  0.3039E-01
     -4.918  0.2077E-01  0.1515E-01  0.4639E-01  0.3108E-01
     -4.872  0.2154E-01  0.1668E-01  0.4737E-01  0.3184E-01
     -4.827  0.2213E-01  0.1725E-01  0.4837E-01  0.3262E-01
     -4.781  0.2226E-01  0.1677E-01  0.4938E-01  0.3338E-01
     -4.736  0.2179E-01  0.1567E-01  0.5037E-01  0.3409E-01
     -4.691  0.2060E-01  0.1481E-01  0.5131E-01  0.3477E-01
     -4.645  0.1854E-01  0.1493E-01  0.5215E-01  0.3544E-01
     -4.600  0.1561E-01  0.1625E-01  0.5286E-01  0.3618E-01
     -4.554  0.1201E-01  0.1834E-01  0.5340E-01  0.3701E-01
     -4.509  0.8207E-02  0.2040E-01  0.5378E-01  0.3794E-01
     -4.464  0.4764E-02  0.2174E-01  0.5399E-01  0.3893E-01
     -4.418  0.2116E-02  0.2216E-01  0.5409E-01  0.3993E-01
     -4.373  0.4284E-03  0.2186E-01  0.5411E-01  0.4093E-01
     -4.328 -0.4025E-03  0.2127E-01  0.5409E-01  0.4189E-01
     -4.282 -0.6378E-03  0.2080E-01  0.5406E-01  0.4284E-01
     -4.237 -0.5602E-03  0.2072E-01  0.5404E-01  0.4378E-01
     -4.191 -0.3822E-03  0.2113E-01  0.5402E-01  0.4473E-01
     -4.146 -0.2190E-03  0.2193E-01  0.5401E-01  0.4573E-01
     -4.101 -0.1087E-03  0.2288E-01  0.5400E-01  0.4677E-01
     -4.055 -0.4733E-04  0.2355E-01  0.5400E-01  0.4784E-01
     -4.010 -0.1824E-04  0.2351E-01  0.5400E-01  0.4891E-01
     -3.964 -0.6252E-05  0.2247E-01  0.5400E-01  0.4993E-01
     -3.919 -0.1911E-05  0.2037E-01  0.5400E-01  0.5085E-01
     -3.874 -0.5258E-06  0.1748E-01  0.5400E-01  0.5164E-01
     -3.828 -0.1486E-06  0.1426E-01  0.5400E-01  0.5229E-01
     -3.783 -0.1251E-06  0.1120E-01  0.5400E-01  0.5280E-01
     -3.737 -0.4030E-06  0.8613E-02  0.5400E-01  0.5319E-01
     -3.692 -0.1448E-05  0.6574E-02  0.5400E-01  0.5349E-01
     -3.647 -0.4674E-05  0.4946E-02  0.5400E-01  0.5371E-01
     -3.601 -0.1334E-04  0.3545E-02  0.5400E-01  0.5387E-01
     -3.556 -0.3337E-04  0.2280E-02  0.5400E-01  0.5398E-01
     -3.510 -0.7247E-04  0.1194E-02  0.5399E-01  0.5403E-01
     -3.465 -0.1339E-03  0.3853E-03  0.5399E-01  0.5405E-01
     -3.420 -0.2019E-03 -0.9508E-04  0.5398E-01  0.5405E-01
     -3.374 -0.2226E-03 -0.2876E-03  0.5397E-01  0.5403E-01
     -3.329 -0.9328E-04 -0.2976E-03  0.5396E-01  0.5402E-01
     -3.283  0.3118E-03 -0.2383E-03  0.5398E-01  0.5401E-01
     -3.238  0.1070E-02 -0.1901E-03  0.5403E-01  0.5400E-01
     -3.193  0.2115E-02 -0.1878E-03  0.5412E-01  0.5399E-01
     -3.147  0.3199E-02 -0.2219E-03  0.5427E-01  0.5398E-01
     -3.102  0.3953E-02 -0.2359E-03  0.5445E-01  0.5397E-01
     -3.056  0.4067E-02 -0.1244E-03  0.5463E-01  0.5396E-01
     -3.011  0.3459E-02  0.2441E-03  0.5479E-01  0.5398E-01
     -2.966  0.2334E-02  0.9593E-03  0.5490E-01  0.5402E-01
     -2.920  0.1095E-02  0.1978E-02  0.5495E-01  0.5411E-01
     -2.875  0.1780E-03  0.3068E-02  0.5495E-01  0.5425E-01
     -2.829 -0.7008E-04  0.3867E-02  0.5495E-01  0.5442E-01
     -2.784  0.5599E-03  0.4048E-02  0.5498E-01  0.5461E-01
     -2.739  0.2146E-02  0.3502E-02  0.5507E-01  0.5477E-01
     -2.693  0.4635E-02  0.2422E-02  0.5528E-01  0.5488E-01
     -2.648  0.7815E-02  0.1229E-02  0.5564E-01  0.5493E-01
     -2.602  0.1127E-01  0.3994E-03  0.5615E-01  0.5495E-01
     -2.557  0.1436E-01  0.3064E-03  0.5680E-01  0.5496E-01
     -2.512  0.1635E-01  0.1145E-02  0.5754E-01  0.5502E-01
     -2.466  0.1662E-01  0.2931E-02  0.5830E-01  0.5515E-01
     -2.421  0.1495E-01  0.5537E-02  0.5898E-01  0.5540E-01
     -2.375  0.1173E-01  0.8697E-02  0.5951E-01  0.5580E-01
     -2.330  0.7803E-02  0.1199E-01  0.5986E-01  0.5634E-01
     -2.285  0.4149E-02  0.1480E-01  0.6005E-01  0.5701E-01
     -2.239  0.1447E-02  0.1641E-01  0.6012E-01  0.5776E-01
     -2.194 -0.1000E-03  0.1627E-01  0.6011E-01  0.5850E-01
     -2.148 -0.6962E-03  0.1422E-01  0.6008E-01  0.5914E-01
     -2.103 -0.7220E-03  0.1075E-01  0.6005E-01  0.5963E-01
     -2.058 -0.5221E-03  0.6789E-02  0.6003E-01  0.5994E-01
     -2.012 -0.3053E-03  0.3293E-02  0.6001E-01  0.6009E-01
     -1.967 -0.1516E-03  0.8681E-03  0.6000E-01  0.6013E-01
     -1.921 -0.6537E-04 -0.3942E-03  0.6000E-01  0.6011E-01
     -1.876 -0.2476E-04 -0.7799E-03  0.6000E-01  0.6007E-01
     -1.831 -0.8298E-05 -0.6946E-03  0.6000E-01  0.6004E-01
     -1.785 -0.2473E-05 -0.4615E-03  0.6000E-01  0.6002E-01
     -1.740 -0.6580E-06 -0.2525E-03  0.6000E-01  0.6001E-01
     -1.694 -0.1601E-06 -0.1180E-03  0.6000E-01  0.6000E-01
     -1.649 -0.5350E-07 -0.4801E-04  0.6000E-01  0.6000E-01
     -1.604 -0.9953E-07 -0.1717E-04  0.6000E-01  0.6000E-01
     -1.558 -0.3835E-06 -0.5432E-05  0.6000E-01  0.6000E-01
     -1.513 -0.1397E-05 -0.1531E-05  0.6000E-01  0.6000E-01
     -1.467 -0.4532E-05 -0.4018E-06  0.6000E-01  0.6000E-01
     -1.422 -0.1299E-04 -0.1744E-06  0.6000E-01  0.6000E-01
     -1.377 -0.3271E-04 -0.3829E-06  0.6000E-01  0.6000E-01
     -1.331 -0.7159E-04 -0.1345E-05  0.5999E-01  0.6000E-01
     -1.286 -0.1339E-03 -0.4372E-05  0.5999E-01  0.6000E-01
     -1.240 -0.2067E-03 -0.1259E-04  0.5998E-01  0.6000E-01
     -1.195 -0.2411E-03 -0.3187E-04  0.5997E-01  0.6000E-01
     -1.150 -0.1428E-03 -0.7020E-04  0.5996E-01  0.5999E-01
     -1.104  0.2070E-03 -0.1324E-03  0.5997E-01  0.5999E-01
     -1.059  0.8883E-03 -0.2068E-03  0.6001E-01  0.5998E-01
     -1.013  0.1867E-02 -0.2470E-03  0.6010E-01  0.5997E-01
     -0.968  0.2965E-02 -0.1605E-03  0.6023E-01  0.5996E-01
     -0.923  0.3935E-02  0.1725E-03  0.6041E-01  0.5997E-01
     -0.877  0.4584E-02  0.8400E-03  0.6062E-01  0.6001E-01
     -0.832  0.4878E-02  0.1824E-02  0.6084E-01  0.6009E-01
     -0.786  0.4908E-02  0.2968E-02  0.6106E-01  0.6022E-01
     -0.741  0.4791E-02  0.4032E-02  0.6128E-01  0.6041E-01
     -0.696  0.4595E-02  0.4809E-02  0.6149E-01  0.6063E-01
     -0.650  0.4371E-02  0.5208E-02  0.6169E-01  0.6086E-01
     -0.605  0.4226E-02  0.5245E-02  0.6188E-01  0.6110E-01
     -0.559  0.4326E-02  0.4972E-02  0.6207E-01  0.6133E-01
     -0.514  0.4805E-02  0.4456E-02  0.6229E-01  0.6153E-01
     -0.469  0.5671E-02  0.3846E-02  0.6255E-01  0.6170E-01
     -0.423  0.6771E-02  0.3432E-02  0.6286E-01  0.6186E-01
     -0.378  0.7858E-02  0.3589E-02  0.6321E-01  0.6202E-01
     -0.332  0.8676E-02  0.4570E-02  0.6361E-01  0.6223E-01
     -0.287  0.9046E-02  0.6295E-02  0.6402E-01  0.6251E-01
     -0.242  0.8915E-02  0.8308E-02  0.6442E-01  0.6289E-01
     -0.196  0.8352E-02  0.9950E-02  0.6480E-01  0.6334E-01
     -0.151  0.7486E-02  0.1068E-01  0.6514E-01  0.6383E-01
     -0.105  0.6421E-02  0.1035E-01  0.6543E-01  0.6430E-01
     -0.060  0.5205E-02  0.9206E-02  0.6567E-01  0.6472E-01
     -0.015  0.3879E-02  0.7736E-02  0.6585E-01  0.6507E-01
      0.031  0.2542E-02  0.6336E-02  0.6596E-01  0.6536E-01
      0.076  0.1357E-02  0.5135E-02  0.6602E-01  0.6559E-01
      0.122  0.4736E-03  0.4044E-02  0.6604E-01  0.6577E-01
      0.167 -0.4817E-04  0.2951E-02  0.6604E-01  0.6591E-01
      0.212 -0.2576E-03  0.1864E-02  0.6603E-01  0.6599E-01
      0.258 -0.2692E-03  0.9111E-03  0.6602E-01  0.6603E-01
      0.303 -0.1972E-03  0.2286E-03  0.6601E-01  0.6604E-01
      0.349 -0.1167E-03 -0.1405E-03  0.6600E-01  0.6604E-01
      0.394 -0.5843E-04 -0.2566E-03  0.6600E-01  0.6602E-01
      0.439 -0.2530E-04 -0.2288E-03  0.6600E-01  0.6601E-01
      0.485 -0.9594E-05 -0.1533E-03  0.6600E-01  0.6601E-01
      0.530 -0.3208E-05 -0.8452E-04  0.6600E-01  0.6600E-01
      0.575 -0.9505E-06 -0.3976E-04  0.6600E-01  0.6600E-01
      0.621 -0.2505E-06 -0.1624E-04  0.6600E-01  0.6600E-01
      0.666 -0.5885E-07 -0.5823E-05  0.6600E-01  0.6600E-01
      0.712 -0.1235E-07 -0.1844E-05  0.6600E-01  0.6600E-01
      0.757 -0.2318E-08 -0.5180E-06  0.6600E-01  0.6600E-01
      0.802 -0.3898E-09 -0.1295E-06  0.6600E-01  0.6600E-01
      0.848 -0.5877E-10 -0.2889E-07  0.6600E-01  0.6600E-01
      0.893 -0.7949E-11 -0.5759E-08  0.6600E-01  0.6600E-01
      0.939 -0.9652E-12 -0.1027E-08  0.6600E-01  0.6600E-01
      0.984 -0.1053E-12 -0.1643E-09  0.6600E-01  0.6600E-01
      1.029 -0.1032E-13 -0.2355E-10  0.6600E-01  0.6600E-01
      1.075 -0.9097E-15 -0.3030E-11  0.6600E-01  0.6600E-01
      1.120 -0.7337E-16 -0.3501E-12  0.6600E-01  0.6600E-01
      1.166 -0.4891E-17 -0.3635E-13  0.6600E-01  0.6600E-01
      1.211  0.0000E+00 -0.3389E-14  0.6600E-01  0.6600E-01
      1.256  0.0000E+00 -0.2837E-15  0.6600E-01  0.6600E-01
      1.302  0.0000E+00 -0.2446E-16  0.6600E-01  0.6600E-01
      1.347  0.0000E+00  0.0000E+00  0.6600E-01  0.6600E-01
      1.393  0.0000E+00  0.0000E+00  0.6600E-01  0.6600E-01
      1.438  0.0000E+00  0.0000E+00  0.6600E-01  0.6600E-01
      1.483  0.0000E+00  0.0000E+00  0.6600E-01  0.6600E-01
      1.529  0.0000E+00  0.0000E+00  0.6600E-01  0.6600E-01
      1.574  0.0000E+00  0.0000E+00  0.6600E-01  0.6600E-01
      1.620  0.0000E+00  0.0000E+00  0.6600E-01  0.6600E-01
      1.665  0.0000E+00  0.0000E+00  0.6600E-01  0.6600E-01
      1.710  0.0000E+00  0.0000E+00  0.6600E-01  0.6600E-01
      1.756  0.0000E+00  0.0000E+00  0.6600E-01  0.6600E-01
      1.801  0.0000E+00  0.0000E+00  0.6600E-01  0.6600E-01
      1.847  0.0000E+00  0.0000E+00  0.6600E-01  0.6600E-01
      1.892  0.0000E+00  0.0000E+00  0.6600E-01  0.6600E-01
      1.937  0.0000E+00  0.0000E+00  0.6600E-01  0.6600E-01
      1.983  0.0000E+00  0.0000E+00  0.6600E-01  0.6600E-01
      2.028  0.0000E+00  0.0000E+00  0.6600E-01  0.6600E-01
      2.074  0.0000E+00  0.0000E+00  0.6600E-01  0.6600E-01
