   10   10 1000    2
  0.1280531E+04  0.2325020E-08  0.2276544E-08  0.2419286E-08  0.5000000E-15
   1.0000000000000000E-004
  CAR 
 unknown system                          
    100      1     66
 
  0.1262379E-14  0.1262379E-14  0.1262379E-14  0.1000000E+01
    1       -9.545814     -9.477812   1.000000   1.000000
    2       -8.298457     -7.992990   1.000000   1.000000
    3       -8.131572     -7.805516   1.000000   1.000000
    4       -7.899128     -7.497837   1.000000   1.000000
    5       -7.754600     -7.289830   1.000000   1.000000
    6       -7.680481     -7.220828   1.000000   1.000000
    7       -7.637226     -7.117704   1.000000   1.000000
    8       -7.532796     -7.019304   1.000000   1.000000
    9       -7.509986     -6.958275   1.000000   1.000000
   10       -7.400267     -6.850177   1.000000   1.000000
   11       -7.373426     -6.830123   1.000000   1.000000
   12       -7.339483     -6.723920   1.000000   1.000000
   13       -7.286943     -6.640807   1.000000   1.000000
   14       -7.227730     -6.596013   1.000000   1.000000
   15       -7.080380     -6.463973   1.000000   1.000000
   16       -6.821984     -6.083484   1.000000   1.000000
   17       -6.702547     -6.049302   1.000000   1.000000
   18       -6.566633     -5.950546   1.000000   1.000000
   19       -6.555927     -5.916843   1.000000   1.000000
   20       -6.466157     -5.884770   1.000000   1.000000
   21       -6.407338     -5.829912   1.000000   1.000000
   22       -6.345540     -5.754300   1.000000   1.000000
   23       -6.263495     -5.660606   1.000000   1.000000
   24       -6.241163     -5.545422   1.000000   1.000000
   25       -6.112032     -5.495288   1.000000   1.000000
   26       -5.947561     -5.440581   1.000000   1.000000
   27       -5.891783     -5.318534   1.000000   1.000000
   28       -5.835805     -5.303671   1.000000   1.000000
   29       -5.812756     -5.122998   1.000000   1.000000
   30       -5.691654     -5.046936   1.000000   1.000000
   31       -5.687247     -4.909542   1.000000   1.000000
   32       -5.579600     -4.906993   1.000000   1.000000
   33       -5.535436     -4.833885   1.000000   1.000004
   34       -5.435214     -4.776107   1.000000   1.000028
   35       -5.385055     -4.762132   1.000000   1.000042
   36       -5.346025     -4.589984   1.000000   1.002938
   37       -5.327946     -4.574618   1.000000   1.003949
   38       -5.278359     -4.533198   1.000000   1.008132
   39       -5.255670     -4.487381   1.000000   1.015787
   40       -5.247103     -4.453822   1.000000   1.023166
   41       -5.188158     -4.381976   1.000000   1.035429
   42       -5.166328     -4.361544   1.000000   1.034107
   43       -5.100211     -4.290209   1.000000   0.984687
   44       -5.052093     -4.260042   1.000000   0.932573
   45       -5.036256     -4.200848   1.000000   0.765204
   46       -4.922830     -4.136294   1.000000   0.508622
   47       -4.898588     -4.114235   1.000000   0.415750
   48       -4.871630     -4.067932   1.000001   0.235733
   49       -4.842038     -4.009876   1.000003   0.070401
   50       -4.771768     -3.985510   1.000031   0.025781
   51       -4.709934     -3.961192   1.000181  -0.004924
   52       -4.668840     -3.881998   1.000517  -0.035262
   53       -4.655338     -3.828406   1.000714  -0.026330
   54       -4.559377     -3.670131   1.005218  -0.002485
   55       -3.090350     -2.812563  -0.000000  -0.000000
   56       -2.649977     -2.396681  -0.000000  -0.000000
   57       -2.557615     -2.304660  -0.000000  -0.000000
   58       -2.491664     -2.215540  -0.000000  -0.000000
   59       -2.462549     -2.198086  -0.000000  -0.000000
   60       -2.429342     -2.184415  -0.000000  -0.000000
   61       -0.909920     -0.726828  -0.000000  -0.000000
   62       -0.697418     -0.528044  -0.000000  -0.000000
   63       -0.470983     -0.264955  -0.000000  -0.000000
   64       -0.331559     -0.166748  -0.000000  -0.000000
   65       -0.248285     -0.121563  -0.000000  -0.000000
   66       -0.086911      0.073631  -0.000000  -0.000000
