       N       E                     dE             d eps       ncg     rms          rms(c)
DAV:   1     0.725902945016E+03    0.72590E+03   -0.15520E+04   264   0.683E+02
DAV:   2     0.256694214291E+03   -0.46921E+03   -0.43052E+03   496   0.111E+02
DAV:   3     0.203422829752E+02   -0.23635E+03   -0.22299E+03   400   0.124E+02
DAV:   4    -0.376238877972E+02   -0.57966E+02   -0.51862E+02   448   0.602E+01
DAV:   5    -0.430001606844E+02   -0.53763E+01   -0.48573E+01   350   0.237E+01    0.270E+01
DAV:   6    -0.614310495292E+02   -0.18431E+02   -0.11870E+02   308   0.169E+02    0.568E+01
DAV:   7    -0.407003038438E+02    0.20731E+02   -0.60154E+01   346   0.740E+01    0.340E+01
DAV:   8    -0.392576761027E+02    0.14426E+01   -0.28340E+01   340   0.706E+01    0.331E+01
DAV:   9    -0.401452044314E+02   -0.88753E+00   -0.18399E+01   342   0.713E+01    0.501E+01
DAV:  10    -0.375878614405E+02    0.25573E+01   -0.42845E+01   368   0.500E+01    0.272E+01
DAV:  11    -0.380461574785E+02   -0.45830E+00   -0.12425E+01   316   0.408E+01    0.311E+01
DAV:  12    -0.360382760742E+02    0.20079E+01   -0.75392E+00   380   0.325E+01    0.222E+01
DAV:  13    -0.364837418515E+02   -0.44547E+00   -0.65139E+00   360   0.285E+01    0.295E+01
DAV:  14    -0.350721653100E+02    0.14116E+01   -0.34632E+00   352   0.230E+01    0.144E+01
DAV:  15    -0.349690593327E+02    0.10311E+00   -0.97961E-01   384   0.126E+01    0.133E+01
DAV:  16    -0.347588559506E+02    0.21020E+00   -0.52212E-01   400   0.107E+01    0.967E+00
DAV:  17    -0.347086015433E+02    0.50254E-01   -0.25457E-01   396   0.707E+00    0.654E+00
DAV:  18    -0.349415206496E+02   -0.23292E+00   -0.18661E-01   360   0.417E+00    0.549E+00
DAV:  19    -0.354150027885E+02   -0.47348E+00   -0.25483E-01   362   0.528E+00    0.702E+00
DAV:  20    -0.353977385447E+02    0.17264E-01   -0.41253E-02   296   0.154E+00    0.712E+00
DAV:  21    -0.354130609038E+02   -0.15322E-01   -0.24785E-03   312   0.402E-01    0.724E+00
DAV:  22    -0.354489094146E+02   -0.35849E-01   -0.45605E-03   326   0.906E-01    0.679E+00
DAV:  23    -0.359575868919E+02   -0.50868E+00   -0.30414E-01   338   0.655E+00    0.363E+00
DAV:  24    -0.361398708378E+02   -0.18228E+00   -0.10337E-01   342   0.307E+00    0.281E+00
DAV:  25    -0.362369949067E+02   -0.97124E-01   -0.29699E-02   306   0.133E+00    0.270E+00
DAV:  26    -0.363242803073E+02   -0.87285E-01   -0.17638E-02   314   0.170E+00    0.164E+00
DAV:  27    -0.364252959356E+02   -0.10102E+00   -0.11186E-02   322   0.714E-01    0.116E+00
DAV:  28    -0.365310701199E+02   -0.10577E+00   -0.93792E-03   346   0.726E-01    0.103E+00
DAV:  29    -0.366798659387E+02   -0.14880E+00   -0.14341E-02   314   0.117E+00    0.381E-01
DAV:  30    -0.367718993132E+02   -0.92033E-01   -0.55607E-03   344   0.492E-01    0.427E-01
DAV:  31    -0.368112363101E+02   -0.39337E-01   -0.24922E-03   304   0.549E-01    0.345E-01
DAV:  32    -0.368753324142E+02   -0.64096E-01   -0.23196E-03   298   0.400E-01    0.218E-01
DAV:  33    -0.369180229392E+02   -0.42691E-01   -0.10350E-03   262   0.174E-01    0.313E-01
DAV:  34    -0.369502165977E+02   -0.32194E-01   -0.54315E-04   244   0.183E-01    0.174E-01
DAV:  35    -0.369702559860E+02   -0.20039E-01   -0.23718E-04   232   0.969E-02    0.114E-01
DAV:  36    -0.369873087098E+02   -0.17053E-01   -0.25627E-04   212   0.768E-02    0.881E-02
DAV:  37    -0.370005177452E+02   -0.13209E-01   -0.16547E-04   192   0.102E-01    0.548E-02
DAV:  38    -0.370128371364E+02   -0.12319E-01   -0.25201E-04   202   0.630E-02    0.790E-02
DAV:  39    -0.370195147155E+02   -0.66776E-02   -0.10394E-04   190   0.586E-02    0.333E-02
DAV:  40    -0.370245428564E+02   -0.50281E-02   -0.10401E-04   208   0.393E-02    0.353E-02
DAV:  41    -0.370273647031E+02   -0.28218E-02   -0.45910E-05   178   0.352E-02    0.223E-02
DAV:  42    -0.370294082444E+02   -0.20435E-02   -0.47042E-05   198   0.274E-02    0.186E-02
DAV:  43    -0.370304708771E+02   -0.10626E-02   -0.24014E-05   176   0.281E-02    0.142E-02
DAV:  44    -0.370311531090E+02   -0.68223E-03   -0.21530E-05   186   0.196E-02    0.946E-03
DAV:  45    -0.370316072726E+02   -0.45416E-03   -0.13762E-05   176   0.181E-02    0.107E-02
DAV:  46    -0.370318895514E+02   -0.28228E-03   -0.98117E-06   188   0.143E-02    0.494E-03
DAV:  47    -0.370321614457E+02   -0.27189E-03   -0.91272E-06   174   0.911E-03    0.429E-03
DAV:  48    -0.370323533910E+02   -0.19195E-03   -0.49465E-06   178   0.809E-03    0.425E-03
DAV:  49    -0.370325197723E+02   -0.16638E-03   -0.41540E-06   176   0.578E-03    0.304E-03
DAV:  50    -0.370326725444E+02   -0.15277E-03   -0.43660E-06   178   0.686E-03    0.271E-03
DAV:  51    -0.370327478141E+02   -0.75270E-04   -0.22122E-06   176   0.610E-03
   1 F= -.37032748E+02 E0= -.37017101E+02  d E =-.370327E+02  mag=     8.0091
       N       E                     dE             d eps       ncg     rms          rms(c)
DAV:   1    -0.371264025957E+02   -0.93730E-01   -0.86001E+01   264   0.333E+01    0.298E+00
DAV:   2    -0.376892509066E+02   -0.56285E+00   -0.30501E+00   390   0.193E+01    0.135E+01
DAV:   3    -0.373225688211E+02    0.36668E+00   -0.23913E+00   316   0.213E+01    0.914E+00
DAV:   4    -0.373350574771E+02   -0.12489E-01   -0.79818E-01   374   0.130E+01    0.959E+00
DAV:   5    -0.372639622060E+02    0.71095E-01   -0.80372E-01   388   0.946E+00    0.393E+00
DAV:   6    -0.372969807692E+02   -0.33019E-01   -0.27655E-01   356   0.655E+00    0.546E+00
DAV:   7    -0.372489388613E+02    0.48042E-01   -0.15425E-01   366   0.520E+00    0.149E+00
DAV:   8    -0.372761743602E+02   -0.27235E-01   -0.56719E-02   384   0.359E+00    0.307E+00
DAV:   9    -0.372590343418E+02    0.17140E-01   -0.48708E-02   342   0.345E+00    0.136E+00
DAV:  10    -0.372686669069E+02   -0.96326E-02   -0.31347E-02   356   0.288E+00    0.211E+00
DAV:  11    -0.372599988351E+02    0.86681E-02   -0.32202E-02   382   0.276E+00    0.786E-01
DAV:  12    -0.372645142513E+02   -0.45154E-02   -0.41293E-03   380   0.738E-01    0.642E-01
DAV:  13    -0.372638646855E+02    0.64957E-03   -0.26567E-03   334   0.630E-01    0.201E-01
DAV:  14    -0.372644778158E+02   -0.61313E-03   -0.34799E-04   188   0.242E-01    0.132E-01
DAV:  15    -0.372648052504E+02   -0.32743E-03   -0.22932E-04   190   0.178E-01    0.129E-01
DAV:  16    -0.372649971293E+02   -0.19188E-03   -0.12962E-04   172   0.144E-01    0.316E-02
DAV:  17    -0.372652255905E+02   -0.22846E-03   -0.62224E-05   176   0.565E-02    0.203E-02
DAV:  18    -0.372653953297E+02   -0.16974E-03   -0.24958E-05   172   0.349E-02    0.156E-02
DAV:  19    -0.372655298745E+02   -0.13454E-03   -0.11298E-05   176   0.320E-02    0.114E-02
DAV:  20    -0.372656464072E+02   -0.11653E-03   -0.69811E-06   176   0.208E-02    0.865E-03
DAV:  21    -0.372657473352E+02   -0.10093E-03   -0.45919E-06   176   0.157E-02    0.673E-03
DAV:  22    -0.372658353047E+02   -0.87970E-04   -0.31105E-06   176   0.131E-02
   2 F= -.37265835E+02 E0= -.37250244E+02  d E =-.233087E+00  mag=     8.0082
       N       E                     dE             d eps       ncg     rms          rms(c)
DAV:   1    -0.372553012311E+02    0.10446E-01   -0.28233E+01   264   0.189E+01    0.164E+00
DAV:   2    -0.374203222104E+02   -0.16502E+00   -0.93537E-01   390   0.103E+01    0.794E+00
DAV:   3    -0.373064361562E+02    0.11389E+00   -0.81163E-01   324   0.118E+01    0.510E+00
DAV:   4    -0.373187037735E+02   -0.12268E-01   -0.28914E-01   374   0.745E+00    0.487E+00
DAV:   5    -0.372975202837E+02    0.21183E-01   -0.20157E-01   358   0.548E+00    0.195E+00
DAV:   6    -0.373058725174E+02   -0.83522E-02   -0.56604E-02   364   0.341E+00    0.240E+00
DAV:   7    -0.372970639606E+02    0.88086E-02   -0.45673E-02   364   0.254E+00    0.871E-01
DAV:   8    -0.373038915942E+02   -0.68276E-02   -0.15994E-02   392   0.197E+00    0.160E+00
DAV:   9    -0.372997047809E+02    0.41868E-02   -0.13408E-02   366   0.186E+00    0.811E-01
DAV:  10    -0.373026838786E+02   -0.29791E-02   -0.11998E-02   358   0.175E+00    0.124E+00
DAV:  11    -0.372991362950E+02    0.35476E-02   -0.11355E-02   388   0.160E+00    0.332E-01
DAV:  12    -0.373014128277E+02   -0.22765E-02   -0.12762E-03   308   0.429E-01    0.322E-01
DAV:  13    -0.373012574283E+02    0.15540E-03   -0.46874E-04   190   0.298E-01    0.862E-02
DAV:  14    -0.373014635415E+02   -0.20611E-03   -0.11383E-04   184   0.114E-01    0.462E-02
DAV:  15    -0.373016058270E+02   -0.14229E-03   -0.79645E-05   172   0.925E-02    0.400E-02
DAV:  16    -0.373016970235E+02   -0.91197E-04   -0.36465E-05   176   0.629E-02
   3 F= -.37301697E+02 E0= -.37285562E+02  d E =-.268949E+00  mag=     8.0085
       N       E                     dE             d eps       ncg     rms          rms(c)
DAV:   1    -0.373154024685E+02   -0.13797E-01   -0.21315E+01   264   0.167E+01    0.167E+00
DAV:   2    -0.375883697940E+02   -0.27297E+00   -0.11340E+00   390   0.130E+01    0.122E+01
DAV:   3    -0.373346845167E+02    0.25369E+00   -0.12204E+00   324   0.133E+01    0.414E+00
DAV:   4    -0.373732316012E+02   -0.38547E-01   -0.27210E-01   388   0.756E+00    0.503E+00
DAV:   5    -0.373492157751E+02    0.24016E-01   -0.20761E-01   352   0.569E+00    0.264E+00
DAV:   6    -0.373575189451E+02   -0.83032E-02   -0.80722E-02   356   0.376E+00    0.251E+00
DAV:   7    -0.373464713961E+02    0.11048E-01   -0.38309E-02   358   0.272E+00    0.567E-01
DAV:   8    -0.373529697429E+02   -0.64983E-02   -0.11685E-02   398   0.171E+00    0.109E+00
DAV:   9    -0.373514118725E+02    0.15579E-02   -0.90565E-03   374   0.150E+00    0.443E-01
DAV:  10    -0.373524757197E+02   -0.10638E-02   -0.31152E-03   382   0.703E-01    0.457E-01
DAV:  11    -0.373533948875E+02   -0.91917E-03   -0.68473E-03   360   0.122E+00    0.761E-01
DAV:  12    -0.373526106460E+02    0.78424E-03   -0.26784E-03   302   0.810E-01    0.161E-01
DAV:  13    -0.373531716910E+02   -0.56105E-03   -0.48362E-04   190   0.289E-01    0.153E-01
DAV:  14    -0.373533135257E+02   -0.14183E-03   -0.22910E-04   192   0.192E-01    0.770E-02
DAV:  15    -0.373534713545E+02   -0.15783E-03   -0.10216E-04   192   0.856E-02    0.655E-02
DAV:  16    -0.373535812490E+02   -0.10989E-03   -0.52233E-05   184   0.781E-02    0.185E-02
DAV:  17    -0.373536802671E+02   -0.99018E-04   -0.22239E-05   184   0.335E-02
   4 F= -.37353680E+02 E0= -.37337706E+02  d E =-.519832E-01  mag=     8.0092
       N       E                     dE             d eps       ncg     rms          rms(c)
DAV:   1    -0.373231178283E+02    0.30463E-01   -0.28312E+01   264   0.192E+01    0.191E+00
DAV:   2    -0.376537908034E+02   -0.33067E+00   -0.13853E+00   390   0.148E+01    0.132E+01
DAV:   3    -0.373645581943E+02    0.28923E+00   -0.15606E+00   324   0.151E+01    0.501E+00
DAV:   4    -0.373963974138E+02   -0.31839E-01   -0.33394E-01   396   0.867E+00    0.548E+00
DAV:   5    -0.373724952029E+02    0.23902E-01   -0.27487E-01   360   0.646E+00    0.309E+00
DAV:   6    -0.373784773721E+02   -0.59822E-02   -0.10073E-01   340   0.428E+00    0.267E+00
DAV:   7    -0.373662463630E+02    0.12231E-01   -0.44885E-02   342   0.303E+00    0.612E-01
DAV:   8    -0.373739993630E+02   -0.77530E-02   -0.15864E-02   390   0.195E+00    0.127E+00
DAV:   9    -0.373714392812E+02    0.25601E-02   -0.13901E-02   372   0.182E+00    0.513E-01
DAV:  10    -0.373723661883E+02   -0.92691E-03   -0.37723E-03   382   0.630E-01    0.276E-01
DAV:  11    -0.373734926121E+02   -0.11264E-02   -0.14699E-03   296   0.506E-01    0.319E-01
DAV:  12    -0.373735932320E+02   -0.10062E-03   -0.19937E-03   304   0.690E-01    0.375E-01
DAV:  13    -0.373735335894E+02    0.59643E-04   -0.77488E-04   238   0.497E-01
   5 F= -.37373534E+02 E0= -.37358599E+02  d E =-.718366E-01  mag=     8.0103
       N       E                     dE             d eps       ncg     rms          rms(c)
DAV:   1    -0.373711601667E+02    0.24331E-02   -0.98381E+00   264   0.110E+01    0.129E+00
DAV:   2    -0.375773296082E+02   -0.20617E+00   -0.89923E-01   364   0.120E+01    0.885E+00
DAV:   3    -0.373744108672E+02    0.20292E+00   -0.52902E-01   332   0.116E+01    0.364E+00
DAV:   4    -0.373835150091E+02   -0.91041E-02   -0.15995E-01   396   0.523E+00    0.193E+00
DAV:   5    -0.373886088921E+02   -0.50939E-02   -0.56086E-02   366   0.344E+00    0.160E+00
DAV:   6    -0.373894313486E+02   -0.82246E-03   -0.41249E-02   342   0.264E+00    0.147E+00
DAV:   7    -0.373858512832E+02    0.35801E-02   -0.17496E-02   340   0.182E+00    0.639E-01
DAV:   8    -0.373865866359E+02   -0.73535E-03   -0.41633E-03   372   0.104E+00    0.494E-01
DAV:   9    -0.373872415725E+02   -0.65494E-03   -0.31095E-03   380   0.763E-01    0.379E-01
DAV:  10    -0.373881076116E+02   -0.86604E-03   -0.43046E-03   364   0.108E+00    0.642E-01
DAV:  11    -0.373871025741E+02    0.10050E-02   -0.29515E-03   332   0.792E-01    0.110E-01
DAV:  12    -0.373880047127E+02   -0.90214E-03   -0.54962E-04   196   0.220E-01    0.142E-01
DAV:  13    -0.373880733900E+02   -0.68677E-04   -0.16139E-04   184   0.192E-01
   6 F= -.37388073E+02 E0= -.37374928E+02  d E =-.145398E-01  mag=     8.0111
       N       E                     dE             d eps       ncg     rms          rms(c)
DAV:   1    -0.373857004557E+02    0.23043E-02   -0.23654E+00   264   0.538E+00    0.586E-01
DAV:   2    -0.374272322799E+02   -0.41532E-01   -0.17908E-01   396   0.517E+00    0.440E+00
DAV:   3    -0.373817865396E+02    0.45446E-01   -0.12188E-01   332   0.518E+00    0.166E+00
DAV:   4    -0.373886342211E+02   -0.68477E-02   -0.35880E-02   380   0.247E+00    0.100E+00
DAV:   5    -0.373894686285E+02   -0.83441E-03   -0.13517E-02   350   0.166E+00    0.704E-01
DAV:   6    -0.373899890346E+02   -0.52041E-03   -0.90398E-03   348   0.123E+00    0.748E-01
DAV:   7    -0.373889581197E+02    0.10309E-02   -0.41184E-03   308   0.885E-01    0.264E-01
DAV:   8    -0.373894237048E+02   -0.46559E-03   -0.87653E-04   250   0.517E-01    0.287E-01
DAV:   9    -0.373895359694E+02   -0.11226E-03   -0.69619E-04   204   0.399E-01    0.164E-01
DAV:  10    -0.373899385589E+02   -0.40259E-03   -0.93429E-04   228   0.514E-01    0.343E-01
DAV:  11    -0.373896116732E+02    0.32689E-03   -0.77666E-04   200   0.452E-01    0.580E-02
DAV:  12    -0.373899627046E+02   -0.35103E-03   -0.16052E-04   170   0.108E-01    0.739E-02
DAV:  13    -0.373900065976E+02   -0.43893E-04   -0.59641E-05   176   0.941E-02
   7 F= -.37390007E+02 E0= -.37377942E+02  d E =-.164730E-01  mag=     8.0117
       N       E                     dE             d eps       ncg     rms          rms(c)
DAV:   1    -0.373903123597E+02   -0.34966E-03   -0.29152E+00   264   0.613E+00    0.736E-01
DAV:   2    -0.374597638694E+02   -0.69452E-01   -0.25576E-01   382   0.697E+00    0.598E+00
DAV:   3    -0.373766813317E+02    0.83083E-01   -0.20764E-01   364   0.678E+00    0.138E+00
DAV:   4    -0.373946792638E+02   -0.17998E-01   -0.39216E-02   386   0.269E+00    0.134E+00
DAV:   5    -0.373946010590E+02    0.78205E-04   -0.18914E-02   342   0.205E+00    0.951E-01
DAV:   6    -0.373949818369E+02   -0.38078E-03   -0.10992E-02   348   0.148E+00    0.867E-01
DAV:   7    -0.373939214662E+02    0.10604E-02   -0.61091E-03   316   0.101E+00    0.341E-01
DAV:   8    -0.373943311084E+02   -0.40964E-03   -0.11950E-03   278   0.574E-01    0.236E-01
DAV:   9    -0.373947337917E+02   -0.40268E-03   -0.68814E-04   192   0.363E-01    0.224E-01
DAV:  10    -0.373948624380E+02   -0.12865E-03   -0.86986E-04   232   0.476E-01    0.304E-01
DAV:  11    -0.373947642625E+02    0.98175E-04   -0.68705E-04   200   0.391E-01
   8 F= -.37394764E+02 E0= -.37384090E+02  d E =-.475766E-02  mag=     8.0121
       N       E                     dE             d eps       ncg     rms          rms(c)
DAV:   1    -0.373864861249E+02    0.83763E-02   -0.74210E+00   264   0.979E+00    0.123E+00
DAV:   2    -0.375826100869E+02   -0.19612E+00   -0.73621E-01   366   0.120E+01    0.944E+00
DAV:   3    -0.373619185966E+02    0.22069E+00   -0.53922E-01   348   0.116E+01    0.186E+00
DAV:   4    -0.373974295212E+02   -0.35511E-01   -0.92707E-02   394   0.425E+00    0.182E+00
DAV:   5    -0.373983597221E+02   -0.93020E-03   -0.46679E-02   360   0.312E+00    0.130E+00
DAV:   6    -0.373981756413E+02    0.18408E-03   -0.17196E-02   332   0.213E+00    0.123E+00
DAV:   7    -0.373960931094E+02    0.20825E-02   -0.11627E-02   340   0.149E+00    0.542E-01
DAV:   8    -0.373968763007E+02   -0.78319E-03   -0.40544E-03   374   0.863E-01    0.458E-01
DAV:   9    -0.373974927690E+02   -0.61647E-03   -0.26055E-03   336   0.657E-01    0.390E-01
DAV:  10    -0.373976173361E+02   -0.12457E-03   -0.23600E-03   312   0.770E-01    0.422E-01
DAV:  11    -0.373975207313E+02    0.96605E-04   -0.15379E-03   280   0.528E-01    0.920E-02
DAV:  12    -0.373979898433E+02   -0.46911E-03   -0.29554E-04   192   0.192E-01    0.163E-01
DAV:  13    -0.373979620319E+02    0.27811E-04   -0.24356E-04   184   0.219E-01
   9 F= -.37397962E+02 E0= -.37389463E+02  d E =-.795543E-02  mag=     8.0127
       N       E                     dE             d eps       ncg     rms          rms(c)
DAV:   1    -0.373949939089E+02    0.29959E-02   -0.36424E+00   264   0.681E+00    0.727E-01
DAV:   2    -0.374580042648E+02   -0.63010E-01   -0.22824E-01   390   0.652E+00    0.581E+00
DAV:   3    -0.373816011751E+02    0.76403E-01   -0.18504E-01   364   0.651E+00    0.927E-01
DAV:   4    -0.374054520530E+02   -0.23851E-01   -0.46363E-02   388   0.271E+00    0.207E+00
DAV:   5    -0.373979131596E+02    0.75389E-02   -0.25962E-02   366   0.227E+00    0.678E-01
DAV:   6    -0.374003499700E+02   -0.24368E-02   -0.66315E-03   366   0.122E+00    0.628E-01
DAV:   7    -0.374002284666E+02    0.12150E-03   -0.45045E-03   358   0.866E-01    0.429E-01
DAV:   8    -0.374002632320E+02   -0.34765E-04   -0.16116E-03   280   0.654E-01    0.262E-01
DAV:   9    -0.374006081231E+02   -0.34489E-03   -0.12437E-03   272   0.507E-01    0.277E-01
DAV:  10    -0.374006028584E+02    0.52647E-05   -0.10920E-03   254   0.513E-01    0.286E-01
DAV:  11    -0.374005378185E+02    0.65040E-04   -0.73688E-04   216   0.445E-01
  10 F= -.37400538E+02 E0= -.37393694E+02  d E =-.257579E-02  mag=     8.0129
       N       E                     dE             d eps       ncg     rms          rms(c)
DAV:   1    -0.374005433118E+02    0.59547E-04   -0.30467E-01   268   0.198E+00    0.298E-01
DAV:   2    -0.374158791412E+02   -0.15336E-01   -0.50241E-02   398   0.305E+00    0.306E+00
DAV:   3    -0.373944977953E+02    0.21381E-01   -0.46007E-02   366   0.299E+00    0.612E-01
DAV:   4    -0.374002504592E+02   -0.57527E-02   -0.58836E-03   370   0.104E+00    0.406E-01
DAV:   5    -0.374008778050E+02   -0.62735E-03   -0.20666E-03   326   0.611E-01    0.332E-01
DAV:   6    -0.374007603800E+02    0.11742E-03   -0.11129E-03   240   0.469E-01    0.151E-01
DAV:   7    -0.374009200114E+02   -0.15963E-03   -0.35740E-04   166   0.292E-01    0.171E-01
DAV:   8    -0.374008852989E+02    0.34713E-04   -0.19346E-04   168   0.260E-01
  11 F= -.37400885E+02 E0= -.37394409E+02  d E =-.292327E-02  mag=     8.0130
       N       E                     dE             d eps       ncg     rms          rms(c)
DAV:   1    -0.374001787884E+02    0.74122E-03   -0.87057E-01   268   0.338E+00    0.306E-01
DAV:   2    -0.374049506718E+02   -0.47719E-02   -0.23203E-02   398   0.203E+00    0.151E+00
DAV:   3    -0.373998153978E+02    0.51353E-02   -0.14783E-02   316   0.228E+00    0.461E-01
DAV:   4    -0.374020982463E+02   -0.22828E-02   -0.51553E-03   384   0.101E+00    0.628E-01
DAV:   5    -0.374014277539E+02    0.67049E-03   -0.50741E-03   318   0.885E-01    0.476E-01
DAV:   6    -0.374013569004E+02    0.70854E-04   -0.18234E-03   262   0.553E-01    0.216E-01
DAV:   7    -0.374015004465E+02   -0.14355E-03   -0.50787E-04   208   0.356E-01    0.158E-01
DAV:   8    -0.374017033664E+02   -0.20292E-03   -0.54235E-04   176   0.332E-01    0.242E-01
DAV:   9    -0.374016391664E+02    0.64200E-04   -0.49542E-04   184   0.341E-01
  12 F= -.37401639E+02 E0= -.37395876E+02  d E =-.753868E-03  mag=     8.0131
       N       E                     dE             d eps       ncg     rms          rms(c)
DAV:   1    -0.374017882007E+02   -0.84834E-04   -0.46815E-03   326   0.348E-01    0.152E-01
DAV:   2    -0.374058038055E+02   -0.40156E-02   -0.12647E-02   336   0.184E+00    0.136E+00
DAV:   3    -0.374007050523E+02    0.50988E-02   -0.97524E-03   326   0.168E+00    0.358E-01
DAV:   4    -0.374014966310E+02   -0.79158E-03   -0.91795E-04   250   0.369E-01    0.552E-02
DAV:   5    -0.374018244006E+02   -0.32777E-03   -0.13997E-04   172   0.177E-01    0.105E-01
DAV:   6    -0.374018133772E+02    0.11023E-04   -0.99595E-05   184   0.155E-01
  13 F= -.37401813E+02 E0= -.37396174E+02  d E =-.928078E-03  mag=     8.0132
