 vasp.6.1.2 22Jul20 (build Aug  2 2021 21:04:21) gamma-only                      
 executed on             LinuxPGI date 2021.12.22  06:58:35
 running on   16 total cores
 distrk:  each k-point on   16 cores,    1 groups
 distr:  one band on NCORE=   8 cores,    2 groups


--------------------------------------------------------------------------------------------------------


 INCAR:
 POTCAR:    PAW_PBE Ni 02Aug2007                  
 POTCAR:    PAW_PBE Pd 04Jan2005                  
 -----------------------------------------------------------------------------
|                                                                             |
|           W    W    AA    RRRRR   N    N  II  N    N   GGGG   !!!           |
|           W    W   A  A   R    R  NN   N  II  NN   N  G    G  !!!           |
|           W    W  A    A  R    R  N N  N  II  N N  N  G       !!!           |
|           W WW W  AAAAAA  RRRRR   N  N N  II  N  N N  G  GGG   !            |
|           WW  WW  A    A  R   R   N   NN  II  N   NN  G    G                |
|           W    W  A    A  R    R  N    N  II  N    N   GGGG   !!!           |
|                                                                             |
|     You use a magnetic or noncollinear calculation, but did not specify     |
|     the initial magnetic moment with the MAGMOM tag. Note that a            |
|     default of 1 will be used for all atoms. This ferromagnetic setup       |
|     may break the symmetry of the crystal, in particular it may rule        |
|     out finding an antiferromagnetic solution. Thence, we recommend         |
|     setting the initial magnetic moment manually or verifying carefully     |
|     that this magnetic setup is desired.                                    |
|                                                                             |
 -----------------------------------------------------------------------------

 POTCAR:    PAW_PBE Ni 02Aug2007                  
   SHA256 =  0534bc51ca8003dfef23f56753fef9fdd3e22eac8d719fccacb59f3e6b7a69c7 Ni/POTCAR             
   COPYR  = (c) Copyright 02Aug2007 Georg Kresse                                                    
   COPYR  = This file is part of the software VASP. Any use, copying, and all other rights are regul
   COPYR  = If you do not have a valid VASP license, you may not use, copy or distribute this file. 
   VRHFIN =Ni:                                                                                      
   LEXCH  = PE                                                                                      
   EATOM  =  1077.6739 eV,   79.2068 Ry                                                             
                                                                                                    
   TITEL  = PAW_PBE Ni 02Aug2007                                                                    
   LULTRA =        F    use ultrasoft PP ?                                                          
   IUNSCR =        1    unscreen: 0-lin 1-nonlin 2-no                                               
   RPACOR =    2.000    partial core radius                                                         
   POMASS =   58.690; ZVAL   =   10.000    mass and valenz                                          
   RCORE  =    2.300    outmost cutoff radius                                                       
   RWIGS  =    2.430; RWIGS  =    1.286    wigner-seitz radius (au A)                               
   ENMAX  =  269.532; ENMIN  =  202.149 eV                                                          
   RCLOC  =    1.201    cutoff for local pot                                                        
   LCOR   =        T    correct aug charges                                                         
   LPAW   =        T    paw PP                                                                      
   EAUG   =  544.565                                                                                
   DEXC   =    0.000                                                                                
   RMAX   =    2.357    core radius for proj-oper                                                   
   RAUG   =    1.300    factor for augmentation sphere                                              
   RDEP   =    2.390    radius for radial grids                                                     
   RDEPT  =    1.838    core radius for aug-charge                                                  
                                                                                                    
   Atomic configuration                                                                             
    9 entries                                                                                       
     n  l   j            E        occ.                                                              
     1  0  0.50     -8206.4253   2.0000                                                             
     2  0  0.50      -976.1748   2.0000                                                             
     2  1  1.50      -839.0571   6.0000                                                             
     3  0  0.50      -105.9991   2.0000                                                             
     3  1  1.50       -66.4603   6.0000                                                             
     3  2  2.50        -4.6458   9.0000                                                             
     4  0  0.50        -4.4926   1.0000                                                             
     4  1  1.50        -4.0817   0.0000                                                             
     4  3  2.50        -1.3606   0.0000                                                             
   Description                                                                                      
     l       E           TYP  RCUT    TYP  RCUT                                                     
     2     -4.6457903     23  2.300                                                                 
     2     -6.0063729     23  2.300                                                                 
     0     -4.4925590     23  2.300                                                                 
     0      5.0102601     23  2.300                                                                 
     1     -2.7211652     23  2.300                                                                 
     1     16.5183231     23  2.300                                                                 
  local pseudopotential read in
  partial core-charges read in
  partial kinetic energy density read in
  atomic valenz-charges read in
  non local Contribution for L=            2  read in
    real space projection operators read in
  non local Contribution for L=            2  read in
    real space projection operators read in
  non local Contribution for L=            0  read in
    real space projection operators read in
  non local Contribution for L=            0  read in
    real space projection operators read in
  non local Contribution for L=            1  read in
    real space projection operators read in
  non local Contribution for L=            1  read in
    real space projection operators read in
    PAW grid and wavefunctions read in
 
   number of l-projection  operators is LMAX  =            6
   number of lm-projection operators is LMMAX =           18
 
 POTCAR:    PAW_PBE Pd 04Jan2005                  
   SHA256 =  dd6f6f02930356371984e2b707ff5e456046761dc76b07c1eba30abd15eb3c39 Pd/POTCAR             
   COPYR  = (c) Copyright 04Jan2005 Georg Kresse                                                    
   COPYR  = This file is part of the software VASP. Any use, copying, and all other rights are regul
   COPYR  = If you do not have a valid VASP license, you may not use, copy or distribute this file. 
   VRHFIN =Pd : s1 d9                                                                               
   LEXCH  = PE                                                                                      
   EATOM  =   809.7530 eV,   59.5152 Ry                                                             
                                                                                                    
   TITEL  = PAW_PBE Pd 04Jan2005                                                                    
   LULTRA =        F    use ultrasoft PP ?                                                          
   IUNSCR =        1    unscreen: 0-lin 1-nonlin 2-no                                               
   RPACOR =    2.000    partial core radius                                                         
   POMASS =  106.420; ZVAL   =   10.000    mass and valenz                                          
   RCORE  =    2.600    outmost cutoff radius                                                       
   RWIGS  =    2.710; RWIGS  =    1.434    wigner-seitz radius (au A)                               
   ENMAX  =  250.925; ENMIN  =  188.194 eV                                                          
   ICORE  =        3    local potential                                                             
   LCOR   =        T    correct aug charges                                                         
   LPAW   =        T    paw PP                                                                      
   EAUG   =  416.230                                                                                
   DEXC   =    0.000                                                                                
   RMAX   =    2.653    core radius for proj-oper                                                   
   RAUG   =    1.300    factor for augmentation sphere                                              
   RDEP   =    2.734    radius for radial grids                                                     
   RDEPT  =    2.103    core radius for aug-charge                                                  
                                                                                                    
   Atomic configuration                                                                             
   12 entries                                                                                       
     n  l   j            E        occ.                                                              
     1  0  0.50    -24164.6631   2.0000                                                             
     2  0  0.50     -3530.9218   2.0000                                                             
     2  1  1.50     -3165.6822   6.0000                                                             
     3  0  0.50      -639.4577   2.0000                                                             
     3  1  1.50      -519.4532   6.0000                                                             
     3  2  2.50      -328.9757  10.0000                                                             
     4  0  0.50       -88.7014   2.0000                                                             
     4  1  1.50       -54.4540   6.0000                                                             
     4  2  2.50        -6.6878   9.0000                                                             
     5  0  0.50        -4.3543   1.0000                                                             
     5  1  0.50        -1.3606   0.0000                                                             
     4  3  2.50        -1.3606   0.0000                                                             
   Description                                                                                      
     l       E           TYP  RCUT    TYP  RCUT                                                     
     2     -6.6878251     23  2.400                                                                 
     2     -8.0484077     23  2.400                                                                 
     0     -4.3542939     23  2.400                                                                 
     0      4.3406793     23  2.400                                                                 
     1     -4.0817478     23  2.600                                                                 
     1     15.8380318     23  2.600                                                                 
     3     -4.0817478     23  2.400                                                                 
  local pseudopotential read in
  partial core-charges read in
  partial kinetic energy density read in
  atomic valenz-charges read in
  non local Contribution for L=            2  read in
    real space projection operators read in
  non local Contribution for L=            2  read in
    real space projection operators read in
  non local Contribution for L=            0  read in
    real space projection operators read in
  non local Contribution for L=            0  read in
    real space projection operators read in
  non local Contribution for L=            1  read in
    real space projection operators read in
  non local Contribution for L=            1  read in
    real space projection operators read in
    PAW grid and wavefunctions read in
 
   number of l-projection  operators is LMAX  =            6
   number of lm-projection operators is LMMAX =           18
 
  PAW_PBE Ni 02Aug2007                  :
 energy of atom  1       EATOM=-1077.6739
 kinetic energy error for atom=    0.0101 (will be added to EATOM!!)
  PAW_PBE Pd 04Jan2005                  :
 energy of atom  2       EATOM= -809.7530
 kinetic energy error for atom=    0.0091 (will be added to EATOM!!)
 
 
 POSCAR: Ni Pd
  positions in cartesian coordinates
  No initial velocities read in
 exchange correlation table for  LEXCH =        8
   RHO(1)=    0.500       N(1)  =     2000
   RHO(2)=  100.500       N(2)  =     4000
 


--------------------------------------------------------------------------------------------------------


 ion  position               nearest neighbor table
   1  0.497  0.475  0.563-   4 2.42   3 2.44   2 2.45   9 2.48   7 2.51
   2  0.516  0.431  0.472-   4 2.44   1 2.45   7 2.49   8 2.51
   3  0.517  0.581  0.562-   5 2.44   1 2.44   9 2.48  10 2.50   7 2.50
   4  0.429  0.488  0.488-   6 2.41   1 2.42   2 2.44   5 2.46   9 2.48   8 2.54
   5  0.449  0.594  0.487-   6 2.42   3 2.44   4 2.46   9 2.49  10 2.50   8 2.54
   6  0.403  0.547  0.409-   4 2.41   5 2.42   8 2.46
   7  0.578  0.514  0.504-   2 2.49   3 2.50   1 2.51  10 2.56   8 2.59
   8  0.506  0.527  0.423-   6 2.46   2 2.51   4 2.54   5 2.54  10 2.58   7 2.59
   9  0.417  0.546  0.574-   4 2.48   1 2.48   3 2.48   5 2.49
  10  0.552  0.617  0.470-   3 2.50   5 2.50   7 2.56   8 2.58
 

IMPORTANT INFORMATION: All symmetrisations will be switched off!
NOSYMM: (Re-)initialisation of all symmetry stuff for point group C_1.


----------------------------------------------------------------------------------------

                                     Primitive cell                                     

  volume of cell :   12805.3053

  direct lattice vectors                    reciprocal lattice vectors
    23.250204164  0.000000000  0.000000000     0.043010375  0.000000000  0.000000000
     0.000000000 22.765437008  0.000000000     0.000000000  0.043926238  0.000000000
     0.000000000  0.000000000 24.192857944     0.000000000  0.000000000  0.041334513

  length of vectors
    23.250204164 22.765437008 24.192857944     0.043010375  0.043926238  0.041334513

  position of ions in fractional coordinates (direct lattice)
     0.497123226  0.475478717  0.562534759
     0.515697130  0.430771962  0.472162500
     0.517329652  0.580825011  0.561690234
     0.428670387  0.488119519  0.487861470
     0.448516422  0.594285425  0.486746729
     0.402778648  0.546933649  0.408636334
     0.577604945  0.513687898  0.503764147
     0.505762276  0.527177499  0.423161186
     0.416747566  0.546280810  0.573846930
     0.552254972  0.617281275  0.470262953

  ion indices of the primitive-cell ions
   primitive index   ion index
                 1           1
                 2           2
                 3           3
                 4           4
                 5           5
                 6           6
                 7           7
                 8           8
                 9           9
                10          10

----------------------------------------------------------------------------------------

 
 
 KPOINTS: KPOINTS created by Atomic Simulation Env

Automatic generation of k-mesh.
Space group operators:
 irot       det(A)        alpha          n_x          n_y          n_z        tau_x        tau_y        tau_z
    1     1.000000     0.000001     1.000000     0.000000     0.000000     0.000000     0.000000     0.000000
 
 Subroutine IBZKPT returns following result:
 ===========================================
 
 Found      1 irreducible k-points:
 
 Following reciprocal coordinates:
            Coordinates               Weight
  0.000000  0.000000  0.000000      1.000000
 
 Following cartesian coordinates:
            Coordinates               Weight
  0.000000  0.000000  0.000000      1.000000
 


--------------------------------------------------------------------------------------------------------




 Dimension of arrays:
   k-points           NKPTS =      1   k-points in BZ     NKDIM =      1   number of bands    NBANDS=     66
   number of dos      NEDOS =    301   number of ions     NIONS =     10
   non local maximal  LDIM  =      6   non local SUM 2l+1 LMDIM =     18
   total plane-waves  NPLWV = ******
   max r-space proj   IRMAX =      1   max aug-charges    IRDMAX=   6308
   dimension x,y,z NGX =   120 NGY =  112 NGZ =  120
   dimension x,y,z NGXF=   240 NGYF=  224 NGZF=  240
   support grid    NGXF=   240 NGYF=  224 NGZF=  240
   ions per type =               6   4
   NGX,Y,Z   is equivalent  to a cutoff of   8.58,  8.18,  8.25 a.u.
   NGXF,Y,Z  is equivalent  to a cutoff of  17.16, 16.36, 16.49 a.u.

 SYSTEM =  unknown system                          
 POSCAR =  Ni Pd                                   

 Startparameter for this run:
   NWRITE =      2    write-flag & timer
   PREC   = normal    normal or accurate (medium, high low for compatibility)
   ISTART =      0    job   : 0-new  1-cont  2-samecut
   ICHARG =      2    charge: 1-file 2-atom 10-const
   ISPIN  =      2    spin polarized calculation?
   LNONCOLLINEAR =      F non collinear calculations
   LSORBIT =      F    spin-orbit coupling
   INIWAV =      1    electr: 0-lowe 1-rand  2-diag
   LASPH  =      F    aspherical Exc in radial PAW
   METAGGA=      F    non-selfconsistent MetaGGA calc.

 Electronic Relaxation 1
   ENCUT  =  400.0 eV  29.40 Ry    5.42 a.u.  37.92 37.12 39.45*2*pi/ulx,y,z
   ENINI  =  400.0     initial cutoff
   ENAUG  =  544.6 eV  augmentation charge cutoff
   NELM   =     60;   NELMIN=  2; NELMDL=  0     # of ELM steps 
   EDIFF  = 0.1E-03   stopping-criterion for ELM
   LREAL  =      F    real-space projection
   NLSPLINE    = F    spline interpolate recip. space projectors
   LCOMPAT=      F    compatible to vasp.4.4
   GGA_COMPAT  = T    GGA compatible to vasp.4.4-vasp.4.6
   LMAXPAW     = -100 max onsite density
   LMAXMIX     =    2 max onsite mixed and CHGCAR
   VOSKOWN=      0    Vosko Wilk Nusair interpolation
   ROPT   =    0.00000   0.00000
 Ionic relaxation
   EDIFFG = 0.1E-02   stopping-criterion for IOM
   NSW    =   1000    number of steps for IOM
   NBLOCK =      1;   KBLOCK =   1000    inner block; outer block 
   IBRION =      2    ionic relax: 0-MD 1-quasi-New 2-CG
   NFREE  =      1    steps in history (QN), initial steepest desc. (CG)
   ISIF   =      0    stress and relaxation
   IWAVPR =     11    prediction:  0-non 1-charg 2-wave 3-comb
   ISYM   =      0    0-nonsym 1-usesym 2-fastsym
   LCORR  =      T    Harris-Foulkes like correction to forces

   POTIM  = 0.5000    time-step for ionic-motion
   TEIN   =    0.0    initial temperature
   TEBEG  =    0.0;   TEEND  =   0.0 temperature during run
   SMASS  =  -3.00    Nose mass-parameter (am)
   estimated Nose-frequenzy (Omega)   =  0.10E-29 period in steps = 0.13E+47 mass=  -0.124E-25a.u.
   SCALEE = 1.0000    scale energy and forces
   NPACO  =    256;   APACO  = 16.0  distance and # of slots for P.C.
   PSTRESS=    0.0 pullay stress

  Mass of Ions in am
   POMASS =  58.69106.42
  Ionic Valenz
   ZVAL   =  10.00 10.00
  Atomic Wigner-Seitz radii
   RWIGS  =  -1.00 -1.00
  virtual crystal weights 
   VCA    =   1.00  1.00
   NELECT =     100.0000    total number of electrons
   NUPDOWN=      -1.0000    fix difference up-down

 DOS related values:
   EMIN   =  10.00;   EMAX   =-10.00  energy-range for DOS
   EFERMI =   0.00
   ISMEAR =     1;   SIGMA  =   0.20  broadening in eV -4-tet -1-fermi 0-gaus

 Electronic relaxation 2 (details)
   IALGO  =     38    algorithm
   LDIAG  =      T    sub-space diagonalisation (order eigenvalues)
   LSUBROT=      F    optimize rotation matrix (better conditioning)
   TURBO    =      0    0=normal 1=particle mesh
   IRESTART =      0    0=no restart 2=restart with 2 vectors
   NREBOOT  =      0    no. of reboots
   NMIN     =      0    reboot dimension
   EREF     =   0.00    reference energy to select bands
   IMIX   =      4    mixing-type and parameters
     AMIX     =   0.40;   BMIX     =  1.00
     AMIX_MAG =   1.60;   BMIX_MAG =  1.00
     AMIN     =   0.10
     WC   =   100.;   INIMIX=   1;  MIXPRE=   1;  MAXMIX= -45

 Intra band minimization:
   WEIMIN = 0.0010     energy-eigenvalue tresh-hold
   EBREAK =  0.38E-06  absolut break condition
   DEPER  =   0.30     relativ break condition  

   TIME   =   0.40     timestep for ELM

  volume/ion in A,a.u.               =    1280.53      8641.45
  Fermi-wavevector in a.u.,A,eV,Ry     =   0.324797  0.613777  1.435317  0.105493
  Thomas-Fermi vector in A             =   1.215233
 
 Write flags
   LWAVE        =      F    write WAVECAR
   LDOWNSAMPLE  =      F    k-point downsampling of WAVECAR
   LCHARG       =      F    write CHGCAR
   LVTOT        =      F    write LOCPOT, total local potential
   LVHAR        =      F    write LOCPOT, Hartree potential only
   LELF         =      F    write electronic localiz. function (ELF)
   LORBIT       =      0    0 simple, 1 ext, 2 COOP (PROOUT), +10 PAW based schemes


 Dipole corrections
   LMONO  =      F    monopole corrections only (constant potential shift)
   LDIPOL =      F    correct potential (dipole corrections)
   IDIPOL =      0    1-x, 2-y, 3-z, 4-all directions 
   EPSILON=  1.0000000 bulk dielectric constant

 Exchange correlation treatment:
   GGA     =    PE    GGA type
   LEXCH   =     8    internal setting for exchange type
   VOSKOWN=      0    Vosko Wilk Nusair interpolation
   LHFCALC =     F    Hartree Fock is set to
   LHFONE  =     F    Hartree Fock one center treatment
   AEXX    =    0.0000 exact exchange contribution

 Linear response parameters
   LEPSILON=     F    determine dielectric tensor
   LRPA    =     F    only Hartree local field effects (RPA)
   LNABLA  =     F    use nabla operator in PAW spheres
   LVEL    =     F    velocity operator in full k-point grid
   LINTERFAST=   F  fast interpolation
   KINTER  =     0    interpolate to denser k-point grid
   CSHIFT  =0.1000    complex shift for real part using Kramers Kronig
   OMEGAMAX=  -1.0    maximum frequency
   DEG_THRESHOLD= 0.2000000E-02 threshold for treating states as degnerate
   RTIME   =   -0.100 relaxation time in fs
  (WPLASMAI=    0.000 imaginary part of plasma frequency in eV, 0.658/RTIME)
   DFIELD  = 0.0000000 0.0000000 0.0000000 field for delta impulse in time
 
 Orbital magnetization related:
   ORBITALMAG=     F  switch on orbital magnetization
   LCHIMAG   =     F  perturbation theory with respect to B field
   DQ        =  0.001000  dq finite difference perturbation B field
   LLRAUG    =     F  two centre corrections for induced B field



--------------------------------------------------------------------------------------------------------


 conjugate gradient relaxation of ions
 charge density and potential will be updated during run
 spin polarized calculation
 Variant of blocked Davidson
 Davidson routine will perform the subspace rotation
 perform sub-space diagonalisation
    after iterative eigenvector-optimisation
 modified Broyden-mixing scheme, WC =      100.0
 initial mixing is a Kerker type mixing with AMIX =  0.4000 and BMIX =      1.0000
 Hartree-type preconditioning will be used
 using additional bands            16
 reciprocal scheme for non local part
 use partial core corrections
 calculate Harris-corrections to forces 
   (improved forces if not selfconsistent)
 use gradient corrections 
 use of overlap-Matrix (Vanderbilt PP)
 Methfessel and Paxton  Order N= 1 SIGMA  =   0.20


--------------------------------------------------------------------------------------------------------


  energy-cutoff  :      400.00
  volume of cell :    12805.31
      direct lattice vectors                 reciprocal lattice vectors
    23.250204164  0.000000000  0.000000000     0.043010375  0.000000000  0.000000000
     0.000000000 22.765437008  0.000000000     0.000000000  0.043926238  0.000000000
     0.000000000  0.000000000 24.192857944     0.000000000  0.000000000  0.041334513

  length of vectors
    23.250204164 22.765437008 24.192857944     0.043010375  0.043926238  0.041334513


 
 k-points in units of 2pi/SCALE and weight: KPOINTS created by Atomic Simulation Env
   0.00000000  0.00000000  0.00000000       1.000
 
 k-points in reciprocal lattice and weights: KPOINTS created by Atomic Simulation Env
   0.00000000  0.00000000  0.00000000       1.000
 
 position of ions in fractional coordinates (direct lattice) 
   0.49712323  0.47547872  0.56253476
   0.51569713  0.43077196  0.47216250
   0.51732965  0.58082501  0.56169023
   0.42867039  0.48811952  0.48786147
   0.44851642  0.59428542  0.48674673
   0.40277865  0.54693365  0.40863633
   0.57760495  0.51368790  0.50376415
   0.50576228  0.52717750  0.42316119
   0.41674757  0.54628081  0.57384693
   0.55225497  0.61728128  0.47026295
 
 position of ions in cartesian coordinates  (Angst):
  11.55821650 10.82448078 13.60932351
  11.99006355  9.80671197 11.42296030
  12.02802003 13.22273520 13.58889203
   9.96667403 11.11225417 11.80276324
  10.42809837 13.52916740 11.77579448
   9.36468581 12.45118353  9.88608077
  13.42943290 11.69432948 12.18749445
  11.75907618 12.00142615 10.23747846
   9.68946599 12.43632137 13.88299727
  12.84004086 14.05267799 11.37700482
 


--------------------------------------------------------------------------------------------------------


 use parallel FFT for orbitals z direction half grid
 k-point   1 :   0.0000 0.0000 0.0000  plane waves:  116298

 maximum and minimum number of plane-waves per node :     14547    14528

 maximum number of plane-waves:    116298
 maximum index in each direction: 
   IXMAX=   37   IYMAX=   37   IZMAX=   39
   IXMIN=  -37   IYMIN=  -37   IZMIN=    0


 parallel 3D FFT for wavefunctions:
    minimum data exchange during FFTs selected (reduces bandwidth)
 parallel 3D FFT for charge:
    minimum data exchange during FFTs selected (reduces bandwidth)


 total amount of memory used by VASP MPI-rank0   164702. kBytes
=======================================================================

   base      :      30000. kBytes
   nonl-proj :       6517. kBytes
   fftplans  :      31650. kBytes
   grid      :      81123. kBytes
   one-center:         31. kBytes
   wavefun   :      15381. kBytes
 
     INWAV:  cpu time    0.0000: real time    0.0000
 Broyden mixing: mesh for mixing (old mesh)
   NGX = 75   NGY = 75   NGZ = 79
  (NGX  =240   NGY  =224   NGZ  =240)
  gives a total of 444375 points

 initial charge density was supplied:
 charge density of overlapping atoms calculated
 number of electron     100.0000000 magnetization      10.0000000
 keeping initial charge density in first step


--------------------------------------------------------------------------------------------------------


 Maximum index for augmentation-charges           391 (set IRDMAX)


--------------------------------------------------------------------------------------------------------


 First call to EWALD:  gamma=   0.076
 Maximum number of real-space cells 3x 3x 3
 Maximum number of reciprocal cells 3x 3x 3

    FEWALD:  cpu time    0.0012: real time    0.0012


--------------------------------------- Iteration      1(   1)  ---------------------------------------


    POTLOK:  cpu time    2.2511: real time    2.2909
    SETDIJ:  cpu time    0.0244: real time    0.0246
     EDDAV:  cpu time    7.8161: real time    7.9188
       DOS:  cpu time    0.0035: real time    0.0035
    --------------------------------------------
      LOOP:  cpu time   10.0951: real time   10.2377

 eigenvalue-minimisations  :   264
 total energy-change (2. order) : 0.7259029E+03  (-0.1552043E+04)
 number of electron     100.0000000 magnetization      10.0000000
 augmentation part      100.0000000 magnetization      10.0000000

 Free energy of the ion-electron system (eV)
  ---------------------------------------------------
  alpha Z        PSCENC =         4.42548844
  Ewald energy   TEWEN  =     12833.51701181
  -Hartree energ DENC   =    -21815.71909959
  -exchange      EXHF   =         0.00000000
  -V(xc)+E(xc)   XCENC  =        62.57823175
  PAW double counting   =      9003.59075477    -9155.75339974
  entropy T*S    EENTRO =         0.02790418
  eigenvalues    EBANDS =        88.27746030
  atomic energy  EATOM  =      9704.95859309
  Solvation  Ediel_sol  =         0.00000000
  ---------------------------------------------------
  free energy    TOTEN  =       725.90294502 eV

  energy without entropy =      725.87504083  energy(sigma->0) =      725.89364362


--------------------------------------------------------------------------------------------------------




--------------------------------------- Iteration      1(   2)  ---------------------------------------


     EDDAV:  cpu time   13.0668: real time   13.1757
       DOS:  cpu time    0.0048: real time    0.0048
    --------------------------------------------
      LOOP:  cpu time   13.0716: real time   13.1805

 eigenvalue-minimisations  :   496
 total energy-change (2. order) :-0.4692087E+03  (-0.4305209E+03)
 number of electron     100.0000000 magnetization      10.0000000
 augmentation part      100.0000000 magnetization      10.0000000

 Free energy of the ion-electron system (eV)
  ---------------------------------------------------
  alpha Z        PSCENC =         4.42548844
  Ewald energy   TEWEN  =     12833.51701181
  -Hartree energ DENC   =    -21815.71909959
  -exchange      EXHF   =         0.00000000
  -V(xc)+E(xc)   XCENC  =        62.57823175
  PAW double counting   =      9003.59075477    -9155.75339974
  entropy T*S    EENTRO =        -0.00155883
  eigenvalues    EBANDS =      -380.90180741
  atomic energy  EATOM  =      9704.95859309
  Solvation  Ediel_sol  =         0.00000000
  ---------------------------------------------------
  free energy    TOTEN  =       256.69421429 eV

  energy without entropy =      256.69577312  energy(sigma->0) =      256.69473390


--------------------------------------------------------------------------------------------------------




--------------------------------------- Iteration      1(   3)  ---------------------------------------


     EDDAV:  cpu time   10.7623: real time   10.8667
       DOS:  cpu time    0.0043: real time    0.0043
    --------------------------------------------
      LOOP:  cpu time   10.7666: real time   10.8710

 eigenvalue-minimisations  :   400
 total energy-change (2. order) :-0.2363519E+03  (-0.2229892E+03)
 number of electron     100.0000000 magnetization      10.0000000
 augmentation part      100.0000000 magnetization      10.0000000

 Free energy of the ion-electron system (eV)
  ---------------------------------------------------
  alpha Z        PSCENC =         4.42548844
  Ewald energy   TEWEN  =     12833.51701181
  -Hartree energ DENC   =    -21815.71909959
  -exchange      EXHF   =         0.00000000
  -V(xc)+E(xc)   XCENC  =        62.57823175
  PAW double counting   =      9003.59075477    -9155.75339974
  entropy T*S    EENTRO =        -0.04233118
  eigenvalues    EBANDS =      -617.21296638
  atomic energy  EATOM  =      9704.95859309
  Solvation  Ediel_sol  =         0.00000000
  ---------------------------------------------------
  free energy    TOTEN  =        20.34228298 eV

  energy without entropy =       20.38461415  energy(sigma->0) =       20.35639337


--------------------------------------------------------------------------------------------------------




--------------------------------------- Iteration      1(   4)  ---------------------------------------


     EDDAV:  cpu time   12.1898: real time   12.2996
       DOS:  cpu time    0.0245: real time    0.0245
    --------------------------------------------
      LOOP:  cpu time   12.2143: real time   12.3241

 eigenvalue-minimisations  :   448
 total energy-change (2. order) :-0.5796617E+02  (-0.5186237E+02)
 number of electron     100.0000000 magnetization      10.0000000
 augmentation part      100.0000000 magnetization      10.0000000

 Free energy of the ion-electron system (eV)
  ---------------------------------------------------
  alpha Z        PSCENC =         4.42548844
  Ewald energy   TEWEN  =     12833.51701181
  -Hartree energ DENC   =    -21815.71909959
  -exchange      EXHF   =         0.00000000
  -V(xc)+E(xc)   XCENC  =        62.57823175
  PAW double counting   =      9003.59075477    -9155.75339974
  entropy T*S    EENTRO =        -0.06621710
  eigenvalues    EBANDS =      -675.15525123
  atomic energy  EATOM  =      9704.95859309
  Solvation  Ediel_sol  =         0.00000000
  ---------------------------------------------------
  free energy    TOTEN  =       -37.62388780 eV

  energy without entropy =      -37.55767070  energy(sigma->0) =      -37.60181543


--------------------------------------------------------------------------------------------------------




--------------------------------------- Iteration      1(   5)  ---------------------------------------


     EDDAV:  cpu time   10.0135: real time   10.0413
       DOS:  cpu time    0.0222: real time    0.0222
    CHARGE:  cpu time    0.8038: real time    0.8126
    MIXING:  cpu time    0.0491: real time    0.0492
    --------------------------------------------
      LOOP:  cpu time   10.8886: real time   10.9253

 eigenvalue-minimisations  :   350
 total energy-change (2. order) :-0.5376273E+01  (-0.4857323E+01)
 number of electron      99.9999991 magnetization       9.7994252
 augmentation part       52.1540841 magnetization       8.0530665

 Broyden mixing:
  rms(total) = 0.27036E+01    rms(broyden)= 0.27032E+01
  rms(prec ) = 0.28405E+01
  weight for this iteration     100.00

 Free energy of the ion-electron system (eV)
  ---------------------------------------------------
  alpha Z        PSCENC =         4.42548844
  Ewald energy   TEWEN  =     12833.51701181
  -Hartree energ DENC   =    -21815.71909959
  -exchange      EXHF   =         0.00000000
  -V(xc)+E(xc)   XCENC  =        62.57823175
  PAW double counting   =      9003.59075477    -9155.75339974
  entropy T*S    EENTRO =        -0.02485967
  eigenvalues    EBANDS =      -680.57288154
  atomic energy  EATOM  =      9704.95859309
  Solvation  Ediel_sol  =         0.00000000
  ---------------------------------------------------
  free energy    TOTEN  =       -43.00016068 eV

  energy without entropy =      -42.97530101  energy(sigma->0) =      -42.99187413


--------------------------------------------------------------------------------------------------------




--------------------------------------- Iteration      1(   6)  ---------------------------------------


    POTLOK:  cpu time    2.2859: real time    2.2993
    SETDIJ:  cpu time    0.0214: real time    0.0214
     EDDAV:  cpu time   10.1815: real time   10.2427
       DOS:  cpu time    0.0023: real time    0.0023
    CHARGE:  cpu time    0.7616: real time    0.7675
    MIXING:  cpu time    0.0511: real time    0.0514
    --------------------------------------------
      LOOP:  cpu time   13.3039: real time   13.3846

 eigenvalue-minimisations  :   308
 total energy-change (2. order) :-0.1843089E+02  (-0.1186988E+02)
 number of electron      99.9999968 magnetization       9.5803347
 augmentation part       56.3376115 magnetization       8.9758562

 Broyden mixing:
  rms(total) = 0.56774E+01    rms(broyden)= 0.56771E+01
  rms(prec ) = 0.60549E+01
  weight for this iteration     100.00

 eigenvalues of (default mixing * dielectric matrix)
  average eigenvalue GAMMA=   0.2892
  0.2892

 Free energy of the ion-electron system (eV)
  ---------------------------------------------------
  alpha Z        PSCENC =         4.42548844
  Ewald energy   TEWEN  =     12833.51701181
  -Hartree energ DENC   =    -21739.93362385
  -exchange      EXHF   =         0.00000000
  -V(xc)+E(xc)   XCENC  =        59.34715960
  PAW double counting   =      9416.48897960    -9542.73759341
  entropy T*S    EENTRO =        -0.00979707
  eigenvalues    EBANDS =      -797.48726773
  atomic energy  EATOM  =      9704.95859309
  Solvation  Ediel_sol  =         0.00000000
  ---------------------------------------------------
  free energy    TOTEN  =       -61.43104953 eV

  energy without entropy =      -61.42125246  energy(sigma->0) =      -61.42778384


--------------------------------------------------------------------------------------------------------




--------------------------------------- Iteration      1(   7)  ---------------------------------------


    POTLOK:  cpu time    2.2934: real time    2.3031
    SETDIJ:  cpu time    0.0222: real time    0.0222
     EDDAV:  cpu time    9.6094: real time    9.6877
       DOS:  cpu time    0.0054: real time    0.0054
    CHARGE:  cpu time    0.7589: real time    0.7599
    MIXING:  cpu time    0.0646: real time    0.0646
    --------------------------------------------
      LOOP:  cpu time   12.7539: real time   12.8430

 eigenvalue-minimisations  :   346
 total energy-change (2. order) : 0.2073075E+02  (-0.6015422E+01)
 number of electron     100.0000006 magnetization       9.5610057
 augmentation part       54.9891949 magnetization       7.0960912

 Broyden mixing:
  rms(total) = 0.34024E+01    rms(broyden)= 0.34021E+01
  rms(prec ) = 0.36124E+01
  weight for this iteration     100.00

 eigenvalues of (default mixing * dielectric matrix)
  average eigenvalue GAMMA=   0.2154
  0.2154  0.2154

 Free energy of the ion-electron system (eV)
  ---------------------------------------------------
  alpha Z        PSCENC =         4.42548844
  Ewald energy   TEWEN  =     12833.51701181
  -Hartree energ DENC   =    -21784.90164889
  -exchange      EXHF   =         0.00000000
  -V(xc)+E(xc)   XCENC  =        60.45470629
  PAW double counting   =      9555.60603303    -9705.06736920
  entropy T*S    EENTRO =        -0.00462213
  eigenvalues    EBANDS =      -709.68849629
  atomic energy  EATOM  =      9704.95859309
  Solvation  Ediel_sol  =         0.00000000
  ---------------------------------------------------
  free energy    TOTEN  =       -40.70030384 eV

  energy without entropy =      -40.69568172  energy(sigma->0) =      -40.69876314


--------------------------------------------------------------------------------------------------------




--------------------------------------- Iteration      1(   8)  ---------------------------------------


    POTLOK:  cpu time    2.3119: real time    2.3143
    SETDIJ:  cpu time    0.0265: real time    0.0265
     EDDAV:  cpu time    9.7821: real time    9.7928
       DOS:  cpu time    0.0075: real time    0.0075
    CHARGE:  cpu time    0.8566: real time    0.8577
    MIXING:  cpu time    0.0657: real time    0.0658
    --------------------------------------------
      LOOP:  cpu time   13.0503: real time   13.0647

 eigenvalue-minimisations  :   340
 total energy-change (2. order) : 0.1442628E+01  (-0.2833974E+01)
 number of electron      99.9999944 magnetization       9.5140755
 augmentation part       55.2926204 magnetization       6.9095568

 Broyden mixing:
  rms(total) = 0.33088E+01    rms(broyden)= 0.33082E+01
  rms(prec ) = 0.35027E+01
  weight for this iteration     100.00

 eigenvalues of (default mixing * dielectric matrix)
  average eigenvalue GAMMA=   0.2318
  0.2714  0.2714  0.1526

 Free energy of the ion-electron system (eV)
  ---------------------------------------------------
  alpha Z        PSCENC =         4.42548844
  Ewald energy   TEWEN  =     12833.51701181
  -Hartree energ DENC   =    -21787.77926507
  -exchange      EXHF   =         0.00000000
  -V(xc)+E(xc)   XCENC  =        60.40258191
  PAW double counting   =      9605.50610009    -9755.12269943
  entropy T*S    EENTRO =         0.03769686
  eigenvalues    EBANDS =      -705.20318381
  atomic energy  EATOM  =      9704.95859309
  Solvation  Ediel_sol  =         0.00000000
  ---------------------------------------------------
  free energy    TOTEN  =       -39.25767610 eV

  energy without entropy =      -39.29537296  energy(sigma->0) =      -39.27024172


--------------------------------------------------------------------------------------------------------




--------------------------------------- Iteration      1(   9)  ---------------------------------------


    POTLOK:  cpu time    2.3161: real time    2.3219
    SETDIJ:  cpu time    0.0254: real time    0.0255
     EDDAV:  cpu time   10.0598: real time   10.0702
       DOS:  cpu time    0.0075: real time    0.0075
    CHARGE:  cpu time    0.8383: real time    0.8394
    MIXING:  cpu time    0.0673: real time    0.0674
    --------------------------------------------
      LOOP:  cpu time   13.3144: real time   13.3318

 eigenvalue-minimisations  :   342
 total energy-change (2. order) :-0.8875283E+00  (-0.1839941E+01)
 number of electron      99.9999959 magnetization       9.3574672
 augmentation part       54.8707510 magnetization       8.5761486

 Broyden mixing:
  rms(total) = 0.50064E+01    rms(broyden)= 0.50058E+01
  rms(prec ) = 0.54706E+01
  weight for this iteration     100.00

 eigenvalues of (default mixing * dielectric matrix)
  average eigenvalue GAMMA=   0.2884
  0.6115  0.2948  0.1237  0.1237

 Free energy of the ion-electron system (eV)
  ---------------------------------------------------
  alpha Z        PSCENC =         4.42548844
  Ewald energy   TEWEN  =     12833.51701181
  -Hartree energ DENC   =    -21804.76355386
  -exchange      EXHF   =         0.00000000
  -V(xc)+E(xc)   XCENC  =        60.88695638
  PAW double counting   =      9695.47388478    -9849.40718311
  entropy T*S    EENTRO =        -0.07508814
  eigenvalues    EBANDS =      -685.16131381
  atomic energy  EATOM  =      9704.95859309
  Solvation  Ediel_sol  =         0.00000000
  ---------------------------------------------------
  free energy    TOTEN  =       -40.14520443 eV

  energy without entropy =      -40.07011629  energy(sigma->0) =      -40.12017505


--------------------------------------------------------------------------------------------------------




--------------------------------------- Iteration      1(  10)  ---------------------------------------


    POTLOK:  cpu time    2.2884: real time    2.3073
    SETDIJ:  cpu time    0.0244: real time    0.0244
     EDDAV:  cpu time   10.1716: real time   10.1818
       DOS:  cpu time    0.0068: real time    0.0068
    CHARGE:  cpu time    0.8354: real time    0.8363
    MIXING:  cpu time    0.0703: real time    0.0704
    --------------------------------------------
      LOOP:  cpu time   13.3969: real time   13.4271

 eigenvalue-minimisations  :   368
 total energy-change (2. order) : 0.2557343E+01  (-0.4284549E+01)
 number of electron      99.9999967 magnetization       9.3147201
 augmentation part       54.5922199 magnetization       6.7723257

 Broyden mixing:
  rms(total) = 0.27168E+01    rms(broyden)= 0.27161E+01
  rms(prec ) = 0.29020E+01
  weight for this iteration     100.00

 eigenvalues of (default mixing * dielectric matrix)
  average eigenvalue GAMMA=   0.2592
  0.6092  0.3420  0.1372  0.1372  0.0702

 Free energy of the ion-electron system (eV)
  ---------------------------------------------------
  alpha Z        PSCENC =         4.42548844
  Ewald energy   TEWEN  =     12833.51701181
  -Hartree energ DENC   =    -21827.55469609
  -exchange      EXHF   =         0.00000000
  -V(xc)+E(xc)   XCENC  =        61.65637721
  PAW double counting   =      9808.98681911    -9967.74053739
  entropy T*S    EENTRO =        -0.01553804
  eigenvalues    EBANDS =      -655.82137958
  atomic energy  EATOM  =      9704.95859309
  Solvation  Ediel_sol  =         0.00000000
  ---------------------------------------------------
  free energy    TOTEN  =       -37.58786144 eV

  energy without entropy =      -37.57232340  energy(sigma->0) =      -37.58268209


--------------------------------------------------------------------------------------------------------




--------------------------------------- Iteration      1(  11)  ---------------------------------------


    POTLOK:  cpu time    2.3077: real time    2.3131
    SETDIJ:  cpu time    0.0256: real time    0.0257
     EDDAV:  cpu time    9.1381: real time    9.1483
       DOS:  cpu time    0.0163: real time    0.0163
    CHARGE:  cpu time    0.8681: real time    0.8689
    MIXING:  cpu time    0.1666: real time    0.1667
    --------------------------------------------
      LOOP:  cpu time   12.5224: real time   12.5390

 eigenvalue-minimisations  :   316
 total energy-change (2. order) :-0.4582960E+00  (-0.1242530E+01)
 number of electron      99.9999976 magnetization       9.2080459
 augmentation part       54.4321901 magnetization       6.7025087

 Broyden mixing:
  rms(total) = 0.31104E+01    rms(broyden)= 0.31099E+01
  rms(prec ) = 0.32758E+01
  weight for this iteration     100.00

 eigenvalues of (default mixing * dielectric matrix)
  average eigenvalue GAMMA=   0.3094
  0.6612  0.6612  0.2444  0.1026  0.1026  0.0846

 Free energy of the ion-electron system (eV)
  ---------------------------------------------------
  alpha Z        PSCENC =         4.42548844
  Ewald energy   TEWEN  =     12833.51701181
  -Hartree energ DENC   =    -21832.60790221
  -exchange      EXHF   =         0.00000000
  -V(xc)+E(xc)   XCENC  =        61.70239392
  PAW double counting   =      9846.84984388   -10006.49260828
  entropy T*S    EENTRO =        -0.01119824
  eigenvalues    EBANDS =      -650.38777988
  atomic energy  EATOM  =      9704.95859309
  Solvation  Ediel_sol  =         0.00000000
  ---------------------------------------------------
  free energy    TOTEN  =       -38.04615748 eV

  energy without entropy =      -38.03495923  energy(sigma->0) =      -38.04242473


--------------------------------------------------------------------------------------------------------




--------------------------------------- Iteration      1(  12)  ---------------------------------------


    POTLOK:  cpu time    2.3016: real time    2.3076
    SETDIJ:  cpu time    0.0257: real time    0.0258
     EDDAV:  cpu time   10.7240: real time   10.7354
       DOS:  cpu time    0.0096: real time    0.0096
    CHARGE:  cpu time    0.8483: real time    0.8492
    MIXING:  cpu time    0.0848: real time    0.0849
    --------------------------------------------
      LOOP:  cpu time   13.9941: real time   14.0125

 eigenvalue-minimisations  :   380
 total energy-change (2. order) : 0.2007881E+01  (-0.7539247E+00)
 number of electron      99.9999955 magnetization       9.1440529
 augmentation part       54.5883794 magnetization       6.6722619

 Broyden mixing:
  rms(total) = 0.22244E+01    rms(broyden)= 0.22241E+01
  rms(prec ) = 0.23818E+01
  weight for this iteration     100.00

 eigenvalues of (default mixing * dielectric matrix)
  average eigenvalue GAMMA=   0.3119
  0.7384  0.7384  0.2113  0.2113  0.1056  0.1056  0.0726

 Free energy of the ion-electron system (eV)
  ---------------------------------------------------
  alpha Z        PSCENC =         4.42548844
  Ewald energy   TEWEN  =     12833.51701181
  -Hartree energ DENC   =    -21841.02336474
  -exchange      EXHF   =         0.00000000
  -V(xc)+E(xc)   XCENC  =        61.96957062
  PAW double counting   =      9927.84459830   -10089.71522529
  entropy T*S    EENTRO =        -0.04481019
  eigenvalues    EBANDS =      -637.97013811
  atomic energy  EATOM  =      9704.95859309
  Solvation  Ediel_sol  =         0.00000000
  ---------------------------------------------------
  free energy    TOTEN  =       -36.03827607 eV

  energy without entropy =      -35.99346589  energy(sigma->0) =      -36.02333934


--------------------------------------------------------------------------------------------------------




--------------------------------------- Iteration      1(  13)  ---------------------------------------


    POTLOK:  cpu time    2.4210: real time    2.4301
    SETDIJ:  cpu time    0.0270: real time    0.0270
     EDDAV:  cpu time   10.2750: real time   10.2886
       DOS:  cpu time    0.0060: real time    0.0060
    CHARGE:  cpu time    0.7927: real time    0.7938
    MIXING:  cpu time    0.0939: real time    0.0940
    --------------------------------------------
      LOOP:  cpu time   13.6156: real time   13.6396

 eigenvalue-minimisations  :   360
 total energy-change (2. order) :-0.4454658E+00  (-0.6513878E+00)
 number of electron      99.9999949 magnetization       9.0227714
 augmentation part       54.4195618 magnetization       6.6202285

 Broyden mixing:
  rms(total) = 0.29491E+01    rms(broyden)= 0.29485E+01
  rms(prec ) = 0.31274E+01
  weight for this iteration     100.00

 eigenvalues of (default mixing * dielectric matrix)
  average eigenvalue GAMMA=   0.3472
  1.1176  0.6679  0.3145  0.3145  0.1084  0.1084  0.0730  0.0730

 Free energy of the ion-electron system (eV)
  ---------------------------------------------------
  alpha Z        PSCENC =         4.42548844
  Ewald energy   TEWEN  =     12833.51701181
  -Hartree energ DENC   =    -21845.15447794
  -exchange      EXHF   =         0.00000000
  -V(xc)+E(xc)   XCENC  =        62.09069362
  PAW double counting   =      9958.42789779   -10121.26030282
  entropy T*S    EENTRO =         0.01682602
  eigenvalues    EBANDS =      -633.50547187
  atomic energy  EATOM  =      9704.95859309
  Solvation  Ediel_sol  =         0.00000000
  ---------------------------------------------------
  free energy    TOTEN  =       -36.48374185 eV

  energy without entropy =      -36.50056787  energy(sigma->0) =      -36.48935053


--------------------------------------------------------------------------------------------------------




--------------------------------------- Iteration      1(  14)  ---------------------------------------


    POTLOK:  cpu time    2.3077: real time    2.3225
    SETDIJ:  cpu time    0.0269: real time    0.0269
     EDDAV:  cpu time   10.0154: real time   10.0321
       DOS:  cpu time    0.0055: real time    0.0055
    CHARGE:  cpu time    0.8530: real time    0.8539
    MIXING:  cpu time    0.1031: real time    0.1032
    --------------------------------------------
      LOOP:  cpu time   13.3115: real time   13.3441

 eigenvalue-minimisations  :   352
 total energy-change (2. order) : 0.1411577E+01  (-0.3463229E+00)
 number of electron      99.9999968 magnetization       8.9990506
 augmentation part       54.5359146 magnetization       6.5277841

 Broyden mixing:
  rms(total) = 0.14445E+01    rms(broyden)= 0.14435E+01
  rms(prec ) = 0.15427E+01
  weight for this iteration     100.00

 eigenvalues of (default mixing * dielectric matrix)
  average eigenvalue GAMMA=   0.3239
  1.1033  0.7024  0.3203  0.3203  0.1055  0.1055  0.1023  0.0844  0.0709

 Free energy of the ion-electron system (eV)
  ---------------------------------------------------
  alpha Z        PSCENC =         4.42548844
  Ewald energy   TEWEN  =     12833.51701181
  -Hartree energ DENC   =    -21851.96514064
  -exchange      EXHF   =         0.00000000
  -V(xc)+E(xc)   XCENC  =        62.11787751
  PAW double counting   =     10008.40655621   -10172.96810577
  entropy T*S    EENTRO =        -0.00002901
  eigenvalues    EBANDS =      -623.56441695
  atomic energy  EATOM  =      9704.95859309
  Solvation  Ediel_sol  =         0.00000000
  ---------------------------------------------------
  free energy    TOTEN  =       -35.07216531 eV

  energy without entropy =      -35.07213630  energy(sigma->0) =      -35.07215564


--------------------------------------------------------------------------------------------------------




--------------------------------------- Iteration      1(  15)  ---------------------------------------


    POTLOK:  cpu time    2.3181: real time    2.3241
    SETDIJ:  cpu time    0.0262: real time    0.0262
     EDDAV:  cpu time   10.7876: real time   10.8115
       DOS:  cpu time    0.0125: real time    0.0125
    CHARGE:  cpu time    0.8471: real time    0.8482
    MIXING:  cpu time    0.1101: real time    0.1103
    --------------------------------------------
      LOOP:  cpu time   14.1016: real time   14.1328

 eigenvalue-minimisations  :   384
 total energy-change (2. order) : 0.1031060E+00  (-0.9796060E-01)
 number of electron      99.9999972 magnetization       8.9582267
 augmentation part       54.5499380 magnetization       6.5145776

 Broyden mixing:
  rms(total) = 0.13346E+01    rms(broyden)= 0.13342E+01
  rms(prec ) = 0.14395E+01
  weight for this iteration     100.00

 eigenvalues of (default mixing * dielectric matrix)
  average eigenvalue GAMMA=   0.3202
  0.9915  0.8134  0.4267  0.2869  0.2354  0.1068  0.1068  0.0868  0.0739  0.0739

 Free energy of the ion-electron system (eV)
  ---------------------------------------------------
  alpha Z        PSCENC =         4.42548844
  Ewald energy   TEWEN  =     12833.51701181
  -Hartree energ DENC   =    -21852.87334810
  -exchange      EXHF   =         0.00000000
  -V(xc)+E(xc)   XCENC  =        62.02010982
  PAW double counting   =     10012.64123097   -10177.45899913
  entropy T*S    EENTRO =        -0.02619001
  eigenvalues    EBANDS =      -622.17295623
  atomic energy  EATOM  =      9704.95859309
  Solvation  Ediel_sol  =         0.00000000
  ---------------------------------------------------
  free energy    TOTEN  =       -34.96905933 eV

  energy without entropy =      -34.94286932  energy(sigma->0) =      -34.96032933


--------------------------------------------------------------------------------------------------------




--------------------------------------- Iteration      1(  16)  ---------------------------------------


    POTLOK:  cpu time    2.6310: real time    2.6341
    SETDIJ:  cpu time    0.0253: real time    0.0254
     EDDAV:  cpu time   11.5588: real time   11.5706
       DOS:  cpu time    0.0076: real time    0.0077
    CHARGE:  cpu time    0.8419: real time    0.8430
    MIXING:  cpu time    0.1166: real time    0.1167
    --------------------------------------------
      LOOP:  cpu time   15.1813: real time   15.1975

 eigenvalue-minimisations  :   400
 total energy-change (2. order) : 0.2102034E+00  (-0.5221225E-01)
 number of electron      99.9999972 magnetization       8.8799037
 augmentation part       54.4810073 magnetization       6.5220898

 Broyden mixing:
  rms(total) = 0.96701E+00    rms(broyden)= 0.96683E+00
  rms(prec ) = 0.10433E+01
  weight for this iteration     100.00

 eigenvalues of (default mixing * dielectric matrix)
  average eigenvalue GAMMA=   0.3698
  1.1549  0.7507  0.7507  0.3578  0.3578  0.2577  0.1075  0.1075  0.0755  0.0755
  0.0726

 Free energy of the ion-electron system (eV)
  ---------------------------------------------------
  alpha Z        PSCENC =         4.42548844
  Ewald energy   TEWEN  =     12833.51701181
  -Hartree energ DENC   =    -21855.52410486
  -exchange      EXHF   =         0.00000000
  -V(xc)+E(xc)   XCENC  =        61.93386927
  PAW double counting   =     10017.93893162   -10183.13563420
  entropy T*S    EENTRO =        -0.00910481
  eigenvalues    EBANDS =      -618.86390632
  atomic energy  EATOM  =      9704.95859309
  Solvation  Ediel_sol  =         0.00000000
  ---------------------------------------------------
  free energy    TOTEN  =       -34.75885595 eV

  energy without entropy =      -34.74975114  energy(sigma->0) =      -34.75582101


--------------------------------------------------------------------------------------------------------




--------------------------------------- Iteration      1(  17)  ---------------------------------------


    POTLOK:  cpu time    2.2975: real time    2.3021
    SETDIJ:  cpu time    0.0251: real time    0.0251
     EDDAV:  cpu time   11.6084: real time   11.6284
       DOS:  cpu time    0.0078: real time    0.0078
    CHARGE:  cpu time    0.8025: real time    0.8034
    MIXING:  cpu time    0.1289: real time    0.1291
    --------------------------------------------
      LOOP:  cpu time   14.8702: real time   14.8959

 eigenvalue-minimisations  :   396
 total energy-change (2. order) : 0.5025441E-01  (-0.2545683E-01)
 number of electron      99.9999972 magnetization       8.7930478
 augmentation part       54.4654184 magnetization       6.4726803

 Broyden mixing:
  rms(total) = 0.65383E+00    rms(broyden)= 0.65370E+00
  rms(prec ) = 0.70043E+00
  weight for this iteration     100.00

 eigenvalues of (default mixing * dielectric matrix)
  average eigenvalue GAMMA=   0.4253
  1.2973  0.9771  0.9771  0.4088  0.4088  0.3333  0.2620  0.1074  0.1074  0.0760
  0.0760  0.0728

 Free energy of the ion-electron system (eV)
  ---------------------------------------------------
  alpha Z        PSCENC =         4.42548844
  Ewald energy   TEWEN  =     12833.51701181
  -Hartree energ DENC   =    -21859.79879242
  -exchange      EXHF   =         0.00000000
  -V(xc)+E(xc)   XCENC  =        61.82660995
  PAW double counting   =     10027.32110646   -10192.58645223
  entropy T*S    EENTRO =        -0.00030961
  eigenvalues    EBANDS =      -614.37185704
  atomic energy  EATOM  =      9704.95859309
  Solvation  Ediel_sol  =         0.00000000
  ---------------------------------------------------
  free energy    TOTEN  =       -34.70860154 eV

  energy without entropy =      -34.70829194  energy(sigma->0) =      -34.70849834


--------------------------------------------------------------------------------------------------------




--------------------------------------- Iteration      1(  18)  ---------------------------------------


    POTLOK:  cpu time    3.1592: real time    3.1678
    SETDIJ:  cpu time    0.1296: real time    0.1296
     EDDAV:  cpu time   10.6041: real time   10.6189
       DOS:  cpu time    0.0138: real time    0.0139
    CHARGE:  cpu time    0.8343: real time    0.8353
    MIXING:  cpu time    0.1343: real time    0.1346
    --------------------------------------------
      LOOP:  cpu time   14.8753: real time   14.8999

 eigenvalue-minimisations  :   360
 total energy-change (2. order) :-0.2329191E+00  (-0.1866126E-01)
 number of electron      99.9999975 magnetization       8.6925079
 augmentation part       54.4562506 magnetization       6.4335776

 Broyden mixing:
  rms(total) = 0.54932E+00    rms(broyden)= 0.54920E+00
  rms(prec ) = 0.58258E+00
  weight for this iteration     100.00

 eigenvalues of (default mixing * dielectric matrix)
  average eigenvalue GAMMA=   0.4749
  1.2832  1.2118  1.2118  0.5556  0.5556  0.3302  0.3302  0.2557  0.1074  0.1074
  0.0759  0.0759  0.0728

 Free energy of the ion-electron system (eV)
  ---------------------------------------------------
  alpha Z        PSCENC =         4.42548844
  Ewald energy   TEWEN  =     12833.51701181
  -Hartree energ DENC   =    -21863.63884245
  -exchange      EXHF   =         0.00000000
  -V(xc)+E(xc)   XCENC  =        61.63919689
  PAW double counting   =     10037.01057392   -10202.09012048
  entropy T*S    EENTRO =        -0.01740684
  eigenvalues    EBANDS =      -610.74601504
  atomic energy  EATOM  =      9704.95859309
  Solvation  Ediel_sol  =         0.00000000
  ---------------------------------------------------
  free energy    TOTEN  =       -34.94152065 eV

  energy without entropy =      -34.92411381  energy(sigma->0) =      -34.93571837


--------------------------------------------------------------------------------------------------------




--------------------------------------- Iteration      1(  19)  ---------------------------------------


    POTLOK:  cpu time    2.3300: real time    2.3330
    SETDIJ:  cpu time    0.0255: real time    0.0256
     EDDAV:  cpu time   10.2395: real time   10.2585
       DOS:  cpu time    0.0090: real time    0.0090
    CHARGE:  cpu time    0.8069: real time    0.8079
    MIXING:  cpu time    0.1459: real time    0.1461
    --------------------------------------------
      LOOP:  cpu time   13.5569: real time   13.5801

 eigenvalue-minimisations  :   362
 total energy-change (2. order) :-0.4734821E+00  (-0.2548305E-01)
 number of electron      99.9999977 magnetization       8.6918148
 augmentation part       54.4235401 magnetization       6.5525190

 Broyden mixing:
  rms(total) = 0.70223E+00    rms(broyden)= 0.70197E+00
  rms(prec ) = 0.73553E+00
  weight for this iteration     100.00

 eigenvalues of (default mixing * dielectric matrix)
  average eigenvalue GAMMA=   0.4487
  1.2821  1.2171  1.2171  0.5646  0.5646  0.3324  0.3324  0.2562  0.1074  0.1074
  0.0759  0.0759  0.0728  0.0754

 Free energy of the ion-electron system (eV)
  ---------------------------------------------------
  alpha Z        PSCENC =         4.42548844
  Ewald energy   TEWEN  =     12833.51701181
  -Hartree energ DENC   =    -21867.69815931
  -exchange      EXHF   =         0.00000000
  -V(xc)+E(xc)   XCENC  =        61.33802012
  PAW double counting   =     10040.71160893   -10205.43208684
  entropy T*S    EENTRO =        -0.04420667
  eigenvalues    EBANDS =      -607.19127236
  atomic energy  EATOM  =      9704.95859309
  Solvation  Ediel_sol  =         0.00000000
  ---------------------------------------------------
  free energy    TOTEN  =       -35.41500279 eV

  energy without entropy =      -35.37079612  energy(sigma->0) =      -35.40026723


--------------------------------------------------------------------------------------------------------




--------------------------------------- Iteration      1(  20)  ---------------------------------------


    POTLOK:  cpu time    2.2989: real time    2.3118
    SETDIJ:  cpu time    0.0246: real time    0.0246
     EDDAV:  cpu time    8.9619: real time    8.9716
       DOS:  cpu time    0.0060: real time    0.0060
    CHARGE:  cpu time    0.7519: real time    0.7527
    MIXING:  cpu time    0.1614: real time    0.1617
    --------------------------------------------
      LOOP:  cpu time   12.2047: real time   12.2284

 eigenvalue-minimisations  :   296
 total energy-change (2. order) : 0.1726424E-01  (-0.4125261E-02)
 number of electron      99.9999978 magnetization       8.6895133
 augmentation part       54.4285983 magnetization       6.5578831

 Broyden mixing:
  rms(total) = 0.71162E+00    rms(broyden)= 0.71160E+00
  rms(prec ) = 0.74568E+00
  weight for this iteration     100.00

 eigenvalues of (default mixing * dielectric matrix)
  average eigenvalue GAMMA=   0.4367
  1.2715  1.2276  1.2276  0.5718  0.5718  0.3330  0.3330  0.2564  0.1591  0.1591
  0.1074  0.1074  0.0759  0.0759  0.0728

 Free energy of the ion-electron system (eV)
  ---------------------------------------------------
  alpha Z        PSCENC =         4.42548844
  Ewald energy   TEWEN  =     12833.51701181
  -Hartree energ DENC   =    -21867.69885353
  -exchange      EXHF   =         0.00000000
  -V(xc)+E(xc)   XCENC  =        61.35778726
  PAW double counting   =     10040.74816884   -10205.45851322
  entropy T*S    EENTRO =        -0.04396920
  eigenvalues    EBANDS =      -607.20345203
  atomic energy  EATOM  =      9704.95859309
  Solvation  Ediel_sol  =         0.00000000
  ---------------------------------------------------
  free energy    TOTEN  =       -35.39773854 eV

  energy without entropy =      -35.35376934  energy(sigma->0) =      -35.38308214


--------------------------------------------------------------------------------------------------------




--------------------------------------- Iteration      1(  21)  ---------------------------------------


    POTLOK:  cpu time    2.2794: real time    2.2859
    SETDIJ:  cpu time    0.0250: real time    0.0250
     EDDAV:  cpu time    9.1265: real time    9.1367
       DOS:  cpu time    0.0047: real time    0.0054
    CHARGE:  cpu time    0.8035: real time    0.8043
    MIXING:  cpu time    0.1707: real time    0.1710
    --------------------------------------------
      LOOP:  cpu time   12.4097: real time   12.4283

 eigenvalue-minimisations  :   312
 total energy-change (2. order) :-0.1532236E-01  (-0.2478498E-03)
 number of electron      99.9999977 magnetization       8.6847372
 augmentation part       54.4347147 magnetization       6.5573047

 Broyden mixing:
  rms(total) = 0.72447E+00    rms(broyden)= 0.72447E+00
  rms(prec ) = 0.75936E+00
  weight for this iteration     100.00

 eigenvalues of (default mixing * dielectric matrix)
  average eigenvalue GAMMA=   0.4477
  1.2951  1.2238  1.2238  0.5746  0.5746  0.3824  0.3824  0.3345  0.3345  0.2564
  0.1074  0.1074  0.0759  0.0759  0.0728  0.1424

 Free energy of the ion-electron system (eV)
  ---------------------------------------------------
  alpha Z        PSCENC =         4.42548844
  Ewald energy   TEWEN  =     12833.51701181
  -Hartree energ DENC   =    -21867.62145760
  -exchange      EXHF   =         0.00000000
  -V(xc)+E(xc)   XCENC  =        61.34024555
  PAW double counting   =     10040.45660313   -10205.13073506
  entropy T*S    EENTRO =        -0.04475871
  eigenvalues    EBANDS =      -607.31405155
  atomic energy  EATOM  =      9704.95859309
  Solvation  Ediel_sol  =         0.00000000
  ---------------------------------------------------
  free energy    TOTEN  =       -35.41306090 eV

  energy without entropy =      -35.36830220  energy(sigma->0) =      -35.39814133


--------------------------------------------------------------------------------------------------------




--------------------------------------- Iteration      1(  22)  ---------------------------------------


    POTLOK:  cpu time    2.3114: real time    2.3146
    SETDIJ:  cpu time    0.0256: real time    0.0256
     EDDAV:  cpu time    9.4623: real time    9.4764
       DOS:  cpu time    0.0088: real time    0.0088
    CHARGE:  cpu time    0.8352: real time    0.8361
    MIXING:  cpu time    0.1847: real time    0.1850
    --------------------------------------------
      LOOP:  cpu time   12.8279: real time   12.8464

 eigenvalue-minimisations  :   326
 total energy-change (2. order) :-0.3584851E-01  (-0.4560491E-03)
 number of electron      99.9999978 magnetization       8.6156266
 augmentation part       54.4453769 magnetization       6.4871224

 Broyden mixing:
  rms(total) = 0.67932E+00    rms(broyden)= 0.67932E+00
  rms(prec ) = 0.71335E+00
  weight for this iteration     100.00

 eigenvalues of (default mixing * dielectric matrix)
  average eigenvalue GAMMA=   0.5363
  1.4476  1.2254  1.2254  0.8856  0.8856  0.6735  0.6735  0.5055  0.3439  0.3439
  0.2568  0.2114  0.1074  0.1074  0.0759  0.0759  0.0728

 Free energy of the ion-electron system (eV)
  ---------------------------------------------------
  alpha Z        PSCENC =         4.42548844
  Ewald energy   TEWEN  =     12833.51701181
  -Hartree energ DENC   =    -21867.64237101
  -exchange      EXHF   =         0.00000000
  -V(xc)+E(xc)   XCENC  =        61.29109051
  PAW double counting   =     10040.27535771   -10204.94415473
  entropy T*S    EENTRO =        -0.04441735
  eigenvalues    EBANDS =      -607.28550788
  atomic energy  EATOM  =      9704.95859309
  Solvation  Ediel_sol  =         0.00000000
  ---------------------------------------------------
  free energy    TOTEN  =       -35.44890941 eV

  energy without entropy =      -35.40449207  energy(sigma->0) =      -35.43410363


--------------------------------------------------------------------------------------------------------




--------------------------------------- Iteration      1(  23)  ---------------------------------------


    POTLOK:  cpu time    2.3025: real time    2.3083
    SETDIJ:  cpu time    0.0261: real time    0.0261
     EDDAV:  cpu time    9.6846: real time    9.6951
       DOS:  cpu time    0.0089: real time    0.0089
    CHARGE:  cpu time    0.8266: real time    0.8275
    MIXING:  cpu time    0.1952: real time    0.1956
    --------------------------------------------
      LOOP:  cpu time   13.0439: real time   13.0616

 eigenvalue-minimisations  :   338
 total energy-change (2. order) :-0.5086775E+00  (-0.3041377E-01)
 number of electron      99.9999979 magnetization       8.5655915
 augmentation part       54.5030609 magnetization       6.4777069

 Broyden mixing:
  rms(total) = 0.36320E+00    rms(broyden)= 0.36295E+00
  rms(prec ) = 0.38117E+00
  weight for this iteration     100.00

 eigenvalues of (default mixing * dielectric matrix)
  average eigenvalue GAMMA=   0.5453
  1.5190  1.2145  1.2145  0.8660  0.8660  0.7401  0.7401  0.5353  0.5353  0.3410
  0.3410  0.2567  0.2065  0.1074  0.1074  0.0759  0.0759  0.0728

 Free energy of the ion-electron system (eV)
  ---------------------------------------------------
  alpha Z        PSCENC =         4.42548844
  Ewald energy   TEWEN  =     12833.51701181
  -Hartree energ DENC   =    -21869.55371976
  -exchange      EXHF   =         0.00000000
  -V(xc)+E(xc)   XCENC  =        60.78505682
  PAW double counting   =     10034.70084772   -10199.12798972
  entropy T*S    EENTRO =        -0.04151346
  eigenvalues    EBANDS =      -605.62136183
  atomic energy  EATOM  =      9704.95859309
  Solvation  Ediel_sol  =         0.00000000
  ---------------------------------------------------
  free energy    TOTEN  =       -35.95758689 eV

  energy without entropy =      -35.91607343  energy(sigma->0) =      -35.94374907


--------------------------------------------------------------------------------------------------------




--------------------------------------- Iteration      1(  24)  ---------------------------------------


    POTLOK:  cpu time    2.4052: real time    2.4106
    SETDIJ:  cpu time    0.1380: real time    0.1380
     EDDAV:  cpu time    9.8771: real time    9.8877
       DOS:  cpu time    0.0100: real time    0.0101
    CHARGE:  cpu time    0.8526: real time    0.8535
    MIXING:  cpu time    0.2810: real time    0.2813
    --------------------------------------------
      LOOP:  cpu time   13.5639: real time   13.5812

 eigenvalue-minimisations  :   342
 total energy-change (2. order) :-0.1822839E+00  (-0.1033697E-01)
 number of electron      99.9999977 magnetization       8.5305075
 augmentation part       54.5468967 magnetization       6.4671389

 Broyden mixing:
  rms(total) = 0.28136E+00    rms(broyden)= 0.28127E+00
  rms(prec ) = 0.28967E+00
  weight for this iteration     100.00

 eigenvalues of (default mixing * dielectric matrix)
  average eigenvalue GAMMA=   0.5525
  1.6601  1.1624  1.1624  0.9145  0.9145  0.7587  0.7587  0.5984  0.4892  0.4892
  0.3427  0.3427  0.2568  0.2071  0.1074  0.1074  0.0759  0.0759  0.0728

 Free energy of the ion-electron system (eV)
  ---------------------------------------------------
  alpha Z        PSCENC =         4.42548844
  Ewald energy   TEWEN  =     12833.51701181
  -Hartree energ DENC   =    -21871.04677237
  -exchange      EXHF   =         0.00000000
  -V(xc)+E(xc)   XCENC  =        60.62855892
  PAW double counting   =     10033.75484085   -10197.92511016
  entropy T*S    EENTRO =        -0.04251954
  eigenvalues    EBANDS =      -604.40996188
  atomic energy  EATOM  =      9704.95859309
  Solvation  Ediel_sol  =         0.00000000
  ---------------------------------------------------
  free energy    TOTEN  =       -36.13987084 eV

  energy without entropy =      -36.09735130  energy(sigma->0) =      -36.12569766


--------------------------------------------------------------------------------------------------------




--------------------------------------- Iteration      1(  25)  ---------------------------------------


    POTLOK:  cpu time    2.2898: real time    2.2966
    SETDIJ:  cpu time    0.0258: real time    0.0259
     EDDAV:  cpu time    8.9503: real time    8.9596
       DOS:  cpu time    0.0016: real time    0.0016
    CHARGE:  cpu time    1.0538: real time    1.0548
    MIXING:  cpu time    0.2257: real time    0.2261
    --------------------------------------------
      LOOP:  cpu time   12.5472: real time   12.5646

 eigenvalue-minimisations  :   306
 total energy-change (2. order) :-0.9712407E-01  (-0.2969933E-02)
 number of electron      99.9999975 magnetization       8.4925791
 augmentation part       54.5447342 magnetization       6.4393596

 Broyden mixing:
  rms(total) = 0.26966E+00    rms(broyden)= 0.26960E+00
  rms(prec ) = 0.27927E+00
  weight for this iteration     100.00

 eigenvalues of (default mixing * dielectric matrix)
  average eigenvalue GAMMA=   0.5710
  1.5799  1.5799  1.0841  1.0841  0.8439  0.8439  0.6275  0.6275  0.5679  0.5679
  0.4261  0.3418  0.3418  0.2568  0.2067  0.1074  0.1074  0.0759  0.0759  0.0728

 Free energy of the ion-electron system (eV)
  ---------------------------------------------------
  alpha Z        PSCENC =         4.42548844
  Ewald energy   TEWEN  =     12833.51701181
  -Hartree energ DENC   =    -21872.92597120
  -exchange      EXHF   =         0.00000000
  -V(xc)+E(xc)   XCENC  =        60.57798277
  PAW double counting   =     10036.24394505   -10200.44384122
  entropy T*S    EENTRO =        -0.03904367
  eigenvalues    EBANDS =      -602.55115998
  atomic energy  EATOM  =      9704.95859309
  Solvation  Ediel_sol  =         0.00000000
  ---------------------------------------------------
  free energy    TOTEN  =       -36.23699491 eV

  energy without entropy =      -36.19795123  energy(sigma->0) =      -36.22398035


--------------------------------------------------------------------------------------------------------




--------------------------------------- Iteration      1(  26)  ---------------------------------------


    POTLOK:  cpu time    2.2885: real time    2.2952
    SETDIJ:  cpu time    0.0269: real time    0.0269
     EDDAV:  cpu time    9.3440: real time    9.3584
       DOS:  cpu time    0.0025: real time    0.0025
    CHARGE:  cpu time    0.8533: real time    0.8543
    MIXING:  cpu time    0.2505: real time    0.2511
    --------------------------------------------
      LOOP:  cpu time   12.7656: real time   12.7884

 eigenvalue-minimisations  :   314
 total energy-change (2. order) :-0.8728540E-01  (-0.1763781E-02)
 number of electron      99.9999975 magnetization       8.4536862
 augmentation part       54.5234028 magnetization       6.4256699

 Broyden mixing:
  rms(total) = 0.16378E+00    rms(broyden)= 0.16375E+00
  rms(prec ) = 0.17187E+00
  weight for this iteration     100.00

 eigenvalues of (default mixing * dielectric matrix)
  average eigenvalue GAMMA=   0.5895
  1.7295  1.7295  1.0491  1.0491  0.9070  0.9070  0.6659  0.6659  0.5778  0.5778
  0.5390  0.3937  0.3420  0.3420  0.2568  0.2069  0.1074  0.1074  0.0759  0.0759
  0.0728

 Free energy of the ion-electron system (eV)
  ---------------------------------------------------
  alpha Z        PSCENC =         4.42548844
  Ewald energy   TEWEN  =     12833.51701181
  -Hartree energ DENC   =    -21874.59067599
  -exchange      EXHF   =         0.00000000
  -V(xc)+E(xc)   XCENC  =        60.54007419
  PAW double counting   =     10038.20591936   -10202.47624131
  entropy T*S    EENTRO =        -0.04436550
  eigenvalues    EBANDS =      -600.86008440
  atomic energy  EATOM  =      9704.95859309
  Solvation  Ediel_sol  =         0.00000000
  ---------------------------------------------------
  free energy    TOTEN  =       -36.32428031 eV

  energy without entropy =      -36.27991481  energy(sigma->0) =      -36.30949181


--------------------------------------------------------------------------------------------------------




--------------------------------------- Iteration      1(  27)  ---------------------------------------


    POTLOK:  cpu time    2.2808: real time    2.2869
    SETDIJ:  cpu time    0.0259: real time    0.0259
     EDDAV:  cpu time    9.3220: real time    9.3396
       DOS:  cpu time    0.0031: real time    0.0031
    CHARGE:  cpu time    0.8479: real time    0.8489
    MIXING:  cpu time    0.2582: real time    0.2588
    --------------------------------------------
      LOOP:  cpu time   12.7378: real time   12.7633

 eigenvalue-minimisations  :   322
 total energy-change (2. order) :-0.1010156E+00  (-0.1118645E-02)
 number of electron      99.9999975 magnetization       8.4108971
 augmentation part       54.5047542 magnetization       6.4040753

 Broyden mixing:
  rms(total) = 0.11584E+00    rms(broyden)= 0.11582E+00
  rms(prec ) = 0.12167E+00
  weight for this iteration     100.00

 eigenvalues of (default mixing * dielectric matrix)
  average eigenvalue GAMMA=   0.6112
  1.5641  1.5641  0.9680  0.9680  1.0132  1.0132  0.8598  0.8062  0.8062  0.6731
  0.6731  0.5452  0.4046  0.3422  0.3422  0.2568  0.2069  0.1074  0.1074  0.0759
  0.0759  0.0728

 Free energy of the ion-electron system (eV)
  ---------------------------------------------------
  alpha Z        PSCENC =         4.42548844
  Ewald energy   TEWEN  =     12833.51701181
  -Hartree energ DENC   =    -21876.04352623
  -exchange      EXHF   =         0.00000000
  -V(xc)+E(xc)   XCENC  =        60.47736235
  PAW double counting   =     10038.30034350   -10202.65182102
  entropy T*S    EENTRO =        -0.04394667
  eigenvalues    EBANDS =      -599.36480121
  atomic energy  EATOM  =      9704.95859309
  Solvation  Ediel_sol  =         0.00000000
  ---------------------------------------------------
  free energy    TOTEN  =       -36.42529594 eV

  energy without entropy =      -36.38134927  energy(sigma->0) =      -36.41064705


--------------------------------------------------------------------------------------------------------




--------------------------------------- Iteration      1(  28)  ---------------------------------------


    POTLOK:  cpu time    2.2764: real time    2.2916
    SETDIJ:  cpu time    0.0264: real time    0.0264
     EDDAV:  cpu time    9.8984: real time    9.9175
       DOS:  cpu time    0.0031: real time    0.0031
    CHARGE:  cpu time    0.7656: real time    0.7665
    MIXING:  cpu time    0.2753: real time    0.2759
    --------------------------------------------
      LOOP:  cpu time   13.2453: real time   13.2809

 eigenvalue-minimisations  :   346
 total energy-change (2. order) :-0.1057742E+00  (-0.9379156E-03)
 number of electron      99.9999975 magnetization       8.3368759
 augmentation part       54.5010867 magnetization       6.3357276

 Broyden mixing:
  rms(total) = 0.10319E+00    rms(broyden)= 0.10315E+00
  rms(prec ) = 0.10813E+00
  weight for this iteration     100.00

 eigenvalues of (default mixing * dielectric matrix)
  average eigenvalue GAMMA=   0.6493
[...]
 total energy-change (2. order) : 0.1102341E-04  (-0.9959452E-05)
 number of electron      99.9999950 magnetization       8.0131600
 augmentation part       54.4104293 magnetization       6.0661186

 Free energy of the ion-electron system (eV)
  ---------------------------------------------------
  alpha Z        PSCENC =         4.42548844
  Ewald energy   TEWEN  =     13108.45879762
  -Hartree energ DENC   =    -22152.88541952
  -exchange      EXHF   =         0.00000000
  -V(xc)+E(xc)   XCENC  =        60.28256562
  PAW double counting   =     10121.17735936   -10286.57992669
  entropy T*S    EENTRO =        -0.01691875
  eigenvalues    EBANDS =      -597.22235256
  atomic energy  EATOM  =      9704.95859309
  Solvation  Ediel_sol  =         0.00000000
  ---------------------------------------------------
  free energy    TOTEN  =       -37.40181338 eV

  energy without entropy =      -37.38489463  energy(sigma->0) =      -37.39617379


--------------------------------------------------------------------------------------------------------




 average (electrostatic) potential at core
  the test charge radii are     0.9791  1.1199
  (the norm of the test charge is              1.0000)
       1 -95.2944       2 -95.2186       3 -95.2891       4 -95.4253       5 -95.3898
       6 -95.0051       7 -83.7847       8 -83.9423       9 -83.8257      10 -83.5612
 
 
 
 E-fermi :  -4.1343     XC(G=0):  -0.3078     alpha+bet : -0.1608


 spin component 1

 k-point     1 :       0.0000    0.0000    0.0000
  band No.  band energies     occupation 
      1      -9.5458      1.00000
      2      -8.2985      1.00000
      3      -8.1316      1.00000
      4      -7.8991      1.00000
      5      -7.7546      1.00000
      6      -7.6805      1.00000
      7      -7.6372      1.00000
      8      -7.5328      1.00000
      9      -7.5100      1.00000
     10      -7.4003      1.00000
     11      -7.3734      1.00000
     12      -7.3395      1.00000
     13      -7.2869      1.00000
     14      -7.2277      1.00000
     15      -7.0804      1.00000
     16      -6.8220      1.00000
     17      -6.7025      1.00000
     18      -6.5666      1.00000
     19      -6.5559      1.00000
     20      -6.4662      1.00000
     21      -6.4073      1.00000
     22      -6.3455      1.00000
     23      -6.2635      1.00000
     24      -6.2412      1.00000
     25      -6.1120      1.00000
     26      -5.9476      1.00000
     27      -5.8918      1.00000
     28      -5.8358      1.00000
     29      -5.8128      1.00000
     30      -5.6917      1.00000
     31      -5.6872      1.00000
     32      -5.5796      1.00000
     33      -5.5354      1.00000
     34      -5.4352      1.00000
     35      -5.3851      1.00000
     36      -5.3460      1.00000
     37      -5.3279      1.00000
     38      -5.2784      1.00000
     39      -5.2557      1.00000
     40      -5.2471      1.00000
     41      -5.1882      1.00000
     42      -5.1663      1.00000
     43      -5.1002      1.00000
     44      -5.0521      1.00000
     45      -5.0363      1.00000
     46      -4.9228      1.00000
     47      -4.8986      1.00000
     48      -4.8716      1.00000
     49      -4.8420      1.00000
     50      -4.7718      1.00003
     51      -4.7099      1.00018
     52      -4.6688      1.00052
     53      -4.6553      1.00071
     54      -4.5594      1.00522
     55      -3.0904     -0.00000
     56      -2.6500     -0.00000
     57      -2.5576     -0.00000
     58      -2.4917     -0.00000
     59      -2.4625     -0.00000
     60      -2.4293     -0.00000
     61      -0.9099     -0.00000
     62      -0.6974     -0.00000
     63      -0.4710     -0.00000
     64      -0.3316     -0.00000
     65      -0.2483     -0.00000
     66      -0.0869     -0.00000

 spin component 2

 k-point     1 :       0.0000    0.0000    0.0000
  band No.  band energies     occupation 
      1      -9.4778      1.00000
      2      -7.9930      1.00000
      3      -7.8055      1.00000
      4      -7.4978      1.00000
      5      -7.2898      1.00000
      6      -7.2208      1.00000
      7      -7.1177      1.00000
      8      -7.0193      1.00000
      9      -6.9583      1.00000
     10      -6.8502      1.00000
     11      -6.8301      1.00000
     12      -6.7239      1.00000
     13      -6.6408      1.00000
     14      -6.5960      1.00000
     15      -6.4640      1.00000
     16      -6.0835      1.00000
     17      -6.0493      1.00000
     18      -5.9505      1.00000
     19      -5.9168      1.00000
     20      -5.8848      1.00000
     21      -5.8299      1.00000
     22      -5.7543      1.00000
     23      -5.6606      1.00000
     24      -5.5454      1.00000
     25      -5.4953      1.00000
     26      -5.4406      1.00000
     27      -5.3185      1.00000
     28      -5.3037      1.00000
     29      -5.1230      1.00000
     30      -5.0469      1.00000
     31      -4.9095      1.00000
     32      -4.9070      1.00000
     33      -4.8339      1.00000
     34      -4.7761      1.00003
     35      -4.7621      1.00004
     36      -4.5900      1.00294
     37      -4.5746      1.00395
     38      -4.5332      1.00813
     39      -4.4874      1.01579
     40      -4.4538      1.02317
     41      -4.3820      1.03543
     42      -4.3615      1.03411
     43      -4.2902      0.98469
     44      -4.2600      0.93257
     45      -4.2008      0.76520
     46      -4.1363      0.50862
     47      -4.1142      0.41575
     48      -4.0679      0.23573
     49      -4.0099      0.07040
     50      -3.9855      0.02578
     51      -3.9612     -0.00492
     52      -3.8820     -0.03526
     53      -3.8284     -0.02633
     54      -3.6701     -0.00248
     55      -2.8126     -0.00000
     56      -2.3967     -0.00000
     57      -2.3047     -0.00000
     58      -2.2155     -0.00000
     59      -2.1981     -0.00000
     60      -2.1844     -0.00000
     61      -0.7268     -0.00000
     62      -0.5280     -0.00000
     63      -0.2650     -0.00000
     64      -0.1667     -0.00000
     65      -0.1216     -0.00000
     66       0.0736     -0.00000


--------------------------------------------------------------------------------------------------------


 soft charge-density along one line, spin component            1
         0         1         2         3         4         5         6         7         8         9
 total charge-density along one line
 
 soft charge-density along one line, spin component            2
         0         1         2         3         4         5         6         7         8         9
 total charge-density along one line
 
 pseudopotential strength for first ion, spin component:            1
-10.124   0.108   0.080  -0.087   0.104 -10.402   0.104   0.077
  0.108 -10.219  -0.167  -0.036   0.043   0.104 -10.493  -0.160
  0.080  -0.167 -10.151  -0.029  -0.089   0.077  -0.160 -10.428
 -0.087  -0.036  -0.029 -10.193   0.039  -0.082  -0.035  -0.028
  0.104   0.043  -0.089   0.039 -10.274   0.099   0.041  -0.086
-10.402   0.104   0.077  -0.082   0.099 -10.625   0.099   0.073
  0.104 -10.493  -0.160  -0.035   0.041   0.099 -10.712  -0.153
  0.077  -0.160 -10.428  -0.028  -0.086   0.073  -0.153 -10.650
 -0.082  -0.035  -0.028 -10.468   0.038  -0.078  -0.033  -0.027
  0.099   0.041  -0.086   0.038 -10.546   0.095   0.039  -0.082
  0.013   0.030  -0.004  -0.017  -0.011   0.013   0.029  -0.004
  0.023   0.053  -0.007  -0.030  -0.019   0.022   0.051  -0.006
  0.009   0.005   0.002  -0.000   0.006   0.009   0.005   0.001
 -0.000  -0.013   0.008   0.002  -0.000  -0.000  -0.012   0.008
 -0.010  -0.000  -0.005   0.004   0.002  -0.009  -0.000  -0.005
  0.011   0.002   0.000  -0.001   0.004   0.010   0.001  -0.000
 -0.001  -0.012   0.006   0.002  -0.000  -0.001  -0.011   0.005
 -0.009  -0.001  -0.006   0.001   0.001  -0.008  -0.001  -0.005
 pseudopotential strength for first ion, spin component:            2
 -9.391  -0.008   0.026  -0.058  -0.051  -9.704  -0.009   0.024
 -0.008  -9.375   0.027  -0.036   0.085  -0.009  -9.689   0.027
  0.026   0.027  -9.355   0.035  -0.018   0.024   0.027  -9.669
 -0.058  -0.036   0.035  -9.296   0.026  -0.055  -0.034   0.034
 -0.051   0.085  -0.018   0.026  -9.320  -0.049   0.082  -0.017
 -9.704  -0.009   0.024  -0.055  -0.049  -9.960  -0.009   0.023
 -0.009  -9.689   0.027  -0.034   0.082  -0.009  -9.945   0.026
  0.024   0.027  -9.669   0.034  -0.017   0.023   0.026  -9.927
 -0.055  -0.034   0.034  -9.613   0.025  -0.052  -0.033   0.032
 -0.049   0.082  -0.017   0.025  -9.635  -0.047   0.078  -0.017
  0.005   0.013  -0.003  -0.006  -0.004   0.005   0.012  -0.003
  0.009   0.022  -0.005  -0.011  -0.007   0.008   0.021  -0.005
  0.005   0.015   0.009   0.001   0.015   0.004   0.014   0.008
  0.001  -0.015   0.016   0.004  -0.001   0.001  -0.014   0.015
 -0.015   0.001  -0.003   0.014   0.005  -0.014   0.001  -0.003
  0.004   0.016   0.010   0.001   0.017   0.004   0.015   0.009
  0.001  -0.015   0.016   0.005  -0.001   0.001  -0.014   0.015
 -0.016   0.001  -0.003   0.015   0.006  -0.015   0.001  -0.003
 total augmentation occupancy for first ion, spin component:            1
  3.194   0.120   0.218  -0.309   0.311  -1.263   0.027  -0.149   0.211  -0.096   0.108  -0.004   0.071   0.051  -0.242  -0.000
  0.120   2.837  -0.272   0.044   0.076   0.010  -1.026   0.025  -0.010  -0.038  -0.255  -0.035   0.099  -0.055   0.020   0.014
  0.218  -0.272   3.133  -0.218  -0.074  -0.143   0.025  -1.264   0.085  -0.054   0.093   0.018   0.166   0.221  -0.075  -0.006
 -0.309   0.044  -0.218   2.677  -0.042   0.218   0.004   0.081  -1.012   0.051   0.148  -0.001   0.004  -0.020   0.180   0.001
  0.311   0.076  -0.074  -0.042   2.484  -0.103  -0.046  -0.031   0.039  -0.887   0.031  -0.025   0.109   0.023  -0.014   0.003
 -1.263   0.010  -0.143   0.218  -0.103   1.170  -0.074   0.111  -0.156  -0.004  -0.103   0.014  -0.040  -0.042   0.277   0.005
  0.027  -1.026   0.025   0.004  -0.046  -0.074   0.982   0.085  -0.038  -0.007   0.277   0.012  -0.158   0.054  -0.025   0.011
 -0.149   0.025  -1.264   0.081  -0.031   0.111   0.085   1.201  -0.002   0.112  -0.068  -0.011  -0.220  -0.272   0.050   0.018
  0.211  -0.010   0.085  -1.012   0.039  -0.156  -0.038  -0.002   1.069  -0.034  -0.104   0.008  -0.014  -0.010  -0.251   0.000
 -0.096  -0.038  -0.054   0.051  -0.887  -0.004  -0.007   0.112  -0.034   0.975  -0.034   0.015  -0.166  -0.039  -0.023   0.015
  0.108  -0.255   0.093   0.148   0.031  -0.103   0.277  -0.068  -0.104  -0.034   1.935  -0.188   0.203  -0.252  -0.047  -0.034
 -0.004  -0.035   0.018  -0.001  -0.025   0.014   0.012  -0.011   0.008   0.015  -0.188   0.026  -0.031   0.038   0.004   0.004
  0.071   0.099   0.166   0.004   0.109  -0.040  -0.158  -0.220  -0.014  -0.166   0.203  -0.031   0.171   0.034  -0.019  -0.017
  0.051  -0.055   0.221  -0.020   0.023  -0.042   0.054  -0.272  -0.010  -0.039  -0.252   0.038   0.034   0.160  -0.026   0.000
 -0.242   0.020  -0.075   0.180  -0.014   0.277  -0.025   0.050  -0.251  -0.023  -0.047   0.004  -0.019  -0.026   0.181   0.002
 -0.000   0.014  -0.006   0.001   0.003   0.005   0.011   0.018   0.000   0.015  -0.034   0.004  -0.017   0.000   0.002   0.002
 -0.000  -0.013   0.007   0.003  -0.003   0.001  -0.004   0.022   0.002   0.004   0.043  -0.005   0.000  -0.017   0.001  -0.001
  0.000   0.001   0.001   0.005   0.003  -0.022   0.000  -0.004   0.022   0.002   0.008  -0.001   0.002   0.001  -0.016  -0.000
 total augmentation occupancy for first ion, spin component:            2
  0.741  -0.317  -0.172   0.153  -0.392  -0.346   0.139   0.089  -0.082   0.171   0.014   0.013  -0.041   0.002  -0.012  -0.002
 -0.317   1.045   0.518  -0.026  -0.012   0.156  -0.487  -0.236   0.027   0.028  -0.042  -0.018   0.052   0.007   0.017   0.009
 -0.172   0.518   0.896   0.134   0.192   0.085  -0.234  -0.410  -0.049  -0.075  -0.014   0.000   0.040   0.011   0.011   0.007
  0.153  -0.026   0.134   1.213  -0.041  -0.090   0.013  -0.048  -0.571   0.013  -0.029  -0.006   0.007   0.009   0.031   0.001
 -0.392  -0.012   0.192  -0.041   1.396   0.181   0.035  -0.100   0.025  -0.666  -0.013  -0.013   0.051   0.007   0.027   0.007
 -0.346   0.156   0.085  -0.090   0.181   0.083  -0.065  -0.041   0.038  -0.068  -0.007  -0.007   0.016  -0.002  -0.003  -0.000
  0.139  -0.487  -0.234   0.013   0.035  -0.065   0.139   0.091  -0.012  -0.022   0.010   0.012  -0.014  -0.003  -0.007  -0.005
  0.089  -0.236  -0.410  -0.048  -0.100  -0.041   0.091   0.101   0.007   0.034   0.004  -0.002  -0.010   0.006  -0.002  -0.004
 -0.082   0.027  -0.049  -0.571   0.025   0.038  -0.012   0.007   0.176  -0.010   0.005  -0.002  -0.001  -0.002  -0.003  -0.000
  0.171   0.028  -0.075   0.013  -0.666  -0.068  -0.022   0.034  -0.010   0.225   0.008   0.005  -0.015  -0.002  -0.009  -0.003
  0.014  -0.042  -0.014  -0.029  -0.013  -0.007   0.010   0.004   0.005   0.008  -0.124   0.049  -0.024   0.023  -0.009   0.002
  0.013  -0.018   0.000  -0.006  -0.013  -0.007   0.012  -0.002  -0.002   0.005   0.049  -0.007   0.004  -0.005  -0.001  -0.001
 -0.041   0.052   0.040   0.007   0.051   0.016  -0.014  -0.010  -0.001  -0.015  -0.024   0.004  -0.000  -0.001   0.004   0.002
  0.002   0.007   0.011   0.009   0.007  -0.002  -0.003   0.006  -0.002  -0.002   0.023  -0.005  -0.001  -0.007   0.000   0.000
 -0.012   0.017   0.011   0.031   0.027  -0.003  -0.007  -0.002  -0.003  -0.009  -0.009  -0.001   0.004   0.000  -0.005  -0.000
 -0.002   0.009   0.007   0.001   0.007  -0.000  -0.005  -0.004  -0.000  -0.003   0.002  -0.001   0.002   0.000  -0.000  -0.000
  0.002  -0.004   0.007   0.002   0.000  -0.001   0.003  -0.005  -0.001  -0.001  -0.003   0.001   0.000   0.002  -0.001   0.000
 -0.006   0.001   0.000   0.009   0.002   0.004  -0.001   0.000  -0.005  -0.001   0.000  -0.000  -0.000  -0.000   0.002   0.000


------------------------ aborting loop because EDIFF is reached ----------------------------------------


    CHARGE:  cpu time    0.7199: real time    0.7202
    FORLOC:  cpu time    0.0767: real time    0.0767
    FORNL :  cpu time    1.4051: real time    1.6058
    FORCOR:  cpu time    2.1754: real time    2.1803
    FORHAR:  cpu time    0.3087: real time    0.3090
    MIXING:  cpu time    0.0679: real time    0.0680
    OFIELD:  cpu time    0.0000: real time    0.0000

 VOLUME and BASIS-vectors are now :
 -----------------------------------------------------------------------------
  energy-cutoff  :      400.00
  volume of cell :    12805.31
      direct lattice vectors                 reciprocal lattice vectors
    23.250204164  0.000000000  0.000000000     0.043010375  0.000000000  0.000000000
     0.000000000 22.765437008  0.000000000     0.000000000  0.043926238  0.000000000
     0.000000000  0.000000000 24.192857944     0.000000000  0.000000000  0.041334513

  length of vectors
    23.250204164 22.765437008 24.192857944     0.043010375  0.043926238  0.041334513


 FORCES acting on ions
    electron-ion (+dipol)            ewald-force                    non-local-force                 convergence-correction
 -----------------------------------------------------------------------------------------------
   -.116E+03 0.630E+03 -.808E+03   0.115E+03 -.627E+03 0.804E+03   0.924E+00 -.294E+01 0.385E+01   0.606E-01 0.570E-01 0.118E+00
   -.253E+03 0.976E+03 0.285E+03   0.252E+03 -.968E+03 -.283E+03   0.857E+00 -.717E+01 -.265E+01   0.429E-01 0.203E-01 0.685E-01
   -.359E+03 -.553E+03 -.759E+03   0.357E+03 0.550E+03 0.755E+03   0.152E+01 0.216E+01 0.364E+01   0.242E-01 -.280E-01 0.399E-01
   0.735E+03 0.579E+03 0.651E+02   -.734E+03 -.577E+03 -.655E+02   -.145E+01 -.215E+01 0.308E+00   0.354E-01 0.440E-01 0.946E-01
   0.430E+03 -.814E+03 0.906E+02   -.429E+03 0.812E+03 -.910E+02   -.105E+01 0.249E+01 0.384E+00   0.694E-01 0.589E-01 0.719E-01
   0.712E+03 -.128E+03 0.742E+03   -.706E+03 0.127E+03 -.737E+03   -.675E+01 0.142E+01 -.560E+01   -.137E-01 0.388E-01 -.407E-01
   -.974E+03 0.173E+03 -.588E+02   0.968E+03 -.172E+03 0.584E+02   0.613E+01 -.831E+00 0.322E+00   -.209E-01 0.547E-01 0.809E-01
   -.328E+03 0.497E+02 0.911E+03   0.325E+03 -.496E+02 -.907E+03   0.274E+01 -.195E+00 -.415E+01   0.439E-01 0.589E-01 -.376E-02
   0.704E+03 -.151E+03 -.736E+03   -.698E+03 0.149E+03 0.731E+03   -.631E+01 0.152E+01 0.514E+01   0.894E-01 0.148E-01 0.471E-01
   -.553E+03 -.761E+03 0.269E+03   0.549E+03 0.755E+03 -.266E+03   0.391E+01 0.607E+01 -.274E+01   0.883E-03 0.335E-04 0.605E-01
 -----------------------------------------------------------------------------------------------
   -.875E+00 -.688E+00 0.933E+00   0.114E-12 0.341E-12 -.114E-12   0.535E+00 0.377E+00 -.148E+01   0.332E+00 0.319E+00 0.537E+00
 
 
 POSITION                                       TOTAL-FORCE (eV/Angst)
 -----------------------------------------------------------------------------------
     11.53185     10.89048     13.56051         0.006399     -0.010310     -0.007946
     11.93077      9.90445     11.48235        -0.015414      0.018083     -0.005895
     11.97429     13.12062     13.48863        -0.000657     -0.016344     -0.012402
     10.01632     11.17502     11.81261         0.006405     -0.005019      0.005854
     10.46951     13.42674     11.77361         0.000597      0.025401     -0.014143
      9.39601     12.43188      9.98678        -0.014979     -0.014160     -0.016890
     13.53029     11.63581     12.20717        -0.018657     -0.001266      0.023538
     11.76692     11.98197     10.12136         0.024995      0.000625      0.000237
      9.61106     12.44050     13.93679         0.016205      0.004275      0.031317
     12.82676     14.12382     11.40097        -0.004893     -0.001285     -0.003671
 -----------------------------------------------------------------------------------
    total drift:                               -0.008098      0.007826     -0.014344


--------------------------------------------------------------------------------------------------------



  FREE ENERGIE OF THE ION-ELECTRON SYSTEM (eV)
  ---------------------------------------------------
  free  energy   TOTEN  =       -37.40181338 eV

  energy  without entropy=      -37.38489463  energy(sigma->0) =      -37.39617379
 
 d Force = 0.3364587E-05[ 0.775E-06, 0.595E-05]  d Energy = 0.1742108E-03-0.171E-03
 d Force = 0.5131387E+00[ 0.513E+00, 0.513E+00]  d Ewald  = 0.5131387E+00-0.970E-08


--------------------------------------------------------------------------------------------------------


    POTLOK:  cpu time    2.3261: real time    2.3352


--------------------------------------------------------------------------------------------------------




--------------------------------------------------------------------------------------------------------


  
 reached required accuracy - stopping structural energy minimisation
     LOOP+:  cpu time   74.4967: real time   75.4593
    4ORBIT:  cpu time    0.0000: real time    0.0000

 total amount of memory used by VASP MPI-rank0   164702. kBytes
=======================================================================

   base      :      30000. kBytes
   nonl-proj :       6517. kBytes
   fftplans  :      31650. kBytes
   grid      :      81123. kBytes
   one-center:         31. kBytes
   wavefun   :      15381. kBytes
 
  
  
 General timing and accounting informations for this job:
 ========================================================
  
                  Total CPU time used (sec):     2571.690
                            User time (sec):     2550.739
                          System time (sec):       20.950
                         Elapsed time (sec):     2592.347
  
                   Maximum memory used (kb):      334916.
                   Average memory used (kb):           0.
  
                          Minor page faults:      4760078
                          Major page faults:        98101
                 Voluntary context switches:         3725
