unknown system                          
            1
    23.250204    0.000000    0.000000
     0.000000   22.765437    0.000000
     0.000000    0.000000   24.192858
   Ni   Pd
     6     4
Direct configuration=     1
   0.49712323  0.47547872  0.56253476
   0.51569713  0.43077196  0.47216250
   0.51732965  0.58082501  0.56169023
   0.42867039  0.48811952  0.48786147
   0.44851642  0.59428542  0.48674673
   0.40277865  0.54693365  0.40863633
   0.57760495  0.51368790  0.50376415
   0.50576228  0.52717750  0.42316119
   0.41674757  0.54628081  0.57384693
   0.55225497  0.61728128  0.47026295
Direct configuration=     2
   0.49715811  0.47621155  0.56109887
   0.51490430  0.43181661  0.47299309
   0.51671276  0.57988139  0.56076651
   0.43003255  0.48907597  0.48716738
   0.44877799  0.59268647  0.48631800
   0.40373941  0.54675585  0.41006781
   0.57839156  0.51228303  0.50511047
   0.50384793  0.52637250  0.42242668
   0.41651985  0.54633083  0.57427134
   0.55240077  0.61942757  0.47044710
Direct configuration=     3
   0.49717814  0.47663241  0.56027424
   0.51444898  0.43241654  0.47347010
   0.51635848  0.57933948  0.56023602
   0.43081483  0.48962526  0.48676876
   0.44892821  0.59176819  0.48607179
   0.40429118  0.54665373  0.41088990
   0.57884330  0.51147622  0.50588365
   0.50274853  0.52591019  0.42200486
   0.41638907  0.54635956  0.57451508
   0.55248450  0.62066018  0.47055285
Direct configuration=     4
   0.49679989  0.47712699  0.55962379
   0.51390879  0.43269239  0.47400688
   0.51595092  0.57879801  0.55914099
   0.43116648  0.48977087  0.48704079
   0.44960023  0.59120075  0.48627795
   0.40361230  0.54676900  0.41133543
   0.57948514  0.51139666  0.50604264
   0.50383221  0.52581544  0.42127914
   0.41602739  0.54633715  0.57493048
   0.55210189  0.62093450  0.47098915
Direct configuration=     5
   0.49636435  0.47769646  0.55887485
   0.51328679  0.43301002  0.47462494
   0.51548164  0.57817455  0.55788015
   0.43157137  0.48993853  0.48735401
   0.45037401  0.59054738  0.48651532
   0.40283063  0.54690171  0.41184842
   0.58022417  0.51130506  0.50622570
   0.50507998  0.52570634  0.42044353
   0.41561094  0.54631135  0.57540879
   0.55166133  0.62125037  0.47149153
Direct configuration=     6
   0.49611753  0.47790362  0.55930197
   0.51317588  0.43299795  0.47465123
   0.51532833  0.57786985  0.55763290
   0.43122769  0.49024981  0.48712801
   0.45043002  0.59022561  0.48625747
   0.40305040  0.54679826  0.41257356
   0.58100600  0.51136516  0.50588941
   0.50554527  0.52585103  0.41983022
   0.41502468  0.54633287  0.57582103
   0.55157943  0.62124761  0.47158143
Direct configuration=     7
   0.49599646  0.47800522  0.55951147
   0.51312148  0.43299204  0.47466412
   0.51525314  0.57772039  0.55751163
   0.43105911  0.49040249  0.48701717
   0.45045749  0.59006779  0.48613100
   0.40315820  0.54674752  0.41292923
   0.58138947  0.51139464  0.50572447
   0.50577348  0.52592200  0.41952940
   0.41473713  0.54634343  0.57602323
   0.55153927  0.62124625  0.47162553
Direct configuration=     8
   0.49594010  0.47824870  0.55971570
   0.51314442  0.43350801  0.47471147
   0.51512457  0.57729365  0.55760484
   0.43099486  0.49038940  0.48725795
   0.45037801  0.59004470  0.48620293
   0.40333908  0.54665986  0.41300269
   0.58150835  0.51128122  0.50536174
   0.50597826  0.52593861  0.41925469
   0.41445299  0.54634353  0.57603906
   0.55162458  0.62113409  0.47151616
Direct configuration=     9
   0.49585022  0.47863692  0.56004134
   0.51318100  0.43433070  0.47478696
   0.51491958  0.57661321  0.55775346
   0.43089240  0.49036852  0.48764188
   0.45025127  0.59000789  0.48631763
   0.40362751  0.54652008  0.41311982
   0.58169791  0.51110037  0.50478339
   0.50630477  0.52596510  0.41881667
   0.41399994  0.54634370  0.57606432
   0.55176062  0.62095526  0.47134177
Direct configuration=    10
   0.49594809  0.47853842  0.56029650
   0.51320913  0.43483792  0.47474157
   0.51499762  0.57646365  0.55756504
   0.43084378  0.49057396  0.48796899
   0.45037619  0.58990238  0.48653813
   0.40391671  0.54631066  0.41297347
   0.58177037  0.51111084  0.50454068
   0.50623639  0.52615437  0.41861266
   0.41353461  0.54641429  0.57607117
   0.55165233  0.62053526  0.47135902
Direct configuration=    11
   0.49597638  0.47850995  0.56037026
   0.51321727  0.43498454  0.47472844
   0.51502017  0.57642042  0.55751058
   0.43082973  0.49063335  0.48806355
   0.45041229  0.58987187  0.48660188
   0.40400031  0.54625013  0.41293117
   0.58179131  0.51111387  0.50447052
   0.50621663  0.52620908  0.41855369
   0.41340010  0.54643469  0.57607315
   0.55162102  0.62041386  0.47136401
Direct configuration=    12
   0.49598823  0.47838668  0.56050729
   0.51315147  0.43505992  0.47462469
   0.51501865  0.57634472  0.55754361
   0.43080729  0.49086033  0.48825495
   0.45030535  0.58979203  0.48665288
   0.40411747  0.54609672  0.41280769
   0.58193283  0.51111714  0.50457028
   0.50610731  0.52631534  0.41837428
   0.41337702  0.54646225  0.57607054
   0.55167961  0.62040663  0.47126103
Direct configuration=    13
   0.49598908  0.47837787  0.56051707
   0.51314677  0.43506531  0.47461728
   0.51501854  0.57633931  0.55754596
   0.43080569  0.49087654  0.48826862
   0.45029772  0.58978633  0.48665653
   0.40412584  0.54608577  0.41279887
   0.58194294  0.51111737  0.50457740
   0.50609950  0.52632292  0.41836147
   0.41337537  0.54646422  0.57607035
   0.55168379  0.62040612  0.47125368
