   8   8   0   0
  0.1447177E+04  0.2138459E-08  0.2273816E-08  0.2380978E-08  0.5000000E-15
   1.0000000000000000E-004
  CAR 
 unknown system                          
      2.09311666    -12.83749073  301     -5.10939376      1.00000000
    -12.837  0.0000E+00  0.0000E+00  0.0000E+00  0.0000E+00
    -12.788  0.0000E+00  0.0000E+00  0.0000E+00  0.0000E+00
    -12.738  0.0000E+00  0.0000E+00  0.0000E+00  0.0000E+00
    -12.688  0.0000E+00  0.0000E+00  0.0000E+00  0.0000E+00
    -12.638  0.0000E+00  0.0000E+00  0.0000E+00  0.0000E+00
    -12.589  0.0000E+00  0.0000E+00  0.0000E+00  0.0000E+00
    -12.539  0.0000E+00  0.0000E+00  0.0000E+00  0.0000E+00
    -12.489  0.0000E+00  0.0000E+00  0.0000E+00  0.0000E+00
    -12.439 -0.6278E-29 -0.6278E-29 -0.3125E-30 -0.3125E-30
    -12.390 -0.3016E-27 -0.3016E-27 -0.1532E-28 -0.1532E-28
    -12.340 -0.1302E-25 -0.1302E-25 -0.6632E-27 -0.6632E-27
    -12.290 -0.4957E-24 -0.4957E-24 -0.2533E-25 -0.2533E-25
    -12.240 -0.1665E-22 -0.1665E-22 -0.8540E-24 -0.8540E-24
    -12.190 -0.4932E-21 -0.4932E-21 -0.2540E-22 -0.2540E-22
    -12.141 -0.1289E-19 -0.1289E-19 -0.6667E-21 -0.6667E-21
    -12.091 -0.2968E-18 -0.2968E-18 -0.1544E-19 -0.1544E-19
    -12.041 -0.6025E-17 -0.6025E-17 -0.3153E-18 -0.3153E-18
    -11.991 -0.1044E-15 -0.1044E-15 -0.5513E-17 -0.5513E-17
    -11.942 -0.1644E-14 -0.1644E-14 -0.8734E-16 -0.8734E-16
    -11.892 -0.2274E-13 -0.2274E-13 -0.1219E-14 -0.1219E-14
    -11.842 -0.2769E-12 -0.2769E-12 -0.1500E-13 -0.1500E-13
    -11.792 -0.2965E-11 -0.2965E-11 -0.1626E-12 -0.1626E-12
    -11.743 -0.2790E-10 -0.2790E-10 -0.1551E-11 -0.1551E-11
    -11.693 -0.2305E-09 -0.2305E-09 -0.1302E-10 -0.1302E-10
    -11.643 -0.1671E-08 -0.1671E-08 -0.9619E-10 -0.9619E-10
    -11.593 -0.1061E-07 -0.1061E-07 -0.6244E-09 -0.6244E-09
    -11.544 -0.5896E-07 -0.5896E-07 -0.3559E-08 -0.3559E-08
    -11.494 -0.2859E-06 -0.2859E-06 -0.1779E-07 -0.1779E-07
    -11.444 -0.1207E-05 -0.1207E-05 -0.7784E-07 -0.7784E-07
    -11.394 -0.4414E-05 -0.4414E-05 -0.2975E-06 -0.2975E-06
    -11.344 -0.1392E-04 -0.1392E-04 -0.9903E-06 -0.9903E-06
    -11.295 -0.3748E-04 -0.3748E-04 -0.2856E-05 -0.2856E-05
    -11.245 -0.8489E-04 -0.8489E-04 -0.7081E-05 -0.7081E-05
    -11.195 -0.1569E-03 -0.1569E-03 -0.1489E-04 -0.1489E-04
    -11.145 -0.2206E-03 -0.2206E-03 -0.2587E-04 -0.2587E-04
    -11.096 -0.1804E-03 -0.1804E-03 -0.3485E-04 -0.3485E-04
    -11.046  0.1190E-03  0.1190E-03 -0.2893E-04 -0.2893E-04
    -10.996  0.8187E-03  0.8187E-03  0.1182E-04  0.1182E-04
    -10.946  0.1907E-02  0.1907E-02  0.1067E-03  0.1067E-03
    -10.897  0.3118E-02  0.3118E-02  0.2619E-03  0.2619E-03
    -10.847  0.3998E-02  0.3998E-02  0.4609E-03  0.4609E-03
    -10.797  0.4153E-02  0.4153E-02  0.6676E-03  0.6676E-03
    -10.747  0.3509E-02  0.3509E-02  0.8422E-03  0.8422E-03
    -10.697  0.2363E-02  0.2363E-02  0.9598E-03  0.9598E-03
    -10.648  0.1179E-02  0.1179E-02  0.1019E-02  0.1019E-02
    -10.598  0.3067E-03  0.3067E-03  0.1034E-02  0.1034E-02
    -10.548 -0.1664E-03 -0.1664E-03  0.1026E-02  0.1026E-02
    -10.498 -0.3577E-03 -0.3577E-03  0.1008E-02  0.1008E-02
    -10.449 -0.4378E-03 -0.4378E-03  0.9859E-03  0.9859E-03
    -10.399 -0.4917E-03 -0.4917E-03  0.9615E-03  0.9615E-03
    -10.349 -0.4484E-03 -0.4484E-03  0.9392E-03  0.9392E-03
    -10.299 -0.8641E-04 -0.8641E-04  0.9349E-03  0.9349E-03
    -10.250  0.8705E-03  0.8705E-03  0.9782E-03  0.9782E-03
    -10.200  0.2573E-02  0.2574E-02  0.1106E-02  0.1106E-02
    -10.150  0.4870E-02  0.4870E-02  0.1349E-02  0.1349E-02
    -10.100  0.7269E-02  0.7269E-02  0.1710E-02  0.1710E-02
    -10.050  0.9114E-02  0.9114E-02  0.2164E-02  0.2164E-02
    -10.001  0.9876E-02  0.9876E-02  0.2656E-02  0.2656E-02
     -9.951  0.9375E-02  0.9375E-02  0.3122E-02  0.3122E-02
     -9.901  0.7808E-02  0.7808E-02  0.3511E-02  0.3511E-02
     -9.851  0.5640E-02  0.5640E-02  0.3791E-02  0.3791E-02
     -9.802  0.3411E-02  0.3411E-02  0.3961E-02  0.3961E-02
     -9.752  0.1567E-02  0.1567E-02  0.4039E-02  0.4039E-02
     -9.702  0.3327E-03  0.3327E-03  0.4056E-02  0.4056E-02
     -9.652 -0.3147E-03 -0.3147E-03  0.4040E-02  0.4040E-02
     -9.603 -0.5471E-03 -0.5471E-03  0.4013E-02  0.4013E-02
     -9.553 -0.5331E-03 -0.5331E-03  0.3986E-02  0.3986E-02
     -9.503 -0.3204E-03 -0.3204E-03  0.3970E-02  0.3970E-02
     -9.453  0.1655E-03  0.1655E-03  0.3979E-02  0.3979E-02
     -9.403  0.9980E-03  0.9980E-03  0.4028E-02  0.4028E-02
     -9.354  0.2091E-02  0.2091E-02  0.4132E-02  0.4132E-02
     -9.304  0.3155E-02  0.3155E-02  0.4289E-02  0.4289E-02
     -9.254  0.3869E-02  0.3869E-02  0.4482E-02  0.4482E-02
     -9.204  0.4150E-02  0.4150E-02  0.4688E-02  0.4688E-02
     -9.155  0.4271E-02  0.4271E-02  0.4901E-02  0.4901E-02
     -9.105  0.4646E-02  0.4646E-02  0.5132E-02  0.5132E-02
     -9.055  0.5434E-02  0.5434E-02  0.5403E-02  0.5403E-02
     -9.005  0.6351E-02  0.6351E-02  0.5719E-02  0.5719E-02
     -8.956  0.6895E-02  0.6895E-02  0.6062E-02  0.6062E-02
     -8.906  0.6822E-02  0.6822E-02  0.6401E-02  0.6401E-02
     -8.856  0.6409E-02  0.6409E-02  0.6720E-02  0.6720E-02
     -8.806  0.6229E-02  0.6229E-02  0.7030E-02  0.7030E-02
     -8.756  0.6613E-02  0.6613E-02  0.7360E-02  0.7360E-02
     -8.707  0.7324E-02  0.7324E-02  0.7724E-02  0.7724E-02
     -8.657  0.7797E-02  0.7797E-02  0.8112E-02  0.8112E-02
     -8.607  0.7745E-02  0.7745E-02  0.8498E-02  0.8498E-02
     -8.557  0.7497E-02  0.7497E-02  0.8871E-02  0.8871E-02
     -8.508  0.7681E-02  0.7681E-02  0.9253E-02  0.9253E-02
     -8.458  0.8551E-02  0.8551E-02  0.9679E-02  0.9679E-02
     -8.408  0.9671E-02  0.9671E-02  0.1016E-01  0.1016E-01
     -8.358  0.1027E-01  0.1027E-01  0.1067E-01  0.1067E-01
     -8.309  0.9922E-02  0.9922E-02  0.1116E-01  0.1116E-01
     -8.259  0.8905E-02  0.8905E-02  0.1161E-01  0.1161E-01
     -8.209  0.7968E-02  0.7968E-02  0.1200E-01  0.1200E-01
     -8.159  0.7781E-02  0.7781E-02  0.1239E-01  0.1239E-01
     -8.109  0.8557E-02  0.8557E-02  0.1282E-01  0.1282E-01
     -8.060  0.1006E-01  0.1006E-01  0.1332E-01  0.1332E-01
     -8.010  0.1179E-01  0.1179E-01  0.1390E-01  0.1390E-01
     -7.960  0.1315E-01  0.1315E-01  0.1456E-01  0.1456E-01
     -7.910  0.1353E-01  0.1353E-01  0.1523E-01  0.1523E-01
     -7.861  0.1255E-01  0.1255E-01  0.1586E-01  0.1586E-01
     -7.811  0.1040E-01  0.1040E-01  0.1638E-01  0.1638E-01
     -7.761  0.7921E-02  0.7921E-02  0.1677E-01  0.1677E-01
     -7.711  0.6265E-02  0.6265E-02  0.1708E-01  0.1708E-01
     -7.662  0.6092E-02  0.6092E-02  0.1738E-01  0.1738E-01
     -7.612  0.7151E-02  0.7151E-02  0.1774E-01  0.1774E-01
     -7.562  0.8512E-02  0.8512E-02  0.1816E-01  0.1816E-01
     -7.512  0.9304E-02  0.9304E-02  0.1863E-01  0.1863E-01
     -7.462  0.9305E-02  0.9305E-02  0.1909E-01  0.1909E-01
     -7.413  0.8925E-02  0.8925E-02  0.1953E-01  0.1953E-01
     -7.363  0.8693E-02  0.8693E-02  0.1997E-01  0.1997E-01
     -7.313  0.8765E-02  0.8765E-02  0.2040E-01  0.2040E-01
     -7.263  0.8890E-02  0.8890E-02  0.2085E-01  0.2085E-01
     -7.214  0.8856E-02  0.8856E-02  0.2129E-01  0.2129E-01
     -7.164  0.8983E-02  0.8983E-02  0.2173E-01  0.2173E-01
     -7.114  0.1016E-01  0.1016E-01  0.2224E-01  0.2224E-01
     -7.064  0.1326E-01  0.1326E-01  0.2290E-01  0.2290E-01
     -7.015  0.1834E-01  0.1834E-01  0.2381E-01  0.2381E-01
     -6.965  0.2425E-01  0.2425E-01  0.2502E-01  0.2502E-01
     -6.915  0.2910E-01  0.2910E-01  0.2647E-01  0.2647E-01
     -6.865  0.3129E-01  0.3129E-01  0.2802E-01  0.2802E-01
     -6.815  0.3042E-01  0.3042E-01  0.2954E-01  0.2954E-01
     -6.766  0.2730E-01  0.2730E-01  0.3090E-01  0.3090E-01
     -6.716  0.2331E-01  0.2331E-01  0.3206E-01  0.3206E-01
     -6.666  0.1966E-01  0.1966E-01  0.3303E-01  0.3303E-01
     -6.616  0.1696E-01  0.1696E-01  0.3388E-01  0.3388E-01
     -6.567  0.1529E-01  0.1529E-01  0.3464E-01  0.3464E-01
     -6.517  0.1439E-01  0.1439E-01  0.3536E-01  0.3536E-01
     -6.467  0.1398E-01  0.1398E-01  0.3605E-01  0.3605E-01
     -6.417  0.1392E-01  0.1392E-01  0.3674E-01  0.3674E-01
     -6.368  0.1421E-01  0.1421E-01  0.3745E-01  0.3745E-01
     -6.318  0.1478E-01  0.1478E-01  0.3819E-01  0.3819E-01
     -6.268  0.1533E-01  0.1533E-01  0.3895E-01  0.3895E-01
     -6.218  0.1541E-01  0.1541E-01  0.3972E-01  0.3972E-01
     -6.168  0.1461E-01  0.1461E-01  0.4044E-01  0.4044E-01
     -6.119  0.1288E-01  0.1288E-01  0.4109E-01  0.4109E-01
     -6.069  0.1058E-01  0.1058E-01  0.4161E-01  0.4161E-01
     -6.019  0.8270E-02  0.8270E-02  0.4202E-01  0.4202E-01
     -5.969  0.6382E-02  0.6382E-02  0.4234E-01  0.4234E-01
     -5.920  0.4991E-02  0.4991E-02  0.4259E-01  0.4259E-01
     -5.870  0.3867E-02  0.3867E-02  0.4278E-01  0.4278E-01
     -5.820  0.2760E-02  0.2760E-02  0.4292E-01  0.4292E-01
     -5.770  0.1637E-02  0.1637E-02  0.4300E-01  0.4300E-01
     -5.721  0.6531E-03  0.6531E-03  0.4303E-01  0.4303E-01
     -5.671 -0.3466E-04 -0.3467E-04  0.4303E-01  0.4303E-01
     -5.621 -0.3934E-03 -0.3934E-03  0.4301E-01  0.4301E-01
     -5.571 -0.4783E-03 -0.4783E-03  0.4299E-01  0.4299E-01
     -5.521 -0.3115E-03 -0.3114E-03  0.4297E-01  0.4297E-01
     -5.472  0.1743E-03  0.1744E-03  0.4298E-01  0.4298E-01
     -5.422  0.1054E-02  0.1054E-02  0.4303E-01  0.4303E-01
     -5.372  0.2245E-02  0.2245E-02  0.4315E-01  0.4315E-01
     -5.322  0.3422E-02  0.3422E-02  0.4332E-01  0.4332E-01
     -5.273  0.4127E-02  0.4127E-02  0.4352E-01  0.4352E-01
     -5.223  0.4042E-02  0.4042E-02  0.4372E-01  0.4372E-01
     -5.173  0.3210E-02  0.3210E-02  0.4388E-01  0.4388E-01
     -5.123  0.2007E-02  0.2007E-02  0.4398E-01  0.4398E-01
     -5.074  0.8942E-03  0.8941E-03  0.4403E-01  0.4403E-01
     -5.024  0.1552E-03  0.1552E-03  0.4403E-01  0.4403E-01
     -4.974 -0.1837E-03 -0.1837E-03  0.4403E-01  0.4403E-01
     -4.924 -0.2647E-03 -0.2647E-03  0.4401E-01  0.4401E-01
     -4.875 -0.2556E-03 -0.2556E-03  0.4400E-01  0.4400E-01
     -4.825 -0.2560E-03 -0.2560E-03  0.4399E-01  0.4399E-01
     -4.775 -0.2642E-03 -0.2642E-03  0.4397E-01  0.4397E-01
     -4.725 -0.1773E-03 -0.1773E-03  0.4397E-01  0.4397E-01
     -4.675  0.1735E-03  0.1736E-03  0.4397E-01  0.4397E-01
     -4.626  0.9271E-03  0.9271E-03  0.4402E-01  0.4402E-01
     -4.576  0.2049E-02  0.2049E-02  0.4412E-01  0.4412E-01
     -4.526  0.3245E-02  0.3245E-02  0.4428E-01  0.4428E-01
     -4.476  0.4051E-02  0.4051E-02  0.4448E-01  0.4448E-01
     -4.427  0.4094E-02  0.4094E-02  0.4469E-01  0.4469E-01
     -4.377  0.3338E-02  0.3338E-02  0.4485E-01  0.4485E-01
     -4.327  0.2106E-02  0.2105E-02  0.4496E-01  0.4496E-01
     -4.277  0.8748E-03  0.8748E-03  0.4500E-01  0.4500E-01
     -4.228  0.3216E-04  0.3215E-04  0.4500E-01  0.4500E-01
     -4.178 -0.2250E-03 -0.2250E-03  0.4499E-01  0.4499E-01
     -4.128  0.1504E-03  0.1504E-03  0.4500E-01  0.4500E-01
     -4.078  0.1087E-02  0.1087E-02  0.4506E-01  0.4506E-01
     -4.028  0.2353E-02  0.2353E-02  0.4517E-01  0.4517E-01
     -3.979  0.3531E-02  0.3531E-02  0.4535E-01  0.4535E-01
     -3.929  0.4152E-02  0.4152E-02  0.4555E-01  0.4555E-01
     -3.879  0.3949E-02  0.3949E-02  0.4575E-01  0.4575E-01
     -3.829  0.3034E-02  0.3034E-02  0.4590E-01  0.4590E-01
     -3.780  0.1819E-02  0.1819E-02  0.4599E-01  0.4599E-01
     -3.730  0.7532E-03  0.7532E-03  0.4603E-01  0.4603E-01
     -3.680  0.8450E-04  0.8449E-04  0.4603E-01  0.4603E-01
     -3.630 -0.1920E-03 -0.1920E-03  0.4602E-01  0.4602E-01
     -3.581 -0.2249E-03 -0.2249E-03  0.4601E-01  0.4601E-01
     -3.531 -0.1721E-03 -0.1721E-03  0.4601E-01  0.4601E-01
     -3.481 -0.1331E-03 -0.1332E-03  0.4600E-01  0.4600E-01
     -3.431 -0.1458E-03 -0.1458E-03  0.4599E-01  0.4599E-01
     -3.381 -0.1992E-03 -0.1992E-03  0.4598E-01  0.4598E-01
     -3.332 -0.2290E-03 -0.2290E-03  0.4597E-01  0.4597E-01
     -3.282 -0.1054E-03 -0.1053E-03  0.4596E-01  0.4596E-01
     -3.232  0.3384E-03  0.3387E-03  0.4598E-01  0.4598E-01
     -3.182  0.1202E-02  0.1203E-02  0.4604E-01  0.4604E-01
     -3.133  0.2380E-02  0.2380E-02  0.4616E-01  0.4616E-01
     -3.083  0.3508E-02  0.3508E-02  0.4633E-01  0.4633E-01
     -3.033  0.4110E-02  0.4111E-02  0.4654E-01  0.4654E-01
     -2.983  0.3886E-02  0.3886E-02  0.4673E-01  0.4673E-01
     -2.934  0.2917E-02  0.2916E-02  0.4688E-01  0.4688E-01
     -2.884  0.1642E-02  0.1642E-02  0.4696E-01  0.4696E-01
     -2.834  0.6186E-03  0.6183E-03  0.4699E-01  0.4699E-01
     -2.784  0.2602E-03  0.2602E-03  0.4700E-01  0.4700E-01
     -2.734  0.6977E-03  0.6978E-03  0.4704E-01  0.4704E-01
     -2.685  0.1767E-02  0.1767E-02  0.4713E-01  0.4713E-01
     -2.635  0.3101E-02  0.3101E-02  0.4728E-01  0.4728E-01
     -2.585  0.4301E-02  0.4300E-02  0.4749E-01  0.4749E-01
     -2.535  0.5115E-02  0.5114E-02  0.4775E-01  0.4775E-01
     -2.486  0.5491E-02  0.5489E-02  0.4802E-01  0.4802E-01
     -2.436  0.5471E-02  0.5470E-02  0.4829E-01  0.4829E-01
     -2.386  0.5059E-02  0.5058E-02  0.4855E-01  0.4855E-01
     -2.336  0.4228E-02  0.4229E-02  0.4876E-01  0.4876E-01
     -2.287  0.3059E-02  0.3061E-02  0.4891E-01  0.4891E-01
     -2.237  0.1795E-02  0.1796E-02  0.4900E-01  0.4900E-01
     -2.187  0.7349E-03  0.7363E-03  0.4903E-01  0.4903E-01
     -2.137  0.6142E-04  0.6215E-04  0.4904E-01  0.4904E-01
     -2.087 -0.2397E-03 -0.2395E-03  0.4903E-01  0.4903E-01
     -2.038 -0.3133E-03 -0.3134E-03  0.4901E-01  0.4901E-01
     -1.988 -0.3132E-03 -0.3133E-03  0.4899E-01  0.4899E-01
     -1.938 -0.3107E-03 -0.3108E-03  0.4898E-01  0.4898E-01
     -1.888 -0.2620E-03 -0.2620E-03  0.4897E-01  0.4897E-01
     -1.839 -0.2763E-04 -0.2736E-04  0.4896E-01  0.4896E-01
     -1.789  0.5465E-03  0.5471E-03  0.4899E-01  0.4899E-01
     -1.739  0.1502E-02  0.1502E-02  0.4907E-01  0.4907E-01
     -1.689  0.2671E-02  0.2672E-02  0.4920E-01  0.4920E-01
     -1.640  0.3734E-02  0.3734E-02  0.4939E-01  0.4939E-01
     -1.590  0.4419E-02  0.4418E-02  0.4961E-01  0.4961E-01
     -1.540  0.4686E-02  0.4684E-02  0.4984E-01  0.4984E-01
     -1.490  0.4692E-02  0.4689E-02  0.5007E-01  0.5007E-01
     -1.440  0.4581E-02  0.4579E-02  0.5030E-01  0.5030E-01
     -1.391  0.4345E-02  0.4343E-02  0.5052E-01  0.5052E-01
     -1.341  0.3928E-02  0.3928E-02  0.5071E-01  0.5071E-01
     -1.291  0.3431E-02  0.3431E-02  0.5088E-01  0.5088E-01
     -1.241  0.3110E-02  0.3109E-02  0.5104E-01  0.5104E-01
     -1.192  0.3143E-02  0.3141E-02  0.5119E-01  0.5119E-01
     -1.142  0.3445E-02  0.3445E-02  0.5137E-01  0.5136E-01
     -1.092  0.3796E-02  0.3798E-02  0.5155E-01  0.5155E-01
     -1.042  0.4140E-02  0.4145E-02  0.5176E-01  0.5176E-01
     -0.993  0.4699E-02  0.4705E-02  0.5199E-01  0.5199E-01
     -0.943  0.5691E-02  0.5694E-02  0.5228E-01  0.5228E-01
     -0.893  0.6943E-02  0.6942E-02  0.5262E-01  0.5262E-01
     -0.843  0.7833E-02  0.7828E-02  0.5301E-01  0.5301E-01
     -0.793  0.7703E-02  0.7697E-02  0.5340E-01  0.5340E-01
     -0.744  0.6369E-02  0.6366E-02  0.5371E-01  0.5371E-01
     -0.694  0.4273E-02  0.4274E-02  0.5393E-01  0.5393E-01
     -0.644  0.2163E-02  0.2166E-02  0.5403E-01  0.5403E-01
     -0.594  0.6216E-03  0.6250E-03  0.5406E-01  0.5406E-01
     -0.545 -0.1861E-03 -0.1835E-03  0.5405E-01  0.5405E-01
     -0.495 -0.4376E-03 -0.4357E-03  0.5403E-01  0.5403E-01
     -0.445 -0.4265E-03 -0.4238E-03  0.5401E-01  0.5401E-01
     -0.395 -0.3790E-03 -0.3724E-03  0.5399E-01  0.5399E-01
     -0.346 -0.3814E-03 -0.3673E-03  0.5397E-01  0.5398E-01
     -0.296 -0.3770E-03 -0.3544E-03  0.5396E-01  0.5396E-01
     -0.246 -0.1873E-03 -0.1653E-03  0.5395E-01  0.5395E-01
     -0.196  0.4305E-03  0.4229E-03  0.5397E-01  0.5397E-01
     -0.146  0.1656E-02  0.1570E-02  0.5405E-01  0.5405E-01
     -0.097  0.3437E-02  0.3227E-02  0.5422E-01  0.5421E-01
     -0.047  0.5397E-02  0.5064E-02  0.5449E-01  0.5446E-01
      0.003  0.6927E-02  0.6554E-02  0.5483E-01  0.5479E-01
      0.053  0.7465E-02  0.7193E-02  0.5521E-01  0.5515E-01
      0.102  0.6800E-02  0.6752E-02  0.5554E-01  0.5548E-01
      0.152  0.5192E-02  0.5391E-02  0.5580E-01  0.5575E-01
      0.202  0.3225E-02  0.3576E-02  0.5596E-01  0.5593E-01
      0.252  0.1493E-02  0.1852E-02  0.5604E-01  0.5602E-01
      0.301  0.3404E-03  0.5988E-03  0.5605E-01  0.5605E-01
      0.351 -0.2078E-03 -0.7912E-04  0.5604E-01  0.5605E-01
      0.401 -0.3358E-03 -0.3037E-03  0.5603E-01  0.5603E-01
      0.451 -0.2674E-03 -0.2813E-03  0.5601E-01  0.5602E-01
      0.501 -0.1583E-03 -0.1817E-03  0.5601E-01  0.5601E-01
      0.550 -0.7616E-04 -0.9346E-04  0.5600E-01  0.5600E-01
      0.600 -0.3079E-04 -0.4003E-04  0.5600E-01  0.5600E-01
      0.650 -0.1064E-04 -0.1457E-04  0.5600E-01  0.5600E-01
      0.700 -0.3170E-05 -0.4560E-05  0.5600E-01  0.5600E-01
      0.749 -0.8194E-06 -0.1235E-05  0.5600E-01  0.5600E-01
      0.799 -0.1844E-06 -0.2907E-06  0.5600E-01  0.5600E-01
      0.849 -0.3625E-07 -0.5967E-07  0.5600E-01  0.5600E-01
      0.899 -0.6234E-08 -0.1071E-07  0.5600E-01  0.5600E-01
      0.948 -0.9393E-09 -0.1682E-08  0.5600E-01  0.5600E-01
      0.998 -0.1242E-09 -0.2316E-09  0.5600E-01  0.5600E-01
      1.048 -0.1441E-10 -0.2799E-10  0.5600E-01  0.5600E-01
      1.098 -0.1470E-11 -0.2972E-11  0.5600E-01  0.5600E-01
      1.148 -0.1319E-12 -0.2774E-12  0.5600E-01  0.5600E-01
      1.197 -0.1041E-13 -0.2278E-13  0.5600E-01  0.5600E-01
      1.247 -0.7183E-15 -0.1642E-14  0.5600E-01  0.5600E-01
      1.297 -0.4462E-16 -0.1071E-15  0.5600E-01  0.5600E-01
      1.347 -0.4462E-17 -0.4462E-17  0.5600E-01  0.5600E-01
      1.396  0.0000E+00  0.0000E+00  0.5600E-01  0.5600E-01
      1.446  0.0000E+00  0.0000E+00  0.5600E-01  0.5600E-01
      1.496  0.0000E+00  0.0000E+00  0.5600E-01  0.5600E-01
      1.546  0.0000E+00  0.0000E+00  0.5600E-01  0.5600E-01
      1.595  0.0000E+00  0.0000E+00  0.5600E-01  0.5600E-01
      1.645  0.0000E+00  0.0000E+00  0.5600E-01  0.5600E-01
      1.695  0.0000E+00  0.0000E+00  0.5600E-01  0.5600E-01
      1.745  0.0000E+00  0.0000E+00  0.5600E-01  0.5600E-01
      1.795  0.0000E+00  0.0000E+00  0.5600E-01  0.5600E-01
      1.844  0.0000E+00  0.0000E+00  0.5600E-01  0.5600E-01
      1.894  0.0000E+00  0.0000E+00  0.5600E-01  0.5600E-01
      1.944  0.0000E+00  0.0000E+00  0.5600E-01  0.5600E-01
      1.994  0.0000E+00  0.0000E+00  0.5600E-01  0.5600E-01
      2.043  0.0000E+00  0.0000E+00  0.5600E-01  0.5600E-01
      2.093  0.0000E+00  0.0000E+00  0.5600E-01  0.5600E-01
