    8    8 1000    2
  0.1447177E+04  0.2138459E-08  0.2273816E-08  0.2380978E-08  0.5000000E-15
   1.0000000000000000E-004
  CAR 
 unknown system                          
     88      1     56
 
  0.1262379E-14  0.1262379E-14  0.1262379E-14  0.1000000E+01
    1      -10.837491    -10.837491   1.000000   1.000000
    2      -10.103880    -10.103880   1.000000   1.000000
    3      -10.026929    -10.026930   1.000000   1.000000
    4       -9.913375     -9.913375   1.000000   1.000000
    5       -9.262844     -9.262844   1.000000   1.000000
    6       -9.018966     -9.018966   1.000000   1.000000
    7       -8.918325     -8.918325   1.000000   1.000000
    8       -8.686754     -8.686754   1.000000   1.000000
    9       -8.662302     -8.662302   1.000000   1.000000
   10       -8.429103     -8.429103   1.000000   1.000000
   11       -8.396285     -8.396285   1.000000   1.000000
   12       -8.297398     -8.297399   1.000000   1.000000
   13       -8.123645     -8.123645   1.000000   1.000000
   14       -8.049960     -8.049960   1.000000   1.000000
   15       -7.934854     -7.934854   1.000000   1.000000
   16       -7.891656     -7.891656   1.000000   1.000000
   17       -7.847476     -7.847476   1.000000   1.000000
   18       -7.576932     -7.576933   1.000000   1.000000
   19       -7.573181     -7.573181   1.000000   1.000000
   20       -7.423600     -7.423601   1.000000   1.000000
   21       -7.266633     -7.266634   1.000000   1.000000
   22       -7.244264     -7.244265   1.000000   1.000000
   23       -7.091261     -7.091262   1.000000   1.000000
   24       -6.988697     -6.988697   1.000000   1.000000
   25       -6.941608     -6.941609   1.000000   1.000000
   26       -6.931851     -6.931852   1.000000   1.000000
   27       -6.905719     -6.905719   1.000000   1.000000
   28       -6.903388     -6.903389   1.000000   1.000000
   29       -6.881366     -6.881366   1.000000   1.000000
   30       -6.847077     -6.847077   1.000000   1.000000
   31       -6.774418     -6.774418   1.000000   1.000000
   32       -6.733506     -6.733506   1.000000   1.000000
   33       -6.720523     -6.720524   1.000000   1.000000
   34       -6.640172     -6.640172   1.000000   1.000000
   35       -6.566089     -6.566089   1.000000   1.000000
   36       -6.490140     -6.490141   1.000000   1.000000
   37       -6.460842     -6.460842   1.000000   1.000000
   38       -6.344234     -6.344234   1.000000   1.000000
   39       -6.273426     -6.273426   1.000000   1.000000
   40       -6.257121     -6.257121   1.000000   1.000000
   41       -6.135060     -6.135060   1.000000   1.000000
   42       -6.126801     -6.126802   1.000000   1.000000
   43       -5.917174     -5.917175   1.000000   1.000000
   44       -5.277798     -5.277801   1.000031   1.000034
   45       -4.472917     -4.472919  -0.000032  -0.000032
   46       -3.941757     -3.941757  -0.000000  -0.000000
   47       -3.043146     -3.043167  -0.000000  -0.000000
   48       -2.588265     -2.588270  -0.000000  -0.000000
   49       -2.390727     -2.390658  -0.000000  -0.000000
   50       -1.620880     -1.620906  -0.000000  -0.000000
   51       -1.394220     -1.394126  -0.000000  -0.000000
   52       -1.113605     -1.113463  -0.000000  -0.000000
   53       -0.871386     -0.871684  -0.000000  -0.000000
   54       -0.809893     -0.809579  -0.000000  -0.000000
   55       -0.028004     -0.028243  -0.000000  -0.000000
   56        0.078003      0.093117  -0.000000  -0.000000
