 vasp.6.1.2 22Jul20 (build Aug  2 2021 21:04:21) gamma-only                      
 executed on             LinuxPGI date 2021.12.28  18:47:36
 running on    8 total cores
 distrk:  each k-point on    8 cores,    1 groups
 distr:  one band on NCORE=   8 cores,    1 groups


--------------------------------------------------------------------------------------------------------


 INCAR:
 POTCAR:    PAW_PBE Au 04Oct2007                  
 -----------------------------------------------------------------------------
|                                                                             |
|           W    W    AA    RRRRR   N    N  II  N    N   GGGG   !!!           |
|           W    W   A  A   R    R  NN   N  II  NN   N  G    G  !!!           |
|           W    W  A    A  R    R  N N  N  II  N N  N  G       !!!           |
|           W WW W  AAAAAA  RRRRR   N  N N  II  N  N N  G  GGG   !            |
|           WW  WW  A    A  R   R   N   NN  II  N   NN  G    G                |
|           W    W  A    A  R    R  N    N  II  N    N   GGGG   !!!           |
|                                                                             |
|     You use a magnetic or noncollinear calculation, but did not specify     |
|     the initial magnetic moment with the MAGMOM tag. Note that a            |
|     default of 1 will be used for all atoms. This ferromagnetic setup       |
|     may break the symmetry of the crystal, in particular it may rule        |
|     out finding an antiferromagnetic solution. Thence, we recommend         |
|     setting the initial magnetic moment manually or verifying carefully     |
|     that this magnetic setup is desired.                                    |
|                                                                             |
 -----------------------------------------------------------------------------

 -----------------------------------------------------------------------------
|                                                                             |
|           W    W    AA    RRRRR   N    N  II  N    N   GGGG   !!!           |
|           W    W   A  A   R    R  NN   N  II  NN   N  G    G  !!!           |
|           W    W  A    A  R    R  N N  N  II  N N  N  G       !!!           |
|           W WW W  AAAAAA  RRRRR   N  N N  II  N  N N  G  GGG   !            |
|           WW  WW  A    A  R   R   N   NN  II  N   NN  G    G                |
|           W    W  A    A  R    R  N    N  II  N    N   GGGG   !!!           |
|                                                                             |
|     For optimal performance we recommend to set                             |
|       NCORE = 4 - approx SQRT(number of cores).                             |
|     NCORE specifies how many cores store one orbital (NPAR=cpu/NCORE).      |
|     This setting can greatly improve the performance of VASP for DFT.       |
|     The default, NCORE=1 might be grossly inefficient on modern             |
|     multi-core architectures or massively parallel machines. Do your        |
|     own testing!!!!                                                         |
|     Unfortunately you need to use the default for GW and RPA                |
|     calculations (for HF NCORE is supported but not extensively tested      |
|     yet).                                                                   |
|                                                                             |
 -----------------------------------------------------------------------------

 POTCAR:    PAW_PBE Au 04Oct2007                  
   SHA256 =  d0044ae04e2bdce24051b198fc5c053d722a5bc6fe3c3b100514a13fc5d2db88 Au/POTCAR             
   COPYR  = (c) Copyright 04Oct2007 Georg Kresse                                                    
   COPYR  = This file is part of the software VASP. Any use, copying, and all other rights are regul
   COPYR  = If you do not have a valid VASP license, you may not use, copy or distribute this file. 
   VRHFIN =Au: s1d10                                                                                
   LEXCH  = PE                                                                                      
   EATOM  =   926.0867 eV,   68.0654 Ry                                                             
                                                                                                    
   TITEL  = PAW_PBE Au 04Oct2007                                                                    
   LULTRA =        F    use ultrasoft PP ?                                                          
   IUNSCR =        1    unscreen: 0-lin 1-nonlin 2-no                                               
   RPACOR =    2.330    partial core radius                                                         
   POMASS =  196.966; ZVAL   =   11.000    mass and valenz                                          
   RCORE  =    2.500    outmost cutoff radius                                                       
   RWIGS  =    2.840; RWIGS  =    1.503    wigner-seitz radius (au A)                               
   ENMAX  =  229.943; ENMIN  =  172.457 eV                                                          
   ICORE  =        3    local potential                                                             
   LCOR   =        T    correct aug charges                                                         
   LPAW   =        T    paw PP                                                                      
   EAUG   =  356.670                                                                                
   DEXC   =    0.000                                                                                
   RMAX   =    2.562    core radius for proj-oper                                                   
   RAUG   =    1.300    factor for augmentation sphere                                              
   RDEP   =    2.598    radius for radial grids                                                     
   RDEPT  =    2.193    core radius for aug-charge                                                  
                                                                                                    
   Atomic configuration                                                                             
   16 entries                                                                                       
     n  l   j            E        occ.                                                              
     1  0  0.50    -80748.5001   2.0000                                                             
     2  0  0.50    -14244.7466   2.0000                                                             
     2  1  1.50    -12310.9591   6.0000                                                             
     3  0  0.50     -3362.1768   2.0000                                                             
     3  1  1.50     -2801.5463   6.0000                                                             
     3  2  2.50     -2203.8206  10.0000                                                             
     4  0  0.50      -729.8168   2.0000                                                             
     4  1  1.50      -546.0527   6.0000                                                             
     4  2  2.50      -325.7302  10.0000                                                             
     4  3  3.50       -81.1472  14.0000                                                             
     5  0  0.50      -108.3201   2.0000                                                             
     5  1  1.50       -59.7479   6.0000                                                             
     5  2  2.50        -6.8783  10.0000                                                             
     6  0  0.50        -5.7602   1.0000                                                             
     6  1  1.50        -6.8029   0.0000                                                             
     5  3  2.50        -1.3606   0.0000                                                             
   Description                                                                                      
     l       E           TYP  RCUT    TYP  RCUT                                                     
     2     -6.8782861     23  2.500                                                                 
     2     -8.2388687     23  2.500                                                                 
     0     -5.7601759     23  2.500                                                                 
     0     -0.8493231     23  2.500                                                                 
     1     -2.7211652     23  2.500                                                                 
     1     27.2116520     23  2.500                                                                 
     3     -1.3605826     23  2.500                                                                 
  local pseudopotential read in
  partial core-charges read in
  partial kinetic energy density read in
  atomic valenz-charges read in
  non local Contribution for L=            2  read in
    real space projection operators read in
  non local Contribution for L=            2  read in
    real space projection operators read in
  non local Contribution for L=            0  read in
    real space projection operators read in
  non local Contribution for L=            0  read in
    real space projection operators read in
  non local Contribution for L=            1  read in
    real space projection operators read in
  non local Contribution for L=            1  read in
    real space projection operators read in
    PAW grid and wavefunctions read in
 
   number of l-projection  operators is LMAX  =            6
   number of lm-projection operators is LMMAX =           18
 
  PAW_PBE Au 04Oct2007                  :
 energy of atom  1       EATOM= -926.0867
 kinetic energy error for atom=    0.0062 (will be added to EATOM!!)
 
 
 POSCAR: Au
  positions in cartesian coordinates
  No initial velocities read in
 exchange correlation table for  LEXCH =        8
   RHO(1)=    0.500       N(1)  =     2000
   RHO(2)=  100.500       N(2)  =     4000
 


--------------------------------------------------------------------------------------------------------


 ion  position               nearest neighbor table
   1  0.621  0.538  0.354-   2 2.65   5 2.65
   2  0.596  0.489  0.452-   1 2.65   4 2.65   3 2.74   5 2.76
   3  0.478  0.503  0.496-   8 2.69   6 2.69   4 2.71   7 2.71   2 2.74   5 2.74
   4  0.568  0.442  0.551-   2 2.65   3 2.71   6 2.77
   5  0.507  0.552  0.394-   1 2.65   7 2.65   3 2.74   2 2.76
   6  0.450  0.456  0.596-   8 2.67   3 2.69   4 2.77
   7  0.393  0.566  0.437-   5 2.65   3 2.71   8 2.77
   8  0.363  0.517  0.540-   6 2.67   3 2.69   7 2.77
 

IMPORTANT INFORMATION: All symmetrisations will be switched off!
NOSYMM: (Re-)initialisation of all symmetry stuff for point group C_1.


----------------------------------------------------------------------------------------

                                     Primitive cell                                     

  volume of cell :   11577.4185

  direct lattice vectors                    reciprocal lattice vectors
    21.384594048  0.000000000  0.000000000     0.046762637  0.000000000  0.000000000
     0.000000000 22.738163680  0.000000000     0.000000000  0.043978925  0.000000000
     0.000000000  0.000000000 23.809777277     0.000000000  0.000000000  0.041999553

  length of vectors
    21.384594048 22.738163680 23.809777277     0.046762637  0.043978925  0.041999553

  position of ions in fractional coordinates (direct lattice)
     0.621073049  0.537541418  0.353676036
     0.595968459  0.489369438  0.452323224
     0.478373384  0.503241519  0.496095181
     0.568126318  0.442158563  0.551022823
     0.506695103  0.552153698  0.393889540
     0.449697968  0.456096742  0.596368498
     0.393186183  0.565972703  0.436704724
     0.363466341  0.517233498  0.539785110

  ion indices of the primitive-cell ions
   primitive index   ion index
                 1           1
                 2           2
                 3           3
                 4           4
                 5           5
                 6           6
                 7           7
                 8           8

----------------------------------------------------------------------------------------

 
 
 KPOINTS: KPOINTS created by Atomic Simulation Env

Automatic generation of k-mesh.
Space group operators:
 irot       det(A)        alpha          n_x          n_y          n_z        tau_x        tau_y        tau_z
    1     1.000000     0.000000     1.000000     0.000000     0.000000     0.000000     0.000000     0.000000
 
 Subroutine IBZKPT returns following result:
 ===========================================
 
 Found      1 irreducible k-points:
 
 Following reciprocal coordinates:
            Coordinates               Weight
  0.000000  0.000000  0.000000      1.000000
 
 Following cartesian coordinates:
            Coordinates               Weight
  0.000000  0.000000  0.000000      1.000000
 


--------------------------------------------------------------------------------------------------------




 Dimension of arrays:
   k-points           NKPTS =      1   k-points in BZ     NKDIM =      1   number of bands    NBANDS=     56
   number of dos      NEDOS =    301   number of ions     NIONS =      8
   non local maximal  LDIM  =      6   non local SUM 2l+1 LMDIM =     18
   total plane-waves  NPLWV = ******
   max r-space proj   IRMAX =      1   max aug-charges    IRDMAX=   7866
   dimension x,y,z NGX =   108 NGY =  112 NGZ =  120
   dimension x,y,z NGXF=   216 NGYF=  224 NGZF=  240
   support grid    NGXF=   216 NGYF=  224 NGZF=  240
   ions per type =               8
   NGX,Y,Z   is equivalent  to a cutoff of   8.40,  8.19,  8.38 a.u.
   NGXF,Y,Z  is equivalent  to a cutoff of  16.79, 16.38, 16.76 a.u.

 SYSTEM =  unknown system                          
 POSCAR =  Au                                      

 Startparameter for this run:
   NWRITE =      2    write-flag & timer
   PREC   = normal    normal or accurate (medium, high low for compatibility)
   ISTART =      0    job   : 0-new  1-cont  2-samecut
   ICHARG =      2    charge: 1-file 2-atom 10-const
   ISPIN  =      2    spin polarized calculation?
   LNONCOLLINEAR =      F non collinear calculations
   LSORBIT =      F    spin-orbit coupling
   INIWAV =      1    electr: 0-lowe 1-rand  2-diag
   LASPH  =      F    aspherical Exc in radial PAW
   METAGGA=      F    non-selfconsistent MetaGGA calc.

 Electronic Relaxation 1
   ENCUT  =  400.0 eV  29.40 Ry    5.42 a.u.  34.87 37.08 38.83*2*pi/ulx,y,z
   ENINI  =  400.0     initial cutoff
   ENAUG  =  356.7 eV  augmentation charge cutoff
   NELM   =     60;   NELMIN=  2; NELMDL=  0     # of ELM steps 
   EDIFF  = 0.1E-03   stopping-criterion for ELM
   LREAL  =      F    real-space projection
   NLSPLINE    = F    spline interpolate recip. space projectors
   LCOMPAT=      F    compatible to vasp.4.4
   GGA_COMPAT  = T    GGA compatible to vasp.4.4-vasp.4.6
   LMAXPAW     = -100 max onsite density
   LMAXMIX     =    2 max onsite mixed and CHGCAR
   VOSKOWN=      0    Vosko Wilk Nusair interpolation
   ROPT   =    0.00000
 Ionic relaxation
   EDIFFG = 0.1E-02   stopping-criterion for IOM
   NSW    =   1000    number of steps for IOM
   NBLOCK =      1;   KBLOCK =   1000    inner block; outer block 
   IBRION =      2    ionic relax: 0-MD 1-quasi-New 2-CG
   NFREE  =      1    steps in history (QN), initial steepest desc. (CG)
   ISIF   =      0    stress and relaxation
   IWAVPR =     11    prediction:  0-non 1-charg 2-wave 3-comb
   ISYM   =      0    0-nonsym 1-usesym 2-fastsym
   LCORR  =      T    Harris-Foulkes like correction to forces

   POTIM  = 0.5000    time-step for ionic-motion
   TEIN   =    0.0    initial temperature
   TEBEG  =    0.0;   TEEND  =   0.0 temperature during run
   SMASS  =  -3.00    Nose mass-parameter (am)
   estimated Nose-frequenzy (Omega)   =  0.10E-29 period in steps = 0.13E+47 mass=  -0.105E-25a.u.
   SCALEE = 1.0000    scale energy and forces
   NPACO  =    256;   APACO  = 16.0  distance and # of slots for P.C.
   PSTRESS=    0.0 pullay stress

  Mass of Ions in am
   POMASS = 196.97
  Ionic Valenz
   ZVAL   =  11.00
  Atomic Wigner-Seitz radii
   RWIGS  =  -1.00
  virtual crystal weights 
   VCA    =   1.00
   NELECT =      88.0000    total number of electrons
   NUPDOWN=      -1.0000    fix difference up-down

 DOS related values:
   EMIN   =  10.00;   EMAX   =-10.00  energy-range for DOS
   EFERMI =   0.00
   ISMEAR =     1;   SIGMA  =   0.20  broadening in eV -4-tet -1-fermi 0-gaus

 Electronic relaxation 2 (details)
   IALGO  =     38    algorithm
   LDIAG  =      T    sub-space diagonalisation (order eigenvalues)
   LSUBROT=      F    optimize rotation matrix (better conditioning)
   TURBO    =      0    0=normal 1=particle mesh
   IRESTART =      0    0=no restart 2=restart with 2 vectors
   NREBOOT  =      0    no. of reboots
   NMIN     =      0    reboot dimension
   EREF     =   0.00    reference energy to select bands
   IMIX   =      4    mixing-type and parameters
     AMIX     =   0.40;   BMIX     =  1.00
     AMIX_MAG =   1.60;   BMIX_MAG =  1.00
     AMIN     =   0.10
     WC   =   100.;   INIMIX=   1;  MIXPRE=   1;  MAXMIX= -45

 Intra band minimization:
   WEIMIN = 0.0010     energy-eigenvalue tresh-hold
   EBREAK =  0.45E-06  absolut break condition
   DEPER  =   0.30     relativ break condition  

   TIME   =   0.40     timestep for ELM

  volume/ion in A,a.u.               =    1447.18      9766.03
  Fermi-wavevector in a.u.,A,eV,Ry     =   0.321883  0.608271  1.409684  0.103609
  Thomas-Fermi vector in A             =   1.209771
 
 Write flags
   LWAVE        =      F    write WAVECAR
   LDOWNSAMPLE  =      F    k-point downsampling of WAVECAR
   LCHARG       =      F    write CHGCAR
   LVTOT        =      F    write LOCPOT, total local potential
   LVHAR        =      F    write LOCPOT, Hartree potential only
   LELF         =      F    write electronic localiz. function (ELF)
   LORBIT       =      0    0 simple, 1 ext, 2 COOP (PROOUT), +10 PAW based schemes


 Dipole corrections
   LMONO  =      F    monopole corrections only (constant potential shift)
   LDIPOL =      F    correct potential (dipole corrections)
   IDIPOL =      0    1-x, 2-y, 3-z, 4-all directions 
   EPSILON=  1.0000000 bulk dielectric constant

 Exchange correlation treatment:
   GGA     =    PE    GGA type
   LEXCH   =     8    internal setting for exchange type
   VOSKOWN=      0    Vosko Wilk Nusair interpolation
   LHFCALC =     F    Hartree Fock is set to
   LHFONE  =     F    Hartree Fock one center treatment
   AEXX    =    0.0000 exact exchange contribution

 Linear response parameters
   LEPSILON=     F    determine dielectric tensor
   LRPA    =     F    only Hartree local field effects (RPA)
   LNABLA  =     F    use nabla operator in PAW spheres
   LVEL    =     F    velocity operator in full k-point grid
   LINTERFAST=   F  fast interpolation
   KINTER  =     0    interpolate to denser k-point grid
   CSHIFT  =0.1000    complex shift for real part using Kramers Kronig
   OMEGAMAX=  -1.0    maximum frequency
   DEG_THRESHOLD= 0.2000000E-02 threshold for treating states as degnerate
   RTIME   =   -0.100 relaxation time in fs
  (WPLASMAI=    0.000 imaginary part of plasma frequency in eV, 0.658/RTIME)
   DFIELD  = 0.0000000 0.0000000 0.0000000 field for delta impulse in time
 
 Orbital magnetization related:
   ORBITALMAG=     F  switch on orbital magnetization
   LCHIMAG   =     F  perturbation theory with respect to B field
   DQ        =  0.001000  dq finite difference perturbation B field
   LLRAUG    =     F  two centre corrections for induced B field



--------------------------------------------------------------------------------------------------------


 conjugate gradient relaxation of ions
 charge density and potential will be updated during run
 spin polarized calculation
 Variant of blocked Davidson
 Davidson routine will perform the subspace rotation
 perform sub-space diagonalisation
    after iterative eigenvector-optimisation
 modified Broyden-mixing scheme, WC =      100.0
 initial mixing is a Kerker type mixing with AMIX =  0.4000 and BMIX =      1.0000
 Hartree-type preconditioning will be used
 using additional bands            12
 reciprocal scheme for non local part
 use partial core corrections
 calculate Harris-corrections to forces 
   (improved forces if not selfconsistent)
 use gradient corrections 
 use of overlap-Matrix (Vanderbilt PP)
 Methfessel and Paxton  Order N= 1 SIGMA  =   0.20


--------------------------------------------------------------------------------------------------------


  energy-cutoff  :      400.00
  volume of cell :    11577.42
      direct lattice vectors                 reciprocal lattice vectors
    21.384594048  0.000000000  0.000000000     0.046762637  0.000000000  0.000000000
     0.000000000 22.738163680  0.000000000     0.000000000  0.043978925  0.000000000
     0.000000000  0.000000000 23.809777277     0.000000000  0.000000000  0.041999553

  length of vectors
    21.384594048 22.738163680 23.809777277     0.046762637  0.043978925  0.041999553


 
 k-points in units of 2pi/SCALE and weight: KPOINTS created by Atomic Simulation Env
   0.00000000  0.00000000  0.00000000       1.000
 
 k-points in reciprocal lattice and weights: KPOINTS created by Atomic Simulation Env
   0.00000000  0.00000000  0.00000000       1.000
 
 position of ions in fractional coordinates (direct lattice) 
   0.62107305  0.53754142  0.35367604
   0.59596846  0.48936944  0.45232322
   0.47837338  0.50324152  0.49609518
   0.56812632  0.44215856  0.55102282
   0.50669510  0.55215370  0.39388954
   0.44969797  0.45609674  0.59636850
   0.39318618  0.56597270  0.43670472
   0.36346634  0.51723350  0.53978511
 
 position of ions in cartesian coordinates  (Angst):
  13.28139503 12.22270476  8.42094765
  12.74454357 11.12736237 10.76971523
  10.22982063 11.44278802 11.81191577
  12.14915068 10.05387377 13.11973068
  10.83546908 12.55496116  9.37842223
   9.61660848 10.37080237 14.19940111
   8.40812691 12.86917996 10.39784220
   7.77258015 11.76093994 12.85216324
 


--------------------------------------------------------------------------------------------------------


 use parallel FFT for orbitals z direction half grid
 k-point   1 :   0.0000 0.0000 0.0000  plane waves:  105090

 maximum and minimum number of plane-waves per node :     13144    13131

 maximum number of plane-waves:    105090
 maximum index in each direction: 
   IXMAX=   34   IYMAX=   37   IZMAX=   38
   IXMIN=  -34   IYMIN=  -37   IZMIN=    0


 parallel 3D FFT for wavefunctions:
    minimum data exchange during FFTs selected (reduces bandwidth)
 parallel 3D FFT for charge:
    minimum data exchange during FFTs selected (reduces bandwidth)


 total amount of memory used by VASP MPI-rank0   230570. kBytes
=======================================================================

   base      :      30000. kBytes
   nonl-proj :       3572. kBytes
   fftplans  :      53144. kBytes
   grid      :     120289. kBytes
   one-center:         15. kBytes
   wavefun   :      23550. kBytes
 
     INWAV:  cpu time    0.0000: real time    0.0000
 Broyden mixing: mesh for mixing (old mesh)
   NGX = 69   NGY = 75   NGZ = 77
  (NGX  =216   NGY  =224   NGZ  =240)
  gives a total of 398475 points

 initial charge density was supplied:
 charge density of overlapping atoms calculated
 number of electron      88.0000000 magnetization       8.0000000
 keeping initial charge density in first step


--------------------------------------------------------------------------------------------------------


 Maximum index for augmentation-charges           977 (set IRDMAX)


--------------------------------------------------------------------------------------------------------


 First call to EWALD:  gamma=   0.078
 Maximum number of real-space cells 3x 3x 3
 Maximum number of reciprocal cells 3x 3x 3

    FEWALD:  cpu time    0.0017: real time    0.0017


--------------------------------------- Iteration      1(   1)  ---------------------------------------


    POTLOK:  cpu time    4.1635: real time    4.1712
    SETDIJ:  cpu time    0.0291: real time    0.0291
     EDDAV:  cpu time    6.6821: real time    6.7054
       DOS:  cpu time    0.0067: real time    0.0067
    --------------------------------------------
      LOOP:  cpu time   10.8814: real time   10.9125

 eigenvalue-minimisations  :   224
 total energy-change (2. order) : 0.7342148E+03  (-0.1324569E+04)
 number of electron      88.0000000 magnetization       8.0000000
 augmentation part       88.0000000 magnetization       8.0000000

 Free energy of the ion-electron system (eV)
  ---------------------------------------------------
  alpha Z        PSCENC =         6.43899565
  Ewald energy   TEWEN  =      6927.43225098
  -Hartree energ DENC   =    -14018.40893647
  -exchange      EXHF   =         0.00000000
  -V(xc)+E(xc)   XCENC  =       116.80650062
  PAW double counting   =      6992.17180065    -6807.49900724
  entropy T*S    EENTRO =         0.00998067
  eigenvalues    EBANDS =       108.61907833
  atomic energy  EATOM  =      7408.64415014
  Solvation  Ediel_sol  =         0.00000000
  ---------------------------------------------------
  free energy    TOTEN  =       734.21481333 eV

  energy without entropy =      734.20483266  energy(sigma->0) =      734.21148644


--------------------------------------------------------------------------------------------------------




--------------------------------------- Iteration      1(   2)  ---------------------------------------


     EDDAV:  cpu time   10.4193: real time   10.4318
       DOS:  cpu time    0.0088: real time    0.0088
    --------------------------------------------
      LOOP:  cpu time   10.4281: real time   10.4406

 eigenvalue-minimisations  :   416
 total energy-change (2. order) :-0.2798279E+03  (-0.2653896E+03)
 number of electron      88.0000000 magnetization       8.0000000
 augmentation part       88.0000000 magnetization       8.0000000

 Free energy of the ion-electron system (eV)
  ---------------------------------------------------
  alpha Z        PSCENC =         6.43899565
  Ewald energy   TEWEN  =      6927.43225098
  -Hartree energ DENC   =    -14018.40893647
  -exchange      EXHF   =         0.00000000
  -V(xc)+E(xc)   XCENC  =       116.80650062
  PAW double counting   =      6992.17180065    -6807.49900724
  entropy T*S    EENTRO =        -0.04619140
  eigenvalues    EBANDS =      -171.15268156
  atomic energy  EATOM  =      7408.64415014
  Solvation  Ediel_sol  =         0.00000000
  ---------------------------------------------------
  free energy    TOTEN  =       454.38688136 eV

  energy without entropy =      454.43307276  energy(sigma->0) =      454.40227850


--------------------------------------------------------------------------------------------------------




--------------------------------------- Iteration      1(   3)  ---------------------------------------


     EDDAV:  cpu time   10.1772: real time   10.1936
       DOS:  cpu time    0.0075: real time    0.0075
    --------------------------------------------
      LOOP:  cpu time   10.1848: real time   10.2011

 eigenvalue-minimisations  :   392
 total energy-change (2. order) :-0.3146542E+03  (-0.2964845E+03)
 number of electron      88.0000000 magnetization       8.0000000
 augmentation part       88.0000000 magnetization       8.0000000

 Free energy of the ion-electron system (eV)
  ---------------------------------------------------
  alpha Z        PSCENC =         6.43899565
  Ewald energy   TEWEN  =      6927.43225098
  -Hartree energ DENC   =    -14018.40893647
  -exchange      EXHF   =         0.00000000
  -V(xc)+E(xc)   XCENC  =       116.80650062
  PAW double counting   =      6992.17180065    -6807.49900724
  entropy T*S    EENTRO =         0.03147078
  eigenvalues    EBANDS =      -485.88455843
  atomic energy  EATOM  =      7408.64415014
  Solvation  Ediel_sol  =         0.00000000
  ---------------------------------------------------
  free energy    TOTEN  =       139.73266668 eV

  energy without entropy =      139.70119590  energy(sigma->0) =      139.72217642


--------------------------------------------------------------------------------------------------------




--------------------------------------- Iteration      1(   4)  ---------------------------------------


     EDDAV:  cpu time    8.4741: real time    8.4891
       DOS:  cpu time    0.0075: real time    0.0075
    --------------------------------------------
      LOOP:  cpu time    8.4816: real time    8.4966

 eigenvalue-minimisations  :   320
 total energy-change (2. order) :-0.1318326E+03  (-0.1251312E+03)
 number of electron      88.0000000 magnetization       8.0000000
 augmentation part       88.0000000 magnetization       8.0000000

 Free energy of the ion-electron system (eV)
  ---------------------------------------------------
  alpha Z        PSCENC =         6.43899565
  Ewald energy   TEWEN  =      6927.43225098
  -Hartree energ DENC   =    -14018.40893647
  -exchange      EXHF   =         0.00000000
  -V(xc)+E(xc)   XCENC  =       116.80650062
  PAW double counting   =      6992.17180065    -6807.49900724
  entropy T*S    EENTRO =         0.02420083
  eigenvalues    EBANDS =      -617.70993065
  atomic energy  EATOM  =      7408.64415014
  Solvation  Ediel_sol  =         0.00000000
  ---------------------------------------------------
  free energy    TOTEN  =         7.90002451 eV

  energy without entropy =        7.87582368  energy(sigma->0) =        7.89195756


--------------------------------------------------------------------------------------------------------




--------------------------------------- Iteration      1(   5)  ---------------------------------------


     EDDAV:  cpu time    8.0622: real time    8.0733
       DOS:  cpu time    0.0076: real time    0.0076
    CHARGE:  cpu time    0.8894: real time    0.8901
    MIXING:  cpu time    0.0646: real time    0.0646
    --------------------------------------------
      LOOP:  cpu time    9.0237: real time    9.0356

 eigenvalue-minimisations  :   296
 total energy-change (2. order) :-0.2296017E+02  (-0.1992261E+02)
 number of electron      88.0000003 magnetization       7.1815627
 augmentation part       31.1913137 magnetization       7.2692271

 Broyden mixing:
  rms(total) = 0.17581E+01    rms(broyden)= 0.17581E+01
  rms(prec ) = 0.17824E+01
  weight for this iteration     100.00

 Free energy of the ion-electron system (eV)
  ---------------------------------------------------
  alpha Z        PSCENC =         6.43899565
  Ewald energy   TEWEN  =      6927.43225098
  -Hartree energ DENC   =    -14018.40893647
  -exchange      EXHF   =         0.00000000
  -V(xc)+E(xc)   XCENC  =       116.80650062
  PAW double counting   =      6992.17180065    -6807.49900724
  entropy T*S    EENTRO =        -0.00321143
  eigenvalues    EBANDS =      -640.64268482
  atomic energy  EATOM  =      7408.64415014
  Solvation  Ediel_sol  =         0.00000000
  ---------------------------------------------------
  free energy    TOTEN  =       -15.06014193 eV

  energy without entropy =      -15.05693050  energy(sigma->0) =      -15.05907145


--------------------------------------------------------------------------------------------------------




--------------------------------------- Iteration      1(   6)  ---------------------------------------


    POTLOK:  cpu time    4.1742: real time    4.1834
    SETDIJ:  cpu time    0.0373: real time    0.0374
     EDDAV:  cpu time    6.7347: real time    6.7412
       DOS:  cpu time    0.0028: real time    0.0028
    CHARGE:  cpu time    0.9148: real time    0.9230
    MIXING:  cpu time    0.0742: real time    0.0742
    --------------------------------------------
      LOOP:  cpu time   11.9381: real time   11.9620

 eigenvalue-minimisations  :   232
 total energy-change (2. order) : 0.1114941E+02  (-0.6312163E+01)
 number of electron      88.0000003 magnetization       6.5255242
 augmentation part       32.4597087 magnetization       5.2594397

 Broyden mixing:
  rms(total) = 0.11999E+01    rms(broyden)= 0.11998E+01
  rms(prec ) = 0.12057E+01
  weight for this iteration     100.00

 eigenvalues of (default mixing * dielectric matrix)
  average eigenvalue GAMMA=   0.9062
  0.9062

 Free energy of the ion-electron system (eV)
  ---------------------------------------------------
  alpha Z        PSCENC =         6.43899565
  Ewald energy   TEWEN  =      6927.43225098
  -Hartree energ DENC   =    -13961.67483880
  -exchange      EXHF   =         0.00000000
  -V(xc)+E(xc)   XCENC  =       124.10641370
  PAW double counting   =      7268.44890633    -7090.98195353
  entropy T*S    EENTRO =        -0.05348655
  eigenvalues    EBANDS =      -686.27116816
  atomic energy  EATOM  =      7408.64415014
  Solvation  Ediel_sol  =         0.00000000
  ---------------------------------------------------
  free energy    TOTEN  =        -3.91073024 eV

  energy without entropy =       -3.85724369  energy(sigma->0) =       -3.89290139


--------------------------------------------------------------------------------------------------------




--------------------------------------- Iteration      1(   7)  ---------------------------------------


    POTLOK:  cpu time    4.1362: real time    4.1531
    SETDIJ:  cpu time    0.0282: real time    0.0283
     EDDAV:  cpu time    7.7863: real time    7.7960
       DOS:  cpu time    0.0025: real time    0.0025
    CHARGE:  cpu time    0.8504: real time    0.8511
    MIXING:  cpu time    0.0755: real time    0.0755
    --------------------------------------------
      LOOP:  cpu time   12.8790: real time   12.9064

 eigenvalue-minimisations  :   280
 total energy-change (2. order) :-0.6146561E+00  (-0.2709830E+00)
 number of electron      88.0000003 magnetization       5.4280518
 augmentation part       32.3237576 magnetization       4.7492769

 Broyden mixing:
  rms(total) = 0.59837E+00    rms(broyden)= 0.59837E+00
  rms(prec ) = 0.60132E+00
  weight for this iteration     100.00

 eigenvalues of (default mixing * dielectric matrix)
  average eigenvalue GAMMA=   1.1303
  0.7490  1.5115

 Free energy of the ion-electron system (eV)
  ---------------------------------------------------
  alpha Z        PSCENC =         6.43899565
  Ewald energy   TEWEN  =      6927.43225098
  -Hartree energ DENC   =    -13982.42677211
  -exchange      EXHF   =         0.00000000
  -V(xc)+E(xc)   XCENC  =       124.29859803
  PAW double counting   =      7512.27310263    -7337.65176555
  entropy T*S    EENTRO =        -0.01823040
  eigenvalues    EBANDS =      -663.51571571
  atomic energy  EATOM  =      7408.64415014
  Solvation  Ediel_sol  =         0.00000000
  ---------------------------------------------------
  free energy    TOTEN  =        -4.52538633 eV

  energy without entropy =       -4.50715593  energy(sigma->0) =       -4.51930953


--------------------------------------------------------------------------------------------------------




--------------------------------------- Iteration      1(   8)  ---------------------------------------


    POTLOK:  cpu time    4.0725: real time    4.0862
    SETDIJ:  cpu time    0.0288: real time    0.0289
     EDDAV:  cpu time    7.0525: real time    7.0662
       DOS:  cpu time    0.0049: real time    0.0049
    CHARGE:  cpu time    0.8735: real time    0.8742
    MIXING:  cpu time    0.0793: real time    0.0794
    --------------------------------------------
      LOOP:  cpu time   12.1116: real time   12.1397

 eigenvalue-minimisations  :   248
 total energy-change (2. order) :-0.3251855E+01  (-0.1237714E+00)
 number of electron      88.0000003 magnetization       4.8346119
 augmentation part       32.2168514 magnetization       4.4887542

 Broyden mixing:
  rms(total) = 0.23477E+00    rms(broyden)= 0.23477E+00
  rms(prec ) = 0.23686E+00
  weight for this iteration     100.00

 eigenvalues of (default mixing * dielectric matrix)
  average eigenvalue GAMMA=   1.1943
  1.9506  0.9776  0.6549

 Free energy of the ion-electron system (eV)
  ---------------------------------------------------
  alpha Z        PSCENC =         6.43899565
  Ewald energy   TEWEN  =      6927.43225098
  -Hartree energ DENC   =    -13998.88003996
  -exchange      EXHF   =         0.00000000
  -V(xc)+E(xc)   XCENC  =       122.14162752
  PAW double counting   =      7783.51154373    -7611.93681936
  entropy T*S    EENTRO =         0.01175299
  eigenvalues    EBANDS =      -645.14070256
  atomic energy  EATOM  =      7408.64415014
  Solvation  Ediel_sol  =         0.00000000
  ---------------------------------------------------
  free energy    TOTEN  =        -7.77724087 eV

  energy without entropy =       -7.78899386  energy(sigma->0) =       -7.78115853


--------------------------------------------------------------------------------------------------------




--------------------------------------- Iteration      1(   9)  ---------------------------------------


    POTLOK:  cpu time    4.1213: real time    4.1294
    SETDIJ:  cpu time    0.0280: real time    0.0280
     EDDAV:  cpu time    6.8978: real time    6.9112
       DOS:  cpu time    0.0025: real time    0.0025
    CHARGE:  cpu time    0.9180: real time    0.9188
    MIXING:  cpu time    0.0932: real time    0.0933
    --------------------------------------------
      LOOP:  cpu time   12.0608: real time   12.0832

 eigenvalue-minimisations  :   240
 total energy-change (2. order) :-0.2491829E+01  (-0.5467213E-01)
 number of electron      88.0000003 magnetization       3.9612012
 augmentation part       32.2284412 magnetization       3.7540396

 Broyden mixing:
  rms(total) = 0.14719E+00    rms(broyden)= 0.14719E+00
  rms(prec ) = 0.14884E+00
  weight for this iteration     100.00

 eigenvalues of (default mixing * dielectric matrix)
  average eigenvalue GAMMA=   1.2492
  2.2429  1.2839  0.8140  0.6558

 Free energy of the ion-electron system (eV)
  ---------------------------------------------------
  alpha Z        PSCENC =         6.43899565
  Ewald energy   TEWEN  =      6927.43225098
  -Hartree energ DENC   =    -13999.24496302
  -exchange      EXHF   =         0.00000000
  -V(xc)+E(xc)   XCENC  =       120.20423583
  PAW double counting   =      7826.51084624    -7655.63290363
  entropy T*S    EENTRO =         0.02480947
  eigenvalues    EBANDS =      -644.64649173
  atomic energy  EATOM  =      7408.64415014
  Solvation  Ediel_sol  =         0.00000000
  ---------------------------------------------------
  free energy    TOTEN  =       -10.26907007 eV

  energy without entropy =      -10.29387954  energy(sigma->0) =      -10.27733989


--------------------------------------------------------------------------------------------------------




--------------------------------------- Iteration      1(  10)  ---------------------------------------


    POTLOK:  cpu time    4.0933: real time    4.1106
    SETDIJ:  cpu time    0.0277: real time    0.0277
     EDDAV:  cpu time    6.7345: real time    6.7439
       DOS:  cpu time    0.0027: real time    0.0027
    CHARGE:  cpu time    0.9260: real time    0.9268
    MIXING:  cpu time    0.0925: real time    0.0926
    --------------------------------------------
      LOOP:  cpu time   11.8768: real time   11.9043

 eigenvalue-minimisations  :   232
 total energy-change (2. order) :-0.2754777E+01  (-0.8547407E-01)
 number of electron      88.0000003 magnetization       3.2345361
 augmentation part       32.2546156 magnetization       3.0599923

 Broyden mixing:
  rms(total) = 0.10570E+00    rms(broyden)= 0.10570E+00
  rms(prec ) = 0.10664E+00
  weight for this iteration     100.00

 eigenvalues of (default mixing * dielectric matrix)
  average eigenvalue GAMMA=   1.2602
  2.5540  1.6531  0.8196  0.6752  0.5993

 Free energy of the ion-electron system (eV)
  ---------------------------------------------------
  alpha Z        PSCENC =         6.43899565
  Ewald energy   TEWEN  =      6927.43225098
  -Hartree energ DENC   =    -13997.56797086
  -exchange      EXHF   =         0.00000000
  -V(xc)+E(xc)   XCENC  =       118.00192864
  PAW double counting   =      7833.12886343    -7662.70732694
  entropy T*S    EENTRO =         0.01453012
  eigenvalues    EBANDS =      -646.40926782
  atomic energy  EATOM  =      7408.64415014
  Solvation  Ediel_sol  =         0.00000000
  ---------------------------------------------------
  free energy    TOTEN  =       -13.02384666 eV

  energy without entropy =      -13.03837678  energy(sigma->0) =      -13.02869003


--------------------------------------------------------------------------------------------------------




--------------------------------------- Iteration      1(  11)  ---------------------------------------


    POTLOK:  cpu time    4.1154: real time    4.1226
    SETDIJ:  cpu time    0.0271: real time    0.0271
     EDDAV:  cpu time    7.0897: real time    7.1143
       DOS:  cpu time    0.0019: real time    0.0019
    CHARGE:  cpu time    0.8642: real time    0.8686
    MIXING:  cpu time    0.0990: real time    0.0991
    --------------------------------------------
      LOOP:  cpu time   12.1974: real time   12.2336

 eigenvalue-minimisations  :   248
 total energy-change (2. order) :-0.1575020E+01  (-0.4374258E-01)
 number of electron      88.0000003 magnetization       2.6780373
 augmentation part       32.2733102 magnetization       2.5226963

 Broyden mixing:
  rms(total) = 0.78056E-01    rms(broyden)= 0.78055E-01
  rms(prec ) = 0.78940E-01
  weight for this iteration     100.00

 eigenvalues of (default mixing * dielectric matrix)
  average eigenvalue GAMMA=   1.2880
  2.6597  1.7795  1.0102  1.0102  0.6341  0.6341

 Free energy of the ion-electron system (eV)
  ---------------------------------------------------
  alpha Z        PSCENC =         6.43899565
  Ewald energy   TEWEN  =      6927.43225098
  -Hartree energ DENC   =    -13995.17795449
  -exchange      EXHF   =         0.00000000
  -V(xc)+E(xc)   XCENC  =       116.69007379
  PAW double counting   =      7813.41245189    -7643.01627023
  entropy T*S    EENTRO =         0.01326248
  eigenvalues    EBANDS =      -649.03582719
  atomic energy  EATOM  =      7408.64415014
  Solvation  Ediel_sol  =         0.00000000
  ---------------------------------------------------
  free energy    TOTEN  =       -14.59886699 eV

  energy without entropy =      -14.61212947  energy(sigma->0) =      -14.60328781


--------------------------------------------------------------------------------------------------------




--------------------------------------- Iteration      1(  12)  ---------------------------------------


    POTLOK:  cpu time    4.1419: real time    4.1506
    SETDIJ:  cpu time    0.0290: real time    0.0290
     EDDAV:  cpu time    6.8726: real time    6.8896
       DOS:  cpu time    0.0054: real time    0.0054
    CHARGE:  cpu time    0.8494: real time    0.8500
    MIXING:  cpu time    0.1472: real time    0.1473
    --------------------------------------------
      LOOP:  cpu time   12.0454: real time   12.0719

 eigenvalue-minimisations  :   240
 total energy-change (2. order) :-0.7003097E+00  (-0.1414520E-01)
 number of electron      88.0000003 magnetization       1.4123867
 augmentation part       32.2758651 magnetization       1.2791289

 Broyden mixing:
  rms(total) = 0.58376E-01    rms(broyden)= 0.58375E-01
  rms(prec ) = 0.59144E-01
  weight for this iteration     100.00

 eigenvalues of (default mixing * dielectric matrix)
  average eigenvalue GAMMA=   1.5704
  4.0880  2.3406  1.4052  1.0537  0.8604  0.6225  0.6225

 Free energy of the ion-electron system (eV)
  ---------------------------------------------------
  alpha Z        PSCENC =         6.43899565
  Ewald energy   TEWEN  =      6927.43225098
  -Hartree energ DENC   =    -13993.12811251
  -exchange      EXHF   =         0.00000000
  -V(xc)+E(xc)   XCENC  =       116.07280404
  PAW double counting   =      7793.04653086    -7622.49975536
  entropy T*S    EENTRO =         0.01325641
  eigenvalues    EBANDS =      -651.31929689
  atomic energy  EATOM  =      7408.64415014
  Solvation  Ediel_sol  =         0.00000000
  ---------------------------------------------------
  free energy    TOTEN  =       -15.29917669 eV

  energy without entropy =      -15.31243310  energy(sigma->0) =      -15.30359549


--------------------------------------------------------------------------------------------------------




--------------------------------------- Iteration      1(  13)  ---------------------------------------


    POTLOK:  cpu time    4.1326: real time    4.1416
    SETDIJ:  cpu time    0.0268: real time    0.0268
     EDDAV:  cpu time    6.7019: real time    6.7148
       DOS:  cpu time    0.0013: real time    0.0013
    CHARGE:  cpu time    0.8561: real time    0.8569
    MIXING:  cpu time    0.1128: real time    0.1129
    --------------------------------------------
      LOOP:  cpu time   11.8315: real time   11.8544

 eigenvalue-minimisations  :   232
 total energy-change (2. order) :-0.1064144E+01  (-0.3633001E-01)
 number of electron      88.0000003 magnetization       1.0347579
 augmentation part       32.3033071 magnetization       0.9722968

 Broyden mixing:
  rms(total) = 0.35281E-01    rms(broyden)= 0.35280E-01
  rms(prec ) = 0.35993E-01
  weight for this iteration     100.00

 eigenvalues of (default mixing * dielectric matrix)
  average eigenvalue GAMMA=   1.6133
  4.7459  2.1110  2.1110  0.9629  0.9629  0.7775  0.6432  0.5921

 Free energy of the ion-electron system (eV)
  ---------------------------------------------------
  alpha Z        PSCENC =         6.43899565
  Ewald energy   TEWEN  =      6927.43225098
  -Hartree energ DENC   =    -13987.82411908
  -exchange      EXHF   =         0.00000000
  -V(xc)+E(xc)   XCENC  =       115.01453622
  PAW double counting   =      7760.81278258    -7590.01085778
  entropy T*S    EENTRO =         0.01216687
  eigenvalues    EBANDS =      -656.88322675
  atomic energy  EATOM  =      7408.64415014
  Solvation  Ediel_sol  =         0.00000000
  ---------------------------------------------------
  free energy    TOTEN  =       -16.36332118 eV

  energy without entropy =      -16.37548805  energy(sigma->0) =      -16.36737681


--------------------------------------------------------------------------------------------------------




--------------------------------------- Iteration      1(  14)  ---------------------------------------


    POTLOK:  cpu time    4.0857: real time    4.0912
    SETDIJ:  cpu time    0.0280: real time    0.0282
     EDDAV:  cpu time    7.0515: real time    7.0574
       DOS:  cpu time    0.0017: real time    0.0017
    CHARGE:  cpu time    0.8784: real time    0.8791
    MIXING:  cpu time    0.1357: real time    0.1358
    --------------------------------------------
      LOOP:  cpu time   12.1811: real time   12.1933

 eigenvalue-minimisations  :   248
 total energy-change (2. order) :-0.1935395E+00  (-0.2057843E-02)
 number of electron      88.0000003 magnetization       0.6863684
 augmentation part       32.2850472 magnetization       0.6459491

 Broyden mixing:
  rms(total) = 0.27821E-01    rms(broyden)= 0.27821E-01
  rms(prec ) = 0.28332E-01
  weight for this iteration     100.00

 eigenvalues of (default mixing * dielectric matrix)
  average eigenvalue GAMMA=   1.6327
  5.6461  2.3026  1.6524  1.4460  0.9507  0.7958  0.6943  0.6425  0.5636

 Free energy of the ion-electron system (eV)
  ---------------------------------------------------
  alpha Z        PSCENC =         6.43899565
  Ewald energy   TEWEN  =      6927.43225098
  -Hartree energ DENC   =    -13987.52513930
  -exchange      EXHF   =         0.00000000
  -V(xc)+E(xc)   XCENC  =       114.83825392
  PAW double counting   =      7768.76041928    -7597.94965763
  entropy T*S    EENTRO =         0.01185153
  eigenvalues    EBANDS =      -657.20798528
  atomic energy  EATOM  =      7408.64415014
  Solvation  Ediel_sol  =         0.00000000
  ---------------------------------------------------
  free energy    TOTEN  =       -16.55686071 eV

  energy without entropy =      -16.56871224  energy(sigma->0) =      -16.56081122


--------------------------------------------------------------------------------------------------------




--------------------------------------- Iteration      1(  15)  ---------------------------------------


    POTLOK:  cpu time    4.1454: real time    4.1498
    SETDIJ:  cpu time    0.0282: real time    0.0282
     EDDAV:  cpu time    6.5461: real time    6.5516
       DOS:  cpu time    0.0057: real time    0.0057
    CHARGE:  cpu time    0.8447: real time    0.8549
    MIXING:  cpu time    0.1454: real time    0.1455
    --------------------------------------------
      LOOP:  cpu time   11.7155: real time   11.7357

 eigenvalue-minimisations  :   224
 total energy-change (2. order) :-0.2382886E+00  (-0.1429587E-02)
 number of electron      88.0000003 magnetization       0.3360800
 augmentation part       32.2919739 magnetization       0.3175216

 Broyden mixing:
  rms(total) = 0.15703E-01    rms(broyden)= 0.15703E-01
  rms(prec ) = 0.16187E-01
  weight for this iteration     100.00

 eigenvalues of (default mixing * dielectric matrix)
  average eigenvalue GAMMA=   1.7870
  6.8167  2.6259  1.9659  1.9659  0.9491  0.8615  0.7644  0.6953  0.6602  0.5655

 Free energy of the ion-electron system (eV)
  ---------------------------------------------------
  alpha Z        PSCENC =         6.43899565
  Ewald energy   TEWEN  =      6927.43225098
  -Hartree energ DENC   =    -13985.76439417
  -exchange      EXHF   =         0.00000000
  -V(xc)+E(xc)   XCENC  =       114.57824763
  PAW double counting   =      7771.17576386    -7600.32545752
  entropy T*S    EENTRO =         0.01169807
  eigenvalues    EBANDS =      -658.98640394
  atomic energy  EATOM  =      7408.64415014
  Solvation  Ediel_sol  =         0.00000000
  ---------------------------------------------------
  free energy    TOTEN  =       -16.79514929 eV

  energy without entropy =      -16.80684736  energy(sigma->0) =      -16.79904865


--------------------------------------------------------------------------------------------------------




--------------------------------------- Iteration      1(  16)  ---------------------------------------


    POTLOK:  cpu time    4.1982: real time    4.2140
    SETDIJ:  cpu time    0.0265: real time    0.0266
     EDDAV:  cpu time    6.8474: real time    6.8567
       DOS:  cpu time    0.0060: real time    0.0060
    CHARGE:  cpu time    0.8423: real time    0.8468
    MIXING:  cpu time    0.1399: real time    0.1437
    --------------------------------------------
      LOOP:  cpu time   12.0603: real time   12.0938

 eigenvalue-minimisations  :   240
 total energy-change (2. order) :-0.2382371E+00  (-0.8448290E-03)
 number of electron      88.0000003 magnetization       0.1672424
 augmentation part       32.2905627 magnetization       0.1646392

 Broyden mixing:
  rms(total) = 0.91594E-02    rms(broyden)= 0.91584E-02
  rms(prec ) = 0.95410E-02
  weight for this iteration     100.00

 eigenvalues of (default mixing * dielectric matrix)
  average eigenvalue GAMMA=   1.9067
  8.0793  3.1489  2.1721  1.9528  1.2373  0.9225  0.9225  0.6867  0.6457  0.6457
  0.5608

 Free energy of the ion-electron system (eV)
  ---------------------------------------------------
  alpha Z        PSCENC =         6.43899565
  Ewald energy   TEWEN  =      6927.43225098
  -Hartree energ DENC   =    -13984.26057003
  -exchange      EXHF   =         0.00000000
  -V(xc)+E(xc)   XCENC  =       114.32565877
  PAW double counting   =      7778.76068930    -7607.90387056
  entropy T*S    EENTRO =         0.01165202
  eigenvalues    EBANDS =      -660.48234263
  atomic energy  EATOM  =      7408.64415014
  Solvation  Ediel_sol  =         0.00000000
  ---------------------------------------------------
  free energy    TOTEN  =       -17.03338638 eV

  energy without entropy =      -17.04503839  energy(sigma->0) =      -17.03727038


--------------------------------------------------------------------------------------------------------




--------------------------------------- Iteration      1(  17)  ---------------------------------------


    POTLOK:  cpu time    4.0853: real time    4.0992
    SETDIJ:  cpu time    0.0268: real time    0.0268
     EDDAV:  cpu time    7.0568: real time    7.0738
       DOS:  cpu time    0.0114: real time    0.0114
    CHARGE:  cpu time    0.8484: real time    0.8528
    MIXING:  cpu time    0.1506: real time    0.1507
    --------------------------------------------
      LOOP:  cpu time   12.1793: real time   12.2147

 eigenvalue-minimisations  :   248
 total energy-change (2. order) :-0.9725831E-01  (-0.2698314E-03)
 number of electron      88.0000003 magnetization       0.1019608
 augmentation part       32.2931713 magnetization       0.1023037

 Broyden mixing:
  rms(total) = 0.45237E-02    rms(broyden)= 0.45227E-02
  rms(prec ) = 0.48901E-02
  weight for this iteration     100.00

 eigenvalues of (default mixing * dielectric matrix)
  average eigenvalue GAMMA=   1.9282
  8.5501  3.5073  2.0684  2.0684  1.6188  0.9953  0.9123  0.9123  0.6647  0.6647
  0.5643  0.6115

 Free energy of the ion-electron system (eV)
  ---------------------------------------------------
  alpha Z        PSCENC =         6.43899565
  Ewald energy   TEWEN  =      6927.43225098
  -Hartree energ DENC   =    -13983.23313244
  -exchange      EXHF   =         0.00000000
  -V(xc)+E(xc)   XCENC  =       114.21719079
  PAW double counting   =      7781.33843312    -7610.49191177
  entropy T*S    EENTRO =         0.01165184
  eigenvalues    EBANDS =      -661.48827299
  atomic energy  EATOM  =      7408.64415014
  Solvation  Ediel_sol  =         0.00000000
  ---------------------------------------------------
  free energy    TOTEN  =       -17.13064468 eV

  energy without entropy =      -17.14229652  energy(sigma->0) =      -17.13452863


--------------------------------------------------------------------------------------------------------




--------------------------------------- Iteration      1(  18)  ---------------------------------------


    POTLOK:  cpu time    4.0755: real time    4.0882
    SETDIJ:  cpu time    0.0264: real time    0.0264
     EDDAV:  cpu time    6.1726: real time    6.1926
       DOS:  cpu time    0.0059: real time    0.0059
    CHARGE:  cpu time    0.8523: real time    0.8530
    MIXING:  cpu time    0.1727: real time    0.1728
    --------------------------------------------
      LOOP:  cpu time   11.3054: real time   11.3389

 eigenvalue-minimisations  :   208
 total energy-change (2. order) :-0.2690309E-01  (-0.5344395E-04)
 number of electron      88.0000003 magnetization       0.0582038
 augmentation part       32.2938257 magnetization       0.0578253

 Broyden mixing:
  rms(total) = 0.27612E-02    rms(broyden)= 0.27611E-02
  rms(prec ) = 0.30566E-02
  weight for this iteration     100.00

 eigenvalues of (default mixing * dielectric matrix)
  average eigenvalue GAMMA=   1.9657
  8.9150  3.9993  2.4147  1.9848  1.9848  1.1753  0.9164  0.9164  0.7569  0.6612
  0.6612  0.6041  0.5638

 Free energy of the ion-electron system (eV)
  ---------------------------------------------------
  alpha Z        PSCENC =         6.43899565
  Ewald energy   TEWEN  =      6927.43225098
  -Hartree energ DENC   =    -13982.66347134
  -exchange      EXHF   =         0.00000000
  -V(xc)+E(xc)   XCENC  =       114.18678957
  PAW double counting   =      7780.73857379    -7609.89692810
  entropy T*S    EENTRO =         0.01165167
  eigenvalues    EBANDS =      -662.04956012
  atomic energy  EATOM  =      7408.64415014
  Solvation  Ediel_sol  =         0.00000000
  ---------------------------------------------------
  free energy    TOTEN  =       -17.15754777 eV

  energy without entropy =      -17.16919944  energy(sigma->0) =      -17.16143166


--------------------------------------------------------------------------------------------------------




--------------------------------------- Iteration      1(  19)  ---------------------------------------


    POTLOK:  cpu time    4.0532: real time    4.0628
    SETDIJ:  cpu time    0.0272: real time    0.0272
     EDDAV:  cpu time    5.5567: real time    5.5650
       DOS:  cpu time    0.0061: real time    0.0061
    CHARGE:  cpu time    0.9260: real time    0.9267
    MIXING:  cpu time    0.1889: real time    0.1890
    --------------------------------------------
      LOOP:  cpu time   10.7580: real time   10.7768

 eigenvalue-minimisations  :   176
 total energy-change (2. order) :-0.1299428E-01  (-0.1824552E-04)
 number of electron      88.0000003 magnetization       0.0385273
 augmentation part       32.2941053 magnetization       0.0381367

 Broyden mixing:
  rms(total) = 0.14704E-02    rms(broyden)= 0.14704E-02
  rms(prec ) = 0.17140E-02
  weight for this iteration     100.00

 eigenvalues of (default mixing * dielectric matrix)
  average eigenvalue GAMMA=   1.9768
  9.1087  4.4271  2.6590  2.1128  2.1128  1.2568  0.9813  0.9201  0.9201  0.5658
  0.6953  0.6036  0.6561  0.6561

 Free energy of the ion-electron system (eV)
  ---------------------------------------------------
  alpha Z        PSCENC =         6.43899565
  Ewald energy   TEWEN  =      6927.43225098
  -Hartree energ DENC   =    -13982.23321535
  -exchange      EXHF   =         0.00000000
  -V(xc)+E(xc)   XCENC  =       114.17149927
  PAW double counting   =      7780.19316277    -7609.35347973
  entropy T*S    EENTRO =         0.01165191
  eigenvalues    EBANDS =      -662.47555769
  atomic energy  EATOM  =      7408.64415014
  Solvation  Ediel_sol  =         0.00000000
  ---------------------------------------------------
  free energy    TOTEN  =       -17.17054205 eV

  energy without entropy =      -17.18219396  energy(sigma->0) =      -17.17442602


--------------------------------------------------------------------------------------------------------




--------------------------------------- Iteration      1(  20)  ---------------------------------------


    POTLOK:  cpu time    4.1113: real time    4.1232
    SETDIJ:  cpu time    0.0281: real time    0.0282
     EDDAV:  cpu time    5.5793: real time    5.5877
       DOS:  cpu time    0.0059: real time    0.0059
    CHARGE:  cpu time    0.8483: real time    0.8490
    MIXING:  cpu time    0.1861: real time    0.1862
    --------------------------------------------
      LOOP:  cpu time   10.7591: real time   10.7803

 eigenvalue-minimisations  :   176
 total energy-change (2. order) :-0.6412262E-02  (-0.6007365E-05)
 number of electron      88.0000003 magnetization       0.0274163
 augmentation part       32.2942578 magnetization       0.0268105

 Broyden mixing:
  rms(total) = 0.10075E-02    rms(broyden)= 0.10075E-02
  rms(prec ) = 0.11825E-02
  weight for this iteration     100.00

 eigenvalues of (default mixing * dielectric matrix)
  average eigenvalue GAMMA=   1.9572
  9.1838  4.7307  2.7562  2.1011  2.1011  1.5570  1.0764  0.9744  0.8596  0.8596
  0.5651  0.6864  0.6095  0.6485  0.6485

 Free energy of the ion-electron system (eV)
  ---------------------------------------------------
  alpha Z        PSCENC =         6.43899565
  Ewald energy   TEWEN  =      6927.43225098
  -Hartree energ DENC   =    -13981.97576749
  -exchange      EXHF   =         0.00000000
  -V(xc)+E(xc)   XCENC  =       114.16364670
  PAW double counting   =      7779.82456261    -7608.98286521
  entropy T*S    EENTRO =         0.01165207
  eigenvalues    EBANDS =      -662.73357976
  atomic energy  EATOM  =      7408.64415014
  Solvation  Ediel_sol  =         0.00000000
  ---------------------------------------------------
  free energy    TOTEN  =       -17.17695431 eV

  energy without entropy =      -17.18860639  energy(sigma->0) =      -17.18083834


--------------------------------------------------------------------------------------------------------




--------------------------------------- Iteration      1(  21)  ---------------------------------------


    POTLOK:  cpu time    4.0823: real time    4.0941
    SETDIJ:  cpu time    0.0273: real time    0.0274
     EDDAV:  cpu time    5.6093: real time    5.6182
       DOS:  cpu time    0.0056: real time    0.0056
    CHARGE:  cpu time    0.8476: real time    0.8482
    MIXING:  cpu time    0.2070: real time    0.2072
    --------------------------------------------
      LOOP:  cpu time   10.7790: real time   10.8006

 eigenvalue-minimisations  :   176
 total energy-change (2. order) :-0.4512315E-02  (-0.2523568E-05)
 number of electron      88.0000003 magnetization       0.0140163
 augmentation part       32.2944149 magnetization       0.0135141

 Broyden mixing:
  rms(total) = 0.73450E-03    rms(broyden)= 0.73450E-03
  rms(prec ) = 0.85331E-03
  weight for this iteration     100.00

 eigenvalues of (default mixing * dielectric matrix)
  average eigenvalue GAMMA=   1.9696
  9.2391  4.9800  3.0254  2.2028  2.0495  2.0495  1.1905  1.0455  0.9185  0.9185
  0.7499  0.5635  0.6677  0.6677  0.6123  0.6326

 Free energy of the ion-electron system (eV)
  ---------------------------------------------------
  alpha Z        PSCENC =         6.43899565
  Ewald energy   TEWEN  =      6927.43225098
  -Hartree energ DENC   =    -13981.78795801
  -exchange      EXHF   =         0.00000000
  -V(xc)+E(xc)   XCENC  =       114.15771462
  PAW double counting   =      7779.72054498    -7608.87637684
  entropy T*S    EENTRO =         0.01165204
  eigenvalues    EBANDS =      -662.92244017
  atomic energy  EATOM  =      7408.64415014
  Solvation  Ediel_sol  =         0.00000000
  ---------------------------------------------------
  free energy    TOTEN  =       -17.18146663 eV

  energy without entropy =      -17.19311867  energy(sigma->0) =      -17.18535064


--------------------------------------------------------------------------------------------------------




--------------------------------------- Iteration      1(  22)  ---------------------------------------


    POTLOK:  cpu time    4.0728: real time    4.0875
    SETDIJ:  cpu time    0.0268: real time    0.0268
     EDDAV:  cpu time    5.4344: real time    5.4426
       DOS:  cpu time    0.0040: real time    0.0040
    CHARGE:  cpu time    0.8633: real time    0.8677
    MIXING:  cpu time    0.2170: real time    0.2172
    --------------------------------------------
      LOOP:  cpu time   10.6181: real time   10.6457

 eigenvalue-minimisations  :   168
 total energy-change (2. order) :-0.4866303E-02  (-0.2961583E-05)
 number of electron      88.0000003 magnetization       0.0068136
 augmentation part       32.2944510 magnetization       0.0066053

 Broyden mixing:
  rms(total) = 0.44328E-03    rms(broyden)= 0.44326E-03
  rms(prec ) = 0.50057E-03
  weight for this iteration     100.00

 eigenvalues of (default mixing * dielectric matrix)
  average eigenvalue GAMMA=   2.0243
  9.2937  5.5802  3.7219  2.5940  2.1053  2.1053  1.4058  0.9999  0.9999  0.8821
  0.8821  0.6968  0.6968  0.5635  0.6557  0.6154  0.6154

 Free energy of the ion-electron system (eV)
  ---------------------------------------------------
  alpha Z        PSCENC =         6.43899565
  Ewald energy   TEWEN  =      6927.43225098
  -Hartree energ DENC   =    -13981.57895772
  -exchange      EXHF   =         0.00000000
  -V(xc)+E(xc)   XCENC  =       114.15110513
  PAW double counting   =      7779.86743737    -7609.02186485
  entropy T*S    EENTRO =         0.01165202
  eigenvalues    EBANDS =      -663.13110163
  atomic energy  EATOM  =      7408.64415014
  Solvation  Ediel_sol  =         0.00000000
  ---------------------------------------------------
  free energy    TOTEN  =       -17.18633293 eV

  energy without entropy =      -17.19798495  energy(sigma->0) =      -17.19021694


--------------------------------------------------------------------------------------------------------




--------------------------------------- Iteration      1(  23)  ---------------------------------------


    POTLOK:  cpu time    4.1546: real time    4.1580
    SETDIJ:  cpu time    0.0278: real time    0.0278
     EDDAV:  cpu time    5.2291: real time    5.2416
       DOS:  cpu time    0.0052: real time    0.0052
    CHARGE:  cpu time    0.8614: real time    0.8621
    MIXING:  cpu time    0.2429: real time    0.2449
    --------------------------------------------
      LOOP:  cpu time   10.5211: real time   10.5396

 eigenvalue-minimisations  :   160
 total energy-change (2. order) :-0.2006867E-02  (-0.1541723E-05)
 number of electron      88.0000003 magnetization       0.0034489
 augmentation part       32.2945399 magnetization       0.0033461

 Broyden mixing:
  rms(total) = 0.25112E-03    rms(broyden)= 0.25110E-03
  rms(prec ) = 0.28319E-03
  weight for this iteration     100.00

 eigenvalues of (default mixing * dielectric matrix)
  average eigenvalue GAMMA=   2.0562
  9.3523  6.3478  4.1784  2.6068  2.1650  2.1650  1.5607  1.1611  0.9465  0.9465
  0.8738  0.8738  0.5636  0.6848  0.6848  0.6738  0.6131  0.6131

 Free energy of the ion-electron system (eV)
  ---------------------------------------------------
  alpha Z        PSCENC =         6.43899565
  Ewald energy   TEWEN  =      6927.43225098
  -Hartree energ DENC   =    -13981.45924450
  -exchange      EXHF   =         0.00000000
  -V(xc)+E(xc)   XCENC  =       114.14807651
  PAW double counting   =      7779.98041895    -7609.13465832
  entropy T*S    EENTRO =         0.01165200
  eigenvalues    EBANDS =      -663.24998121
  atomic energy  EATOM  =      7408.64415014
  Solvation  Ediel_sol  =         0.00000000
  ---------------------------------------------------
  free energy    TOTEN  =       -17.18833980 eV

  energy without entropy =      -17.19999179  energy(sigma->0) =      -17.19222380


--------------------------------------------------------------------------------------------------------




--------------------------------------- Iteration      1(  24)  ---------------------------------------


    POTLOK:  cpu time    4.0467: real time    4.0567
    SETDIJ:  cpu time    0.0264: real time    0.0264
     EDDAV:  cpu time    5.3378: real time    5.3497
       DOS:  cpu time    0.0046: real time    0.0046
    CHARGE:  cpu time    0.8604: real time    0.8626
    MIXING:  cpu time    0.2351: real time    0.2390
    --------------------------------------------
      LOOP:  cpu time   10.5109: real time   10.5390

 eigenvalue-minimisations  :   160
 total energy-change (2. order) :-0.1095962E-02  (-0.5906349E-06)
 number of electron      88.0000003 magnetization       0.0016057
 augmentation part       32.2945163 magnetization       0.0015770

 Broyden mixing:
  rms(total) = 0.13776E-03    rms(broyden)= 0.13774E-03
  rms(prec ) = 0.15906E-03
  weight for this iteration     100.00

 eigenvalues of (default mixing * dielectric matrix)
  average eigenvalue GAMMA=   2.1067
  9.4431  7.2769  4.4207  2.7787  2.3287  2.0456  2.0456  1.3642  0.9771  0.9771
  0.8910  0.8910  0.7843  0.5638  0.6778  0.6778  0.6578  0.6076  0.6187

 Free energy of the ion-electron system (eV)
  ---------------------------------------------------
  alpha Z        PSCENC =         6.43899565
  Ewald energy   TEWEN  =      6927.43225098
  -Hartree energ DENC   =    -13981.40839509
  -exchange      EXHF   =         0.00000000
  -V(xc)+E(xc)   XCENC  =       114.14682967
  PAW double counting   =      7780.10097957    -7609.25608283
  entropy T*S    EENTRO =         0.01165198
  eigenvalues    EBANDS =      -663.29981583
  atomic energy  EATOM  =      7408.64415014
  Solvation  Ediel_sol  =         0.00000000
  ---------------------------------------------------
  free energy    TOTEN  =       -17.18943576 eV

  energy without entropy =      -17.20108774  energy(sigma->0) =      -17.19331975


--------------------------------------------------------------------------------------------------------




--------------------------------------- Iteration      1(  25)  ---------------------------------------


    POTLOK:  cpu time    4.0653: real time    4.0734
    SETDIJ:  cpu time    0.0267: real time    0.0267
     EDDAV:  cpu time    5.0841: real time    5.0922
       DOS:  cpu time    0.0053: real time    0.0053
    CHARGE:  cpu time    0.8566: real time    0.8572
    MIXING:  cpu time    0.2775: real time    0.2776
    --------------------------------------------
      LOOP:  cpu time   10.3155: real time   10.3325

 eigenvalue-minimisations  :   152
 total energy-change (2. order) :-0.5177458E-03  (-0.3459562E-06)
 number of electron      88.0000003 magnetization       0.0010345
 augmentation part       32.2944739 magnetization       0.0010222

 Broyden mixing:
  rms(total) = 0.72551E-04    rms(broyden)= 0.72533E-04
  rms(prec ) = 0.87722E-04
  weight for this iteration     100.00

 eigenvalues of (default mixing * dielectric matrix)
  average eigenvalue GAMMA=   2.1000
  9.5254  7.7259  4.5482  2.9448  2.3728  2.1071  2.1071  1.4359  1.0193  1.0193
  0.9543  0.8744  0.8744  0.6951  0.6951  0.5639  0.6586  0.6486  0.6042  0.6252

 Free energy of the ion-electron system (eV)
  ---------------------------------------------------
  alpha Z        PSCENC =         6.43899565
  Ewald energy   TEWEN  =      6927.43225098
  -Hartree energ DENC   =    -13981.38111417
  -exchange      EXHF   =         0.00000000
  -V(xc)+E(xc)   XCENC  =       114.14629175
  PAW double counting   =      7780.14690785    -7609.30231693
  entropy T*S    EENTRO =         0.01165196
  eigenvalues    EBANDS =      -663.32677073
  atomic energy  EATOM  =      7408.64415014
  Solvation  Ediel_sol  =         0.00000000
  ---------------------------------------------------
  free energy    TOTEN  =       -17.18995350 eV

  energy without entropy =      -17.20160547  energy(sigma->0) =      -17.19383749


--------------------------------------------------------------------------------------------------------




--------------------------------------- Iteration      1(  26)  ---------------------------------------


    POTLOK:  cpu time    4.0767: real time    4.0935
    SETDIJ:  cpu time    0.0292: real time    0.0292
     EDDAV:  cpu time    5.0278: real time    5.0356
       DOS:  cpu time    0.0069: real time    0.0069
    CHARGE:  cpu time    0.8600: real time    0.8606
    MIXING:  cpu time    0.2772: real time    0.2774
    --------------------------------------------
      LOOP:  cpu time   10.2777: real time   10.3031

 eigenvalue-minimisations  :   152
 total energy-change (2. order) :-0.1138147E-03  (-0.1182891E-06)
 number of electron      88.0000003 magnetization       0.0006460
 augmentation part       32.2944900 magnetization       0.0006487

 Broyden mixing:
  rms(total) = 0.47261E-04    rms(broyden)= 0.47254E-04
  rms(prec ) = 0.60579E-04
  weight for this iteration     100.00

 eigenvalues of (default mixing * dielectric matrix)
  average eigenvalue GAMMA=   2.0854
  9.5709  7.9119  4.6245  2.9827  2.5465  2.1306  2.1306  1.5774  1.2453  0.9140
  0.9140  0.9918  0.9580  0.8477  0.6916  0.6916  0.5638  0.6431  0.6431  0.6075
  0.6075

 Free energy of the ion-electron system (eV)
  ---------------------------------------------------
  alpha Z        PSCENC =         6.43899565
  Ewald energy   TEWEN  =      6927.43225098
  -Hartree energ DENC   =    -13981.37097422
  -exchange      EXHF   =         0.00000000
  -V(xc)+E(xc)   XCENC  =       114.14610764
  PAW double counting   =      7780.11892679    -7609.27427068
  entropy T*S    EENTRO =         0.01165195
  eigenvalues    EBANDS =      -663.33690557
  atomic energy  EATOM  =      7408.64415014
  Solvation  Ediel_sol  =         0.00000000
  ---------------------------------------------------
  free energy    TOTEN  =       -17.19006732 eV

  energy without entropy =      -17.20171927  energy(sigma->0) =      -17.19395130


--------------------------------------------------------------------------------------------------------




--------------------------------------- Iteration      1(  27)  ---------------------------------------


    POTLOK:  cpu time    4.0225: real time    4.0381
    SETDIJ:  cpu time    0.0274: real time    0.0274
     EDDAV:  cpu time    4.6606: real time    4.6643
       DOS:  cpu time    0.0052: real time    0.0052
    --------------------------------------------
      LOOP:  cpu time    8.7157: real time    8.7350

 eigenvalue-minimisations  :   136
 total energy-change (2. order) :-0.7617672E-04  (-0.5987105E-07)
 number of electron      88.0000003 magnetization       0.0006460
 augmentation part       32.2944900 magnetization       0.0006487

 Free energy of the ion-electron system (eV)
  ---------------------------------------------------
  alpha Z        PSCENC =         6.43899565
  Ewald energy   TEWEN  =      6927.43225098
  -Hartree energ DENC   =    -13981.36497707
  -exchange      EXHF   =         0.00000000
  -V(xc)+E(xc)   XCENC  =       114.14601526
  PAW double counting   =      7780.09938801    -7609.25477594
  entropy T*S    EENTRO =         0.01165195
  eigenvalues    EBANDS =      -663.34284247
  atomic energy  EATOM  =      7408.64415014
  Solvation  Ediel_sol  =         0.00000000
  ---------------------------------------------------
  free energy    TOTEN  =       -17.19014350 eV

  energy without entropy =      -17.20179544  energy(sigma->0) =      -17.19402748


--------------------------------------------------------------------------------------------------------




 average (electrostatic) potential at core
  the test charge radii are     1.2098
  (the norm of the test charge is              1.0000)
       1 -76.7771       2 -77.1125       3 -77.6898       4 -76.9619       5 -77.1123
       6 -76.9095       7 -76.9615       8 -76.9136
 
 
 
 E-fermi :  -5.1095     XC(G=0):  -0.3407     alpha+bet : -0.1641


 spin component 1

 k-point     1 :       0.0000    0.0000    0.0000
  band No.  band energies     occupation 
      1     -10.8364      1.00000
      2     -10.1035      1.00000
      3     -10.0244      1.00000
      4      -9.9114      1.00000
      5      -9.2620      1.00000
      6      -9.0153      1.00000
      7      -8.9165      1.00000
      8      -8.6868      1.00000
      9      -8.6611      1.00000
     10      -8.4266      1.00000
     11      -8.3948      1.00000
     12      -8.2985      1.00000
     13      -8.1236      1.00000
     14      -8.0471      1.00000
     15      -7.9351      1.00000
     16      -7.8884      1.00000
     17      -7.8471      1.00000
     18      -7.5766      1.00000
     19      -7.5730      1.00000
     20      -7.4225      1.00000
     21      -7.2652      1.00000
     22      -7.2436      1.00000
     23      -7.0906      1.00000
     24      -6.9892      1.00000
     25      -6.9404      1.00000
     26      -6.9324      1.00000
     27      -6.9052      1.00000
     28      -6.9031      1.00000
     29      -6.8810      1.00000
     30      -6.8478      1.00000
     31      -6.7749      1.00000
     32      -6.7336      1.00000
     33      -6.7206      1.00000
     34      -6.6404      1.00000
     35      -6.5669      1.00000
     36      -6.4892      1.00000
     37      -6.4607      1.00000
     38      -6.3442      1.00000
     39      -6.2738      1.00000
     40      -6.2586      1.00000
     41      -6.1371      1.00000
     42      -6.1262      1.00000
     43      -5.9178      1.00000
     44      -5.2779      1.00003
     45      -4.4740     -0.00003
     46      -3.9425     -0.00000
     47      -3.0435     -0.00000
     48      -2.5890     -0.00000
     49      -2.3905     -0.00000
     50      -1.6215     -0.00000
     51      -1.3952     -0.00000
     52      -1.1128     -0.00000
     53      -0.8719     -0.00000
     54      -0.8110     -0.00000
     55      -0.0301     -0.00000
     56       0.0706     -0.00000

 spin component 2

 k-point     1 :       0.0000    0.0000    0.0000
  band No.  band energies     occupation 
      1     -10.8364      1.00000
      2     -10.1035      1.00000
      3     -10.0244      1.00000
      4      -9.9114      1.00000
      5      -9.2620      1.00000
      6      -9.0153      1.00000
      7      -8.9165      1.00000
      8      -8.6868      1.00000
      9      -8.6611      1.00000
     10      -8.4266      1.00000
     11      -8.3948      1.00000
     12      -8.2985      1.00000
     13      -8.1236      1.00000
     14      -8.0471      1.00000
     15      -7.9351      1.00000
     16      -7.8884      1.00000
     17      -7.8471      1.00000
     18      -7.5766      1.00000
     19      -7.5730      1.00000
     20      -7.4225      1.00000
     21      -7.2652      1.00000
     22      -7.2436      1.00000
     23      -7.0906      1.00000
     24      -6.9892      1.00000
     25      -6.9404      1.00000
     26      -6.9324      1.00000
     27      -6.9052      1.00000
     28      -6.9031      1.00000
     29      -6.8810      1.00000
     30      -6.8478      1.00000
     31      -6.7749      1.00000
     32      -6.7336      1.00000
     33      -6.7206      1.00000
     34      -6.6404      1.00000
     35      -6.5669      1.00000
     36      -6.4892      1.00000
     37      -6.4607      1.00000
     38      -6.3442      1.00000
     39      -6.2738      1.00000
     40      -6.2586      1.00000
     41      -6.1371      1.00000
     42      -6.1262      1.00000
     43      -5.9178      1.00000
     44      -5.2779      1.00004
     45      -4.4741     -0.00003
     46      -3.9425     -0.00000
     47      -3.0436     -0.00000
     48      -2.5890     -0.00000
     49      -2.3905     -0.00000
     50      -1.6215     -0.00000
     51      -1.3950     -0.00000
     52      -1.1129     -0.00000
     53      -0.8724     -0.00000
     54      -0.8108     -0.00000
     55      -0.0298     -0.00000
     56       0.0880     -0.00000


--------------------------------------------------------------------------------------------------------


 soft charge-density along one line, spin component            1
         0         1         2         3         4         5         6         7         8         9
 total charge-density along one line
 
 soft charge-density along one line, spin component            2
         0         1         2         3         4         5         6         7         8         9
 total charge-density along one line
 
 pseudopotential strength for first ion, spin component:            1
 -9.208   0.031  -0.020   0.029   0.006  -9.329   0.031  -0.019
  0.031  -9.212   0.031   0.012  -0.038   0.031  -9.334   0.031
 -0.020   0.031  -9.255   0.014   0.045  -0.019   0.031  -9.376
  0.029   0.012   0.014  -9.265   0.036   0.028   0.012   0.014
  0.006  -0.038   0.045   0.036  -9.220   0.005  -0.037   0.045
 -9.329   0.031  -0.019   0.028   0.005  -9.435   0.030  -0.019
  0.031  -9.334   0.031   0.012  -0.037   0.030  -9.440   0.030
 -0.019   0.031  -9.376   0.014   0.045  -0.019   0.030  -9.481
  0.028   0.012   0.014  -9.385   0.035   0.028   0.011   0.013
  0.005  -0.037   0.045   0.035  -9.341   0.005  -0.036   0.044
 -0.007  -0.020   0.010  -0.020   0.019  -0.007  -0.020   0.010
 -0.010  -0.029   0.014  -0.028   0.027  -0.010  -0.029   0.014
  0.018  -0.020  -0.003   0.000  -0.005   0.018  -0.020  -0.003
[...]
  -Hartree energ DENC   =    -13983.05766987
  -exchange      EXHF   =         0.00000000
  -V(xc)+E(xc)   XCENC  =       114.15120199
  PAW double counting   =      7781.03999604    -7610.20502001
  entropy T*S    EENTRO =         0.01165042
  eigenvalues    EBANDS =      -663.38537135
  atomic energy  EATOM  =      7408.64415014
  Solvation  Ediel_sol  =         0.00000000
  ---------------------------------------------------
  free energy    TOTEN  =       -17.19033408 eV

  energy without entropy =      -17.20198450  energy(sigma->0) =      -17.19421755


--------------------------------------------------------------------------------------------------------




--------------------------------------- Iteration      3(   2)  ---------------------------------------


    POTLOK:  cpu time    4.0334: real time    4.0536
    SETDIJ:  cpu time    0.0274: real time    0.0274
     EDDAV:  cpu time    4.8963: real time    4.9080
       DOS:  cpu time    0.0088: real time    0.0088
    --------------------------------------------
      LOOP:  cpu time    8.9659: real time    8.9978

 eigenvalue-minimisations  :   144
 total energy-change (2. order) :-0.1018421E-04  (-0.5274781E-05)
 number of electron      88.0000006 magnetization       0.0003118
 augmentation part       32.2939294 magnetization       0.0003161

 Free energy of the ion-electron system (eV)
  ---------------------------------------------------
  alpha Z        PSCENC =         6.43899565
  Ewald energy   TEWEN  =      6929.17173292
  -Hartree energ DENC   =    -13983.05430602
  -exchange      EXHF   =         0.00000000
  -V(xc)+E(xc)   XCENC  =       114.15132904
  PAW double counting   =      7781.08492199    -7610.25050030
  entropy T*S    EENTRO =         0.01165028
  eigenvalues    EBANDS =      -663.38831796
  atomic energy  EATOM  =      7408.64415014
  Solvation  Ediel_sol  =         0.00000000
  ---------------------------------------------------
  free energy    TOTEN  =       -17.19034426 eV

  energy without entropy =      -17.20199455  energy(sigma->0) =      -17.19422769


--------------------------------------------------------------------------------------------------------




 average (electrostatic) potential at core
  the test charge radii are     1.2098
  (the norm of the test charge is              1.0000)
       1 -76.7791       2 -77.1120       3 -77.6895       4 -76.9607       5 -77.1123
       6 -76.9105       7 -76.9618       8 -76.9146
 
 
 
 E-fermi :  -5.1094     XC(G=0):  -0.3356     alpha+bet : -0.1641


 spin component 1

 k-point     1 :       0.0000    0.0000    0.0000
  band No.  band energies     occupation 
      1     -10.8375      1.00000
      2     -10.1039      1.00000
      3     -10.0269      1.00000
      4      -9.9134      1.00000
      5      -9.2628      1.00000
      6      -9.0190      1.00000
      7      -8.9183      1.00000
      8      -8.6868      1.00000
      9      -8.6623      1.00000
     10      -8.4291      1.00000
     11      -8.3963      1.00000
     12      -8.2974      1.00000
     13      -8.1236      1.00000
     14      -8.0500      1.00000
     15      -7.9349      1.00000
     16      -7.8917      1.00000
     17      -7.8475      1.00000
     18      -7.5769      1.00000
     19      -7.5732      1.00000
     20      -7.4236      1.00000
     21      -7.2666      1.00000
     22      -7.2443      1.00000
     23      -7.0913      1.00000
     24      -6.9887      1.00000
     25      -6.9416      1.00000
     26      -6.9319      1.00000
     27      -6.9057      1.00000
     28      -6.9034      1.00000
     29      -6.8814      1.00000
     30      -6.8471      1.00000
     31      -6.7744      1.00000
     32      -6.7335      1.00000
     33      -6.7205      1.00000
     34      -6.6402      1.00000
     35      -6.5661      1.00000
     36      -6.4901      1.00000
     37      -6.4608      1.00000
     38      -6.3442      1.00000
     39      -6.2734      1.00000
     40      -6.2571      1.00000
     41      -6.1351      1.00000
     42      -6.1268      1.00000
     43      -5.9172      1.00000
     44      -5.2778      1.00003
     45      -4.4729     -0.00003
     46      -3.9418     -0.00000
     47      -3.0431     -0.00000
     48      -2.5883     -0.00000
     49      -2.3907     -0.00000
     50      -1.6209     -0.00000
     51      -1.3942     -0.00000
     52      -1.1136     -0.00000
     53      -0.8714     -0.00000
     54      -0.8099     -0.00000
     55      -0.0280     -0.00000
     56       0.0780     -0.00000

 spin component 2

 k-point     1 :       0.0000    0.0000    0.0000
  band No.  band energies     occupation 
      1     -10.8375      1.00000
      2     -10.1039      1.00000
      3     -10.0269      1.00000
      4      -9.9134      1.00000
      5      -9.2628      1.00000
      6      -9.0190      1.00000
      7      -8.9183      1.00000
      8      -8.6868      1.00000
      9      -8.6623      1.00000
     10      -8.4291      1.00000
     11      -8.3963      1.00000
     12      -8.2974      1.00000
     13      -8.1236      1.00000
     14      -8.0500      1.00000
     15      -7.9349      1.00000
     16      -7.8917      1.00000
     17      -7.8475      1.00000
     18      -7.5769      1.00000
     19      -7.5732      1.00000
     20      -7.4236      1.00000
     21      -7.2666      1.00000
     22      -7.2443      1.00000
     23      -7.0913      1.00000
     24      -6.9887      1.00000
     25      -6.9416      1.00000
     26      -6.9319      1.00000
     27      -6.9057      1.00000
     28      -6.9034      1.00000
     29      -6.8814      1.00000
     30      -6.8471      1.00000
     31      -6.7744      1.00000
     32      -6.7335      1.00000
     33      -6.7205      1.00000
     34      -6.6402      1.00000
     35      -6.5661      1.00000
     36      -6.4901      1.00000
     37      -6.4608      1.00000
     38      -6.3442      1.00000
     39      -6.2734      1.00000
     40      -6.2571      1.00000
     41      -6.1351      1.00000
     42      -6.1268      1.00000
     43      -5.9172      1.00000
     44      -5.2778      1.00003
     45      -4.4729     -0.00003
     46      -3.9418     -0.00000
     47      -3.0432     -0.00000
     48      -2.5883     -0.00000
     49      -2.3907     -0.00000
     50      -1.6209     -0.00000
     51      -1.3941     -0.00000
     52      -1.1135     -0.00000
     53      -0.8717     -0.00000
     54      -0.8096     -0.00000
     55      -0.0282     -0.00000
     56       0.0931     -0.00000


--------------------------------------------------------------------------------------------------------


 soft charge-density along one line, spin component            1
         0         1         2         3         4         5         6         7         8         9
 total charge-density along one line
 
 soft charge-density along one line, spin component            2
         0         1         2         3         4         5         6         7         8         9
 total charge-density along one line
 
 pseudopotential strength for first ion, spin component:            1
 -9.208   0.031  -0.020   0.029   0.006  -9.330   0.031  -0.019
  0.031  -9.213   0.031   0.012  -0.038   0.031  -9.335   0.031
 -0.020   0.031  -9.256   0.014   0.046  -0.019   0.031  -9.376
  0.029   0.012   0.014  -9.266   0.036   0.028   0.012   0.014
  0.006  -0.038   0.046   0.036  -9.221   0.005  -0.037   0.045
 -9.330   0.031  -0.019   0.028   0.005  -9.436   0.030  -0.019
  0.031  -9.335   0.031   0.012  -0.037   0.030  -9.440   0.030
 -0.019   0.031  -9.376   0.014   0.045  -0.019   0.030  -9.481
  0.028   0.012   0.014  -9.386   0.035   0.028   0.011   0.013
  0.005  -0.037   0.045   0.035  -9.342   0.005  -0.036   0.044
 -0.007  -0.020   0.010  -0.020   0.019  -0.007  -0.020   0.010
 -0.010  -0.029   0.014  -0.028   0.027  -0.010  -0.029   0.014
  0.018  -0.020  -0.003   0.000  -0.005   0.018  -0.020  -0.003
  0.000   0.004  -0.023   0.017   0.001   0.000   0.004  -0.022
  0.004   0.000  -0.011  -0.019   0.018   0.004   0.000  -0.011
  0.020  -0.023  -0.003   0.000  -0.006   0.020  -0.023  -0.003
  0.000   0.005  -0.026   0.019   0.001   0.000   0.005  -0.026
  0.005   0.000  -0.013  -0.021   0.020   0.004   0.000  -0.013
 pseudopotential strength for first ion, spin component:            2
 -9.208   0.031  -0.020   0.029   0.006  -9.330   0.031  -0.019
  0.031  -9.213   0.031   0.012  -0.038   0.031  -9.335   0.031
 -0.020   0.031  -9.256   0.014   0.046  -0.019   0.031  -9.376
  0.029   0.012   0.014  -9.266   0.036   0.028   0.012   0.014
  0.006  -0.038   0.046   0.036  -9.221   0.005  -0.037   0.045
 -9.330   0.031  -0.019   0.028   0.005  -9.436   0.030  -0.019
  0.031  -9.335   0.031   0.012  -0.037   0.030  -9.440   0.030
 -0.019   0.031  -9.376   0.014   0.045  -0.019   0.030  -9.481
  0.028   0.012   0.014  -9.386   0.035   0.028   0.011   0.013
  0.005  -0.037   0.045   0.035  -9.342   0.005  -0.036   0.044
 -0.007  -0.020   0.010  -0.020   0.019  -0.007  -0.020   0.010
 -0.010  -0.029   0.014  -0.028   0.027  -0.010  -0.029   0.014
  0.018  -0.020  -0.003   0.000  -0.005   0.018  -0.020  -0.003
  0.000   0.004  -0.023   0.017   0.001   0.000   0.004  -0.022
  0.004   0.000  -0.011  -0.019   0.018   0.004   0.000  -0.011
  0.020  -0.023  -0.003   0.000  -0.006   0.020  -0.023  -0.003
  0.000   0.005  -0.026   0.019   0.001   0.000   0.005  -0.026
  0.005   0.000  -0.013  -0.021   0.020   0.004   0.000  -0.013
 total augmentation occupancy for first ion, spin component:            1
  2.746  -0.104  -0.070  -0.072   0.063  -0.623   0.182  -0.010   0.074   0.011   0.152  -0.013   0.038  -0.004   0.007   0.019
 -0.104   2.750   0.047   0.161  -0.106   0.181  -0.743   0.144  -0.150  -0.019   0.652  -0.131  -0.055   0.059  -0.034  -0.019
 -0.070   0.047   2.764  -0.209   0.116  -0.010   0.145  -0.871   0.195   0.080  -0.376   0.089   0.010  -0.088   0.002  -0.006
 -0.072   0.161  -0.209   3.141  -0.225   0.073  -0.152   0.195  -1.114   0.351   0.837  -0.209  -0.018   0.120  -0.120   0.001
  0.063  -0.106   0.116  -0.225   2.730   0.012  -0.019   0.081   0.350  -0.765  -0.667   0.143  -0.003  -0.047   0.091  -0.004
 -0.623   0.181  -0.010   0.073   0.012   0.485  -0.241   0.069  -0.075  -0.067  -0.108  -0.003  -0.067   0.006   0.003   0.001
  0.182  -0.743   0.145  -0.152  -0.019  -0.241   0.693  -0.288   0.146   0.112  -0.535   0.099   0.099  -0.095   0.023  -0.003
 -0.010   0.144  -0.871   0.195   0.081   0.069  -0.288   0.906  -0.186  -0.228   0.321  -0.077  -0.032   0.144   0.037   0.004
  0.074  -0.150   0.195  -1.114   0.350  -0.075   0.146  -0.186   1.050  -0.447  -0.723   0.188   0.014  -0.147   0.163  -0.001
  0.011  -0.019   0.080   0.351  -0.765  -0.067   0.112  -0.228  -0.447   0.747   0.556  -0.115   0.026   0.040  -0.151  -0.002
  0.152   0.652  -0.376   0.837  -0.667  -0.108  -0.535   0.321  -0.723   0.556   1.959  -0.218  -0.045   0.196  -0.176   0.003
 -0.013  -0.131   0.089  -0.209   0.143  -0.003   0.099  -0.077   0.188  -0.115  -0.218   0.067   0.010  -0.044   0.040  -0.000
  0.038  -0.055   0.010  -0.018  -0.003  -0.067   0.099  -0.032   0.014   0.026  -0.045   0.010   0.020  -0.011   0.000  -0.001
 -0.004   0.059  -0.088   0.120  -0.047   0.006  -0.095   0.144  -0.147   0.040   0.196  -0.044  -0.011   0.047  -0.020   0.001
  0.007  -0.034   0.002  -0.120   0.091   0.003   0.023   0.037   0.163  -0.151  -0.176   0.040   0.000  -0.020   0.045   0.000
  0.019  -0.019  -0.006   0.001  -0.004   0.001  -0.003   0.004  -0.001  -0.002   0.003  -0.000  -0.001   0.001   0.000   0.000
  0.001  -0.001  -0.019   0.012   0.002  -0.001   0.006  -0.006   0.006  -0.002  -0.012   0.002   0.001  -0.003   0.001  -0.000
  0.006   0.001  -0.011  -0.014   0.013  -0.002  -0.001  -0.002  -0.007   0.008   0.011  -0.001   0.000   0.001  -0.003   0.000
 total augmentation occupancy for first ion, spin component:            2
  0.000  -0.000  -0.000   0.000   0.000  -0.000   0.000  -0.000  -0.000  -0.000   0.000  -0.000  -0.000   0.000   0.000   0.000
 -0.000   0.000   0.000  -0.000  -0.000   0.000  -0.000  -0.000   0.000   0.000  -0.000   0.000   0.000   0.000   0.000   0.000
 -0.000   0.000   0.000   0.000   0.000   0.000  -0.000  -0.000   0.000  -0.000  -0.000   0.000   0.000   0.000  -0.000  -0.000
  0.000  -0.000   0.000   0.000  -0.000  -0.000   0.000  -0.000  -0.000   0.000   0.000   0.000   0.000  -0.000  -0.000  -0.000
  0.000  -0.000   0.000  -0.000   0.000  -0.000   0.000  -0.000   0.000  -0.000  -0.000   0.000  -0.000  -0.000   0.000  -0.000
 -0.000   0.000   0.000  -0.000  -0.000  -0.000  -0.000   0.000   0.000   0.000  -0.000   0.000  -0.000  -0.000   0.000  -0.000
  0.000  -0.000  -0.000   0.000   0.000  -0.000   0.000   0.000  -0.000  -0.000   0.000  -0.000  -0.000  -0.000  -0.000  -0.000
 -0.000  -0.000  -0.000  -0.000  -0.000   0.000   0.000   0.000   0.000  -0.000  -0.000  -0.000  -0.000   0.000   0.000   0.000
 -0.000   0.000   0.000  -0.000   0.000   0.000  -0.000   0.000   0.000  -0.000  -0.000  -0.000  -0.000   0.000   0.000   0.000
 -0.000   0.000  -0.000   0.000  -0.000   0.000  -0.000  -0.000  -0.000   0.000   0.000   0.000   0.000   0.000  -0.000  -0.000
  0.000  -0.000  -0.000   0.000  -0.000  -0.000   0.000  -0.000  -0.000   0.000  -0.000  -0.000   0.000   0.000  -0.000   0.000
 -0.000   0.000   0.000   0.000   0.000   0.000  -0.000  -0.000  -0.000   0.000  -0.000  -0.000  -0.000   0.000  -0.000  -0.000
 -0.000   0.000   0.000   0.000  -0.000  -0.000  -0.000  -0.000  -0.000   0.000   0.000  -0.000   0.000  -0.000  -0.000  -0.000
  0.000   0.000   0.000  -0.000  -0.000  -0.000  -0.000   0.000   0.000   0.000   0.000   0.000  -0.000   0.000  -0.000   0.000
  0.000   0.000  -0.000  -0.000   0.000   0.000  -0.000   0.000   0.000  -0.000  -0.000  -0.000  -0.000  -0.000   0.000   0.000
  0.000   0.000  -0.000  -0.000  -0.000  -0.000  -0.000   0.000   0.000  -0.000   0.000  -0.000  -0.000   0.000   0.000   0.000
  0.000  -0.000  -0.000  -0.000  -0.000  -0.000   0.000  -0.000   0.000   0.000   0.000   0.000   0.000  -0.000   0.000   0.000
 -0.000  -0.000   0.000   0.000  -0.000   0.000   0.000  -0.000  -0.000   0.000   0.000  -0.000   0.000   0.000  -0.000   0.000


------------------------ aborting loop because EDIFF is reached ----------------------------------------


    CHARGE:  cpu time    0.8565: real time    0.8572
    FORLOC:  cpu time    0.1132: real time    0.1133
    FORNL :  cpu time    3.5794: real time    3.5819
    FORCOR:  cpu time    3.8765: real time    3.8911
    FORHAR:  cpu time    0.4960: real time    0.5002
    MIXING:  cpu time    0.0788: real time    0.0788
    OFIELD:  cpu time    0.0000: real time    0.0000

 VOLUME and BASIS-vectors are now :
 -----------------------------------------------------------------------------
  energy-cutoff  :      400.00
  volume of cell :    11577.42
      direct lattice vectors                 reciprocal lattice vectors
    21.384594048  0.000000000  0.000000000     0.046762637  0.000000000  0.000000000
     0.000000000 22.738163680  0.000000000     0.000000000  0.043978925  0.000000000
     0.000000000  0.000000000 23.809777277     0.000000000  0.000000000  0.041999553

  length of vectors
    21.384594048 22.738163680 23.809777277     0.046762637  0.043978925  0.041999553


 FORCES acting on ions
    electron-ion (+dipol)            ewald-force                    non-local-force                 convergence-correction
 -----------------------------------------------------------------------------------------------
   -.437E+03 -.113E+03 0.493E+03   0.433E+03 0.112E+03 -.488E+03   0.442E+01 0.114E+01 -.491E+01   0.278E-02 0.104E-02 -.340E-02
   -.545E+03 0.170E+03 0.439E+02   0.542E+03 -.170E+03 -.433E+02   0.272E+01 -.655E+00 -.551E+00   0.120E-02 -.121E-02 0.129E-02
   0.490E+02 0.155E+02 -.529E+02   -.486E+02 -.154E+02 0.525E+02   -.405E+00 -.854E-01 0.403E+00   0.404E-02 0.422E-03 -.366E-02
   -.436E+03 0.372E+03 -.396E+03   0.434E+03 -.369E+03 0.392E+03   0.218E+01 -.309E+01 0.423E+01   -.125E-02 0.613E-03 -.466E-03
   0.686E+02 -.290E+03 0.495E+03   -.687E+02 0.289E+03 -.492E+03   0.354E-01 0.134E+01 -.251E+01   0.176E-03 0.124E-02 -.255E-02
   0.151E+03 0.282E+03 -.620E+03   -.152E+03 -.280E+03 0.616E+03   0.373E+00 -.239E+01 0.417E+01   0.291E-02 -.202E-02 0.166E-02
   0.516E+03 -.352E+03 0.304E+03   -.511E+03 0.349E+03 -.303E+03   -.502E+01 0.237E+01 -.103E+01   -.289E-02 0.195E-02 -.154E-02
   0.633E+03 -.846E+02 -.266E+03   -.629E+03 0.833E+02 0.266E+03   -.460E+01 0.134E+01 0.574E+00   -.427E-02 0.171E-02 -.413E-03
 -----------------------------------------------------------------------------------------------
   0.285E+00 0.178E-01 -.366E+00   -.114E-12 -.284E-13 -.171E-12   -.289E+00 -.234E-01 0.375E+00   0.269E-02 0.376E-02 -.908E-02
 
 
 POSITION                                       TOTAL-FORCE (eV/Angst)
 -----------------------------------------------------------------------------------
     13.28079     12.22260      8.42142        -0.011088     -0.001295      0.006028
     12.74499     11.12742     10.76920         0.009046     -0.003796     -0.003511
     10.22924     11.44342     11.81146        -0.001869      0.014442     -0.014323
     12.14884     10.05381     13.12003        -0.011524      0.002220      0.002697
     10.83599     12.55496      9.37836         0.008700      0.002189     -0.000886
      9.61590     10.37150     14.19859        -0.013903      0.014590     -0.017317
      8.40840     12.86874     10.39822         0.005747     -0.010711      0.007935
      7.77355     11.76016     12.85286         0.014890     -0.017639      0.019376
 -----------------------------------------------------------------------------------
    total drift:                               -0.001647     -0.001900     -0.000495


--------------------------------------------------------------------------------------------------------



  FREE ENERGIE OF THE ION-ELECTRON SYSTEM (eV)
  ---------------------------------------------------
  free  energy   TOTEN  =       -17.19034426 eV

  energy  without entropy=      -17.20199455  energy(sigma->0) =      -17.19422769
 
 d Force =-0.1078225E-04[-0.441E-04, 0.226E-04]  d Energy =-0.1629829E-04 0.552E-05
 d Force = 0.6095730E+00[ 0.609E+00, 0.610E+00]  d Ewald  = 0.6095730E+00 0.131E-07


--------------------------------------------------------------------------------------------------------


    POTLOK:  cpu time    4.1215: real time    4.1285


--------------------------------------------------------------------------------------------------------




--------------------------------------------------------------------------------------------------------


  
 reached required accuracy - stopping structural energy minimisation
     LOOP+:  cpu time   33.8419: real time   33.9472
    4ORBIT:  cpu time    0.0000: real time    0.0000

 total amount of memory used by VASP MPI-rank0   230570. kBytes
=======================================================================

   base      :      30000. kBytes
   nonl-proj :       3572. kBytes
   fftplans  :      53144. kBytes
   grid      :     120289. kBytes
   one-center:         15. kBytes
   wavefun   :      23550. kBytes
 
  
  
 General timing and accounting informations for this job:
 ========================================================
  
                  Total CPU time used (sec):      390.157
                            User time (sec):      385.650
                          System time (sec):        4.507
                         Elapsed time (sec):      392.278
  
                   Maximum memory used (kb):      452344.
                   Average memory used (kb):           0.
  
                          Minor page faults:      1831282
                          Major page faults:         7267
                 Voluntary context switches:         2013
