<?xml version="1.0" encoding="ISO-8859-1"?>
<modeling>
 <generator>
  <i name="program" type="string">vasp </i>
  <i name="version" type="string">6.1.2  </i>
  <i name="subversion" type="string">22Jul20 (build Aug  2 2021 21:04:21) gamma-only                       parallel </i>
  <i name="platform" type="string">LinuxPGI </i>
  <i name="date" type="string">2021 12 28 </i>
  <i name="time" type="string">18:47:36 </i>
 </generator>
 <incar>
  <i type="int" name="ISPIN">     2</i>
  <i type="int" name="IBRION">     2</i>
  <i type="int" name="NSW">  1000</i>
  <i type="int" name="ISIF">     0</i>
  <i type="int" name="ISYM">     0</i>
  <i name="ENCUT">    400.00000000</i>
  <i type="logical" name="LREAL"> F  </i>
  <i type="int" name="ISMEAR">     1</i>
  <i name="SIGMA">      0.20000000</i>
  <i type="logical" name="LWAVE"> F  </i>
  <i type="logical" name="LCHARG"> F  </i>
  <i type="int" name="KPAR">     1</i>
  <i type="int" name="NCORE">     8</i>
  <i type="string" name="GGA"> PE</i>
  <i type="int" name="ISPIN">     2</i>
 </incar>
 <structure name="primitive_cell" >
  <crystal>
   <varray name="basis" >
    <v>      21.38459405       0.00000000       0.00000000 </v>
    <v>       0.00000000      22.73816368       0.00000000 </v>
    <v>       0.00000000       0.00000000      23.80977728 </v>
   </varray>
   <i name="volume">  11577.41847862 </i>
   <varray name="rec_basis" >
    <v>       0.04676264       0.00000000       0.00000000 </v>
    <v>       0.00000000       0.04397893       0.00000000 </v>
    <v>       0.00000000       0.00000000       0.04199955 </v>
   </varray>
  </crystal>
  <varray name="positions" >
   <v>       0.62107305       0.53754142       0.35367604 </v>
   <v>       0.59596846       0.48936944       0.45232322 </v>
   <v>       0.47837338       0.50324152       0.49609518 </v>
   <v>       0.56812632       0.44215856       0.55102282 </v>
   <v>       0.50669510       0.55215370       0.39388954 </v>
   <v>       0.44969797       0.45609674       0.59636850 </v>
   <v>       0.39318618       0.56597270       0.43670472 </v>
   <v>       0.36346634       0.51723350       0.53978511 </v>
  </varray>
 </structure>
 <varray name="primitive_index" >
  <v type="int" >        1 </v>
  <v type="int" >        2 </v>
  <v type="int" >        3 </v>
  <v type="int" >        4 </v>
  <v type="int" >        5 </v>
  <v type="int" >        6 </v>
  <v type="int" >        7 </v>
  <v type="int" >        8 </v>
 </varray>
 <kpoints>
  <generation param="Gamma">
   <v type="int" name="divisions">       1        1        1 </v>
   <v name="usershift">      0.00000000       0.00000000       0.00000000 </v>
   <v name="genvec1">      1.00000000       0.00000000       0.00000000 </v>
   <v name="genvec2">      0.00000000       1.00000000       0.00000000 </v>
   <v name="genvec3">      0.00000000       0.00000000       1.00000000 </v>
   <v name="shift">      0.00000000       0.00000000       0.00000000 </v>
  </generation>
  <varray name="kpointlist" >
   <v>       0.00000000       0.00000000       0.00000000 </v>
  </varray>
  <varray name="weights" >
   <v>       1.00000000 </v>
  </varray>
 </kpoints>
 <parameters>
  <separator name="general" >
   <i type="string" name="SYSTEM">unknown system</i>
   <i type="logical" name="LCOMPAT"> F  </i>
  </separator>
  <separator name="electronic" >
   <i type="string" name="PREC">normal</i>
   <i name="ENMAX">    400.00000000</i>
   <i name="ENAUG">    356.67000000</i>
   <i name="EDIFF">      0.00010000</i>
   <i type="int" name="IALGO">    38</i>
   <i type="int" name="IWAVPR">    11</i>
   <i type="int" name="NBANDS">    56</i>
   <i type="int" name="NBANDSLOW">    -1</i>
   <i type="int" name="NBANDSHIGH">    -1</i>
   <i name="NELECT">     88.00000000</i>
   <i type="int" name="TURBO">     0</i>
   <i type="int" name="IRESTART">     0</i>
   <i type="int" name="NREBOOT">     0</i>
   <i type="int" name="NMIN">     0</i>
   <i name="EREF">      0.00000000</i>
   <separator name="electronic smearing" >
    <i type="int" name="ISMEAR">     1</i>
    <i name="SIGMA">      0.20000000</i>
    <i name="KSPACING">      0.50000000</i>
    <i type="logical" name="KGAMMA"> T  </i>
    <i type="logical" name="KBLOWUP"> T  </i>
   </separator>
   <separator name="electronic projectors" >
    <i type="logical" name="LREAL"> F  </i>
    <v name="ROPT">      0.00000000</v>
    <i type="int" name="LMAXPAW">  -100</i>
    <i type="int" name="LMAXMIX">     2</i>
    <i type="logical" name="NLSPLINE"> F  </i>
   </separator>
   <separator name="electronic startup" >
    <i type="int" name="ISTART">     0</i>
    <i type="int" name="ICHARG">     2</i>
    <i type="int" name="INIWAV">     1</i>
   </separator>
   <separator name="electronic spin" >
    <i type="int" name="ISPIN">     2</i>
    <i type="logical" name="LNONCOLLINEAR"> F  </i>
    <v name="MAGMOM">      1.00000000      1.00000000      1.00000000      1.00000000      1.00000000      1.00000000      1.00000000      1.00000000</v>
    <i name="NUPDOWN">     -1.00000000</i>
    <i type="logical" name="LSORBIT"> F  </i>
    <v name="SAXIS">      0.00000000      0.00000000      1.00000000</v>
    <i type="logical" name="LSPIRAL"> F  </i>
    <v name="QSPIRAL">      0.00000000      0.00000000      0.00000000</v>
    <i type="logical" name="LZEROZ"> F  </i>
   </separator>
   <separator name="electronic exchange-correlation" >
    <i type="logical" name="LASPH"> F  </i>
    <i type="logical" name="LMETAGGA"> F  </i>
   </separator>
   <separator name="electronic convergence" >
    <i type="int" name="NELM">    60</i>
    <i type="int" name="NELMDL">     0</i>
    <i type="int" name="NELMIN">     2</i>
    <i name="ENINI">    400.00000000</i>
    <separator name="electronic convergence detail" >
     <i type="logical" name="LDIAG"> T  </i>
     <i type="logical" name="LSUBROT"> F  </i>
     <i name="WEIMIN">      0.00100000</i>
     <i name="EBREAK">      0.00000045</i>
     <i name="DEPER">      0.30000000</i>
     <i type="int" name="NRMM">     4</i>
     <i name="TIME">      0.40000000</i>
    </separator>
   </separator>
   <separator name="electronic mixer" >
    <i name="AMIX">      0.40000000</i>
    <i name="BMIX">      1.00000000</i>
    <i name="AMIN">      0.10000000</i>
    <i name="AMIX_MAG">      1.60000000</i>
    <i name="BMIX_MAG">      1.00000000</i>
    <separator name="electronic mixer details" >
     <i type="int" name="IMIX">     4</i>
     <i type="logical" name="MIXFIRST"> F  </i>
     <i type="int" name="MAXMIX">   -45</i>
     <i name="WC">    100.00000000</i>
     <i type="int" name="INIMIX">     1</i>
     <i type="int" name="MIXPRE">     1</i>
     <i type="int" name="MREMOVE">     5</i>
    </separator>
   </separator>
   <separator name="electronic dipolcorrection" >
    <i type="logical" name="LDIPOL"> F  </i>
    <i type="logical" name="LMONO"> F  </i>
    <i type="int" name="IDIPOL">     0</i>
    <i name="EPSILON">      1.00000000</i>
    <v name="DIPOL">   -100.00000000   -100.00000000   -100.00000000</v>
    <i name="EFIELD">      0.00000000</i>
   </separator>
  </separator>
  <separator name="grids" >
   <i type="int" name="NGX">   108</i>
   <i type="int" name="NGY">   112</i>
   <i type="int" name="NGZ">   120</i>
   <i type="int" name="NGXF">   216</i>
   <i type="int" name="NGYF">   224</i>
   <i type="int" name="NGZF">   240</i>
   <i type="logical" name="ADDGRID"> F  </i>
  </separator>
  <separator name="ionic" >
   <i type="int" name="NSW">  1000</i>
   <i type="int" name="IBRION">     2</i>
   <i type="int" name="MDALGO">     0</i>
   <i type="int" name="ISIF">     0</i>
   <i name="PSTRESS">      0.00000000</i>
   <i name="EDIFFG">      0.00100000</i>
   <i type="int" name="NFREE">     1</i>
   <i name="POTIM">      0.50000000</i>
   <i name="SMASS">     -3.00000000</i>
   <i name="SCALEE">      1.00000000</i>
  </separator>
  <separator name="ionic md" >
   <i name="TEBEG">      0.00010000</i>
   <i name="TEEND">      0.00010000</i>
   <i type="int" name="NBLOCK">     1</i>
   <i type="int" name="KBLOCK">  1000</i>
   <i type="int" name="NPACO">   256</i>
   <i name="APACO">     16.00000000</i>
  </separator>
  <separator name="symmetry" >
   <i type="int" name="ISYM">     0</i>
   <i name="SYMPREC">      0.00001000</i>
  </separator>
  <separator name="dos" >
   <i type="int" name="LORBIT">     0</i>
   <v name="RWIGS">     -1.00000000</v>
   <i type="int" name="NEDOS">   301</i>
   <i name="EMIN">     10.00000000</i>
   <i name="EMAX">    -10.00000000</i>
   <i name="EFERMI">      0.00000000</i>
  </separator>
  <separator name="writing" >
   <i type="int" name="NWRITE">     2</i>
   <i type="logical" name="LWAVE"> F  </i>
   <i type="logical" name="LDOWNSAMPLE"> F  </i>
   <i type="logical" name="LCHARG"> F  </i>
   <i type="logical" name="LPARD"> F  </i>
   <i type="logical" name="LVTOT"> F  </i>
   <i type="logical" name="LVHAR"> F  </i>
   <i type="logical" name="LELF"> F  </i>
   <i type="logical" name="LOPTICS"> F  </i>
   <v name="STM">      0.00000000      0.00000000      0.00000000      0.00000000      0.00000000      0.00000000      0.00000000</v>
  </separator>
  <separator name="performance" >
   <i type="int" name="NPAR">     1</i>
   <i type="int" name="NSIM">     4</i>
   <i type="int" name="NBLK">    -1</i>
   <i type="logical" name="LPLANE"> T  </i>
   <i type="logical" name="LSCALAPACK"> T  </i>
   <i type="logical" name="LSCAAWARE"> F  </i>
   <i type="logical" name="LSCALU"> F  </i>
   <i type="logical" name="LASYNC"> F  </i>
   <i type="logical" name="LORBITALREAL"> F  </i>
  </separator>
  <separator name="miscellaneous" >
   <i type="int" name="IDIOT">     3</i>
   <i type="int" name="PHON_NSTRUCT">    -1</i>
   <i type="logical" name="LMUSIC"> F  </i>
   <v name="POMASS">    196.96600000</v>
   <v name="DARWINR">      0.00000000</v>
   <v name="DARWINV">      1.00000000</v>
   <i type="logical" name="LCORR"> T  </i>
  </separator>
  <i type="logical" name="GGA_COMPAT"> T  </i>
  <i type="logical" name="LBERRY"> F  </i>
  <i type="int" name="ICORELEVEL">     0</i>
  <i type="logical" name="LDAU"> F  </i>
  <i type="int" name="I_CONSTRAINED_M">     0</i>
  <separator name="electronic exchange-correlation" >
   <i type="string" name="GGA">PE</i>
   <i type="int" name="VOSKOWN">     0</i>
   <i type="logical" name="LHFCALC"> F  </i>
   <i type="string" name="PRECFOCK"></i>
   <i type="logical" name="LSYMGRAD"> F  </i>
   <i type="logical" name="LHFONE"> F  </i>
   <i type="logical" name="LRHFCALC"> F  </i>
   <i type="logical" name="LTHOMAS"> F  </i>
   <i type="logical" name="LMODELHF"> F  </i>
   <i type="logical" name="LFOCKACE"> F  </i>
   <i name="ENCUT4O">     -1.00000000</i>
   <i type="int" name="EXXOEP">     0</i>
   <i type="int" name="FOURORBIT">     0</i>
   <i name="AEXX">      0.00000000</i>
   <i name="HFALPHA">      0.00000000</i>
   <i name="MCALPHA">      0.00000000</i>
   <i name="ALDAX">      1.00000000</i>
   <i name="AGGAX">      1.00000000</i>
   <i name="ALDAC">      1.00000000</i>
   <i name="AGGAC">      1.00000000</i>
   <i type="int" name="NKREDX">     1</i>
   <i type="int" name="NKREDY">     1</i>
   <i type="int" name="NKREDZ">     1</i>
   <i type="logical" name="SHIFTRED"> F  </i>
   <i type="logical" name="ODDONLY"> F  </i>
   <i type="logical" name="EVENONLY"> F  </i>
   <i type="int" name="LMAXFOCK">     0</i>
   <i type="int" name="NMAXFOCKAE">     0</i>
   <i type="logical" name="LFOCKAEDFT"> F  </i>
   <i name="HFSCREEN">      0.00000000</i>
   <i name="HFSCREENC">      0.00000000</i>
   <i type="int" name="NBANDSGWLOW">     0</i>
  </separator>
  <separator name="vdW DFT" >
   <i type="logical" name="LUSE_VDW"> F  </i>
   <i name="Zab_VDW">     -0.84910000</i>
   <i name="PARAM1">      0.12340000</i>
   <i name="PARAM2">      1.00000000</i>
   <i name="PARAM3">      0.00000000</i>
  </separator>
  <separator name="model GW" >
   <i type="int" name="MODEL_GW">     0</i>
   <i name="MODEL_EPS0">    868.30638590</i>
   <i name="MODEL_ALPHA">      1.00000000</i>
  </separator>
  <separator name="linear response parameters" >
   <i type="logical" name="LEPSILON"> F  </i>
   <i type="logical" name="LRPA"> F  </i>
   <i type="logical" name="LNABLA"> F  </i>
   <i type="logical" name="LVEL"> F  </i>
   <i type="int" name="KINTER">     0</i>
   <i name="CSHIFT">      0.10000000</i>
   <i name="OMEGAMAX">     -1.00000000</i>
   <i name="DEG_THRESHOLD">      0.00200000</i>
   <i name="RTIME">     -0.10000000</i>
   <i name="WPLASMAI">      0.00000000</i>
   <v name="DFIELD">      0.00000000      0.00000000      0.00000000</v>
   <v name="WPLASMA">      0.00000000      0.00000000      0.00000000      0.00000000      0.00000000      0.00000000      0.00000000      0.00000000      0.00000000</v>
  </separator>
  <separator name="orbital magnetization" >
   <i type="logical" name="NUCIND"> F  </i>
   <v name="MAGPOS">      0.00000000      0.00000000      0.00000000</v>
   <i type="logical" name="LNICSALL"> T  </i>
   <i type="logical" name="ORBITALMAG"> F  </i>
   <i type="logical" name="LMAGBLOCH"> F  </i>
   <i type="logical" name="LCHIMAG"> F  </i>
   <i type="logical" name="LGAUGE"> T  </i>
   <i type="int" name="MAGATOM">     0</i>
   <v name="MAGDIPOL">      0.00000000      0.00000000      0.00000000</v>
   <v name="AVECCONST">      0.00000000      0.00000000      0.00000000</v>
  </separator>
  <separator name="response functions" >
   <i type="logical" name="LFINITE_TEMPERATURE"> F  </i>
   <i type="logical" name="LADDER"> F  </i>
   <i type="logical" name="LRPAFORCE"> F  </i>
   <i type="logical" name="LFXC"> F  </i>
   <i type="logical" name="LHARTREE"> T  </i>
   <i type="int" name="IBSE">     0</i>
   <v type="int" name="KPOINT">    -1     0     0     0</v>
   <i type="logical" name="LTCTC"> F  </i>
   <i type="logical" name="LTCTE"> F  </i>
   <i type="logical" name="LTETE"> F  </i>
   <i type="logical" name="LTRIPLET"> F  </i>
   <i type="logical" name="LFXCEPS"> F  </i>
   <i type="logical" name="LFXHEG"> F  </i>
   <i type="int" name="NATURALO">     2</i>
   <i type="logical" name="LHOLEGF"> F  </i>
   <i type="logical" name="L2ORDER"> F  </i>
   <i type="logical" name="LDMP1"> F  </i>
   <i type="logical" name="LMP2LT"> F  </i>
   <i type="logical" name="LSMP2LT"> F  </i>
   <i type="logical" name="LGWLF"> F  </i>
   <i name="ENCUTGW">     -2.00000000</i>
   <i name="ENCUTGWSOFT">     -2.00000000</i>
   <i name="ENCUTLF">     -1.00000000</i>
   <i type="logical" name="LESF_SPLINES"> F  </i>
   <i type="int" name="LMAXMP2">    -1</i>
   <i name="SCISSOR">      0.00000000</i>
   <i type="int" name="NOMEGA">     0</i>
   <i type="int" name="NOMEGAR">     0</i>
   <i type="int" name="NBANDSGW">    -1</i>
   <i type="int" name="NBANDSO">    -1</i>
   <i type="int" name="NBANDSV">    -1</i>
   <i type="int" name="NELM">     1</i>
   <i type="int" name="NELMHF">     1</i>
   <i type="int" name="DIM">     3</i>
   <i type="int" name="IESPILON">     4</i>
   <i type="int" name="ANTIRES">     0</i>
   <i name="OMEGAMAX">    -30.00000000</i>
   <i name="OMEGAMIN">    -30.00000000</i>
   <i name="OMEGATL">   -200.00000000</i>
   <i type="int" name="OMEGAGRID">     0</i>
   <i name="CSHIFT">     -0.10000000</i>
   <i type="logical" name="LSELFENERGY"> F  </i>
   <i type="logical" name="LSPECTRAL"> F  </i>
   <i type="logical" name="LSPECTRALGW"> F  </i>
   <i type="logical" name="LSINGLES"> F  </i>
   <i type="logical" name="LFERMIGW"> F  </i>
   <i type="logical" name="ODDONLYGW"> F  </i>
   <i type="logical" name="EVENONLYGW"> F  </i>
   <i type="int" name="NKREDLFX">     1</i>
   <i type="int" name="NKREDLFY">     1</i>
   <i type="int" name="NKREDLFZ">     1</i>
   <i type="int" name="MAXMEM">  2800</i>
   <i type="int" name="TELESCOPE">     0</i>
   <i type="int" name="NTAUPAR">    -1</i>
   <i type="int" name="NOMEGAPAR">    -1</i>
   <i name="LAMBDA">      1.00000000</i>
  </separator>
  <separator name="External order field" >
   <i name="OFIELD_KAPPA">      0.00000000</i>
   <v name="OFIELD_K">      0.00000000      0.00000000      0.00000000</v>
   <i name="OFIELD_Q6_NEAR">      0.00000000</i>
   <i name="OFIELD_Q6_FAR">      0.00000000</i>
   <i name="OFIELD_A">      0.00000000</i>
  </separator>
 </parameters>
 <atominfo>
  <atoms>       8 </atoms>
  <types>       1 </types>
  <array name="atoms" >
   <dimension dim="1">ion</dimension>
   <field type="string">element</field>
   <field type="int">atomtype</field>
   <set>
    <rc><c>Au</c><c>   1</c></rc>
    <rc><c>Au</c><c>   1</c></rc>
    <rc><c>Au</c><c>   1</c></rc>
    <rc><c>Au</c><c>   1</c></rc>
    <rc><c>Au</c><c>   1</c></rc>
    <rc><c>Au</c><c>   1</c></rc>
    <rc><c>Au</c><c>   1</c></rc>
    <rc><c>Au</c><c>   1</c></rc>
   </set>
  </array>
  <array name="atomtypes" >
   <dimension dim="1">type</dimension>
   <field type="int">atomspertype</field>
   <field type="string">element</field>
   <field>mass</field>
   <field>valence</field>
   <field type="string">pseudopotential</field>
   <set>
    <rc><c>   8</c><c>Au</c><c>    196.96600000</c><c>     11.00000000</c><c>  PAW_PBE Au 04Oct2007                  </c></rc>
   </set>
  </array>
 </atominfo>
 <structure name="initialpos" >
  <crystal>
   <varray name="basis" >
    <v>      21.38459405       0.00000000       0.00000000 </v>
    <v>       0.00000000      22.73816368       0.00000000 </v>
    <v>       0.00000000       0.00000000      23.80977728 </v>
   </varray>
   <i name="volume">  11577.41847862 </i>
   <varray name="rec_basis" >
    <v>       0.04676264       0.00000000       0.00000000 </v>
    <v>       0.00000000       0.04397893       0.00000000 </v>
    <v>       0.00000000       0.00000000       0.04199955 </v>
   </varray>
  </crystal>
  <varray name="positions" >
   <v>       0.62107305       0.53754142       0.35367604 </v>
   <v>       0.59596846       0.48936944       0.45232322 </v>
   <v>       0.47837338       0.50324152       0.49609518 </v>
   <v>       0.56812632       0.44215856       0.55102282 </v>
   <v>       0.50669510       0.55215370       0.39388954 </v>
   <v>       0.44969797       0.45609674       0.59636850 </v>
   <v>       0.39318618       0.56597270       0.43670472 </v>
   <v>       0.36346634       0.51723350       0.53978511 </v>
  </varray>
 </structure>
 <calculation>
  <scstep>
   <time name="dav">    6.68    6.71</time>
   <time name="total">   10.88   10.91</time>
   <energy>
    <i name="alphaZ">      6.43899565 </i>
    <i name="ewald">   6927.43225098 </i>
    <i name="hartreedc"> -14018.40893647 </i>
    <i name="XCdc">    116.80650062 </i>
    <i name="pawpsdc">   6992.17180065 </i>
    <i name="pawaedc">  -6807.49900724 </i>
    <i name="eentropy">      0.00998067 </i>
    <i name="bandstr">    108.61907833 </i>
    <i name="atom">   7408.64415014 </i>
    <i name="e_fr_energy">    734.21481333 </i>
    <i name="e_wo_entrp">    734.20483266 </i>
    <i name="e_0_energy">    734.21148644 </i>
   </energy>
  </scstep>
  <scstep>
   <time name="dav">   10.42   10.43</time>
   <time name="total">   10.43   10.44</time>
   <energy>
    <i name="e_fr_energy">    454.38688136 </i>
    <i name="e_wo_entrp">    454.43307276 </i>
    <i name="e_0_energy">    454.40227850 </i>
   </energy>
  </scstep>
  <scstep>
   <time name="dav">   10.18   10.19</time>
   <time name="total">   10.18   10.20</time>
   <energy>
    <i name="e_fr_energy">    139.73266668 </i>
    <i name="e_wo_entrp">    139.70119590 </i>
    <i name="e_0_energy">    139.72217642 </i>
   </energy>
  </scstep>
  <scstep>
   <time name="dav">    8.47    8.49</time>
   <time name="total">    8.48    8.50</time>
   <energy>
    <i name="e_fr_energy">      7.90002451 </i>
    <i name="e_wo_entrp">      7.87582368 </i>
    <i name="e_0_energy">      7.89195756 </i>
   </energy>
  </scstep>
  <scstep>
   <time name="dav">    8.06    8.07</time>
   <time name="total">    9.02    9.04</time>
   <energy>
    <i name="e_fr_energy">    -15.06014193 </i>
    <i name="e_wo_entrp">    -15.05693050 </i>
    <i name="e_0_energy">    -15.05907145 </i>
   </energy>
  </scstep>
  <scstep>
   <time name="dav">    6.73    6.74</time>
   <time name="total">   11.94   11.96</time>
   <energy>
    <i name="e_fr_energy">     -3.91073024 </i>
    <i name="e_wo_entrp">     -3.85724369 </i>
    <i name="e_0_energy">     -3.89290139 </i>
   </energy>
  </scstep>
  <scstep>
   <time name="dav">    7.79    7.80</time>
   <time name="total">   12.88   12.91</time>
   <energy>
    <i name="e_fr_energy">     -4.52538633 </i>
    <i name="e_wo_entrp">     -4.50715593 </i>
    <i name="e_0_energy">     -4.51930953 </i>
   </energy>
  </scstep>
  <scstep>
   <time name="dav">    7.05    7.07</time>
   <time name="total">   12.11   12.14</time>
   <energy>
    <i name="e_fr_energy">     -7.77724087 </i>
    <i name="e_wo_entrp">     -7.78899386 </i>
    <i name="e_0_energy">     -7.78115853 </i>
   </energy>
  </scstep>
  <scstep>
   <time name="dav">    6.90    6.91</time>
   <time name="total">   12.06   12.08</time>
   <energy>
    <i name="e_fr_energy">    -10.26907007 </i>
    <i name="e_wo_entrp">    -10.29387954 </i>
    <i name="e_0_energy">    -10.27733989 </i>
   </energy>
  </scstep>
  <scstep>
   <time name="dav">    6.73    6.74</time>
   <time name="total">   11.88   11.90</time>
   <energy>
    <i name="e_fr_energy">    -13.02384666 </i>
    <i name="e_wo_entrp">    -13.03837678 </i>
    <i name="e_0_energy">    -13.02869003 </i>
   </energy>
  </scstep>
  <scstep>
   <time name="dav">    7.09    7.11</time>
   <time name="total">   12.20   12.23</time>
   <energy>
    <i name="e_fr_energy">    -14.59886699 </i>
    <i name="e_wo_entrp">    -14.61212947 </i>
    <i name="e_0_energy">    -14.60328781 </i>
   </energy>
  </scstep>
  <scstep>
   <time name="dav">    6.87    6.89</time>
   <time name="total">   12.05   12.07</time>
   <energy>
    <i name="e_fr_energy">    -15.29917669 </i>
    <i name="e_wo_entrp">    -15.31243310 </i>
    <i name="e_0_energy">    -15.30359549 </i>
   </energy>
  </scstep>
  <scstep>
   <time name="dav">    6.70    6.71</time>
   <time name="total">   11.83   11.85</time>
   <energy>
    <i name="e_fr_energy">    -16.36332118 </i>
    <i name="e_wo_entrp">    -16.37548805 </i>
    <i name="e_0_energy">    -16.36737681 </i>
   </energy>
  </scstep>
  <scstep>
   <time name="dav">    7.05    7.06</time>
   <time name="total">   12.18   12.19</time>
   <energy>
    <i name="e_fr_energy">    -16.55686071 </i>
    <i name="e_wo_entrp">    -16.56871224 </i>
    <i name="e_0_energy">    -16.56081122 </i>
   </energy>
  </scstep>
  <scstep>
   <time name="dav">    6.55    6.55</time>
   <time name="total">   11.72   11.74</time>
   <energy>
    <i name="e_fr_energy">    -16.79514929 </i>
    <i name="e_wo_entrp">    -16.80684736 </i>
    <i name="e_0_energy">    -16.79904865 </i>
   </energy>
  </scstep>
  <scstep>
   <time name="dav">    6.85    6.86</time>
   <time name="total">   12.06   12.09</time>
   <energy>
    <i name="e_fr_energy">    -17.03338638 </i>
    <i name="e_wo_entrp">    -17.04503839 </i>
    <i name="e_0_energy">    -17.03727038 </i>
   </energy>
  </scstep>
  <scstep>
   <time name="dav">    7.06    7.07</time>
   <time name="total">   12.18   12.21</time>
   <energy>
    <i name="e_fr_energy">    -17.13064468 </i>
    <i name="e_wo_entrp">    -17.14229652 </i>
    <i name="e_0_energy">    -17.13452863 </i>
   </energy>
  </scstep>
  <scstep>
   <time name="dav">    6.17    6.19</time>
   <time name="total">   11.31   11.34</time>
   <energy>
    <i name="e_fr_energy">    -17.15754777 </i>
    <i name="e_wo_entrp">    -17.16919944 </i>
    <i name="e_0_energy">    -17.16143166 </i>
   </energy>
  </scstep>
  <scstep>
   <time name="dav">    5.56    5.56</time>
   <time name="total">   10.76   10.78</time>
   <energy>
    <i name="e_fr_energy">    -17.17054205 </i>
    <i name="e_wo_entrp">    -17.18219396 </i>
    <i name="e_0_energy">    -17.17442602 </i>
   </energy>
  </scstep>
  <scstep>
   <time name="dav">    5.58    5.59</time>
   <time name="total">   10.76   10.78</time>
   <energy>
    <i name="e_fr_energy">    -17.17695431 </i>
    <i name="e_wo_entrp">    -17.18860639 </i>
    <i name="e_0_energy">    -17.18083834 </i>
   </energy>
  </scstep>
  <scstep>
   <time name="dav">    5.61    5.62</time>
   <time name="total">   10.78   10.80</time>
   <energy>
    <i name="e_fr_energy">    -17.18146663 </i>
    <i name="e_wo_entrp">    -17.19311867 </i>
    <i name="e_0_energy">    -17.18535064 </i>
   </energy>
  </scstep>
  <scstep>
   <time name="dav">    5.43    5.44</time>
   <time name="total">   10.62   10.65</time>
   <energy>
    <i name="e_fr_energy">    -17.18633293 </i>
    <i name="e_wo_entrp">    -17.19798495 </i>
    <i name="e_0_energy">    -17.19021694 </i>
   </energy>
  </scstep>
  <scstep>
   <time name="dav">    5.23    5.24</time>
   <time name="total">   10.52   10.54</time>
   <energy>
    <i name="e_fr_energy">    -17.18833980 </i>
    <i name="e_wo_entrp">    -17.19999179 </i>
    <i name="e_0_energy">    -17.19222380 </i>
   </energy>
  </scstep>
  <scstep>
   <time name="dav">    5.34    5.35</time>
   <time name="total">   10.51   10.54</time>
   <energy>
    <i name="e_fr_energy">    -17.18943576 </i>
    <i name="e_wo_entrp">    -17.20108774 </i>
    <i name="e_0_energy">    -17.19331975 </i>
   </energy>
  </scstep>
  <scstep>
   <time name="dav">    5.08    5.09</time>
   <time name="total">   10.32   10.33</time>
   <energy>
    <i name="e_fr_energy">    -17.18995350 </i>
    <i name="e_wo_entrp">    -17.20160547 </i>
    <i name="e_0_energy">    -17.19383749 </i>
   </energy>
  </scstep>
  <scstep>
   <time name="dav">    5.03    5.04</time>
   <time name="total">   10.28   10.30</time>
   <energy>
    <i name="e_fr_energy">    -17.19006732 </i>
    <i name="e_wo_entrp">    -17.20171927 </i>
    <i name="e_0_energy">    -17.19395130 </i>
   </energy>
  </scstep>
  <scstep>
   <time name="dav">    4.66    4.66</time>
   <time name="total">    8.72    8.74</time>
   <energy>
    <i name="alphaZ">      6.43899565 </i>
    <i name="ewald">   6927.43225098 </i>
    <i name="hartreedc"> -13981.36497707 </i>
    <i name="XCdc">    114.14601526 </i>
    <i name="pawpsdc">   7780.09938801 </i>
    <i name="pawaedc">  -7609.25477594 </i>
    <i name="eentropy">      0.01165195 </i>
    <i name="bandstr">   -663.34284247 </i>
    <i name="atom">   7408.64415014 </i>
    <i name="e_fr_energy">    -17.19014350 </i>
    <i name="e_wo_entrp">    -17.20179544 </i>
    <i name="e_0_energy">    -17.19402748 </i>
   </energy>
  </scstep>
  <structure>
   <crystal>
    <varray name="basis" >
     <v>      21.38459405       0.00000000       0.00000000 </v>
     <v>       0.00000000      22.73816368       0.00000000 </v>
     <v>       0.00000000       0.00000000      23.80977728 </v>
    </varray>
    <i name="volume">  11577.41847862 </i>
    <varray name="rec_basis" >
     <v>       0.04676264       0.00000000       0.00000000 </v>
     <v>       0.00000000       0.04397893       0.00000000 </v>
     <v>       0.00000000       0.00000000       0.04199955 </v>
    </varray>
   </crystal>
   <varray name="positions" >
    <v>       0.62107305       0.53754142       0.35367604 </v>
    <v>       0.59596846       0.48936944       0.45232322 </v>
    <v>       0.47837338       0.50324152       0.49609518 </v>
    <v>       0.56812632       0.44215856       0.55102282 </v>
    <v>       0.50669510       0.55215370       0.39388954 </v>
    <v>       0.44969797       0.45609674       0.59636850 </v>
    <v>       0.39318618       0.56597270       0.43670472 </v>
    <v>       0.36346634       0.51723350       0.53978511 </v>
   </varray>
  </structure>
  <varray name="forces" >
   <v>      -0.01705313      -0.00285617       0.01322714 </v>
   <v>       0.01240758       0.00151215      -0.01452452 </v>
   <v>      -0.01623399       0.01764154      -0.01273923 </v>
   <v>      -0.00876691      -0.00169866       0.00827590 </v>
   <v>       0.01463072      -0.00009816      -0.00187212 </v>
   <v>      -0.01984765       0.01955381      -0.02258217 </v>
   <v>       0.00766932      -0.01222609       0.01059116 </v>
   <v>       0.02719405      -0.02182842       0.01962385 </v>
  </varray>
  <energy>
   <i name="e_fr_energy">    -17.19014350 </i>
   <i name="e_wo_entrp">    -17.20179544 </i>
   <i name="e_0_energy">    -17.19402748 </i>
  </energy>
  <time name="totalsc">  312.71  313.41</time>
 </calculation>
 <calculation>
  <scstep>
   <time name="dav">    6.62    6.63</time>
   <time name="total">   11.63   11.65</time>
   <energy>
    <i name="alphaZ">      6.43899565 </i>
    <i name="ewald">   6929.78130595 </i>
    <i name="hartreedc"> -13983.68577408 </i>
    <i name="XCdc">    114.15445923 </i>
    <i name="pawpsdc">   7780.09790919 </i>
    <i name="pawaedc">  -7609.25331401 </i>
    <i name="eentropy">      0.01164971 </i>
    <i name="bandstr">   -663.37965210 </i>
    <i name="atom">   7408.64415014 </i>
    <i name="e_fr_energy">    -17.19027033 </i>
    <i name="e_wo_entrp">    -17.20192004 </i>
    <i name="e_0_energy">    -17.19415357 </i>
   </energy>
  </scstep>
  <scstep>
   <time name="dav">    6.74    6.75</time>
   <time name="total">   10.83   10.84</time>
   <energy>
    <i name="alphaZ">      6.43899565 </i>
    <i name="ewald">   6929.78130595 </i>
    <i name="hartreedc"> -13983.68348272 </i>
    <i name="XCdc">    114.15347341 </i>
    <i name="pawpsdc">   7780.75402606 </i>
    <i name="pawaedc">  -7609.91557653 </i>
    <i name="eentropy">      0.01165015 </i>
    <i name="bandstr">   -663.37490267 </i>
    <i name="atom">   7408.64415014 </i>
    <i name="e_fr_energy">    -17.19036056 </i>
    <i name="e_wo_entrp">    -17.20201071 </i>
    <i name="e_0_energy">    -17.19424394 </i>
   </energy>
  </scstep>
  <structure>
   <crystal>
    <varray name="basis" >
     <v>      21.38459405       0.00000000       0.00000000 </v>
     <v>       0.00000000      22.73816368       0.00000000 </v>
     <v>       0.00000000       0.00000000      23.80977728 </v>
    </varray>
    <i name="volume">  11577.41847862 </i>
    <varray name="rec_basis" >
     <v>       0.04676264       0.00000000       0.00000000 </v>
     <v>       0.00000000       0.04397893       0.00000000 </v>
     <v>       0.00000000       0.00000000       0.04199955 </v>
    </varray>
   </crystal>
   <varray name="positions" >
    <v>       0.62103458       0.53753536       0.35370284 </v>
    <v>       0.59599645       0.48937265       0.45229380 </v>
    <v>       0.47833676       0.50327895       0.49606937 </v>
    <v>       0.56810654       0.44215496       0.55103959 </v>
    <v>       0.50672811       0.55215349       0.39388575 </v>
    <v>       0.44965319       0.45613823       0.59632274 </v>
    <v>       0.39320348       0.56594676       0.43672618 </v>
    <v>       0.36352769       0.51718719       0.53982487 </v>
   </varray>
  </structure>
  <varray name="forces" >
   <v>       0.00688894       0.00206033      -0.00935213 </v>
   <v>      -0.00325221      -0.00750882       0.01444522 </v>
   <v>       0.01899454      -0.00281560      -0.00391691 </v>
   <v>      -0.00615655       0.00592893      -0.00706586 </v>
   <v>      -0.00681250       0.00323425       0.00147773 </v>
   <v>       0.00717160      -0.00536352       0.00538385 </v>
   <v>      -0.00256037       0.00049748      -0.00206003 </v>
   <v>      -0.01427345       0.00396695       0.00108813 </v>
  </varray>
  <energy>
   <i name="e_fr_energy">    -17.19036056 </i>
   <i name="e_wo_entrp">    -17.20201071 </i>
   <i name="e_0_energy">    -17.19424394 </i>
  </energy>
  <time name="totalsc">   36.25   36.34</time>
 </calculation>
 <calculation>
  <scstep>
   <time name="dav">    6.77    6.78</time>
   <time name="total">   11.75   11.77</time>
   <energy>
    <i name="alphaZ">      6.43899565 </i>
    <i name="ewald">   6929.17173292 </i>
    <i name="hartreedc"> -13983.05766987 </i>
    <i name="XCdc">    114.15120199 </i>
    <i name="pawpsdc">   7781.03999604 </i>
    <i name="pawaedc">  -7610.20502001 </i>
    <i name="eentropy">      0.01165042 </i>
    <i name="bandstr">   -663.38537135 </i>
    <i name="atom">   7408.64415014 </i>
    <i name="e_fr_energy">    -17.19033408 </i>
    <i name="e_wo_entrp">    -17.20198450 </i>
    <i name="e_0_energy">    -17.19421755 </i>
   </energy>
  </scstep>
  <scstep>
   <time name="dav">    4.90    4.91</time>
   <time name="total">    8.97    9.00</time>
   <energy>
    <i name="alphaZ">      6.43899565 </i>
    <i name="ewald">   6929.17173292 </i>
    <i name="hartreedc"> -13983.05430602 </i>
    <i name="XCdc">    114.15132904 </i>
    <i name="pawpsdc">   7781.08492199 </i>
    <i name="pawaedc">  -7610.25050030 </i>
    <i name="eentropy">      0.01165028 </i>
    <i name="bandstr">   -663.38831796 </i>
    <i name="atom">   7408.64415014 </i>
    <i name="e_fr_energy">    -17.19034426 </i>
    <i name="e_wo_entrp">    -17.20199455 </i>
    <i name="e_0_energy">    -17.19422769 </i>
   </energy>
  </scstep>
  <structure>
   <crystal>
    <varray name="basis" >
     <v>      21.38459405       0.00000000       0.00000000 </v>
     <v>       0.00000000      22.73816368       0.00000000 </v>
     <v>       0.00000000       0.00000000      23.80977728 </v>
    </varray>
    <i name="volume">  11577.41847862 </i>
    <varray name="rec_basis" >
     <v>       0.04676264       0.00000000       0.00000000 </v>
     <v>       0.00000000       0.04397893       0.00000000 </v>
     <v>       0.00000000       0.00000000       0.04199955 </v>
    </varray>
   </crystal>
   <varray name="positions" >
    <v>       0.62104455       0.53753693       0.35369589 </v>
    <v>       0.59598919       0.48937181       0.45230143 </v>
    <v>       0.47834626       0.50326924       0.49607606 </v>
    <v>       0.56811167       0.44215589       0.55103524 </v>
    <v>       0.50671955       0.55215354       0.39388673 </v>
    <v>       0.44966480       0.45612747       0.59633461 </v>
    <v>       0.39319900       0.56595349       0.43672062 </v>
    <v>       0.36351178       0.51719920       0.53981456 </v>
   </varray>
  </structure>
  <varray name="forces" >
   <v>      -0.01108780      -0.00129476       0.00602843 </v>
   <v>       0.00904606      -0.00379581      -0.00351078 </v>
   <v>      -0.00186914       0.01444153      -0.01432349 </v>
   <v>      -0.01152365       0.00222021       0.00269689 </v>
   <v>       0.00869982       0.00218901      -0.00088573 </v>
   <v>      -0.01390291       0.01458981      -0.01731720 </v>
   <v>       0.00574743      -0.01071144       0.00793543 </v>
   <v>       0.01489018      -0.01763855       0.01937647 </v>
  </varray>
  <energy>
   <i name="e_fr_energy">    -17.19034426 </i>
   <i name="e_wo_entrp">    -17.20199455 </i>
   <i name="e_0_energy">    -17.19422769 </i>
  </energy>
  <time name="totalsc">   33.84   33.95</time>
  <eigenvalues>
   <array>
    <dimension dim="1">band</dimension>
    <dimension dim="2">kpoint</dimension>
    <dimension dim="3">spin</dimension>
    <field>eigene</field>
    <field>occ</field>
    <set>
     <set comment="spin 1">
      <set comment="kpoint 1">
       <r>  -10.8375    1.0000 </r>
       <r>  -10.1039    1.0000 </r>
       <r>  -10.0269    1.0000 </r>
       <r>   -9.9134    1.0000 </r>
       <r>   -9.2628    1.0000 </r>
       <r>   -9.0190    1.0000 </r>
       <r>   -8.9183    1.0000 </r>
       <r>   -8.6868    1.0000 </r>
       <r>   -8.6623    1.0000 </r>
       <r>   -8.4291    1.0000 </r>
       <r>   -8.3963    1.0000 </r>
       <r>   -8.2974    1.0000 </r>
       <r>   -8.1236    1.0000 </r>
       <r>   -8.0500    1.0000 </r>
       <r>   -7.9349    1.0000 </r>
       <r>   -7.8917    1.0000 </r>
       <r>   -7.8475    1.0000 </r>
       <r>   -7.5769    1.0000 </r>
       <r>   -7.5732    1.0000 </r>
       <r>   -7.4236    1.0000 </r>
       <r>   -7.2666    1.0000 </r>
       <r>   -7.2443    1.0000 </r>
       <r>   -7.0913    1.0000 </r>
       <r>   -6.9887    1.0000 </r>
       <r>   -6.9416    1.0000 </r>
       <r>   -6.9319    1.0000 </r>
       <r>   -6.9057    1.0000 </r>
       <r>   -6.9034    1.0000 </r>
       <r>   -6.8814    1.0000 </r>
       <r>   -6.8471    1.0000 </r>
       <r>   -6.7744    1.0000 </r>
       <r>   -6.7335    1.0000 </r>
       <r>   -6.7205    1.0000 </r>
       <r>   -6.6402    1.0000 </r>
       <r>   -6.5661    1.0000 </r>
       <r>   -6.4901    1.0000 </r>
       <r>   -6.4608    1.0000 </r>
       <r>   -6.3442    1.0000 </r>
       <r>   -6.2734    1.0000 </r>
       <r>   -6.2571    1.0000 </r>
       <r>   -6.1351    1.0000 </r>
       <r>   -6.1268    1.0000 </r>
       <r>   -5.9172    1.0000 </r>
       <r>   -5.2778    1.0000 </r>
       <r>   -4.4729   -0.0000 </r>
       <r>   -3.9418   -0.0000 </r>
       <r>   -3.0431   -0.0000 </r>
       <r>   -2.5883   -0.0000 </r>
       <r>   -2.3907   -0.0000 </r>
       <r>   -1.6209   -0.0000 </r>
       <r>   -1.3942   -0.0000 </r>
       <r>   -1.1136   -0.0000 </r>
       <r>   -0.8714   -0.0000 </r>
       <r>   -0.8099   -0.0000 </r>
       <r>   -0.0280   -0.0000 </r>
       <r>    0.0780   -0.0000 </r>
      </set>
     </set>
     <set comment="spin 2">
      <set comment="kpoint 1">
       <r>  -10.8375    1.0000 </r>
       <r>  -10.1039    1.0000 </r>
       <r>  -10.0269    1.0000 </r>
       <r>   -9.9134    1.0000 </r>
       <r>   -9.2628    1.0000 </r>
       <r>   -9.0190    1.0000 </r>
       <r>   -8.9183    1.0000 </r>
       <r>   -8.6868    1.0000 </r>
       <r>   -8.6623    1.0000 </r>
       <r>   -8.4291    1.0000 </r>
       <r>   -8.3963    1.0000 </r>
       <r>   -8.2974    1.0000 </r>
       <r>   -8.1236    1.0000 </r>
       <r>   -8.0500    1.0000 </r>
       <r>   -7.9349    1.0000 </r>
       <r>   -7.8917    1.0000 </r>
       <r>   -7.8475    1.0000 </r>
       <r>   -7.5769    1.0000 </r>
       <r>   -7.5732    1.0000 </r>
       <r>   -7.4236    1.0000 </r>
       <r>   -7.2666    1.0000 </r>
       <r>   -7.2443    1.0000 </r>
       <r>   -7.0913    1.0000 </r>
       <r>   -6.9887    1.0000 </r>
       <r>   -6.9416    1.0000 </r>
       <r>   -6.9319    1.0000 </r>
       <r>   -6.9057    1.0000 </r>
       <r>   -6.9034    1.0000 </r>
       <r>   -6.8814    1.0000 </r>
       <r>   -6.8471    1.0000 </r>
       <r>   -6.7744    1.0000 </r>
       <r>   -6.7335    1.0000 </r>
       <r>   -6.7205    1.0000 </r>
       <r>   -6.6402    1.0000 </r>
       <r>   -6.5661    1.0000 </r>
       <r>   -6.4901    1.0000 </r>
       <r>   -6.4608    1.0000 </r>
       <r>   -6.3442    1.0000 </r>
       <r>   -6.2734    1.0000 </r>
       <r>   -6.2571    1.0000 </r>
       <r>   -6.1351    1.0000 </r>
       <r>   -6.1268    1.0000 </r>
       <r>   -5.9172    1.0000 </r>
       <r>   -5.2778    1.0000 </r>
       <r>   -4.4729   -0.0000 </r>
       <r>   -3.9418   -0.0000 </r>
       <r>   -3.0432   -0.0000 </r>
       <r>   -2.5883   -0.0000 </r>
       <r>   -2.3907   -0.0000 </r>
       <r>   -1.6209   -0.0000 </r>
       <r>   -1.3941   -0.0000 </r>
       <r>   -1.1135   -0.0000 </r>
       <r>   -0.8717   -0.0000 </r>
       <r>   -0.8096   -0.0000 </r>
       <r>   -0.0282   -0.0000 </r>
       <r>    0.0931   -0.0000 </r>
      </set>
     </set>
    </set>
   </array>
  </eigenvalues>
  <separator name="orbital magnetization" >
   <v name="MAGDIPOLOUT">      0.00000000      0.00000000      0.00000000</v>
  </separator>
  <dos>
   <i name="efermi">     -5.10939376 </i>
   <total>
    <array>
     <dimension dim="1">gridpoints</dimension>
     <dimension dim="2">spin</dimension>
     <field>energy</field>
     <field>total</field>
     <field>integrated</field>
     <set>
      <set comment="spin 1">
       <r>   -12.8375     0.0000     0.0000 </r>
       <r>   -12.7877     0.0000     0.0000 </r>
       <r>   -12.7380     0.0000     0.0000 </r>
       <r>   -12.6882     0.0000     0.0000 </r>
       <r>   -12.6384     0.0000     0.0000 </r>
       <r>   -12.5886     0.0000     0.0000 </r>
       <r>   -12.5389     0.0000     0.0000 </r>
       <r>   -12.4891     0.0000     0.0000 </r>
       <r>   -12.4393    -0.0000    -0.0000 </r>
       <r>   -12.3896    -0.0000    -0.0000 </r>
       <r>   -12.3398    -0.0000    -0.0000 </r>
       <r>   -12.2900    -0.0000    -0.0000 </r>
       <r>   -12.2403    -0.0000    -0.0000 </r>
       <r>   -12.1905    -0.0000    -0.0000 </r>
       <r>   -12.1407    -0.0000    -0.0000 </r>
       <r>   -12.0910    -0.0000    -0.0000 </r>
       <r>   -12.0412    -0.0000    -0.0000 </r>
       <r>   -11.9914    -0.0000    -0.0000 </r>
       <r>   -11.9417    -0.0000    -0.0000 </r>
       <r>   -11.8919    -0.0000    -0.0000 </r>
       <r>   -11.8421    -0.0000    -0.0000 </r>
       <r>   -11.7923    -0.0000    -0.0000 </r>
       <r>   -11.7426    -0.0000    -0.0000 </r>
       <r>   -11.6928    -0.0000    -0.0000 </r>
       <r>   -11.6430    -0.0000    -0.0000 </r>
       <r>   -11.5933    -0.0000    -0.0000 </r>
       <r>   -11.5435    -0.0001    -0.0000 </r>
       <r>   -11.4937    -0.0003    -0.0000 </r>
       <r>   -11.4440    -0.0012    -0.0001 </r>
       <r>   -11.3942    -0.0044    -0.0003 </r>
       <r>   -11.3444    -0.0139    -0.0010 </r>
       <r>   -11.2947    -0.0375    -0.0029 </r>
       <r>   -11.2449    -0.0849    -0.0071 </r>
       <r>   -11.1951    -0.1569    -0.0149 </r>
       <r>   -11.1454    -0.2206    -0.0259 </r>
       <r>   -11.0956    -0.1804    -0.0348 </r>
       <r>   -11.0458     0.1190    -0.0289 </r>
       <r>   -10.9960     0.8187     0.0118 </r>
       <r>   -10.9463     1.9069     0.1067 </r>
       <r>   -10.8965     3.1181     0.2619 </r>
       <r>   -10.8467     3.9982     0.4609 </r>
       <r>   -10.7970     4.1532     0.6676 </r>
       <r>   -10.7472     3.5091     0.8422 </r>
       <r>   -10.6974     2.3631     0.9598 </r>
       <r>   -10.6477     1.1794     1.0185 </r>
       <r>   -10.5979     0.3067     1.0338 </r>
       <r>   -10.5481    -0.1664     1.0255 </r>
       <r>   -10.4984    -0.3577     1.0077 </r>
       <r>   -10.4486    -0.4378     0.9859 </r>
       <r>   -10.3988    -0.4917     0.9615 </r>
       <r>   -10.3491    -0.4484     0.9392 </r>
       <r>   -10.2993    -0.0864     0.9349 </r>
       <r>   -10.2495     0.8705     0.9782 </r>
       <r>   -10.1998     2.5735     1.1063 </r>
       <r>   -10.1500     4.8703     1.3486 </r>
       <r>   -10.1002     7.2691     1.7104 </r>
       <r>   -10.0504     9.1140     2.1640 </r>
       <r>   -10.0007     9.8764     2.6555 </r>
       <r>    -9.9509     9.3746     3.1221 </r>
       <r>    -9.9011     7.8083     3.5107 </r>
       <r>    -9.8514     5.6396     3.7914 </r>
       <r>    -9.8016     3.4108     3.9611 </r>
       <r>    -9.7518     1.5674     4.0392 </r>
       <r>    -9.7021     0.3327     4.0557 </r>
       <r>    -9.6523    -0.3147     4.0400 </r>
       <r>    -9.6025    -0.5471     4.0128 </r>
       <r>    -9.5528    -0.5331     3.9863 </r>
       <r>    -9.5030    -0.3204     3.9703 </r>
       <r>    -9.4532     0.1655     3.9786 </r>
       <r>    -9.4035     0.9980     4.0283 </r>
       <r>    -9.3537     2.0908     4.1323 </r>
       <r>    -9.3039     3.1554     4.2894 </r>
       <r>    -9.2541     3.8691     4.4819 </r>
       <r>    -9.2044     4.1498     4.6884 </r>
       <r>    -9.1546     4.2711     4.9010 </r>
       <r>    -9.1048     4.6459     5.1322 </r>
       <r>    -9.0551     5.4342     5.4027 </r>
       <r>    -9.0053     6.3507     5.7187 </r>
       <r>    -8.9555     6.8950     6.0619 </r>
       <r>    -8.9058     6.8225     6.4014 </r>
       <r>    -8.8560     6.4095     6.7204 </r>
       <r>    -8.8062     6.2291     7.0304 </r>
       <r>    -8.7565     6.6135     7.3596 </r>
       <r>    -8.7067     7.3244     7.7241 </r>
       <r>    -8.6569     7.7970     8.1122 </r>
       <r>    -8.6072     7.7449     8.4976 </r>
       <r>    -8.5574     7.4974     8.8708 </r>
       <r>    -8.5076     7.6807     9.2530 </r>
       <r>    -8.4578     8.5508     9.6786 </r>
       <r>    -8.4081     9.6713    10.1599 </r>
       <r>    -8.3583    10.2709    10.6711 </r>
       <r>    -8.3085     9.9225    11.1649 </r>
       <r>    -8.2588     8.9050    11.6081 </r>
       <r>    -8.2090     7.9678    12.0046 </r>
       <r>    -8.1592     7.7806    12.3919 </r>
       <r>    -8.1095     8.5568    12.8177 </r>
       <r>    -8.0597    10.0563    13.3182 </r>
       <r>    -8.0099    11.7868    13.9048 </r>
       <r>    -7.9602    13.1491    14.5593 </r>
       <r>    -7.9104    13.5340    15.2328 </r>
       <r>    -7.8606    12.5549    15.8577 </r>
       <r>    -7.8109    10.3955    16.3750 </r>
       <r>    -7.7611     7.9210    16.7693 </r>
       <r>    -7.7113     6.2646    17.0810 </r>
       <r>    -7.6615     6.0925    17.3843 </r>
       <r>    -7.6118     7.1510    17.7402 </r>
       <r>    -7.5620     8.5116    18.1638 </r>
       <r>    -7.5122     9.3037    18.6268 </r>
       <r>    -7.4625     9.3048    19.0899 </r>
       <r>    -7.4127     8.9248    19.5341 </r>
       <r>    -7.3629     8.6933    19.9667 </r>
       <r>    -7.3132     8.7651    20.4029 </r>
       <r>    -7.2634     8.8898    20.8454 </r>
       <r>    -7.2136     8.8557    21.2861 </r>
       <r>    -7.1639     8.9827    21.7332 </r>
       <r>    -7.1141    10.1580    22.2387 </r>
       <r>    -7.0643    13.2583    22.8986 </r>
       <r>    -7.0146    18.3377    23.8112 </r>
       <r>    -6.9648    24.2473    25.0180 </r>
       <r>    -6.9150    29.0951    26.4660 </r>
       <r>    -6.8652    31.2933    28.0234 </r>
       <r>    -6.8155    30.4233    29.5376 </r>
       <r>    -6.7657    27.2991    30.8962 </r>
       <r>    -6.7159    23.3115    32.0564 </r>
       <r>    -6.6662    19.6598    33.0348 </r>
       <r>    -6.6164    16.9631    33.8791 </r>
       <r>    -6.5666    15.2885    34.6399 </r>
       <r>    -6.5169    14.3893    35.3561 </r>
       <r>    -6.4671    13.9806    36.0519 </r>
       <r>    -6.4173    13.9239    36.7449 </r>
       <r>    -6.3676    14.2123    37.4522 </r>
       <r>    -6.3178    14.7794    38.1877 </r>
       <r>    -6.2680    15.3328    38.9508 </r>
       <r>    -6.2183    15.4055    39.7175 </r>
       <r>    -6.1685    14.6075    40.4445 </r>
       <r>    -6.1187    12.8838    41.0857 </r>
       <r>    -6.0689    10.5835    41.6125 </r>
       <r>    -6.0192     8.2701    42.0241 </r>
       <r>    -5.9694     6.3816    42.3417 </r>
       <r>    -5.9196     4.9910    42.5901 </r>
       <r>    -5.8699     3.8666    42.7825 </r>
       <r>    -5.8201     2.7603    42.9199 </r>
       <r>    -5.7703     1.6374    43.0014 </r>
       <r>    -5.7206     0.6531    43.0339 </r>
       <r>    -5.6708    -0.0347    43.0321 </r>
       <r>    -5.6210    -0.3934    43.0126 </r>
       <r>    -5.5713    -0.4783    42.9888 </r>
       <r>    -5.5215    -0.3115    42.9733 </r>
       <r>    -5.4717     0.1743    42.9819 </r>
       <r>    -5.4220     1.0536    43.0344 </r>
       <r>    -5.3722     2.2449    43.1461 </r>
       <r>    -5.3224     3.4221    43.3164 </r>
       <r>    -5.2726     4.1269    43.5218 </r>
       <r>    -5.2229     4.0416    43.7229 </r>
       <r>    -5.1731     3.2097    43.8827 </r>
       <r>    -5.1233     2.0073    43.9826 </r>
       <r>    -5.0736     0.8942    44.0271 </r>
       <r>    -5.0238     0.1552    44.0348 </r>
       <r>    -4.9740    -0.1837    44.0257 </r>
       <r>    -4.9243    -0.2647    44.0125 </r>
       <r>    -4.8745    -0.2556    43.9998 </r>
       <r>    -4.8247    -0.2560    43.9870 </r>
       <r>    -4.7750    -0.2642    43.9739 </r>
       <r>    -4.7252    -0.1773    43.9651 </r>
       <r>    -4.6754     0.1735    43.9737 </r>
       <r>    -4.6257     0.9271    44.0198 </r>
       <r>    -4.5759     2.0490    44.1218 </r>
       <r>    -4.5261     3.2452    44.2833 </r>
       <r>    -4.4764     4.0513    44.4850 </r>
       <r>    -4.4266     4.0944    44.6887 </r>
       <r>    -4.3768     3.3378    44.8549 </r>
       <r>    -4.3270     2.1055    44.9596 </r>
       <r>    -4.2773     0.8748    45.0032 </r>
       <r>    -4.2275     0.0322    45.0048 </r>
       <r>    -4.1777    -0.2250    44.9936 </r>
       <r>    -4.1280     0.1504    45.0011 </r>
       <r>    -4.0782     1.0874    45.0552 </r>
       <r>    -4.0284     2.3533    45.1723 </r>
       <r>    -3.9787     3.5314    45.3481 </r>
       <r>    -3.9289     4.1522    45.5547 </r>
       <r>    -3.8791     3.9494    45.7513 </r>
       <r>    -3.8294     3.0338    45.9023 </r>
       <r>    -3.7796     1.8187    45.9928 </r>
       <r>    -3.7298     0.7532    46.0303 </r>
       <r>    -3.6801     0.0845    46.0345 </r>
       <r>    -3.6303    -0.1920    46.0249 </r>
       <r>    -3.5805    -0.2249    46.0137 </r>
       <r>    -3.5307    -0.1721    46.0051 </r>
       <r>    -3.4810    -0.1331    45.9985 </r>
       <r>    -3.4312    -0.1458    45.9913 </r>
       <r>    -3.3814    -0.1992    45.9814 </r>
       <r>    -3.3317    -0.2290    45.9700 </r>
       <r>    -3.2819    -0.1054    45.9647 </r>
       <r>    -3.2321     0.3384    45.9815 </r>
       <r>    -3.1824     1.2024    46.0414 </r>
       <r>    -3.1326     2.3798    46.1598 </r>
       <r>    -3.0828     3.5075    46.3344 </r>
       <r>    -3.0331     4.1105    46.5390 </r>
       <r>    -2.9833     3.8859    46.7324 </r>
       <r>    -2.9335     2.9169    46.8775 </r>
       <r>    -2.8838     1.6423    46.9593 </r>
       <r>    -2.8340     0.6186    46.9901 </r>
       <r>    -2.7842     0.2602    47.0030 </r>
       <r>    -2.7344     0.6977    47.0377 </r>
       <r>    -2.6847     1.7668    47.1257 </r>
       <r>    -2.6349     3.1008    47.2800 </r>
       <r>    -2.5851     4.3011    47.4940 </r>
       <r>    -2.5354     5.1151    47.7486 </r>
       <r>    -2.4856     5.4912    48.0219 </r>
       <r>    -2.4358     5.4714    48.2942 </r>
       <r>    -2.3861     5.0585    48.5460 </r>
       <r>    -2.3363     4.2283    48.7564 </r>
       <r>    -2.2865     3.0592    48.9087 </r>
       <r>    -2.2368     1.7947    48.9980 </r>
       <r>    -2.1870     0.7349    49.0346 </r>
       <r>    -2.1372     0.0614    49.0376 </r>
       <r>    -2.0875    -0.2397    49.0257 </r>
       <r>    -2.0377    -0.3133    49.0101 </r>
       <r>    -1.9879    -0.3132    48.9945 </r>
       <r>    -1.9381    -0.3107    48.9790 </r>
       <r>    -1.8884    -0.2620    48.9660 </r>
       <r>    -1.8386    -0.0276    48.9646 </r>
       <r>    -1.7888     0.5465    48.9918 </r>
       <r>    -1.7391     1.5015    49.0666 </r>
       <r>    -1.6893     2.6711    49.1995 </r>
       <r>    -1.6395     3.7344    49.3853 </r>
       <r>    -1.5898     4.4195    49.6053 </r>
       <r>    -1.5400     4.6859    49.8385 </r>
       <r>    -1.4902     4.6920    50.0720 </r>
       <r>    -1.4405     4.5813    50.3000 </r>
       <r>    -1.3907     4.3447    50.5163 </r>
       <r>    -1.3409     3.9282    50.7118 </r>
       <r>    -1.2912     3.4314    50.8825 </r>
       <r>    -1.2414     3.1103    51.0373 </r>
       <r>    -1.1916     3.1426    51.1937 </r>
       <r>    -1.1418     3.4451    51.3652 </r>
       <r>    -1.0921     3.7957    51.5541 </r>
       <r>    -1.0423     4.1400    51.7601 </r>
       <r>    -0.9925     4.6987    51.9940 </r>
       <r>    -0.9428     5.6910    52.2772 </r>
       <r>    -0.8930     6.9428    52.6228 </r>
       <r>    -0.8432     7.8331    53.0126 </r>
       <r>    -0.7935     7.7030    53.3960 </r>
       <r>    -0.7437     6.3691    53.7129 </r>
       <r>    -0.6939     4.2732    53.9256 </r>
       <r>    -0.6442     2.1634    54.0333 </r>
       <r>    -0.5944     0.6216    54.0642 </r>
       <r>    -0.5446    -0.1861    54.0550 </r>
       <r>    -0.4949    -0.4376    54.0332 </r>
       <r>    -0.4451    -0.4265    54.0120 </r>
       <r>    -0.3953    -0.3790    53.9931 </r>
       <r>    -0.3455    -0.3814    53.9741 </r>
       <r>    -0.2958    -0.3770    53.9553 </r>
       <r>    -0.2460    -0.1873    53.9460 </r>
       <r>    -0.1962     0.4305    53.9675 </r>
       <r>    -0.1465     1.6557    54.0499 </r>
       <r>    -0.0967     3.4368    54.2209 </r>
       <r>    -0.0469     5.3969    54.4895 </r>
       <r>     0.0028     6.9269    54.8342 </r>
       <r>     0.0526     7.4650    55.2058 </r>
       <r>     0.1024     6.8001    55.5442 </r>
       <r>     0.1521     5.1921    55.8026 </r>
       <r>     0.2019     3.2245    55.9631 </r>
       <r>     0.2517     1.4926    56.0374 </r>
       <r>     0.3014     0.3404    56.0543 </r>
       <r>     0.3512    -0.2078    56.0440 </r>
       <r>     0.4010    -0.3358    56.0272 </r>
       <r>     0.4507    -0.2674    56.0139 </r>
       <r>     0.5005    -0.1583    56.0061 </r>
       <r>     0.5503    -0.0762    56.0023 </r>
       <r>     0.6001    -0.0308    56.0007 </r>
       <r>     0.6498    -0.0106    56.0002 </r>
       <r>     0.6996    -0.0032    56.0001 </r>
       <r>     0.7494    -0.0008    56.0000 </r>
       <r>     0.7991    -0.0002    56.0000 </r>
       <r>     0.8489    -0.0000    56.0000 </r>
       <r>     0.8987    -0.0000    56.0000 </r>
       <r>     0.9484    -0.0000    56.0000 </r>
       <r>     0.9982    -0.0000    56.0000 </r>
       <r>     1.0480    -0.0000    56.0000 </r>
       <r>     1.0977    -0.0000    56.0000 </r>
       <r>     1.1475    -0.0000    56.0000 </r>
       <r>     1.1973    -0.0000    56.0000 </r>
       <r>     1.2470    -0.0000    56.0000 </r>
       <r>     1.2968    -0.0000    56.0000 </r>
       <r>     1.3466    -0.0000    56.0000 </r>
       <r>     1.3964     0.0000    56.0000 </r>
       <r>     1.4461     0.0000    56.0000 </r>
       <r>     1.4959     0.0000    56.0000 </r>
       <r>     1.5457     0.0000    56.0000 </r>
       <r>     1.5954     0.0000    56.0000 </r>
       <r>     1.6452     0.0000    56.0000 </r>
       <r>     1.6950     0.0000    56.0000 </r>
       <r>     1.7447     0.0000    56.0000 </r>
       <r>     1.7945     0.0000    56.0000 </r>
       <r>     1.8443     0.0000    56.0000 </r>
       <r>     1.8940     0.0000    56.0000 </r>
       <r>     1.9438     0.0000    56.0000 </r>
       <r>     1.9936     0.0000    56.0000 </r>
       <r>     2.0433     0.0000    56.0000 </r>
       <r>     2.0931     0.0000    56.0000 </r>
      </set>
      <set comment="spin 2">
       <r>   -12.8375     0.0000     0.0000 </r>
       <r>   -12.7877     0.0000     0.0000 </r>
       <r>   -12.7380     0.0000     0.0000 </r>
       <r>   -12.6882     0.0000     0.0000 </r>
       <r>   -12.6384     0.0000     0.0000 </r>
       <r>   -12.5886     0.0000     0.0000 </r>
       <r>   -12.5389     0.0000     0.0000 </r>
       <r>   -12.4891     0.0000     0.0000 </r>
       <r>   -12.4393    -0.0000    -0.0000 </r>
       <r>   -12.3896    -0.0000    -0.0000 </r>
       <r>   -12.3398    -0.0000    -0.0000 </r>
       <r>   -12.2900    -0.0000    -0.0000 </r>
       <r>   -12.2403    -0.0000    -0.0000 </r>
       <r>   -12.1905    -0.0000    -0.0000 </r>
       <r>   -12.1407    -0.0000    -0.0000 </r>
       <r>   -12.0910    -0.0000    -0.0000 </r>
       <r>   -12.0412    -0.0000    -0.0000 </r>
       <r>   -11.9914    -0.0000    -0.0000 </r>
       <r>   -11.9417    -0.0000    -0.0000 </r>
       <r>   -11.8919    -0.0000    -0.0000 </r>
       <r>   -11.8421    -0.0000    -0.0000 </r>
       <r>   -11.7923    -0.0000    -0.0000 </r>
       <r>   -11.7426    -0.0000    -0.0000 </r>
       <r>   -11.6928    -0.0000    -0.0000 </r>
       <r>   -11.6430    -0.0000    -0.0000 </r>
       <r>   -11.5933    -0.0000    -0.0000 </r>
       <r>   -11.5435    -0.0001    -0.0000 </r>
       <r>   -11.4937    -0.0003    -0.0000 </r>
       <r>   -11.4440    -0.0012    -0.0001 </r>
       <r>   -11.3942    -0.0044    -0.0003 </r>
       <r>   -11.3444    -0.0139    -0.0010 </r>
       <r>   -11.2947    -0.0375    -0.0029 </r>
       <r>   -11.2449    -0.0849    -0.0071 </r>
       <r>   -11.1951    -0.1569    -0.0149 </r>
       <r>   -11.1454    -0.2206    -0.0259 </r>
       <r>   -11.0956    -0.1804    -0.0348 </r>
       <r>   -11.0458     0.1190    -0.0289 </r>
       <r>   -10.9960     0.8187     0.0118 </r>
       <r>   -10.9463     1.9069     0.1067 </r>
       <r>   -10.8965     3.1181     0.2619 </r>
       <r>   -10.8467     3.9982     0.4609 </r>
       <r>   -10.7970     4.1532     0.6676 </r>
       <r>   -10.7472     3.5091     0.8422 </r>
       <r>   -10.6974     2.3631     0.9598 </r>
       <r>   -10.6477     1.1794     1.0185 </r>
       <r>   -10.5979     0.3067     1.0338 </r>
       <r>   -10.5481    -0.1664     1.0255 </r>
       <r>   -10.4984    -0.3577     1.0077 </r>
       <r>   -10.4486    -0.4378     0.9859 </r>
       <r>   -10.3988    -0.4917     0.9615 </r>
       <r>   -10.3491    -0.4484     0.9392 </r>
       <r>   -10.2993    -0.0864     0.9349 </r>
       <r>   -10.2495     0.8705     0.9782 </r>
       <r>   -10.1998     2.5735     1.1063 </r>
       <r>   -10.1500     4.8703     1.3486 </r>
       <r>   -10.1002     7.2691     1.7104 </r>
       <r>   -10.0504     9.1140     2.1640 </r>
       <r>   -10.0007     9.8764     2.6556 </r>
       <r>    -9.9509     9.3746     3.1221 </r>
       <r>    -9.9011     7.8083     3.5107 </r>
       <r>    -9.8514     5.6396     3.7914 </r>
       <r>    -9.8016     3.4108     3.9611 </r>
       <r>    -9.7518     1.5674     4.0392 </r>
       <r>    -9.7021     0.3327     4.0557 </r>
       <r>    -9.6523    -0.3147     4.0400 </r>
       <r>    -9.6025    -0.5471     4.0128 </r>
       <r>    -9.5528    -0.5331     3.9863 </r>
       <r>    -9.5030    -0.3204     3.9703 </r>
       <r>    -9.4532     0.1655     3.9786 </r>
       <r>    -9.4035     0.9980     4.0283 </r>
       <r>    -9.3537     2.0908     4.1323 </r>
       <r>    -9.3039     3.1554     4.2894 </r>
       <r>    -9.2541     3.8691     4.4819 </r>
       <r>    -9.2044     4.1498     4.6884 </r>
       <r>    -9.1546     4.2711     4.9010 </r>
       <r>    -9.1048     4.6459     5.1322 </r>
       <r>    -9.0551     5.4342     5.4027 </r>
       <r>    -9.0053     6.3507     5.7187 </r>
       <r>    -8.9555     6.8950     6.0619 </r>
       <r>    -8.9058     6.8225     6.4014 </r>
       <r>    -8.8560     6.4095     6.7204 </r>
       <r>    -8.8062     6.2291     7.0304 </r>
       <r>    -8.7565     6.6135     7.3596 </r>
       <r>    -8.7067     7.3244     7.7241 </r>
       <r>    -8.6569     7.7970     8.1122 </r>
       <r>    -8.6072     7.7449     8.4976 </r>
       <r>    -8.5574     7.4974     8.8708 </r>
       <r>    -8.5076     7.6807     9.2530 </r>
       <r>    -8.4578     8.5508     9.6786 </r>
       <r>    -8.4081     9.6713    10.1599 </r>
       <r>    -8.3583    10.2709    10.6711 </r>
       <r>    -8.3085     9.9225    11.1649 </r>
       <r>    -8.2588     8.9050    11.6081 </r>
       <r>    -8.2090     7.9678    12.0046 </r>
       <r>    -8.1592     7.7806    12.3919 </r>
       <r>    -8.1095     8.5568    12.8177 </r>
       <r>    -8.0597    10.0563    13.3182 </r>
       <r>    -8.0099    11.7868    13.9048 </r>
       <r>    -7.9602    13.1491    14.5593 </r>
       <r>    -7.9104    13.5340    15.2328 </r>
       <r>    -7.8606    12.5549    15.8577 </r>
       <r>    -7.8109    10.3955    16.3750 </r>
       <r>    -7.7611     7.9210    16.7693 </r>
       <r>    -7.7113     6.2646    17.0810 </r>
       <r>    -7.6615     6.0925    17.3843 </r>
       <r>    -7.6118     7.1511    17.7402 </r>
       <r>    -7.5620     8.5116    18.1638 </r>
       <r>    -7.5122     9.3038    18.6268 </r>
       <r>    -7.4625     9.3048    19.0899 </r>
       <r>    -7.4127     8.9248    19.5341 </r>
       <r>    -7.3629     8.6933    19.9667 </r>
       <r>    -7.3132     8.7651    20.4030 </r>
       <r>    -7.2634     8.8898    20.8454 </r>
       <r>    -7.2136     8.8557    21.2861 </r>
       <r>    -7.1639     8.9827    21.7332 </r>
       <r>    -7.1141    10.1580    22.2387 </r>
       <r>    -7.0643    13.2583    22.8986 </r>
       <r>    -7.0146    18.3377    23.8112 </r>
       <r>    -6.9648    24.2474    25.0180 </r>
       <r>    -6.9150    29.0951    26.4660 </r>
       <r>    -6.8652    31.2933    28.0234 </r>
       <r>    -6.8155    30.4233    29.5376 </r>
       <r>    -6.7657    27.2991    30.8962 </r>
       <r>    -6.7159    23.3115    32.0564 </r>
       <r>    -6.6662    19.6598    33.0348 </r>
       <r>    -6.6164    16.9631    33.8791 </r>
       <r>    -6.5666    15.2885    34.6400 </r>
       <r>    -6.5169    14.3893    35.3561 </r>
       <r>    -6.4671    13.9806    36.0519 </r>
       <r>    -6.4173    13.9239    36.7449 </r>
       <r>    -6.3676    14.2123    37.4522 </r>
       <r>    -6.3178    14.7794    38.1877 </r>
       <r>    -6.2680    15.3328    38.9508 </r>
       <r>    -6.2183    15.4055    39.7175 </r>
       <r>    -6.1685    14.6075    40.4445 </r>
       <r>    -6.1187    12.8838    41.0857 </r>
       <r>    -6.0689    10.5835    41.6125 </r>
       <r>    -6.0192     8.2701    42.0241 </r>
       <r>    -5.9694     6.3816    42.3417 </r>
       <r>    -5.9196     4.9910    42.5901 </r>
       <r>    -5.8699     3.8665    42.7825 </r>
       <r>    -5.8201     2.7603    42.9199 </r>
       <r>    -5.7703     1.6374    43.0014 </r>
       <r>    -5.7206     0.6531    43.0339 </r>
       <r>    -5.6708    -0.0347    43.0321 </r>
       <r>    -5.6210    -0.3934    43.0126 </r>
       <r>    -5.5713    -0.4783    42.9888 </r>
       <r>    -5.5215    -0.3114    42.9733 </r>
       <r>    -5.4717     0.1744    42.9819 </r>
       <r>    -5.4220     1.0536    43.0344 </r>
       <r>    -5.3722     2.2450    43.1461 </r>
       <r>    -5.3224     3.4222    43.3164 </r>
       <r>    -5.2726     4.1269    43.5218 </r>
       <r>    -5.2229     4.0416    43.7230 </r>
       <r>    -5.1731     3.2096    43.8827 </r>
       <r>    -5.1233     2.0072    43.9826 </r>
       <r>    -5.0736     0.8941    44.0271 </r>
       <r>    -5.0238     0.1552    44.0348 </r>
       <r>    -4.9740    -0.1837    44.0257 </r>
       <r>    -4.9243    -0.2647    44.0125 </r>
       <r>    -4.8745    -0.2556    43.9998 </r>
       <r>    -4.8247    -0.2560    43.9870 </r>
       <r>    -4.7750    -0.2642    43.9739 </r>
       <r>    -4.7252    -0.1773    43.9651 </r>
       <r>    -4.6754     0.1736    43.9737 </r>
       <r>    -4.6257     0.9271    44.0198 </r>
       <r>    -4.5759     2.0491    44.1218 </r>
       <r>    -4.5261     3.2452    44.2833 </r>
       <r>    -4.4764     4.0513    44.4850 </r>
       <r>    -4.4266     4.0944    44.6887 </r>
       <r>    -4.3768     3.3378    44.8549 </r>
       <r>    -4.3270     2.1055    44.9596 </r>
       <r>    -4.2773     0.8748    45.0032 </r>
       <r>    -4.2275     0.0321    45.0048 </r>
       <r>    -4.1777    -0.2250    44.9936 </r>
       <r>    -4.1280     0.1504    45.0011 </r>
       <r>    -4.0782     1.0874    45.0552 </r>
       <r>    -4.0284     2.3533    45.1723 </r>
       <r>    -3.9787     3.5314    45.3481 </r>
       <r>    -3.9289     4.1522    45.5547 </r>
       <r>    -3.8791     3.9494    45.7513 </r>
       <r>    -3.8294     3.0338    45.9023 </r>
       <r>    -3.7796     1.8187    45.9928 </r>
       <r>    -3.7298     0.7532    46.0303 </r>
       <r>    -3.6801     0.0845    46.0345 </r>
       <r>    -3.6303    -0.1920    46.0249 </r>
       <r>    -3.5805    -0.2249    46.0137 </r>
       <r>    -3.5307    -0.1721    46.0051 </r>
       <r>    -3.4810    -0.1332    45.9985 </r>
       <r>    -3.4312    -0.1458    45.9913 </r>
       <r>    -3.3814    -0.1992    45.9813 </r>
       <r>    -3.3317    -0.2290    45.9699 </r>
       <r>    -3.2819    -0.1053    45.9647 </r>
       <r>    -3.2321     0.3387    45.9816 </r>
       <r>    -3.1824     1.2028    46.0414 </r>
       <r>    -3.1326     2.3803    46.1599 </r>
       <r>    -3.0828     3.5079    46.3345 </r>
       <r>    -3.0331     4.1106    46.5391 </r>
       <r>    -2.9833     3.8857    46.7324 </r>
       <r>    -2.9335     2.9165    46.8776 </r>
       <r>    -2.8838     1.6418    46.9593 </r>
       <r>    -2.8340     0.6183    46.9901 </r>
       <r>    -2.7842     0.2602    47.0030 </r>
       <r>    -2.7344     0.6978    47.0377 </r>
       <r>    -2.6847     1.7669    47.1257 </r>
       <r>    -2.6349     3.1007    47.2800 </r>
       <r>    -2.5851     4.3004    47.4940 </r>
       <r>    -2.5354     5.1136    47.7485 </r>
       <r>    -2.4856     5.4894    48.0217 </r>
       <r>    -2.4358     5.4698    48.2939 </r>
       <r>    -2.3861     5.0580    48.5457 </r>
       <r>    -2.3363     4.2290    48.7561 </r>
       <r>    -2.2865     3.0607    48.9085 </r>
       <r>    -2.2368     1.7964    48.9979 </r>
       <r>    -2.1870     0.7363    49.0345 </r>
       <r>    -2.1372     0.0622    49.0376 </r>
       <r>    -2.0875    -0.2395    49.0257 </r>
       <r>    -2.0377    -0.3134    49.0101 </r>
       <r>    -1.9879    -0.3133    48.9945 </r>
       <r>    -1.9381    -0.3108    48.9790 </r>
       <r>    -1.8884    -0.2620    48.9660 </r>
       <r>    -1.8386    -0.0274    48.9646 </r>
       <r>    -1.7888     0.5471    48.9919 </r>
       <r>    -1.7391     1.5023    49.0666 </r>
       <r>    -1.6893     2.6718    49.1996 </r>
       <r>    -1.6395     3.7344    49.3855 </r>
       <r>    -1.5898     4.4184    49.6054 </r>
       <r>    -1.5400     4.6837    49.8385 </r>
       <r>    -1.4902     4.6893    50.0718 </r>
       <r>    -1.4405     4.5789    50.2997 </r>
       <r>    -1.3907     4.3434    50.5159 </r>
       <r>    -1.3409     3.9278    50.7114 </r>
       <r>    -1.2912     3.4311    50.8821 </r>
       <r>    -1.2414     3.1092    51.0369 </r>
       <r>    -1.1916     3.1411    51.1932 </r>
       <r>    -1.1418     3.4446    51.3646 </r>
       <r>    -1.0921     3.7980    51.5537 </r>
       <r>    -1.0423     4.1450    51.7600 </r>
       <r>    -0.9925     4.7045    51.9941 </r>
       <r>    -0.9428     5.6944    52.2775 </r>
       <r>    -0.8930     6.9417    52.6230 </r>
       <r>    -0.8432     7.8282    53.0126 </r>
       <r>    -0.7935     7.6973    53.3957 </r>
       <r>    -0.7437     6.3658    53.7125 </r>
       <r>    -0.6939     4.2736    53.9252 </r>
       <r>    -0.6442     2.1663    54.0330 </r>
       <r>    -0.5944     0.6250    54.0641 </r>
       <r>    -0.5446    -0.1835    54.0549 </r>
       <r>    -0.4949    -0.4357    54.0333 </r>
       <r>    -0.4451    -0.4238    54.0122 </r>
       <r>    -0.3953    -0.3724    53.9936 </r>
       <r>    -0.3455    -0.3673    53.9754 </r>
       <r>    -0.2958    -0.3544    53.9577 </r>
       <r>    -0.2460    -0.1653    53.9495 </r>
       <r>    -0.1962     0.4229    53.9705 </r>
       <r>    -0.1465     1.5697    54.0487 </r>
       <r>    -0.0967     3.2269    54.2093 </r>
       <r>    -0.0469     5.0644    54.4613 </r>
       <r>     0.0028     6.5537    54.7875 </r>
       <r>     0.0526     7.1929    55.1455 </r>
       <r>     0.1024     6.7522    55.4815 </r>
       <r>     0.1521     5.3911    55.7498 </r>
       <r>     0.2019     3.5762    55.9278 </r>
       <r>     0.2517     1.8519    56.0200 </r>
       <r>     0.3014     0.5988    56.0498 </r>
       <r>     0.3512    -0.0791    56.0458 </r>
       <r>     0.4010    -0.3037    56.0307 </r>
       <r>     0.4507    -0.2813    56.0167 </r>
       <r>     0.5005    -0.1817    56.0077 </r>
       <r>     0.5503    -0.0935    56.0030 </r>
       <r>     0.6001    -0.0400    56.0010 </r>
       <r>     0.6498    -0.0146    56.0003 </r>
       <r>     0.6996    -0.0046    56.0001 </r>
       <r>     0.7494    -0.0012    56.0000 </r>
       <r>     0.7991    -0.0003    56.0000 </r>
       <r>     0.8489    -0.0001    56.0000 </r>
       <r>     0.8987    -0.0000    56.0000 </r>
       <r>     0.9484    -0.0000    56.0000 </r>
       <r>     0.9982    -0.0000    56.0000 </r>
       <r>     1.0480    -0.0000    56.0000 </r>
       <r>     1.0977    -0.0000    56.0000 </r>
       <r>     1.1475    -0.0000    56.0000 </r>
       <r>     1.1973    -0.0000    56.0000 </r>
       <r>     1.2470    -0.0000    56.0000 </r>
       <r>     1.2968    -0.0000    56.0000 </r>
       <r>     1.3466    -0.0000    56.0000 </r>
       <r>     1.3964     0.0000    56.0000 </r>
       <r>     1.4461     0.0000    56.0000 </r>
       <r>     1.4959     0.0000    56.0000 </r>
       <r>     1.5457     0.0000    56.0000 </r>
       <r>     1.5954     0.0000    56.0000 </r>
       <r>     1.6452     0.0000    56.0000 </r>
       <r>     1.6950     0.0000    56.0000 </r>
       <r>     1.7447     0.0000    56.0000 </r>
       <r>     1.7945     0.0000    56.0000 </r>
       <r>     1.8443     0.0000    56.0000 </r>
       <r>     1.8940     0.0000    56.0000 </r>
       <r>     1.9438     0.0000    56.0000 </r>
       <r>     1.9936     0.0000    56.0000 </r>
       <r>     2.0433     0.0000    56.0000 </r>
       <r>     2.0931     0.0000    56.0000 </r>
      </set>
     </set>
    </array>
   </total>
  </dos>
 </calculation>
 <structure name="finalpos" >
  <crystal>
   <varray name="basis" >
    <v>      21.38459405       0.00000000       0.00000000 </v>
    <v>       0.00000000      22.73816368       0.00000000 </v>
    <v>       0.00000000       0.00000000      23.80977728 </v>
   </varray>
   <i name="volume">  11577.41847862 </i>
   <varray name="rec_basis" >
    <v>       0.04676264       0.00000000       0.00000000 </v>
    <v>       0.00000000       0.04397893       0.00000000 </v>
    <v>       0.00000000       0.00000000       0.04199955 </v>
   </varray>
  </crystal>
  <varray name="positions" >
   <v>       0.62104455       0.53753693       0.35369589 </v>
   <v>       0.59598919       0.48937181       0.45230143 </v>
   <v>       0.47834626       0.50326924       0.49607606 </v>
   <v>       0.56811167       0.44215589       0.55103524 </v>
   <v>       0.50671955       0.55215354       0.39388673 </v>
   <v>       0.44966480       0.45612747       0.59633461 </v>
   <v>       0.39319900       0.56595349       0.43672062 </v>
   <v>       0.36351178       0.51719920       0.53981456 </v>
  </varray>
 </structure>
</modeling>
