unknown system                          
            1
    21.384594    0.000000    0.000000
     0.000000   22.738164    0.000000
     0.000000    0.000000   23.809777
   Au
     8
Direct configuration=     1
   0.62107305  0.53754142  0.35367604
   0.59596846  0.48936944  0.45232322
   0.47837338  0.50324152  0.49609518
   0.56812632  0.44215856  0.55102282
   0.50669510  0.55215370  0.39388954
   0.44969797  0.45609674  0.59636850
   0.39318618  0.56597270  0.43670472
   0.36346634  0.51723350  0.53978511
Direct configuration=     2
   0.62103458  0.53753536  0.35370284
   0.59599645  0.48937265  0.45229380
   0.47833676  0.50327895  0.49606937
   0.56810654  0.44215496  0.55103959
   0.50672811  0.55215349  0.39388575
   0.44965319  0.45613823  0.59632274
   0.39320348  0.56594676  0.43672618
   0.36352769  0.51718719  0.53982487
Direct configuration=     3
   0.62104455  0.53753693  0.35369589
   0.59598919  0.48937181  0.45230143
   0.47834626  0.50326924  0.49607606
   0.56811167  0.44215589  0.55103524
   0.50671955  0.55215354  0.39388673
   0.44966480  0.45612747  0.59633461
   0.39319900  0.56595349  0.43672062
   0.36351178  0.51719920  0.53981456
