  10  10   0   0
  0.1083444E+04  0.2151757E-08  0.2201143E-08  0.2287521E-08  0.5000000E-15
   1.0000000000000000E-004
  CAR 
 unknown system                          
      1.94756121    -11.86418213  301     -3.82558016      1.00000000
    -11.864  0.0000E+00  0.0000E+00  0.0000E+00  0.0000E+00
    -11.818  0.0000E+00  0.0000E+00  0.0000E+00  0.0000E+00
    -11.772  0.0000E+00  0.0000E+00  0.0000E+00  0.0000E+00
    -11.726  0.0000E+00  0.0000E+00  0.0000E+00  0.0000E+00
    -11.680  0.0000E+00  0.0000E+00  0.0000E+00  0.0000E+00
    -11.634  0.0000E+00  0.0000E+00  0.0000E+00  0.0000E+00
    -11.588  0.0000E+00  0.0000E+00  0.0000E+00  0.0000E+00
    -11.542  0.0000E+00  0.0000E+00  0.0000E+00  0.0000E+00
    -11.496 -0.6197E-30  0.0000E+00 -0.2853E-31  0.0000E+00
    -11.450 -0.2382E-28 -0.4198E-29 -0.1125E-29 -0.1933E-30
    -11.404 -0.8414E-27 -0.1524E-27 -0.3986E-28 -0.7212E-29
    -11.358 -0.2670E-25 -0.5095E-26 -0.1269E-26 -0.2418E-27
    -11.312 -0.7612E-24 -0.1530E-24 -0.3631E-25 -0.7285E-26
    -11.266 -0.1949E-22 -0.4126E-23 -0.9336E-24 -0.1972E-24
    -11.220 -0.4481E-21 -0.9992E-22 -0.2157E-22 -0.4797E-23
    -11.174 -0.9252E-20 -0.2173E-20 -0.4475E-21 -0.1048E-21
    -11.128 -0.1715E-18 -0.4243E-19 -0.8343E-20 -0.2058E-20
    -11.082 -0.2853E-17 -0.7438E-18 -0.1397E-18 -0.3630E-19
    -11.035 -0.4140E-16 -0.1170E-16 -0.2046E-17 -0.5751E-18
    -10.989 -0.5527E-15 -0.1604E-15 -0.2749E-16 -0.7959E-17
    -10.943 -0.6627E-14 -0.2024E-14 -0.3326E-15 -0.1011E-15
    -10.897 -0.7118E-13 -0.2293E-13 -0.3610E-14 -0.1157E-14
    -10.851 -0.6852E-12 -0.2327E-12 -0.3516E-13 -0.1187E-13
    -10.805 -0.5908E-11 -0.2116E-11 -0.3071E-12 -0.1093E-12
    -10.759 -0.4559E-10 -0.1723E-10 -0.2406E-11 -0.9026E-12
    -10.713 -0.3147E-09 -0.1255E-09 -0.1689E-10 -0.6682E-11
    -10.667 -0.1942E-08 -0.8177E-09 -0.1063E-09 -0.4433E-10
    -10.621 -0.1069E-07 -0.4758E-08 -0.5986E-09 -0.2634E-09
    -10.575 -0.5252E-07 -0.2471E-07 -0.3017E-08 -0.1401E-08
    -10.529 -0.2296E-06 -0.1143E-06 -0.1359E-07 -0.6662E-08
    -10.483 -0.8918E-06 -0.4701E-06 -0.5465E-07 -0.2831E-07
    -10.437 -0.3067E-05 -0.1715E-05 -0.1958E-06 -0.1073E-06
    -10.391 -0.9302E-05 -0.5531E-05 -0.6241E-06 -0.3619E-06
    -10.345 -0.2473E-04 -0.1568E-04 -0.1762E-05 -0.1084E-05
    -10.299 -0.5706E-04 -0.3881E-04 -0.4390E-05 -0.2871E-05
    -10.253 -0.1124E-03 -0.8276E-04 -0.9565E-05 -0.6681E-05
    -10.207 -0.1829E-03 -0.1486E-03 -0.1799E-04 -0.1352E-04
    -10.161 -0.2265E-03 -0.2134E-03 -0.2841E-04 -0.2335E-04
    -10.115 -0.1505E-03 -0.2099E-03 -0.3534E-04 -0.3301E-04
    -10.069  0.1748E-03 -0.2171E-04 -0.2730E-04 -0.3401E-04
    -10.023  0.8531E-03  0.4787E-03  0.1198E-04 -0.1197E-04
     -9.977  0.1864E-02  0.1343E-02  0.9778E-04  0.4985E-04
     -9.931  0.2994E-02  0.2454E-02  0.2356E-03  0.1628E-03
     -9.884  0.3886E-02  0.3509E-02  0.4145E-03  0.3244E-03
     -9.838  0.4199E-02  0.4135E-02  0.6078E-03  0.5148E-03
     -9.792  0.3806E-02  0.4080E-02  0.7831E-03  0.7026E-03
     -9.746  0.2866E-02  0.3368E-02  0.9150E-03  0.8577E-03
     -9.700  0.1733E-02  0.2280E-02  0.9948E-03  0.9626E-03
     -9.654  0.7543E-03  0.1191E-02  0.1030E-02  0.1017E-02
     -9.608  0.1196E-03  0.3792E-03  0.1035E-02  0.1035E-02
     -9.562 -0.1697E-03 -0.6750E-04  0.1027E-02  0.1032E-02
     -9.516 -0.2253E-03 -0.2190E-03  0.1017E-02  0.1022E-02
     -9.470 -0.1748E-03 -0.2057E-03  0.1009E-02  0.1012E-02
     -9.424 -0.1048E-03 -0.1377E-03  0.1004E-02  0.1006E-02
     -9.378 -0.5213E-04 -0.7456E-04  0.1002E-02  0.1002E-02
     -9.332 -0.2220E-04 -0.3415E-04  0.1001E-02  0.1001E-02
     -9.286 -0.8220E-05 -0.1351E-04  0.1000E-02  0.1000E-02
     -9.240 -0.2670E-05 -0.4670E-05  0.1000E-02  0.1000E-02
     -9.194 -0.7652E-06 -0.1421E-05  0.1000E-02  0.1000E-02
     -9.148 -0.1943E-06 -0.3823E-06  0.1000E-02  0.1000E-02
     -9.102 -0.4412E-07 -0.9130E-07  0.1000E-02  0.1000E-02
     -9.056 -0.1057E-07 -0.1939E-07  0.1000E-02  0.1000E-02
     -9.010 -0.1135E-07 -0.3672E-08  0.1000E-02  0.1000E-02
     -8.964 -0.4859E-07 -0.6300E-09  0.1000E-02  0.1000E-02
     -8.918 -0.2128E-06 -0.1682E-09  0.1000E-02  0.1000E-02
     -8.872 -0.8324E-06 -0.5137E-09  0.9999E-03  0.1000E-02
     -8.826 -0.2886E-05 -0.3007E-08  0.9998E-03  0.1000E-02
     -8.780 -0.8832E-05 -0.1609E-07  0.9994E-03  0.1000E-02
     -8.734 -0.2374E-04 -0.7677E-07  0.9983E-03  0.1000E-02
     -8.687 -0.5555E-04 -0.3259E-06  0.9958E-03  0.1000E-02
     -8.641 -0.1117E-03 -0.1228E-05  0.9906E-03  0.9999E-03
     -8.595 -0.1879E-03 -0.4096E-05  0.9820E-03  0.9997E-03
     -8.549 -0.2496E-03 -0.1203E-04  0.9705E-03  0.9992E-03
     -8.503 -0.2146E-03 -0.3092E-04  0.9606E-03  0.9978E-03
     -8.457  0.3972E-04 -0.6878E-04  0.9624E-03  0.9946E-03
     -8.411  0.6274E-03 -0.1300E-03  0.9913E-03  0.9886E-03
     -8.365  0.1576E-02 -0.2007E-03  0.1064E-02  0.9794E-03
     -8.319  0.2775E-02 -0.2289E-03  0.1192E-02  0.9688E-03
     -8.273  0.3998E-02 -0.1133E-03  0.1376E-02  0.9636E-03
     -8.227  0.5006E-02  0.2708E-03  0.1606E-02  0.9761E-03
     -8.181  0.5644E-02  0.9974E-03  0.1866E-02  0.1022E-02
     -8.135  0.5856E-02  0.2000E-02  0.2136E-02  0.1114E-02
     -8.089  0.5631E-02  0.3042E-02  0.2395E-02  0.1254E-02
     -8.043  0.4970E-02  0.3817E-02  0.2624E-02  0.1430E-02
     -7.997  0.3921E-02  0.4139E-02  0.2804E-02  0.1620E-02
     -7.951  0.2631E-02  0.4079E-02  0.2925E-02  0.1808E-02
     -7.905  0.1345E-02  0.3914E-02  0.2987E-02  0.1988E-02
     -7.859  0.3271E-03  0.3900E-02  0.3002E-02  0.2168E-02
     -7.813 -0.2237E-03  0.4057E-02  0.2992E-02  0.2355E-02
     -7.767 -0.2052E-03  0.4148E-02  0.2983E-02  0.2546E-02
     -7.721  0.3935E-03  0.3884E-02  0.3001E-02  0.2724E-02
     -7.675  0.1499E-02  0.3158E-02  0.3070E-02  0.2870E-02
     -7.629  0.2954E-02  0.2122E-02  0.3206E-02  0.2968E-02
     -7.583  0.4540E-02  0.1073E-02  0.3415E-02  0.3017E-02
     -7.537  0.6028E-02  0.2556E-03  0.3692E-02  0.3029E-02
     -7.490  0.7234E-02 -0.2422E-03  0.4025E-02  0.3018E-02
     -7.444  0.8049E-02 -0.4581E-03  0.4396E-02  0.2997E-02
     -7.398  0.8459E-02 -0.4496E-03  0.4785E-02  0.2976E-02
     -7.352  0.8586E-02 -0.2119E-03  0.5181E-02  0.2966E-02
     -7.306  0.8685E-02  0.3184E-03  0.5580E-02  0.2981E-02
     -7.260  0.9045E-02  0.1181E-02  0.5997E-02  0.3035E-02
     -7.214  0.9820E-02  0.2303E-02  0.6449E-02  0.3141E-02
     -7.168  0.1095E-01  0.3484E-02  0.6953E-02  0.3302E-02
     -7.122  0.1224E-01  0.4485E-02  0.7517E-02  0.3508E-02
     -7.076  0.1358E-01  0.5152E-02  0.8142E-02  0.3745E-02
     -7.030  0.1495E-01  0.5484E-02  0.8831E-02  0.3998E-02
     -6.984  0.1629E-01  0.5581E-02  0.9581E-02  0.4255E-02
     -6.938  0.1731E-01  0.5553E-02  0.1038E-01  0.4510E-02
     -6.892  0.1752E-01  0.5457E-02  0.1118E-01  0.4761E-02
     -6.846  0.1659E-01  0.5306E-02  0.1195E-01  0.5006E-02
     -6.800  0.1459E-01  0.5125E-02  0.1262E-01  0.5242E-02
     -6.754  0.1203E-01  0.5013E-02  0.1317E-01  0.5472E-02
     -6.708  0.9564E-02  0.5159E-02  0.1361E-01  0.5710E-02
     -6.662  0.7607E-02  0.5770E-02  0.1396E-01  0.5976E-02
     -6.616  0.6282E-02  0.6914E-02  0.1425E-01  0.6294E-02
     -6.570  0.5557E-02  0.8371E-02  0.1451E-01  0.6679E-02
     -6.524  0.5446E-02  0.9664E-02  0.1476E-01  0.7124E-02
     -6.478  0.6021E-02  0.1031E-01  0.1504E-01  0.7599E-02
     -6.432  0.7258E-02  0.1012E-01  0.1537E-01  0.8065E-02
     -6.386  0.8881E-02  0.9379E-02  0.1578E-01  0.8497E-02
     -6.339  0.1042E-01  0.8687E-02  0.1626E-01  0.8897E-02
     -6.293  0.1145E-01  0.8658E-02  0.1679E-01  0.9295E-02
     -6.247  0.1181E-01  0.9584E-02  0.1733E-01  0.9737E-02
     -6.201  0.1165E-01  0.1127E-01  0.1787E-01  0.1026E-01
     -6.155  0.1124E-01  0.1313E-01  0.1838E-01  0.1086E-01
     -6.109  0.1087E-01  0.1443E-01  0.1889E-01  0.1152E-01
     -6.063  0.1080E-01  0.1469E-01  0.1938E-01  0.1220E-01
     -6.017  0.1119E-01  0.1380E-01  0.1990E-01  0.1284E-01
     -5.971  0.1209E-01  0.1207E-01  0.2045E-01  0.1339E-01
     -5.925  0.1328E-01  0.1002E-01  0.2107E-01  0.1385E-01
     -5.879  0.1429E-01  0.8171E-02  0.2172E-01  0.1423E-01
     -5.833  0.1465E-01  0.6926E-02  0.2240E-01  0.1455E-01
     -5.787  0.1420E-01  0.6545E-02  0.2305E-01  0.1485E-01
     -5.741  0.1326E-01  0.7077E-02  0.2366E-01  0.1518E-01
     -5.695  0.1237E-01  0.8299E-02  0.2423E-01  0.1556E-01
     -5.649  0.1197E-01  0.9735E-02  0.2478E-01  0.1601E-01
     -5.603  0.1208E-01  0.1082E-01  0.2534E-01  0.1650E-01
     -5.557  0.1241E-01  0.1115E-01  0.2591E-01  0.1702E-01
     -5.511  0.1262E-01  0.1064E-01  0.2649E-01  0.1751E-01
     -5.465  0.1254E-01  0.9547E-02  0.2707E-01  0.1795E-01
     -5.419  0.1236E-01  0.8365E-02  0.2764E-01  0.1833E-01
     -5.373  0.1242E-01  0.7624E-02  0.2821E-01  0.1868E-01
     -5.327  0.1312E-01  0.7710E-02  0.2881E-01  0.1904E-01
     -5.281  0.1462E-01  0.8694E-02  0.2949E-01  0.1944E-01
     -5.235  0.1685E-01  0.1029E-01  0.3026E-01  0.1991E-01
     -5.189  0.1951E-01  0.1203E-01  0.3116E-01  0.2047E-01
     -5.142  0.2224E-01  0.1355E-01  0.3218E-01  0.2109E-01
     -5.096  0.2467E-01  0.1480E-01  0.3332E-01  0.2177E-01
     -5.050  0.2655E-01  0.1593E-01  0.3454E-01  0.2250E-01
     -5.004  0.2780E-01  0.1703E-01  0.3582E-01  0.2329E-01
     -4.958  0.2858E-01  0.1793E-01  0.3714E-01  0.2411E-01
     -4.912  0.2926E-01  0.1834E-01  0.3848E-01  0.2496E-01
     -4.866  0.3024E-01  0.1804E-01  0.3988E-01  0.2579E-01
     -4.820  0.3171E-01  0.1711E-01  0.4134E-01  0.2658E-01
     -4.774  0.3353E-01  0.1584E-01  0.4288E-01  0.2731E-01
     -4.728  0.3525E-01  0.1457E-01  0.4450E-01  0.2798E-01
     -4.682  0.3631E-01  0.1348E-01  0.4618E-01  0.2860E-01
     -4.636  0.3608E-01  0.1271E-01  0.4784E-01  0.2918E-01
     -4.590  0.3409E-01  0.1242E-01  0.4941E-01  0.2975E-01
     -4.544  0.3021E-01  0.1290E-01  0.5080E-01  0.3035E-01
     -4.498  0.2478E-01  0.1441E-01  0.5194E-01  0.3101E-01
     -4.452  0.1863E-01  0.1705E-01  0.5279E-01  0.3180E-01
     -4.406  0.1277E-01  0.2050E-01  0.5338E-01  0.3274E-01
     -4.360  0.7942E-02  0.2403E-01  0.5375E-01  0.3385E-01
     -4.314  0.4437E-02  0.2675E-01  0.5395E-01  0.3508E-01
     -4.268  0.2126E-02  0.2793E-01  0.5405E-01  0.3636E-01
     -4.222  0.7119E-03  0.2731E-01  0.5408E-01  0.3762E-01
     -4.176 -0.8516E-04  0.2526E-01  0.5408E-01  0.3878E-01
     -4.130 -0.4729E-03  0.2259E-01  0.5406E-01  0.3982E-01
     -4.084 -0.6062E-03  0.2022E-01  0.5403E-01  0.4075E-01
     -4.038 -0.5942E-03  0.1880E-01  0.5400E-01  0.4162E-01
     -3.991 -0.4755E-03  0.1851E-01  0.5398E-01  0.4247E-01
     -3.945 -0.1981E-03  0.1911E-01  0.5397E-01  0.4335E-01
     -3.899  0.3455E-03  0.2022E-01  0.5399E-01  0.4428E-01
     -3.853  0.1221E-02  0.2150E-01  0.5404E-01  0.4527E-01
     -3.807  0.2339E-02  0.2276E-01  0.5415E-01  0.4632E-01
     -3.761  0.3423E-02  0.2389E-01  0.5431E-01  0.4742E-01
     -3.715  0.4103E-02  0.2469E-01  0.5450E-01  0.4856E-01
     -3.669  0.4114E-02  0.2489E-01  0.5469E-01  0.4970E-01
     -3.623  0.3452E-02  0.2412E-01  0.5485E-01  0.5081E-01
     -3.577  0.2380E-02  0.2208E-01  0.5496E-01  0.5183E-01
     -3.531  0.1272E-02  0.1878E-01  0.5501E-01  0.5269E-01
     -3.485  0.4139E-03  0.1466E-01  0.5503E-01  0.5337E-01
     -3.439 -0.9629E-04  0.1054E-01  0.5503E-01  0.5385E-01
     -3.393 -0.3267E-03  0.7216E-02  0.5501E-01  0.5419E-01
     -3.347 -0.4046E-03  0.5089E-02  0.5499E-01  0.5442E-01
     -3.301 -0.4130E-03  0.3974E-02  0.5498E-01  0.5460E-01
     -3.255 -0.3362E-03  0.3343E-02  0.5496E-01  0.5476E-01
     -3.209 -0.6569E-04  0.2702E-02  0.5496E-01  0.5488E-01
     -3.163  0.5376E-03  0.1863E-02  0.5498E-01  0.5497E-01
     -3.117  0.1550E-02  0.9345E-03  0.5505E-01  0.5501E-01
     -3.071  0.2901E-02  0.1368E-03  0.5519E-01  0.5502E-01
     -3.025  0.4364E-02 -0.3576E-03  0.5539E-01  0.5500E-01
     -2.979  0.5614E-02 -0.4628E-03  0.5565E-01  0.5498E-01
     -2.933  0.6350E-02 -0.1335E-03  0.5594E-01  0.5497E-01
     -2.887  0.6398E-02  0.6609E-03  0.5623E-01  0.5500E-01
     -2.841  0.5783E-02  0.1896E-02  0.5650E-01  0.5509E-01
     -2.794  0.4743E-02  0.3424E-02  0.5672E-01  0.5525E-01
     -2.748  0.3677E-02  0.4963E-02  0.5689E-01  0.5548E-01
     -2.702  0.2992E-02  0.6157E-02  0.5702E-01  0.5576E-01
     -2.656  0.2892E-02  0.6698E-02  0.5716E-01  0.5607E-01
     -2.610  0.3245E-02  0.6439E-02  0.5731E-01  0.5637E-01
     -2.564  0.3650E-02  0.5462E-02  0.5748E-01  0.5662E-01
     -2.518  0.3689E-02  0.4080E-02  0.5765E-01  0.5680E-01
     -2.472  0.3212E-02  0.2759E-02  0.5779E-01  0.5693E-01
     -2.426  0.2444E-02  0.1953E-02  0.5791E-01  0.5702E-01
     -2.380  0.1837E-02  0.1890E-02  0.5799E-01  0.5711E-01
     -2.334  0.1771E-02  0.2451E-02  0.5807E-01  0.5722E-01
     -2.288  0.2307E-02  0.3213E-02  0.5818E-01  0.5737E-01
     -2.242  0.3135E-02  0.3691E-02  0.5832E-01  0.5754E-01
     -2.196  0.3758E-02  0.3623E-02  0.5850E-01  0.5771E-01
     -2.150  0.3784E-02  0.3132E-02  0.5867E-01  0.5785E-01
     -2.104  0.3163E-02  0.2627E-02  0.5882E-01  0.5797E-01
     -2.058  0.2208E-02  0.2507E-02  0.5892E-01  0.5809E-01
     -2.012  0.1413E-02  0.2874E-02  0.5898E-01  0.5822E-01
     -1.966  0.1185E-02  0.3460E-02  0.5904E-01  0.5838E-01
     -1.920  0.1630E-02  0.3809E-02  0.5911E-01  0.5855E-01
     -1.874  0.2521E-02  0.3592E-02  0.5923E-01  0.5872E-01
     -1.828  0.3452E-02  0.2831E-02  0.5939E-01  0.5885E-01
     -1.782  0.4086E-02  0.1888E-02  0.5957E-01  0.5894E-01
     -1.736  0.4340E-02  0.1247E-02  0.5977E-01  0.5899E-01
     -1.690  0.4374E-02  0.1249E-02  0.5998E-01  0.5905E-01
     -1.643  0.4389E-02  0.1932E-02  0.6018E-01  0.5914E-01
     -1.597  0.4423E-02  0.3043E-02  0.6038E-01  0.5928E-01
     -1.551  0.4309E-02  0.4212E-02  0.6058E-01  0.5947E-01
     -1.505  0.3843E-02  0.5131E-02  0.6076E-01  0.5971E-01
     -1.459  0.2986E-02  0.5648E-02  0.6089E-01  0.5997E-01
     -1.413  0.1914E-02  0.5733E-02  0.6098E-01  0.6023E-01
     -1.367  0.9050E-03  0.5389E-02  0.6102E-01  0.6048E-01
     -1.321  0.1626E-03  0.4631E-02  0.6103E-01  0.6070E-01
     -1.275 -0.2679E-03  0.3534E-02  0.6102E-01  0.6086E-01
     -1.229 -0.4578E-03  0.2277E-02  0.6100E-01  0.6096E-01
     -1.183 -0.4868E-03  0.1096E-02  0.6098E-01  0.6101E-01
     -1.137 -0.3556E-03  0.1858E-03  0.6096E-01  0.6102E-01
     -1.091  0.2676E-04 -0.3643E-03  0.6096E-01  0.6101E-01
     -1.045  0.7768E-03 -0.5429E-03  0.6100E-01  0.6098E-01
     -0.999  0.1932E-02 -0.3402E-03  0.6109E-01  0.6096E-01
     -0.953  0.3370E-02  0.2909E-03  0.6124E-01  0.6098E-01
     -0.907  0.4818E-02  0.1388E-02  0.6146E-01  0.6104E-01
     -0.861  0.5954E-02  0.2879E-02  0.6174E-01  0.6117E-01
     -0.815  0.6543E-02  0.4518E-02  0.6204E-01  0.6138E-01
     -0.769  0.6548E-02  0.5932E-02  0.6234E-01  0.6166E-01
     -0.723  0.6132E-02  0.6769E-02  0.6262E-01  0.6197E-01
     -0.677  0.5560E-02  0.6870E-02  0.6288E-01  0.6228E-01
     -0.631  0.5052E-02  0.6358E-02  0.6311E-01  0.6258E-01
     -0.585  0.4675E-02  0.5572E-02  0.6333E-01  0.6283E-01
     -0.539  0.4367E-02  0.4874E-02  0.6353E-01  0.6306E-01
     -0.493  0.4078E-02  0.4460E-02  0.6371E-01  0.6326E-01
     -0.446  0.3884E-02  0.4305E-02  0.6389E-01  0.6346E-01
     -0.400  0.3968E-02  0.4279E-02  0.6408E-01  0.6366E-01
     -0.354  0.4451E-02  0.4314E-02  0.6428E-01  0.6386E-01
     -0.308  0.5248E-02  0.4460E-02  0.6452E-01  0.6406E-01
     -0.262  0.6062E-02  0.4799E-02  0.6480E-01  0.6428E-01
     -0.216  0.6520E-02  0.5316E-02  0.6510E-01  0.6453E-01
     -0.170  0.6355E-02  0.5847E-02  0.6539E-01  0.6480E-01
     -0.124  0.5517E-02  0.6155E-02  0.6565E-01  0.6508E-01
     -0.078  0.4188E-02  0.6029E-02  0.6584E-01  0.6536E-01
     -0.032  0.2692E-02  0.5377E-02  0.6596E-01  0.6561E-01
      0.014  0.1362E-02  0.4270E-02  0.6603E-01  0.6580E-01
      0.060  0.4160E-03  0.2927E-02  0.6605E-01  0.6594E-01
      0.106 -0.1005E-03  0.1635E-02  0.6604E-01  0.6601E-01
      0.152 -0.2791E-03  0.6333E-03  0.6603E-01  0.6604E-01
      0.198 -0.2649E-03  0.2432E-04  0.6602E-01  0.6604E-01
      0.244 -0.1821E-03 -0.2337E-03  0.6601E-01  0.6603E-01
      0.290 -0.1020E-03 -0.2654E-03  0.6600E-01  0.6602E-01
      0.336 -0.4847E-04 -0.1986E-03  0.6600E-01  0.6601E-01
      0.382 -0.1994E-04 -0.1179E-03  0.6600E-01  0.6600E-01
      0.428 -0.7175E-05 -0.5877E-04  0.6600E-01  0.6600E-01
      0.474 -0.2274E-05 -0.2520E-04  0.6600E-01  0.6600E-01
      0.520 -0.6377E-06 -0.9415E-05  0.6600E-01  0.6600E-01
      0.566 -0.1587E-06 -0.3091E-05  0.6600E-01  0.6600E-01
      0.612 -0.3513E-07 -0.8965E-06  0.6600E-01  0.6600E-01
      0.658 -0.6931E-08 -0.2305E-06  0.6600E-01  0.6600E-01
      0.705 -0.1220E-08 -0.5265E-07  0.6600E-01  0.6600E-01
      0.751 -0.1919E-09 -0.1071E-07  0.6600E-01  0.6600E-01
      0.797 -0.2698E-10 -0.1944E-08  0.6600E-01  0.6600E-01
      0.843 -0.3395E-11 -0.3149E-09  0.6600E-01  0.6600E-01
      0.889 -0.3824E-12 -0.4561E-10  0.6600E-01  0.6600E-01
      0.935 -0.3859E-13 -0.5910E-11  0.6600E-01  0.6600E-01
      0.981 -0.3487E-14 -0.6854E-12  0.6600E-01  0.6600E-01
      1.027 -0.2797E-15 -0.7120E-13  0.6600E-01  0.6600E-01
      1.073 -0.2411E-16 -0.6627E-14  0.6600E-01  0.6600E-01
      1.119  0.0000E+00 -0.5546E-15  0.6600E-01  0.6600E-01
      1.165  0.0000E+00 -0.3858E-16  0.6600E-01  0.6600E-01
      1.211  0.0000E+00 -0.4823E-17  0.6600E-01  0.6600E-01
      1.257  0.0000E+00  0.0000E+00  0.6600E-01  0.6600E-01
      1.303  0.0000E+00  0.0000E+00  0.6600E-01  0.6600E-01
      1.349  0.0000E+00  0.0000E+00  0.6600E-01  0.6600E-01
      1.395  0.0000E+00  0.0000E+00  0.6600E-01  0.6600E-01
      1.441  0.0000E+00  0.0000E+00  0.6600E-01  0.6600E-01
      1.487  0.0000E+00  0.0000E+00  0.6600E-01  0.6600E-01
      1.533  0.0000E+00  0.0000E+00  0.6600E-01  0.6600E-01
      1.579  0.0000E+00  0.0000E+00  0.6600E-01  0.6600E-01
      1.625  0.0000E+00  0.0000E+00  0.6600E-01  0.6600E-01
      1.671  0.0000E+00  0.0000E+00  0.6600E-01  0.6600E-01
      1.717  0.0000E+00  0.0000E+00  0.6600E-01  0.6600E-01
      1.763  0.0000E+00  0.0000E+00  0.6600E-01  0.6600E-01
      1.809  0.0000E+00  0.0000E+00  0.6600E-01  0.6600E-01
      1.855  0.0000E+00  0.0000E+00  0.6600E-01  0.6600E-01
      1.902  0.0000E+00  0.0000E+00  0.6600E-01  0.6600E-01
      1.948  0.0000E+00  0.0000E+00  0.6600E-01  0.6600E-01
