   10   10 1000    2
  0.1083444E+04  0.2151757E-08  0.2201143E-08  0.2287521E-08  0.5000000E-15
   1.0000000000000000E-004
  CAR 
 unknown system                          
    100      1     66
 
  0.1262379E-14  0.1262379E-14  0.1262379E-14  0.1000000E+01
    1       -9.864182     -9.841947   1.000000   1.000000
    2       -8.250296     -8.034118   1.000000   1.000000
    3       -8.066099     -7.769513   1.000000   1.000000
    4       -7.569960     -7.130194   1.000000   1.000000
    5       -7.424979     -6.941592   1.000000   1.000000
    6       -7.340614     -6.759302   1.000000   1.000000
    7       -7.165935     -6.553231   1.000000   1.000000
    8       -7.151256     -6.505700   1.000000   1.000000
    9       -7.060354     -6.408375   1.000000   1.000000
   10       -6.959891     -6.259918   1.000000   1.000000
   11       -6.903722     -6.141428   1.000000   1.000000
   12       -6.893029     -6.124633   1.000000   1.000000
   13       -6.849277     -6.060999   1.000000   1.000000
   14       -6.714474     -5.972464   1.000000   1.000000
   15       -6.579696     -5.847748   1.000000   1.000000
   16       -6.368682     -5.656065   1.000000   1.000000
   17       -6.346217     -5.626623   1.000000   1.000000
   18       -6.240646     -5.518246   1.000000   1.000000
   19       -6.137874     -5.415834   1.000000   1.000000
   20       -6.070342     -5.239536   1.000000   1.000000
   21       -5.946431     -5.183450   1.000000   1.000000
   22       -5.871714     -5.145753   1.000000   1.000000
   23       -5.838428     -5.025193   1.000000   1.000000
   24       -5.792107     -4.988242   1.000000   1.000000
   25       -5.632177     -4.930829   1.000000   1.000000
   26       -5.611560     -4.893813   1.000000   1.000000
   27       -5.498527     -4.847898   1.000000   1.000000
   28       -5.452760     -4.733630   1.000000   1.000000
   29       -5.354604     -4.716972   1.000000   1.000000
   30       -5.247617     -4.607970   1.000000   1.000000
   31       -5.232477     -4.547565   1.000000   1.000002
   32       -5.177854     -4.439201   1.000000   1.000063
   33       -5.115292     -4.412184   1.000000   1.000135
   34       -5.087806     -4.355459   1.000000   1.000579
   35       -5.054085     -4.321748   1.000000   1.001261
   36       -5.004496     -4.301095   1.000000   1.001966
   37       -4.988239     -4.278130   1.000000   1.003127
   38       -4.971577     -4.232100   1.000000   1.007185
   39       -4.916625     -4.187779   1.000000   1.014012
   40       -4.871295     -4.177529   1.000000   1.016026
   41       -4.829815     -4.103200   1.000000   1.032199
   42       -4.808866     -4.035341   1.000000   1.029479
   43       -4.779942     -3.967178   1.000000   0.962632
   44       -4.751450     -3.935752   1.000000   0.896743
   45       -4.726963     -3.910602   1.000000   0.826241
   46       -4.713876     -3.823257   1.000000   0.490170
   47       -4.660404     -3.795420   1.000000   0.373976
   48       -4.639575     -3.755233   1.000000   0.221765
   49       -4.606951     -3.711568   1.000000   0.093872
   50       -4.575087     -3.693971   1.000001   0.055636
   51       -4.566756     -3.604188   1.000001  -0.032963
   52       -4.537016     -3.584631   1.000003  -0.035395
   53       -4.518305     -3.574234   1.000006  -0.035307
   54       -4.370727     -3.512054   1.000398  -0.024564
   55       -3.714611     -3.291994   0.101278  -0.000529
   56       -2.999958     -2.738073  -0.000000  -0.000000
   57       -2.850062     -2.596965  -0.000000  -0.000000
   58       -2.553111     -2.253269  -0.000000  -0.000000
   59       -2.193526     -1.930621  -0.000000  -0.000000
   60       -1.805563     -1.547376  -0.000000  -0.000000
   61       -1.561993     -1.360345  -0.000000  -0.000000
   62       -0.896585     -0.785305  -0.000000  -0.000000
   63       -0.754066     -0.659726  -0.000000  -0.000000
   64       -0.544673     -0.435805  -0.000000  -0.000000
   65       -0.299333     -0.212900  -0.000000  -0.000000
   66       -0.156604     -0.052439  -0.000000  -0.000000
