       N       E                     dE             d eps       ncg     rms          rms(c)
DAV:   1     0.626066416462E+03    0.62607E+03   -0.16657E+04   264   0.703E+02
DAV:   2     0.101212028861E+03   -0.52485E+03   -0.48578E+03   456   0.144E+02
DAV:   3    -0.303522369961E+02   -0.13156E+03   -0.12283E+03   320   0.135E+02
DAV:   4    -0.413615117760E+02   -0.11009E+02   -0.10204E+02   296   0.525E+01
DAV:   5    -0.416167943340E+02   -0.25528E+00   -0.24354E+00   326   0.617E+00    0.197E+01
DAV:   6    -0.430423355548E+02   -0.14255E+01   -0.51221E+01   296   0.915E+01    0.404E+01
DAV:   7    -0.406667853613E+02    0.23756E+01   -0.40383E+01   286   0.103E+02    0.321E+01
DAV:   8    -0.402323769678E+02    0.43441E+00   -0.22552E+01   286   0.758E+01    0.378E+01
DAV:   9    -0.381280743919E+02    0.21043E+01   -0.18619E+01   334   0.517E+01    0.342E+01
DAV:  10    -0.366675793875E+02    0.14605E+01   -0.80401E+00   364   0.370E+01    0.234E+01
DAV:  11    -0.372056798463E+02   -0.53810E+00   -0.87560E+00   326   0.439E+01    0.325E+01
DAV:  12    -0.369036911219E+02    0.30199E+00   -0.70980E+00   350   0.391E+01    0.281E+01
DAV:  13    -0.356733488168E+02    0.12303E+01   -0.51510E+00   310   0.340E+01    0.175E+01
DAV:  14    -0.353545157786E+02    0.31883E+00   -0.19559E+00   334   0.185E+01    0.116E+01
DAV:  15    -0.352261424800E+02    0.12837E+00   -0.11297E+00   332   0.132E+01    0.851E+00
DAV:  16    -0.352652695721E+02   -0.39127E-01   -0.74774E-01   324   0.119E+01    0.945E+00
DAV:  17    -0.351466364318E+02    0.11863E+00   -0.38906E-01   316   0.105E+01    0.409E+00
DAV:  18    -0.351292800368E+02    0.17356E-01   -0.18570E-01   350   0.618E+00    0.322E+00
DAV:  19    -0.352028403172E+02   -0.73560E-01   -0.87537E-02   322   0.367E+00    0.298E+00
DAV:  20    -0.352808536845E+02   -0.78013E-01   -0.16714E-01   302   0.664E+00    0.482E+00
DAV:  21    -0.353165607708E+02   -0.35707E-01   -0.17145E-01   274   0.709E+00    0.182E+00
DAV:  22    -0.354259011186E+02   -0.10934E+00   -0.50458E-02   308   0.298E+00    0.930E-01
DAV:  23    -0.355274148687E+02   -0.10151E+00   -0.21698E-02   318   0.149E+00    0.104E+00
DAV:  24    -0.355961976906E+02   -0.68783E-01   -0.98203E-03   282   0.139E+00    0.379E-01
DAV:  25    -0.356546334940E+02   -0.58436E-01   -0.41623E-03   302   0.469E-01    0.196E-01
DAV:  26    -0.357210470927E+02   -0.66414E-01   -0.33633E-03   282   0.336E-01    0.279E-01
DAV:  27    -0.357806074083E+02   -0.59560E-01   -0.29709E-03   290   0.404E-01    0.136E-01
DAV:  28    -0.358306841966E+02   -0.50077E-01   -0.23893E-03   266   0.218E-01    0.116E-01
DAV:  29    -0.358658043348E+02   -0.35120E-01   -0.13422E-03   252   0.258E-01    0.102E-01
DAV:  30    -0.358850461873E+02   -0.19242E-01   -0.49776E-04   236   0.165E-01    0.629E-02
DAV:  31    -0.359097455483E+02   -0.24699E-01   -0.75053E-04   236   0.112E-01    0.519E-02
DAV:  32    -0.359285572652E+02   -0.18812E-01   -0.60503E-04   254   0.831E-02    0.519E-02
DAV:  33    -0.359404830859E+02   -0.11926E-01   -0.34379E-04   228   0.860E-02    0.370E-02
DAV:  34    -0.359481009731E+02   -0.76179E-02   -0.24754E-04   220   0.737E-02    0.398E-02
DAV:  35    -0.359518396855E+02   -0.37387E-02   -0.10632E-04   198   0.720E-02    0.233E-02
DAV:  36    -0.359537760569E+02   -0.19364E-02   -0.71020E-05   180   0.432E-02    0.272E-02
DAV:  37    -0.359556536296E+02   -0.18776E-02   -0.77002E-05   190   0.479E-02    0.131E-02
DAV:  38    -0.359568671392E+02   -0.12135E-02   -0.62086E-05   178   0.312E-02    0.159E-02
DAV:  39    -0.359579071600E+02   -0.10400E-02   -0.61087E-05   182   0.279E-02    0.100E-02
DAV:  40    -0.359585989946E+02   -0.69183E-03   -0.37365E-05   172   0.239E-02    0.121E-02
DAV:  41    -0.359590591064E+02   -0.46011E-03   -0.31535E-05   182   0.205E-02    0.677E-03
DAV:  42    -0.359593074971E+02   -0.24839E-03   -0.20633E-05   176   0.142E-02    0.522E-03
DAV:  43    -0.359594486844E+02   -0.14119E-03   -0.11425E-05   180   0.117E-02    0.540E-03
DAV:  44    -0.359595147416E+02   -0.66057E-04   -0.56137E-06   166   0.892E-03
   1 F= -.35959515E+02 E0= -.35942374E+02  d E =-.359595E+02  mag=     8.4011
       N       E                     dE             d eps       ncg     rms          rms(c)
DAV:   1    -0.361485398141E+02   -0.18909E+00   -0.10523E+02   264   0.403E+01    0.356E+00
DAV:   2    -0.370358078052E+02   -0.88727E+00   -0.35724E+00   380   0.277E+01    0.183E+01
DAV:   3    -0.362170507208E+02    0.81876E+00   -0.37566E+00   292   0.260E+01    0.550E+00
DAV:   4    -0.364486495980E+02   -0.23160E+00   -0.10885E+00   358   0.158E+01    0.107E+01
DAV:   5    -0.362778134984E+02    0.17084E+00   -0.94112E-01   300   0.116E+01    0.390E+00
DAV:   6    -0.362818339909E+02   -0.40205E-02   -0.22036E-01   324   0.692E+00    0.280E+00
DAV:   7    -0.363091882192E+02   -0.27354E-01   -0.16258E-01   342   0.592E+00    0.398E+00
DAV:   8    -0.362808504702E+02    0.28338E-01   -0.78940E-02   300   0.521E+00    0.175E+00
DAV:   9    -0.362930177677E+02   -0.12167E-01   -0.47992E-02   324   0.394E+00    0.220E+00
DAV:  10    -0.362894776786E+02    0.35401E-02   -0.42356E-02   316   0.330E+00    0.185E+00
DAV:  11    -0.362887117637E+02    0.76591E-03   -0.28863E-02   302   0.340E+00    0.151E+00
DAV:  12    -0.362888676198E+02   -0.15586E-03   -0.15171E-02   338   0.216E+00    0.749E-01
DAV:  13    -0.362914959458E+02   -0.26283E-02   -0.56163E-03   284   0.152E+00    0.724E-01
DAV:  14    -0.362912439318E+02    0.25201E-03   -0.39703E-03   282   0.119E+00    0.213E-01
DAV:  15    -0.362927947570E+02   -0.15508E-02   -0.12067E-03   272   0.564E-01    0.319E-01
DAV:  16    -0.362926990148E+02    0.95742E-04   -0.76001E-04   240   0.481E-01
   2 F= -.36292699E+02 E0= -.36276760E+02  d E =-.333184E+00  mag=     8.3606
       N       E                     dE             d eps       ncg     rms          rms(c)
DAV:   1    -0.362915889753E+02    0.12058E-02   -0.33918E+01   264   0.225E+01    0.203E+00
DAV:   2    -0.365776638712E+02   -0.28607E+00   -0.12073E+00   404   0.162E+01    0.102E+01
DAV:   3    -0.362904247438E+02    0.28724E+00   -0.99065E-01   292   0.158E+01    0.248E+00
DAV:   4    -0.363835035146E+02   -0.93079E-01   -0.33445E-01   382   0.844E+00    0.518E+00
DAV:   5    -0.363246708689E+02    0.58833E-01   -0.18146E-01   300   0.668E+00    0.145E+00
DAV:   6    -0.363352166398E+02   -0.10546E-01   -0.38534E-02   340   0.351E+00    0.114E+00
DAV:   7    -0.363394193585E+02   -0.42027E-02   -0.26951E-02   332   0.277E+00    0.153E+00
DAV:   8    -0.363389110548E+02    0.50830E-03   -0.31090E-02   310   0.278E+00    0.163E+00
DAV:   9    -0.363418014379E+02   -0.28904E-02   -0.31375E-02   342   0.290E+00    0.180E+00
DAV:  10    -0.363350339874E+02    0.67675E-02   -0.21425E-02   292   0.249E+00    0.746E-01
DAV:  11    -0.363386240334E+02   -0.35900E-02   -0.86687E-03   382   0.159E+00    0.892E-01
DAV:  12    -0.363377943513E+02    0.82968E-03   -0.48947E-03   300   0.128E+00    0.416E-01
DAV:  13    -0.363386006011E+02   -0.80625E-03   -0.14154E-03   274   0.618E-01    0.340E-01
DAV:  14    -0.363392082578E+02   -0.60766E-03   -0.10397E-03   234   0.491E-01    0.101E-01
DAV:  15    -0.363397975014E+02   -0.58924E-03   -0.23999E-04   164   0.264E-01    0.135E-01
DAV:  16    -0.363400891567E+02   -0.29166E-03   -0.15549E-04   174   0.230E-01    0.399E-02
DAV:  17    -0.363405479196E+02   -0.45876E-03   -0.47289E-05   170   0.115E-01    0.590E-02
DAV:  18    -0.363408270037E+02   -0.27908E-03   -0.38479E-05   164   0.113E-01    0.248E-02
DAV:  19    -0.363413268321E+02   -0.49983E-03   -0.18948E-05   172   0.357E-02    0.134E-02
DAV:  20    -0.363416219638E+02   -0.29513E-03   -0.10393E-05   164   0.216E-02    0.111E-02
DAV:  21    -0.363419452123E+02   -0.32325E-03   -0.65704E-06   174   0.179E-02    0.871E-03
DAV:  22    -0.363425501542E+02   -0.60494E-03   -0.10750E-05   178   0.128E-02    0.894E-03
DAV:  23    -0.363429876734E+02   -0.43752E-03   -0.84785E-06   176   0.129E-02    0.646E-03
DAV:  24    -0.363434919035E+02   -0.50423E-03   -0.11358E-05   180   0.101E-02    0.532E-03
DAV:  25    -0.363439857529E+02   -0.49385E-03   -0.13614E-05   184   0.927E-03    0.424E-03
DAV:  26    -0.363442515358E+02   -0.26578E-03   -0.60985E-06   184   0.912E-03    0.302E-03
DAV:  27    -0.363445838798E+02   -0.33234E-03   -0.10590E-05   184   0.823E-03    0.296E-03
DAV:  28    -0.363447850751E+02   -0.20120E-03   -0.74889E-06   184   0.836E-03    0.265E-03
DAV:  29    -0.363448722074E+02   -0.87132E-04   -0.37150E-06   168   0.759E-03
   3 F= -.36344872E+02 E0= -.36330330E+02  d E =-.385357E+00  mag=     8.2682
       N       E                     dE             d eps       ncg     rms          rms(c)
DAV:   1    -0.363450205824E+02   -0.23551E-03   -0.49665E-01   264   0.271E+00    0.241E-01
DAV:   2    -0.363481588989E+02   -0.31383E-02   -0.16828E-02   440   0.186E+00    0.122E+00
DAV:   3    -0.363435188846E+02    0.46400E-02   -0.12429E-02   294   0.190E+00    0.294E-01
DAV:   4    -0.363461839959E+02   -0.26651E-02   -0.39497E-03   380   0.100E+00    0.664E-01
DAV:   5    -0.363450376339E+02    0.11464E-02   -0.18245E-03   300   0.814E-01    0.246E-01
DAV:   6    -0.363454598415E+02   -0.42221E-03   -0.53164E-04   222   0.450E-01    0.133E-01
DAV:   7    -0.363457840527E+02   -0.32421E-03   -0.91597E-04   198   0.422E-01    0.299E-01
DAV:   8    -0.363456543854E+02    0.12967E-03   -0.69680E-04   216   0.444E-01    0.195E-01
DAV:   9    -0.363456914160E+02   -0.37031E-04   -0.33272E-04   176   0.359E-01
   4 F= -.36345691E+02 E0= -.36331185E+02  d E =-.386177E+00  mag=     8.2689
       N       E                     dE             d eps       ncg     rms          rms(c)
DAV:   1    -0.363520867772E+02   -0.64324E-02   -0.31337E+00   264   0.680E+00    0.690E-01
DAV:   2    -0.363992786632E+02   -0.47192E-01   -0.16676E-01   366   0.665E+00    0.456E+00
DAV:   3    -0.363423382678E+02    0.56940E-01   -0.15534E-01   294   0.624E+00    0.925E-01
DAV:   4    -0.363578926985E+02   -0.15554E-01   -0.36165E-02   396   0.289E+00    0.143E+00
DAV:   5    -0.363550016401E+02    0.28911E-02   -0.17436E-02   308   0.213E+00    0.776E-01
DAV:   6    -0.363547889048E+02    0.21274E-03   -0.52856E-03   312   0.130E+00    0.362E-01
DAV:   7    -0.363555288396E+02   -0.73993E-03   -0.24974E-03   376   0.763E-01    0.408E-01
DAV:   8    -0.363555370907E+02   -0.82511E-05   -0.15558E-03   296   0.718E-01    0.363E-01
DAV:   9    -0.363553451272E+02    0.19196E-03   -0.90054E-04   240   0.528E-01    0.268E-01
DAV:  10    -0.363552895185E+02    0.55609E-04   -0.67113E-04   224   0.414E-01
   5 F= -.36355290E+02 E0= -.36340939E+02  d E =-.959810E-02  mag=     8.2575
       N       E                     dE             d eps       ncg     rms          rms(c)
DAV:   1    -0.363413925023E+02    0.13953E-01   -0.17043E+01   264   0.159E+01    0.157E+00
DAV:   2    -0.365665228206E+02   -0.22513E+00   -0.78512E-01   366   0.145E+01    0.968E+00
DAV:   3    -0.363254435921E+02    0.24108E+00   -0.77973E-01   294   0.136E+01    0.226E+00
DAV:   4    -0.363775409518E+02   -0.52097E-01   -0.19073E-01   380   0.678E+00    0.325E+00
DAV:   5    -0.363616453354E+02    0.15896E-01   -0.11445E-01   332   0.498E+00    0.183E+00
DAV:   6    -0.363575420375E+02    0.41033E-02   -0.29352E-02   310   0.305E+00    0.731E-01
DAV:   7    -0.363622684744E+02   -0.47264E-02   -0.14151E-02   374   0.197E+00    0.127E+00
DAV:   8    -0.363591087783E+02    0.31597E-02   -0.92630E-03   318   0.175E+00    0.689E-01
DAV:   9    -0.363599472419E+02   -0.83846E-03   -0.52563E-03   318   0.126E+00    0.623E-01
DAV:  10    -0.363596722313E+02    0.27501E-03   -0.34943E-03   316   0.953E-01    0.516E-01
DAV:  11    -0.363594655163E+02    0.20672E-03   -0.31300E-03   304   0.979E-01    0.336E-01
DAV:  12    -0.363601766134E+02   -0.71110E-03   -0.13964E-03   276   0.501E-01    0.216E-01
DAV:  13    -0.363603420382E+02   -0.16542E-03   -0.43230E-04   192   0.407E-01    0.176E-01
DAV:  14    -0.363607862209E+02   -0.44418E-03   -0.26395E-04   172   0.317E-01    0.834E-02
DAV:  15    -0.363611230438E+02   -0.33682E-03   -0.12282E-04   176   0.196E-01    0.103E-01
DAV:  16    -0.363615622523E+02   -0.43921E-03   -0.10643E-04   170   0.180E-01    0.253E-02
DAV:  17    -0.363621225456E+02   -0.56029E-03   -0.35197E-05   172   0.726E-02    0.402E-02
DAV:  18    -0.363624147478E+02   -0.29220E-03   -0.29657E-05   156   0.812E-02    0.229E-02
DAV:  19    -0.363632872913E+02   -0.87254E-03   -0.33201E-05   180   0.367E-02    0.124E-02
DAV:  20    -0.363637944743E+02   -0.50718E-03   -0.18634E-05   174   0.186E-02    0.972E-03
DAV:  21    -0.363644577938E+02   -0.66332E-03   -0.14927E-05   180   0.151E-02    0.870E-03
DAV:  22    -0.363652227308E+02   -0.76494E-03   -0.18464E-05   190   0.152E-02    0.796E-03
DAV:  23    -0.363657887637E+02   -0.56603E-03   -0.11761E-05   184   0.133E-02    0.789E-03
DAV:  24    -0.363663407298E+02   -0.55197E-03   -0.12313E-05   184   0.121E-02    0.465E-03
DAV:  25    -0.363669834575E+02   -0.64273E-03   -0.18287E-05   190   0.998E-03    0.423E-03
DAV:  26    -0.363674054763E+02   -0.42202E-03   -0.10936E-05   184   0.107E-02    0.404E-03
DAV:  27    -0.363677744548E+02   -0.36898E-03   -0.13680E-05   192   0.112E-02    0.271E-03
DAV:  28    -0.363678803280E+02   -0.10587E-03   -0.50489E-06   176   0.849E-03    0.175E-03
DAV:  29    -0.363679611479E+02   -0.80820E-04   -0.32654E-06   184   0.549E-03
   6 F= -.36367961E+02 E0= -.36354673E+02  d E =-.222697E-01  mag=     8.1577
       N       E                     dE             d eps       ncg     rms          rms(c)
DAV:   1    -0.363686931772E+02   -0.81285E-03   -0.37717E+00   264   0.746E+00    0.865E-01
DAV:   2    -0.364618689417E+02   -0.93176E-01   -0.28640E-01   348   0.915E+00    0.669E+00
DAV:   3    -0.363500689939E+02    0.11180E+00   -0.31745E-01   300   0.848E+00    0.152E+00
DAV:   4    -0.363719414707E+02   -0.21872E-01   -0.43600E-02   380   0.325E+00    0.135E+00
DAV:   5    -0.363743763350E+02   -0.24349E-02   -0.19970E-02   308   0.235E+00    0.111E+00
DAV:   6    -0.363715245010E+02    0.28518E-02   -0.77362E-03   296   0.175E+00    0.338E-01
DAV:   7    -0.363729130574E+02   -0.13886E-02   -0.34523E-03   332   0.829E-01    0.447E-01
DAV:   8    -0.363731921853E+02   -0.27913E-03   -0.35902E-03   308   0.804E-01    0.404E-01
DAV:   9    -0.363731684881E+02    0.23697E-04   -0.14663E-03   284   0.706E-01    0.315E-01
DAV:  10    -0.363732365118E+02   -0.68024E-04   -0.67841E-04   244   0.486E-01
   7 F= -.36373237E+02 E0= -.36359762E+02  d E =-.527536E-02  mag=     8.1554
       N       E                     dE             d eps       ncg     rms          rms(c)
DAV:   1    -0.363725010208E+02    0.66747E-03   -0.14211E+00   264   0.460E+00    0.526E-01
DAV:   2    -0.364013538483E+02   -0.28853E-01   -0.86546E-02   340   0.540E+00    0.353E+00
DAV:   3    -0.363656427348E+02    0.35711E-01   -0.74813E-02   300   0.510E+00    0.773E-01
DAV:   4    -0.363745707894E+02   -0.89281E-02   -0.16165E-02   394   0.194E+00    0.976E-01
DAV:   5    -0.363740827901E+02    0.48800E-03   -0.71197E-03   298   0.147E+00    0.605E-01
DAV:   6    -0.363736823952E+02    0.40039E-03   -0.28802E-03   300   0.989E-01    0.178E-01
DAV:   7    -0.363742978393E+02   -0.61544E-03   -0.10415E-03   260   0.524E-01    0.282E-01
DAV:   8    -0.363743776455E+02   -0.79806E-04   -0.10841E-03   244   0.496E-01    0.249E-01
DAV:   9    -0.363744503315E+02   -0.72686E-04   -0.74411E-04   190   0.440E-01
   8 F= -.36374450E+02 E0= -.36360872E+02  d E =-.648918E-02  mag=     8.1531
       N       E                     dE             d eps       ncg     rms          rms(c)
DAV:   1    -0.363718692665E+02    0.25084E-02   -0.38430E+00   264   0.758E+00    0.779E-01
DAV:   2    -0.364266844758E+02   -0.54815E-01   -0.17013E-01   356   0.747E+00    0.477E+00
DAV:   3    -0.363615358174E+02    0.65149E-01   -0.15833E-01   284   0.722E+00    0.697E-01
DAV:   4    -0.363823622377E+02   -0.20826E-01   -0.34763E-02   412   0.296E+00    0.179E+00
DAV:   5    -0.363754822711E+02    0.68800E-02   -0.20912E-02   300   0.245E+00    0.746E-01
DAV:   6    -0.363762204639E+02   -0.73819E-03   -0.55903E-03   346   0.119E+00    0.356E-01
DAV:   7    -0.363772797572E+02   -0.10593E-02   -0.25196E-03   326   0.879E-01    0.466E-01
DAV:   8    -0.363774416434E+02   -0.16189E-03   -0.30772E-03   308   0.891E-01    0.433E-01
DAV:   9    -0.363776084813E+02   -0.16684E-03   -0.18798E-03   300   0.697E-01    0.449E-01
DAV:  10    -0.363774914114E+02    0.11707E-03   -0.20703E-03   292   0.739E-01    0.378E-01
DAV:  11    -0.363774249905E+02    0.66421E-04   -0.11006E-03   234   0.531E-01    0.124E-01
DAV:  12    -0.363777758016E+02   -0.35081E-03   -0.20322E-04   190   0.237E-01    0.146E-01
DAV:  13    -0.363777407684E+02    0.35033E-04   -0.14623E-04   158   0.228E-01
   9 F= -.36377741E+02 E0= -.36365192E+02  d E =-.329044E-02  mag=     8.1511
       N       E                     dE             d eps       ncg     rms          rms(c)
DAV:   1    -0.363775422719E+02    0.23353E-03   -0.16539E-01   266   0.157E+00    0.179E-01
DAV:   2    -0.363809284744E+02   -0.33862E-02   -0.11803E-02   332   0.188E+00    0.121E+00
DAV:   3    -0.363761757745E+02    0.47527E-02   -0.87390E-03   290   0.175E+00    0.132E-01
DAV:   4    -0.363778684283E+02   -0.16927E-02   -0.19777E-03   354   0.612E-01    0.376E-01
DAV:   5    -0.363775507929E+02    0.31764E-03   -0.10403E-03   226   0.516E-01    0.153E-01
DAV:   6    -0.363777255968E+02   -0.17480E-03   -0.19964E-04   162   0.248E-01    0.886E-02
DAV:   7    -0.363778323348E+02   -0.10674E-03   -0.14193E-04   176   0.205E-01    0.114E-01
DAV:   8    -0.363778525036E+02   -0.20169E-04   -0.10303E-04   164   0.182E-01
  10 F= -.36377853E+02 E0= -.36365430E+02  d E =-.340217E-02  mag=     8.1506
       N       E                     dE             d eps       ncg     rms          rms(c)
DAV:   1    -0.363759190442E+02    0.19133E-02   -0.30476E+00   264   0.672E+00    0.746E-01
DAV:   2    -0.364422701572E+02   -0.66351E-01   -0.22750E-01   356   0.776E+00    0.554E+00
DAV:   3    -0.363650146078E+02    0.77256E-01   -0.17049E-01   300   0.719E+00    0.143E+00
DAV:   4    -0.363782792121E+02   -0.13265E-01   -0.32562E-02   404   0.299E+00    0.976E-01
DAV:   5    -0.363804919769E+02   -0.22128E-02   -0.13655E-02   332   0.196E+00    0.900E-01
DAV:   6    -0.363785050018E+02    0.19870E-02   -0.65565E-03   300   0.144E+00    0.283E-01
DAV:   7    -0.363793908930E+02   -0.88589E-03   -0.18823E-03   332   0.760E-01    0.362E-01
DAV:   8    -0.363795683142E+02   -0.17742E-03   -0.16083E-03   284   0.695E-01    0.356E-01
DAV:   9    -0.363795235749E+02    0.44739E-04   -0.11473E-03   256   0.572E-01    0.329E-01
DAV:  10    -0.363795613997E+02   -0.37825E-04   -0.10619E-03   238   0.508E-01    0.290E-01
DAV:  11    -0.363794455216E+02    0.11588E-03   -0.58524E-04   198   0.446E-01    0.627E-02
DAV:  12    -0.363797349137E+02   -0.28939E-03   -0.13639E-04   188   0.179E-01    0.102E-01
DAV:  13    -0.363797309217E+02    0.39920E-05   -0.11212E-04   160   0.180E-01
  11 F= -.36379731E+02 E0= -.36368458E+02  d E =-.187842E-02  mag=     8.1559
       N       E                     dE             d eps       ncg     rms          rms(c)
DAV:   1    -0.363695193297E+02    0.10216E-01   -0.80138E+00   264   0.109E+01    0.125E+00
DAV:   2    -0.365545698405E+02   -0.18505E+00   -0.66900E-01   348   0.133E+01    0.877E+00
DAV:   3    -0.363519807109E+02    0.20259E+00   -0.49657E-01   292   0.119E+01    0.239E+00
DAV:   4    -0.363760888172E+02   -0.24108E-01   -0.93793E-02   396   0.488E+00    0.151E+00
DAV:   5    -0.363822010887E+02   -0.61123E-02   -0.35402E-02   332   0.311E+00    0.146E+00
DAV:   6    -0.363769699342E+02    0.52312E-02   -0.17817E-02   300   0.239E+00    0.428E-01
DAV:   7    -0.363790441133E+02   -0.20742E-02   -0.53607E-03   364   0.126E+00    0.630E-01
DAV:   8    -0.363787818761E+02    0.26224E-03   -0.33735E-03   292   0.110E+00    0.446E-01
DAV:   9    -0.363790955664E+02   -0.31369E-03   -0.23365E-03   306   0.928E-01    0.506E-01
DAV:  10    -0.363789525394E+02    0.14303E-03   -0.25000E-03   316   0.793E-01    0.439E-01
DAV:  11    -0.363786983575E+02    0.25418E-03   -0.14626E-03   276   0.653E-01    0.136E-01
DAV:  12    -0.363791750907E+02   -0.47673E-03   -0.44392E-04   180   0.346E-01    0.189E-01
DAV:  13    -0.363791405933E+02    0.34497E-04   -0.28525E-04   176   0.304E-01
  12 F= -.36379141E+02 E0= -.36369864E+02  d E =-.128809E-02  mag=     8.1688
       N       E                     dE             d eps       ncg     rms          rms(c)
DAV:   1    -0.363774884839E+02    0.16866E-02   -0.26759E+00   264   0.629E+00    0.801E-01
DAV:   2    -0.364654655742E+02   -0.87977E-01   -0.28717E-01   356   0.896E+00    0.620E+00
DAV:   3    -0.363634902603E+02    0.10198E+00   -0.18451E-01   300   0.805E+00    0.147E+00
DAV:   4    -0.363775718204E+02   -0.14082E-01   -0.35804E-02   394   0.290E+00    0.788E-01
DAV:   5    -0.363812046019E+02   -0.36328E-02   -0.10219E-02   316   0.177E+00    0.869E-01
DAV:   6    -0.363793458363E+02    0.18588E-02   -0.52273E-03   300   0.139E+00    0.280E-01
DAV:   7    -0.363800516307E+02   -0.70579E-03   -0.16681E-03   308   0.740E-01    0.347E-01
DAV:   8    -0.363802133205E+02   -0.16169E-03   -0.15713E-03   282   0.662E-01    0.322E-01
DAV:   9    -0.363803301473E+02   -0.11683E-03   -0.89624E-04   250   0.527E-01    0.343E-01
DAV:  10    -0.363802539448E+02    0.76202E-04   -0.90446E-04   228   0.510E-01
  13 F= -.36380254E+02 E0= -.36371972E+02  d E =-.111335E-02  mag=     8.1788
       N       E                     dE             d eps       ncg     rms          rms(c)
DAV:   1    -0.363801305502E+02    0.19960E-03   -0.25582E-01   266   0.199E+00    0.253E-01
DAV:   2    -0.363878048399E+02   -0.76743E-02   -0.20875E-02   348   0.278E+00    0.180E+00
DAV:   3    -0.363782380626E+02    0.95668E-02   -0.14571E-02   290   0.253E+00    0.350E-01
DAV:   4    -0.363802810113E+02   -0.20429E-02   -0.33689E-03   370   0.861E-01    0.337E-01
DAV:   5    -0.363805286370E+02   -0.24763E-03   -0.10288E-03   284   0.592E-01    0.252E-01
DAV:   6    -0.363804555963E+02    0.73041E-04   -0.41374E-04   172   0.402E-01
  14 F= -.36380456E+02 E0= -.36372450E+02  d E =-.131500E-02  mag=     8.1835
       N       E                     dE             d eps       ncg     rms          rms(c)
DAV:   1    -0.363811843076E+02   -0.65567E-03   -0.51704E-01   264   0.276E+00    0.308E-01
DAV:   2    -0.363915295727E+02   -0.10345E-01   -0.33700E-02   356   0.318E+00    0.208E+00
DAV:   3    -0.363783414250E+02    0.13188E-01   -0.24710E-02   298   0.297E+00    0.297E-01
DAV:   4    -0.363822662516E+02   -0.39248E-02   -0.60043E-03   370   0.117E+00    0.612E-01
DAV:   5    -0.363816773541E+02    0.58890E-03   -0.28695E-03   306   0.891E-01    0.200E-01
DAV:   6    -0.363819775209E+02   -0.30017E-03   -0.39947E-04   194   0.359E-01    0.161E-01
DAV:   7    -0.363822158510E+02   -0.23833E-03   -0.39679E-04   162   0.370E-01    0.188E-01
DAV:   8    -0.363822465224E+02   -0.30671E-04   -0.25668E-04   174   0.283E-01
  15 F= -.36382247E+02 E0= -.36374335E+02  d E =-.179093E-02  mag=     8.1900
       N       E                     dE             d eps       ncg     rms          rms(c)
DAV:   1    -0.363824745376E+02   -0.25869E-03   -0.17202E-02   278   0.581E-01    0.185E-01
DAV:   2    -0.363896027365E+02   -0.71282E-02   -0.24634E-02   350   0.236E+00    0.184E+00
DAV:   3    -0.363799391755E+02    0.96636E-02   -0.21240E-02   332   0.221E+00    0.246E-01
DAV:   4    -0.363822379643E+02   -0.22988E-02   -0.75460E-04   282   0.454E-01    0.630E-02
DAV:   5    -0.363826593770E+02   -0.42141E-03   -0.17302E-04   178   0.252E-01    0.161E-01
DAV:   6    -0.363826213932E+02    0.37984E-04   -0.15309E-04   162   0.227E-01
  16 F= -.36382621E+02 E0= -.36374504E+02  d E =-.216580E-02  mag=     8.1930
