 vasp.6.1.2 22Jul20 (build Aug  2 2021 21:04:21) gamma-only                      
 executed on             LinuxPGI date 2021.12.25  16:56:38
 running on   16 total cores
 distrk:  each k-point on   16 cores,    1 groups
 distr:  one band on NCORE=   8 cores,    2 groups


--------------------------------------------------------------------------------------------------------


 INCAR:
 POTCAR:    PAW_PBE Ni 02Aug2007                  
 -----------------------------------------------------------------------------
|                                                                             |
|           W    W    AA    RRRRR   N    N  II  N    N   GGGG   !!!           |
|           W    W   A  A   R    R  NN   N  II  NN   N  G    G  !!!           |
|           W    W  A    A  R    R  N N  N  II  N N  N  G       !!!           |
|           W WW W  AAAAAA  RRRRR   N  N N  II  N  N N  G  GGG   !            |
|           WW  WW  A    A  R   R   N   NN  II  N   NN  G    G                |
|           W    W  A    A  R    R  N    N  II  N    N   GGGG   !!!           |
|                                                                             |
|     You use a magnetic or noncollinear calculation, but did not specify     |
|     the initial magnetic moment with the MAGMOM tag. Note that a            |
|     default of 1 will be used for all atoms. This ferromagnetic setup       |
|     may break the symmetry of the crystal, in particular it may rule        |
|     out finding an antiferromagnetic solution. Thence, we recommend         |
|     setting the initial magnetic moment manually or verifying carefully     |
|     that this magnetic setup is desired.                                    |
|                                                                             |
 -----------------------------------------------------------------------------

 POTCAR:    PAW_PBE Ni 02Aug2007                  
   SHA256 =  0534bc51ca8003dfef23f56753fef9fdd3e22eac8d719fccacb59f3e6b7a69c7 Ni/POTCAR             
   COPYR  = (c) Copyright 02Aug2007 Georg Kresse                                                    
   COPYR  = This file is part of the software VASP. Any use, copying, and all other rights are regul
   COPYR  = If you do not have a valid VASP license, you may not use, copy or distribute this file. 
   VRHFIN =Ni:                                                                                      
   LEXCH  = PE                                                                                      
   EATOM  =  1077.6739 eV,   79.2068 Ry                                                             
                                                                                                    
   TITEL  = PAW_PBE Ni 02Aug2007                                                                    
   LULTRA =        F    use ultrasoft PP ?                                                          
   IUNSCR =        1    unscreen: 0-lin 1-nonlin 2-no                                               
   RPACOR =    2.000    partial core radius                                                         
   POMASS =   58.690; ZVAL   =   10.000    mass and valenz                                          
   RCORE  =    2.300    outmost cutoff radius                                                       
   RWIGS  =    2.430; RWIGS  =    1.286    wigner-seitz radius (au A)                               
   ENMAX  =  269.532; ENMIN  =  202.149 eV                                                          
   RCLOC  =    1.201    cutoff for local pot                                                        
   LCOR   =        T    correct aug charges                                                         
   LPAW   =        T    paw PP                                                                      
   EAUG   =  544.565                                                                                
   DEXC   =    0.000                                                                                
   RMAX   =    2.357    core radius for proj-oper                                                   
   RAUG   =    1.300    factor for augmentation sphere                                              
   RDEP   =    2.390    radius for radial grids                                                     
   RDEPT  =    1.838    core radius for aug-charge                                                  
                                                                                                    
   Atomic configuration                                                                             
    9 entries                                                                                       
     n  l   j            E        occ.                                                              
     1  0  0.50     -8206.4253   2.0000                                                             
     2  0  0.50      -976.1748   2.0000                                                             
     2  1  1.50      -839.0571   6.0000                                                             
     3  0  0.50      -105.9991   2.0000                                                             
     3  1  1.50       -66.4603   6.0000                                                             
     3  2  2.50        -4.6458   9.0000                                                             
     4  0  0.50        -4.4926   1.0000                                                             
     4  1  1.50        -4.0817   0.0000                                                             
     4  3  2.50        -1.3606   0.0000                                                             
   Description                                                                                      
     l       E           TYP  RCUT    TYP  RCUT                                                     
     2     -4.6457903     23  2.300                                                                 
     2     -6.0063729     23  2.300                                                                 
     0     -4.4925590     23  2.300                                                                 
     0      5.0102601     23  2.300                                                                 
     1     -2.7211652     23  2.300                                                                 
     1     16.5183231     23  2.300                                                                 
  local pseudopotential read in
  partial core-charges read in
  partial kinetic energy density read in
  atomic valenz-charges read in
  non local Contribution for L=            2  read in
    real space projection operators read in
  non local Contribution for L=            2  read in
    real space projection operators read in
  non local Contribution for L=            0  read in
    real space projection operators read in
  non local Contribution for L=            0  read in
    real space projection operators read in
  non local Contribution for L=            1  read in
    real space projection operators read in
  non local Contribution for L=            1  read in
    real space projection operators read in
    PAW grid and wavefunctions read in
 
   number of l-projection  operators is LMAX  =            6
   number of lm-projection operators is LMMAX =           18
 
  PAW_PBE Ni 02Aug2007                  :
 energy of atom  1       EATOM=-1077.6739
 kinetic energy error for atom=    0.0101 (will be added to EATOM!!)
 
 
 POSCAR: Ni
  positions in cartesian coordinates
  No initial velocities read in
 exchange correlation table for  LEXCH =        8
   RHO(1)=    0.500       N(1)  =     2000
   RHO(2)=  100.500       N(2)  =     4000
 


--------------------------------------------------------------------------------------------------------


 ion  position               nearest neighbor table
   1  0.469  0.474  0.426-   3 2.38   4 2.41   2 2.42   6 2.44   5 2.45   9 2.47
   2  0.579  0.472  0.404-   8 2.41   6 2.41   4 2.42   1 2.42
   3  0.418  0.570  0.435-   9 2.38   1 2.38   6 2.42
   4  0.538  0.414  0.486-   7 2.41   1 2.41   8 2.41   2 2.42   5 2.42   9 3.04
   5  0.433  0.434  0.520-  10 2.39   4 2.42   9 2.43   1 2.45   7 2.49
   6  0.530  0.568  0.426-   2 2.41   3 2.42   1 2.44   9 2.45   8 2.46
   7  0.526  0.460  0.580-  10 2.39   4 2.41   9 2.44   8 2.48   5 2.49
   8  0.586  0.512  0.502-   9 2.40   2 2.41   4 2.41   6 2.46   7 2.48
   9  0.478  0.535  0.516-   3 2.38   8 2.40  10 2.40   5 2.43   7 2.44   6 2.45   1 2.47   4 3.04

  10  0.425  0.501  0.602-   7 2.39   5 2.39   9 2.40
 

IMPORTANT INFORMATION: All symmetrisations will be switched off!
NOSYMM: (Re-)initialisation of all symmetry stuff for point group C_1.


----------------------------------------------------------------------------------------

                                     Primitive cell                                     

  volume of cell :   10834.4408

  direct lattice vectors                    reciprocal lattice vectors
    21.517572105  0.000000000  0.000000000     0.046473645  0.000000000  0.000000000
     0.000000000 22.011425243  0.000000000     0.000000000  0.045430952  0.000000000
     0.000000000  0.000000000 22.875209048     0.000000000  0.000000000  0.043715447

  length of vectors
    21.517572105 22.011425243 22.875209048     0.046473645  0.045430952  0.043715447

  position of ions in fractional coordinates (direct lattice)
     0.468882761  0.474120247  0.425645289
     0.579182401  0.472363910  0.404324877
     0.417701118  0.569724144  0.435085376
     0.537986294  0.414417342  0.485612026
     0.433382073  0.434351690  0.519908537
     0.529570896  0.567935494  0.425662584
     0.525767912  0.460480646  0.580265145
     0.586180718  0.511952888  0.502152697
     0.478277927  0.535350798  0.515791507
     0.425475667  0.500693369  0.602231251

  ion indices of the primitive-cell ions
   primitive index   ion index
                 1           1
                 2           2
                 3           3
                 4           4
                 5           5
                 6           6
                 7           7
                 8           8
                 9           9
                10          10

----------------------------------------------------------------------------------------

 
 
 KPOINTS: KPOINTS created by Atomic Simulation Env

Automatic generation of k-mesh.
Space group operators:
 irot       det(A)        alpha          n_x          n_y          n_z        tau_x        tau_y        tau_z
    1     1.000000     0.000000     1.000000     0.000000     0.000000     0.000000     0.000000     0.000000
 
 Subroutine IBZKPT returns following result:
 ===========================================
 
 Found      1 irreducible k-points:
 
 Following reciprocal coordinates:
            Coordinates               Weight
  0.000000  0.000000  0.000000      1.000000
 
 Following cartesian coordinates:
            Coordinates               Weight
  0.000000  0.000000  0.000000      1.000000
 


--------------------------------------------------------------------------------------------------------




 Dimension of arrays:
   k-points           NKPTS =      1   k-points in BZ     NKDIM =      1   number of bands    NBANDS=     66
   number of dos      NEDOS =    301   number of ions     NIONS =     10
   non local maximal  LDIM  =      6   non local SUM 2l+1 LMDIM =     18
   total plane-waves  NPLWV = ******
   max r-space proj   IRMAX =      1   max aug-charges    IRDMAX=   4107
   dimension x,y,z NGX =   108 NGY =  108 NGZ =  112
   dimension x,y,z NGXF=   216 NGYF=  216 NGZF=  224
   support grid    NGXF=   216 NGYF=  216 NGZF=  224
   ions per type =              10
   NGX,Y,Z   is equivalent  to a cutoff of   8.34,  8.16,  8.14 a.u.
   NGXF,Y,Z  is equivalent  to a cutoff of  16.69, 16.31, 16.28 a.u.

 SYSTEM =  unknown system                          
 POSCAR =  Ni                                      

 Startparameter for this run:
   NWRITE =      2    write-flag & timer
   PREC   = normal    normal or accurate (medium, high low for compatibility)
   ISTART =      0    job   : 0-new  1-cont  2-samecut
   ICHARG =      2    charge: 1-file 2-atom 10-const
   ISPIN  =      2    spin polarized calculation?
   LNONCOLLINEAR =      F non collinear calculations
   LSORBIT =      F    spin-orbit coupling
   INIWAV =      1    electr: 0-lowe 1-rand  2-diag
   LASPH  =      F    aspherical Exc in radial PAW
   METAGGA=      F    non-selfconsistent MetaGGA calc.

 Electronic Relaxation 1
   ENCUT  =  400.0 eV  29.40 Ry    5.42 a.u.  35.09 35.90 37.30*2*pi/ulx,y,z
   ENINI  =  400.0     initial cutoff
   ENAUG  =  544.6 eV  augmentation charge cutoff
   NELM   =     60;   NELMIN=  2; NELMDL=  0     # of ELM steps 
   EDIFF  = 0.1E-03   stopping-criterion for ELM
   LREAL  =      F    real-space projection
   NLSPLINE    = F    spline interpolate recip. space projectors
   LCOMPAT=      F    compatible to vasp.4.4
   GGA_COMPAT  = T    GGA compatible to vasp.4.4-vasp.4.6
   LMAXPAW     = -100 max onsite density
   LMAXMIX     =    2 max onsite mixed and CHGCAR
   VOSKOWN=      0    Vosko Wilk Nusair interpolation
   ROPT   =    0.00000
 Ionic relaxation
   EDIFFG = 0.1E-02   stopping-criterion for IOM
   NSW    =   1000    number of steps for IOM
   NBLOCK =      1;   KBLOCK =   1000    inner block; outer block 
   IBRION =      2    ionic relax: 0-MD 1-quasi-New 2-CG
   NFREE  =      1    steps in history (QN), initial steepest desc. (CG)
   ISIF   =      0    stress and relaxation
   IWAVPR =     11    prediction:  0-non 1-charg 2-wave 3-comb
   ISYM   =      0    0-nonsym 1-usesym 2-fastsym
   LCORR  =      T    Harris-Foulkes like correction to forces

   POTIM  = 0.5000    time-step for ionic-motion
   TEIN   =    0.0    initial temperature
   TEBEG  =    0.0;   TEEND  =   0.0 temperature during run
   SMASS  =  -3.00    Nose mass-parameter (am)
   estimated Nose-frequenzy (Omega)   =  0.10E-29 period in steps = 0.13E+47 mass=  -0.106E-25a.u.
   SCALEE = 1.0000    scale energy and forces
   NPACO  =    256;   APACO  = 16.0  distance and # of slots for P.C.
   PSTRESS=    0.0 pullay stress

  Mass of Ions in am
   POMASS =  58.69
  Ionic Valenz
   ZVAL   =  10.00
  Atomic Wigner-Seitz radii
   RWIGS  =  -1.00
  virtual crystal weights 
   VCA    =   1.00
   NELECT =     100.0000    total number of electrons
   NUPDOWN=      -1.0000    fix difference up-down

 DOS related values:
   EMIN   =  10.00;   EMAX   =-10.00  energy-range for DOS
   EFERMI =   0.00
   ISMEAR =     1;   SIGMA  =   0.20  broadening in eV -4-tet -1-fermi 0-gaus

 Electronic relaxation 2 (details)
   IALGO  =     38    algorithm
   LDIAG  =      T    sub-space diagonalisation (order eigenvalues)
   LSUBROT=      F    optimize rotation matrix (better conditioning)
   TURBO    =      0    0=normal 1=particle mesh
   IRESTART =      0    0=no restart 2=restart with 2 vectors
   NREBOOT  =      0    no. of reboots
   NMIN     =      0    reboot dimension
   EREF     =   0.00    reference energy to select bands
   IMIX   =      4    mixing-type and parameters
     AMIX     =   0.40;   BMIX     =  1.00
     AMIX_MAG =   1.60;   BMIX_MAG =  1.00
     AMIN     =   0.10
     WC   =   100.;   INIMIX=   1;  MIXPRE=   1;  MAXMIX= -45

 Intra band minimization:
   WEIMIN = 0.0010     energy-eigenvalue tresh-hold
   EBREAK =  0.38E-06  absolut break condition
   DEPER  =   0.30     relativ break condition  

   TIME   =   0.40     timestep for ELM

  volume/ion in A,a.u.               =    1083.44      7311.44
  Fermi-wavevector in a.u.,A,eV,Ry     =   0.343405  0.648940  1.604490  0.117927
  Thomas-Fermi vector in A             =   1.249559
 
 Write flags
   LWAVE        =      F    write WAVECAR
   LDOWNSAMPLE  =      F    k-point downsampling of WAVECAR
   LCHARG       =      F    write CHGCAR
   LVTOT        =      F    write LOCPOT, total local potential
   LVHAR        =      F    write LOCPOT, Hartree potential only
   LELF         =      F    write electronic localiz. function (ELF)
   LORBIT       =      0    0 simple, 1 ext, 2 COOP (PROOUT), +10 PAW based schemes


 Dipole corrections
   LMONO  =      F    monopole corrections only (constant potential shift)
   LDIPOL =      F    correct potential (dipole corrections)
   IDIPOL =      0    1-x, 2-y, 3-z, 4-all directions 
   EPSILON=  1.0000000 bulk dielectric constant

 Exchange correlation treatment:
   GGA     =    PE    GGA type
   LEXCH   =     8    internal setting for exchange type
   VOSKOWN=      0    Vosko Wilk Nusair interpolation
   LHFCALC =     F    Hartree Fock is set to
   LHFONE  =     F    Hartree Fock one center treatment
   AEXX    =    0.0000 exact exchange contribution

 Linear response parameters
   LEPSILON=     F    determine dielectric tensor
   LRPA    =     F    only Hartree local field effects (RPA)
   LNABLA  =     F    use nabla operator in PAW spheres
   LVEL    =     F    velocity operator in full k-point grid
   LINTERFAST=   F  fast interpolation
   KINTER  =     0    interpolate to denser k-point grid
   CSHIFT  =0.1000    complex shift for real part using Kramers Kronig
   OMEGAMAX=  -1.0    maximum frequency
   DEG_THRESHOLD= 0.2000000E-02 threshold for treating states as degnerate
   RTIME   =   -0.100 relaxation time in fs
  (WPLASMAI=    0.000 imaginary part of plasma frequency in eV, 0.658/RTIME)
   DFIELD  = 0.0000000 0.0000000 0.0000000 field for delta impulse in time
 
 Orbital magnetization related:
   ORBITALMAG=     F  switch on orbital magnetization
   LCHIMAG   =     F  perturbation theory with respect to B field
   DQ        =  0.001000  dq finite difference perturbation B field
   LLRAUG    =     F  two centre corrections for induced B field



--------------------------------------------------------------------------------------------------------


 conjugate gradient relaxation of ions
 charge density and potential will be updated during run
 spin polarized calculation
 Variant of blocked Davidson
 Davidson routine will perform the subspace rotation
 perform sub-space diagonalisation
    after iterative eigenvector-optimisation
 modified Broyden-mixing scheme, WC =      100.0
 initial mixing is a Kerker type mixing with AMIX =  0.4000 and BMIX =      1.0000
 Hartree-type preconditioning will be used
 using additional bands            16
 reciprocal scheme for non local part
 use partial core corrections
 calculate Harris-corrections to forces 
   (improved forces if not selfconsistent)
 use gradient corrections 
 use of overlap-Matrix (Vanderbilt PP)
 Methfessel and Paxton  Order N= 1 SIGMA  =   0.20


--------------------------------------------------------------------------------------------------------


  energy-cutoff  :      400.00
  volume of cell :    10834.44
      direct lattice vectors                 reciprocal lattice vectors
    21.517572105  0.000000000  0.000000000     0.046473645  0.000000000  0.000000000
     0.000000000 22.011425243  0.000000000     0.000000000  0.045430952  0.000000000
     0.000000000  0.000000000 22.875209048     0.000000000  0.000000000  0.043715447

  length of vectors
    21.517572105 22.011425243 22.875209048     0.046473645  0.045430952  0.043715447


 
 k-points in units of 2pi/SCALE and weight: KPOINTS created by Atomic Simulation Env
   0.00000000  0.00000000  0.00000000       1.000
 
 k-points in reciprocal lattice and weights: KPOINTS created by Atomic Simulation Env
   0.00000000  0.00000000  0.00000000       1.000
 
 position of ions in fractional coordinates (direct lattice) 
   0.46888276  0.47412025  0.42564529
   0.57918240  0.47236391  0.40432488
   0.41770112  0.56972414  0.43508538
   0.53798629  0.41441734  0.48561203
   0.43338207  0.43435169  0.51990854
   0.52957090  0.56793549  0.42566258
   0.52576791  0.46048065  0.58026514
   0.58618072  0.51195289  0.50215270
   0.47827793  0.53535080  0.51579151
   0.42547567  0.50069337  0.60223125
 
 position of ions in cartesian coordinates  (Angst):
  10.08921862 10.43606238  9.73672497
  12.46259908 10.39740288  9.24901608
   8.98791392 12.54044041  9.95266892
  11.57615888  9.12191634 11.10847660
   9.32533000  9.56069975 11.89301648
  11.39507994 12.50106967  9.73712059
  11.31324895 10.13583533 13.27368649
  12.61318587 11.26881271 11.48684792
  10.29137977 11.78383407 11.79883856
   9.15520335 11.02097466 13.77616575
 


--------------------------------------------------------------------------------------------------------


 use parallel FFT for orbitals z direction half grid
 k-point   1 :   0.0000 0.0000 0.0000  plane waves:   98388

 maximum and minimum number of plane-waves per node :     12308    12290

 maximum number of plane-waves:     98388
 maximum index in each direction: 
   IXMAX=   35   IYMAX=   35   IZMAX=   37
   IXMIN=  -35   IYMIN=  -35   IZMIN=    0


 parallel 3D FFT for wavefunctions:
    minimum data exchange during FFTs selected (reduces bandwidth)
 parallel 3D FFT for charge:
    minimum data exchange during FFTs selected (reduces bandwidth)


 total amount of memory used by VASP MPI-rank0   135827. kBytes
=======================================================================

   base      :      30000. kBytes
   nonl-proj :       3741. kBytes
   fftplans  :      26336. kBytes
   grid      :      62705. kBytes
   one-center:         31. kBytes
   wavefun   :      13014. kBytes
 
     INWAV:  cpu time    0.0000: real time    0.0000
 Broyden mixing: mesh for mixing (old mesh)
   NGX = 71   NGY = 71   NGZ = 75
  (NGX  =216   NGY  =216   NGZ  =224)
  gives a total of 378075 points

 initial charge density was supplied:
 charge density of overlapping atoms calculated
 number of electron     100.0000000 magnetization      10.0000000
 keeping initial charge density in first step


--------------------------------------------------------------------------------------------------------


 Maximum index for augmentation-charges           279 (set IRDMAX)


--------------------------------------------------------------------------------------------------------


 First call to EWALD:  gamma=   0.080
 Maximum number of real-space cells 3x 3x 3
 Maximum number of reciprocal cells 3x 3x 3

    FEWALD:  cpu time    0.0013: real time    0.0013


--------------------------------------- Iteration      1(   1)  ---------------------------------------


    POTLOK:  cpu time    1.5724: real time    1.5808
    SETDIJ:  cpu time    0.0142: real time    0.0142
     EDDAV:  cpu time    4.1148: real time    4.1305
       DOS:  cpu time    0.0031: real time    0.0031
    --------------------------------------------
      LOOP:  cpu time    5.7045: real time    5.7287

 eigenvalue-minimisations  :   264
 total energy-change (2. order) : 0.6260664E+03  (-0.1665692E+04)
 number of electron     100.0000000 magnetization      10.0000000
 augmentation part      100.0000000 magnetization      10.0000000

 Free energy of the ion-electron system (eV)
  ---------------------------------------------------
  alpha Z        PSCENC =         4.70715579
  Ewald energy   TEWEN  =     12701.60591305
  -Hartree energ DENC   =    -22554.31753501
  -exchange      EXHF   =         0.00000000
  -V(xc)+E(xc)   XCENC  =       304.82740307
  PAW double counting   =      9628.33173603   -10296.70712275
  entropy T*S    EENTRO =        -0.01171580
  eigenvalues    EBANDS =        60.99221078
  atomic energy  EATOM  =     10776.63837129
  Solvation  Ediel_sol  =         0.00000000
  ---------------------------------------------------
  free energy    TOTEN  =       626.06641646 eV

  energy without entropy =      626.07813226  energy(sigma->0) =      626.07032173


--------------------------------------------------------------------------------------------------------




--------------------------------------- Iteration      1(   2)  ---------------------------------------


     EDDAV:  cpu time    7.2847: real time    7.3014
       DOS:  cpu time    0.0016: real time    0.0016
    --------------------------------------------
      LOOP:  cpu time    7.2864: real time    7.3031

 eigenvalue-minimisations  :   456
 total energy-change (2. order) :-0.5248544E+03  (-0.4857805E+03)
 number of electron     100.0000000 magnetization      10.0000000
 augmentation part      100.0000000 magnetization      10.0000000

 Free energy of the ion-electron system (eV)
  ---------------------------------------------------
  alpha Z        PSCENC =         4.70715579
  Ewald energy   TEWEN  =     12701.60591305
  -Hartree energ DENC   =    -22554.31753501
  -exchange      EXHF   =         0.00000000
  -V(xc)+E(xc)   XCENC  =       304.82740307
  PAW double counting   =      9628.33173603   -10296.70712275
  entropy T*S    EENTRO =        -0.01738537
  eigenvalues    EBANDS =      -463.85650725
  atomic energy  EATOM  =     10776.63837129
  Solvation  Ediel_sol  =         0.00000000
  ---------------------------------------------------
  free energy    TOTEN  =       101.21202886 eV

  energy without entropy =      101.22941423  energy(sigma->0) =      101.21782398


--------------------------------------------------------------------------------------------------------




--------------------------------------- Iteration      1(   3)  ---------------------------------------


     EDDAV:  cpu time    4.7697: real time    4.7972
       DOS:  cpu time    0.0016: real time    0.0016
    --------------------------------------------
      LOOP:  cpu time    4.7713: real time    4.7988

 eigenvalue-minimisations  :   320
 total energy-change (2. order) :-0.1315643E+03  (-0.1228258E+03)
 number of electron     100.0000000 magnetization      10.0000000
 augmentation part      100.0000000 magnetization      10.0000000

 Free energy of the ion-electron system (eV)
  ---------------------------------------------------
  alpha Z        PSCENC =         4.70715579
  Ewald energy   TEWEN  =     12701.60591305
  -Hartree energ DENC   =    -22554.31753501
  -exchange      EXHF   =         0.00000000
  -V(xc)+E(xc)   XCENC  =       304.82740307
  PAW double counting   =      9628.33173603   -10296.70712275
  entropy T*S    EENTRO =        -0.03835872
  eigenvalues    EBANDS =      -595.39979976
  atomic energy  EATOM  =     10776.63837129
  Solvation  Ediel_sol  =         0.00000000
  ---------------------------------------------------
  free energy    TOTEN  =       -30.35223700 eV

  energy without entropy =      -30.31387827  energy(sigma->0) =      -30.33945076


--------------------------------------------------------------------------------------------------------




--------------------------------------- Iteration      1(   4)  ---------------------------------------


     EDDAV:  cpu time    4.6633: real time    4.7871
       DOS:  cpu time    0.0025: real time    0.0025
    --------------------------------------------
      LOOP:  cpu time    4.6658: real time    4.7895

 eigenvalue-minimisations  :   296
 total energy-change (2. order) :-0.1100927E+02  (-0.1020387E+02)
 number of electron     100.0000000 magnetization      10.0000000
 augmentation part      100.0000000 magnetization      10.0000000

 Free energy of the ion-electron system (eV)
  ---------------------------------------------------
  alpha Z        PSCENC =         4.70715579
  Ewald energy   TEWEN  =     12701.60591305
  -Hartree energ DENC   =    -22554.31753501
  -exchange      EXHF   =         0.00000000
  -V(xc)+E(xc)   XCENC  =       304.82740307
  PAW double counting   =      9628.33173603   -10296.70712275
  entropy T*S    EENTRO =        -0.07110895
  eigenvalues    EBANDS =      -606.37632431
  atomic energy  EATOM  =     10776.63837129
  Solvation  Ediel_sol  =         0.00000000
  ---------------------------------------------------
  free energy    TOTEN  =       -41.36151178 eV

  energy without entropy =      -41.29040283  energy(sigma->0) =      -41.33780879


--------------------------------------------------------------------------------------------------------




--------------------------------------- Iteration      1(   5)  ---------------------------------------


     EDDAV:  cpu time   10.2077: real time   10.4758
       DOS:  cpu time    0.0019: real time    0.0019
    CHARGE:  cpu time    0.4478: real time    0.4480
    MIXING:  cpu time    0.0377: real time    0.0377
    --------------------------------------------
      LOOP:  cpu time   10.6951: real time   10.9634

 eigenvalue-minimisations  :   326
 total energy-change (2. order) :-0.2552826E+00  (-0.2435357E+00)
 number of electron     100.0000217 magnetization       9.9150406
 augmentation part       59.3665200 magnetization       7.9709772

 Broyden mixing:
  rms(total) = 0.19676E+01    rms(broyden)= 0.19666E+01
  rms(prec ) = 0.20790E+01
  weight for this iteration     100.00

 Free energy of the ion-electron system (eV)
  ---------------------------------------------------
  alpha Z        PSCENC =         4.70715579
  Ewald energy   TEWEN  =     12701.60591305
  -Hartree energ DENC   =    -22554.31753501
  -exchange      EXHF   =         0.00000000
  -V(xc)+E(xc)   XCENC  =       304.82740307
  PAW double counting   =      9628.33173603   -10296.70712275
  entropy T*S    EENTRO =        -0.07035750
  eigenvalues    EBANDS =      -606.63235832
  atomic energy  EATOM  =     10776.63837129
  Solvation  Ediel_sol  =         0.00000000
  ---------------------------------------------------
  free energy    TOTEN  =       -41.61679433 eV

  energy without entropy =      -41.54643683  energy(sigma->0) =      -41.59334183


--------------------------------------------------------------------------------------------------------




--------------------------------------- Iteration      1(   6)  ---------------------------------------


    POTLOK:  cpu time    2.0240: real time    2.0254
    SETDIJ:  cpu time    0.1328: real time    0.1329
     EDDAV:  cpu time    9.9417: real time    9.9511
       DOS:  cpu time    0.4647: real time    0.4649
    CHARGE:  cpu time    0.7946: real time    0.7950
    MIXING:  cpu time    0.0406: real time    0.0407
    --------------------------------------------
      LOOP:  cpu time   13.3984: real time   13.4099

 eigenvalue-minimisations  :   296
 total energy-change (2. order) :-0.1425541E+01  (-0.5122079E+01)
 number of electron     100.0000176 magnetization       9.8298757
 augmentation part       64.3747021 magnetization       8.6950085

 Broyden mixing:
  rms(total) = 0.40423E+01    rms(broyden)= 0.40416E+01
  rms(prec ) = 0.42569E+01
  weight for this iteration     100.00

 eigenvalues of (default mixing * dielectric matrix)
  average eigenvalue GAMMA=   0.2141
  0.2141

 Free energy of the ion-electron system (eV)
  ---------------------------------------------------
  alpha Z        PSCENC =         4.70715579
  Ewald energy   TEWEN  =     12701.60591305
  -Hartree energ DENC   =    -22449.91414066
  -exchange      EXHF   =         0.00000000
  -V(xc)+E(xc)   XCENC  =       298.00926910
  PAW double counting   =      9942.63721565   -10585.76013042
  entropy T*S    EENTRO =         0.00573845
  eigenvalues    EBANDS =      -730.97172781
  atomic energy  EATOM  =     10776.63837129
  Solvation  Ediel_sol  =         0.00000000
  ---------------------------------------------------
  free energy    TOTEN  =       -43.04233555 eV

  energy without entropy =      -43.04807401  energy(sigma->0) =      -43.04424837


--------------------------------------------------------------------------------------------------------




--------------------------------------- Iteration      1(   7)  ---------------------------------------


    POTLOK:  cpu time    1.5883: real time    1.5908
    SETDIJ:  cpu time    0.0214: real time    0.0214
     EDDAV:  cpu time    4.4077: real time    4.4117
       DOS:  cpu time    0.0018: real time    0.0018
    CHARGE:  cpu time    0.4399: real time    0.4403
    MIXING:  cpu time    0.0454: real time    0.0455
    --------------------------------------------
      LOOP:  cpu time    6.5045: real time    6.5114

 eigenvalue-minimisations  :   286
 total energy-change (2. order) : 0.2375550E+01  (-0.4038320E+01)
 number of electron     100.0000214 magnetization       9.7671523
 augmentation part       64.2633175 magnetization       8.1355395

 Broyden mixing:
  rms(total) = 0.32107E+01    rms(broyden)= 0.32097E+01
  rms(prec ) = 0.34056E+01
  weight for this iteration     100.00

 eigenvalues of (default mixing * dielectric matrix)
  average eigenvalue GAMMA=   0.2275
  0.2835  0.1714

 Free energy of the ion-electron system (eV)
  ---------------------------------------------------
  alpha Z        PSCENC =         4.70715579
  Ewald energy   TEWEN  =     12701.60591305
  -Hartree energ DENC   =    -22476.49520778
  -exchange      EXHF   =         0.00000000
  -V(xc)+E(xc)   XCENC  =       298.92580695
  PAW double counting   =     10042.90864045   -10694.17223362
  entropy T*S    EENTRO =         0.05541262
  eigenvalues    EBANDS =      -694.84064412
  atomic energy  EATOM  =     10776.63837129
  Solvation  Ediel_sol  =         0.00000000
  ---------------------------------------------------
  free energy    TOTEN  =       -40.66678536 eV

  energy without entropy =      -40.72219798  energy(sigma->0) =      -40.68525623


--------------------------------------------------------------------------------------------------------




--------------------------------------- Iteration      1(   8)  ---------------------------------------


    POTLOK:  cpu time    1.5835: real time    1.5925
    SETDIJ:  cpu time    0.0213: real time    0.0213
     EDDAV:  cpu time    5.0559: real time    5.2277
       DOS:  cpu time    0.0013: real time    0.0013
    CHARGE:  cpu time    0.4820: real time    0.4846
    MIXING:  cpu time    0.0332: real time    0.0333
    --------------------------------------------
      LOOP:  cpu time    7.1771: real time    7.3606

 eigenvalue-minimisations  :   286
 total energy-change (2. order) : 0.4344084E+00  (-0.2255188E+01)
 number of electron     100.0000243 magnetization       9.6985630
 augmentation part       63.3072990 magnetization       8.0791025

 Broyden mixing:
  rms(total) = 0.37810E+01    rms(broyden)= 0.37802E+01
  rms(prec ) = 0.40218E+01
  weight for this iteration     100.00

 eigenvalues of (default mixing * dielectric matrix)
  average eigenvalue GAMMA=   0.2598
  0.4974  0.1411  0.1411

 Free energy of the ion-electron system (eV)
  ---------------------------------------------------
  alpha Z        PSCENC =         4.70715579
  Ewald energy   TEWEN  =     12701.60591305
  -Hartree energ DENC   =    -22510.52323277
  -exchange      EXHF   =         0.00000000
  -V(xc)+E(xc)   XCENC  =       299.80374238
  PAW double counting   =     10144.18857200   -10803.98629456
  entropy T*S    EENTRO =         0.01630328
  eigenvalues    EBANDS =      -652.68290744
  atomic energy  EATOM  =     10776.63837129
  Solvation  Ediel_sol  =         0.00000000
  ---------------------------------------------------
  free energy    TOTEN  =       -40.23237697 eV

  energy without entropy =      -40.24868025  energy(sigma->0) =      -40.23781140


--------------------------------------------------------------------------------------------------------




--------------------------------------- Iteration      1(   9)  ---------------------------------------


    POTLOK:  cpu time    1.5933: real time    1.5972
    SETDIJ:  cpu time    0.0138: real time    0.0138
     EDDAV:  cpu time    8.8423: real time    8.8564
       DOS:  cpu time    0.0008: real time    0.0008
    CHARGE:  cpu time    0.4802: real time    0.4843
    MIXING:  cpu time    0.0362: real time    0.0363
    --------------------------------------------
      LOOP:  cpu time   10.9665: real time   10.9888

 eigenvalue-minimisations  :   334
 total energy-change (2. order) : 0.2104303E+01  (-0.1861852E+01)
 number of electron     100.0000266 magnetization       9.6690882
 augmentation part       62.7897630 magnetization       7.8452431

 Broyden mixing:
  rms(total) = 0.34160E+01    rms(broyden)= 0.34154E+01
  rms(prec ) = 0.36455E+01
  weight for this iteration     100.00

 eigenvalues of (default mixing * dielectric matrix)
  average eigenvalue GAMMA=   0.2378
  0.5633  0.1459  0.1459  0.0959

 Free energy of the ion-electron system (eV)
  ---------------------------------------------------
  alpha Z        PSCENC =         4.70715579
  Ewald energy   TEWEN  =     12701.60591305
  -Hartree energ DENC   =    -22540.35542601
  -exchange      EXHF   =         0.00000000
  -V(xc)+E(xc)   XCENC  =       300.57180177
  PAW double counting   =     10242.47555430   -10909.98985512
  entropy T*S    EENTRO =         0.05690169
  eigenvalues    EBANDS =      -613.83849115
  atomic energy  EATOM  =     10776.63837129
  Solvation  Ediel_sol  =         0.00000000
  ---------------------------------------------------
  free energy    TOTEN  =       -38.12807439 eV

  energy without entropy =      -38.18497608  energy(sigma->0) =      -38.14704162


--------------------------------------------------------------------------------------------------------




--------------------------------------- Iteration      1(  10)  ---------------------------------------


    POTLOK:  cpu time    1.6004: real time    1.6043
    SETDIJ:  cpu time    0.0139: real time    0.0139
     EDDAV:  cpu time    8.6549: real time    8.6645
       DOS:  cpu time    0.0007: real time    0.0007
    CHARGE:  cpu time    0.4754: real time    0.4762
    MIXING:  cpu time    0.0396: real time    0.0396
    --------------------------------------------
      LOOP:  cpu time   10.7848: real time   10.7992

 eigenvalue-minimisations  :   364
 total energy-change (2. order) : 0.1460495E+01  (-0.8040060E+00)
 number of electron     100.0000195 magnetization       9.6281113
 augmentation part       62.5112861 magnetization       7.8221552

 Broyden mixing:
  rms(total) = 0.23378E+01    rms(broyden)= 0.23373E+01
  rms(prec ) = 0.25088E+01
  weight for this iteration     100.00

 eigenvalues of (default mixing * dielectric matrix)
  average eigenvalue GAMMA=   0.2389
  0.6329  0.1843  0.1843  0.0964  0.0964

 Free energy of the ion-electron system (eV)
  ---------------------------------------------------
  alpha Z        PSCENC =         4.70715579
  Ewald energy   TEWEN  =     12701.60591305
  -Hartree energ DENC   =    -22549.31215403
  -exchange      EXHF   =         0.00000000
  -V(xc)+E(xc)   XCENC  =       300.74451974
  PAW double counting   =     10279.43872313   -10949.25819631
  entropy T*S    EENTRO =        -0.03478122
  eigenvalues    EBANDS =      -601.19713084
  atomic energy  EATOM  =     10776.63837129
  Solvation  Ediel_sol  =         0.00000000
  ---------------------------------------------------
  free energy    TOTEN  =       -36.66757939 eV

  energy without entropy =      -36.63279817  energy(sigma->0) =      -36.65598565


--------------------------------------------------------------------------------------------------------




--------------------------------------- Iteration      1(  11)  ---------------------------------------


    POTLOK:  cpu time    1.6103: real time    1.6121
    SETDIJ:  cpu time    0.0139: real time    0.0139
     EDDAV:  cpu time    9.4661: real time    9.4764
       DOS:  cpu time    0.0027: real time    0.0027
    CHARGE:  cpu time    0.4465: real time    0.4489
    MIXING:  cpu time    0.0420: real time    0.0421
    --------------------------------------------
      LOOP:  cpu time   11.5814: real time   11.5961

 eigenvalue-minimisations  :   326
 total energy-change (2. order) :-0.5381005E+00  (-0.8756034E+00)
 number of electron     100.0000197 magnetization       9.5679702
 augmentation part       62.3190365 magnetization       7.5577136

 Broyden mixing:
  rms(total) = 0.32527E+01    rms(broyden)= 0.32521E+01
  rms(prec ) = 0.34875E+01
  weight for this iteration     100.00

 eigenvalues of (default mixing * dielectric matrix)
  average eigenvalue GAMMA=   0.2630
  0.7547  0.3722  0.1704  0.1053  0.1053  0.0703

 Free energy of the ion-electron system (eV)
  ---------------------------------------------------
  alpha Z        PSCENC =         4.70715579
  Ewald energy   TEWEN  =     12701.60591305
  -Hartree energ DENC   =    -22555.21453161
  -exchange      EXHF   =         0.00000000
  -V(xc)+E(xc)   XCENC  =       300.90475647
  PAW double counting   =     10323.63881260   -10995.55993974
  entropy T*S    EENTRO =        -0.00610326
  eigenvalues    EBANDS =      -593.92011445
  atomic energy  EATOM  =     10776.63837129
  Solvation  Ediel_sol  =         0.00000000
  ---------------------------------------------------
  free energy    TOTEN  =       -37.20567985 eV

  energy without entropy =      -37.19957658  energy(sigma->0) =      -37.20364543


--------------------------------------------------------------------------------------------------------




--------------------------------------- Iteration      1(  12)  ---------------------------------------


    POTLOK:  cpu time    1.6125: real time    1.6216
    SETDIJ:  cpu time    0.0151: real time    0.0151
     EDDAV:  cpu time    5.0413: real time    5.0546
       DOS:  cpu time    0.0030: real time    0.0030
    CHARGE:  cpu time    0.4750: real time    0.4760
    MIXING:  cpu time    0.0447: real time    0.0448
    --------------------------------------------
      LOOP:  cpu time    7.1917: real time    7.2151

 eigenvalue-minimisations  :   350
 total energy-change (2. order) : 0.3019887E+00  (-0.7098004E+00)
 number of electron     100.0000200 magnetization       9.5188082
 augmentation part       62.0413981 magnetization       7.4859125

 Broyden mixing:
  rms(total) = 0.28142E+01    rms(broyden)= 0.28136E+01
  rms(prec ) = 0.29897E+01
  weight for this iteration     100.00

 eigenvalues of (default mixing * dielectric matrix)
  average eigenvalue GAMMA=   0.3017
  1.0716  0.4826  0.1451  0.1451  0.1026  0.1026  0.0624

 Free energy of the ion-electron system (eV)
  ---------------------------------------------------
  alpha Z        PSCENC =         4.70715579
  Ewald energy   TEWEN  =     12701.60591305
  -Hartree energ DENC   =    -22560.30650703
  -exchange      EXHF   =         0.00000000
  -V(xc)+E(xc)   XCENC  =       300.99563902
  PAW double counting   =     10389.42648036   -11063.83929221
  entropy T*S    EENTRO =        -0.04081545
  eigenvalues    EBANDS =      -586.09063595
  atomic energy  EATOM  =     10776.63837129
  Solvation  Ediel_sol  =         0.00000000
  ---------------------------------------------------
  free energy    TOTEN  =       -36.90369112 eV

  energy without entropy =      -36.86287567  energy(sigma->0) =      -36.89008597


--------------------------------------------------------------------------------------------------------




--------------------------------------- Iteration      1(  13)  ---------------------------------------


    POTLOK:  cpu time    1.6010: real time    1.6030
    SETDIJ:  cpu time    0.0147: real time    0.0147
     EDDAV:  cpu time    4.7078: real time    4.7188
       DOS:  cpu time    0.0027: real time    0.0027
    CHARGE:  cpu time    0.4497: real time    0.4503
    MIXING:  cpu time    0.0493: real time    0.0493
    --------------------------------------------
      LOOP:  cpu time    6.8251: real time    6.8389

 eigenvalue-minimisations  :   310
 total energy-change (2. order) : 0.1230342E+01  (-0.5150950E+00)
 number of electron     100.0000207 magnetization       9.5011314
 augmentation part       62.2767785 magnetization       7.7993407

 Broyden mixing:
  rms(total) = 0.17525E+01    rms(broyden)= 0.17519E+01
  rms(prec ) = 0.18611E+01
  weight for this iteration     100.00

 eigenvalues of (default mixing * dielectric matrix)
  average eigenvalue GAMMA=   0.2910
  1.1386  0.4896  0.1758  0.1758  0.0973  0.0973  0.0902  0.0634

 Free energy of the ion-electron system (eV)
  ---------------------------------------------------
  alpha Z        PSCENC =         4.70715579
  Ewald energy   TEWEN  =     12701.60591305
  -Hartree energ DENC   =    -22563.69129701
  -exchange      EXHF   =         0.00000000
  -V(xc)+E(xc)   XCENC  =       301.00653455
  PAW double counting   =     10448.56818522   -11125.04001547
  entropy T*S    EENTRO =        -0.08175767
  eigenvalues    EBANDS =      -579.38643858
  atomic energy  EATOM  =     10776.63837129
  Solvation  Ediel_sol  =         0.00000000
  ---------------------------------------------------
  free energy    TOTEN  =       -35.67334882 eV

  energy without entropy =      -35.59159115  energy(sigma->0) =      -35.64609626


--------------------------------------------------------------------------------------------------------




--------------------------------------- Iteration      1(  14)  ---------------------------------------


    POTLOK:  cpu time    1.5955: real time    1.6029
    SETDIJ:  cpu time    0.0145: real time    0.0145
     EDDAV:  cpu time    4.8809: real time    4.8980
       DOS:  cpu time    0.0031: real time    0.0031
    CHARGE:  cpu time    0.4409: real time    0.4416
    MIXING:  cpu time    0.0536: real time    0.0537
    --------------------------------------------
      LOOP:  cpu time    6.9886: real time    7.0139

 eigenvalue-minimisations  :   334
 total energy-change (2. order) : 0.3188330E+00  (-0.1955855E+00)
 number of electron     100.0000216 magnetization       9.4719091
 augmentation part       62.3356624 magnetization       7.8626273

 Broyden mixing:
  rms(total) = 0.11562E+01    rms(broyden)= 0.11557E+01
  rms(prec ) = 0.12268E+01
  weight for this iteration     100.00

 eigenvalues of (default mixing * dielectric matrix)
  average eigenvalue GAMMA=   0.2919
  1.2229  0.3652  0.3652  0.2026  0.1016  0.1016  0.1022  0.1022  0.0631

 Free energy of the ion-electron system (eV)
  ---------------------------------------------------
  alpha Z        PSCENC =         4.70715579
  Ewald energy   TEWEN  =     12701.60591305
  -Hartree energ DENC   =    -22564.00690239
  -exchange      EXHF   =         0.00000000
  -V(xc)+E(xc)   XCENC  =       300.97219873
  PAW double counting   =     10462.28628518   -11139.09874245
  entropy T*S    EENTRO =        -0.06931851
  eigenvalues    EBANDS =      -578.38947648
  atomic energy  EATOM  =     10776.63837129
  Solvation  Ediel_sol  =         0.00000000
  ---------------------------------------------------
  free energy    TOTEN  =       -35.35451578 eV

  energy without entropy =      -35.28519727  energy(sigma->0) =      -35.33140961


--------------------------------------------------------------------------------------------------------




--------------------------------------- Iteration      1(  15)  ---------------------------------------


    POTLOK:  cpu time    3.4739: real time    3.9266
    SETDIJ:  cpu time    0.1816: real time    0.1818
     EDDAV:  cpu time    6.7835: real time    6.9188
       DOS:  cpu time    0.0009: real time    0.0009
    CHARGE:  cpu time    0.4492: real time    0.4498
    MIXING:  cpu time    0.0580: real time    0.0581
    --------------------------------------------
      LOOP:  cpu time   10.9471: real time   11.5360

 eigenvalue-minimisations  :   332
 total energy-change (2. order) : 0.1283733E+00  (-0.1129730E+00)
 number of electron     100.0000219 magnetization       9.4459178
 augmentation part       62.3278125 magnetization       7.8082240

 Broyden mixing:
  rms(total) = 0.85070E+00    rms(broyden)= 0.85035E+00
  rms(prec ) = 0.90205E+00
  weight for this iteration     100.00

 eigenvalues of (default mixing * dielectric matrix)
  average eigenvalue GAMMA=   0.2973
  1.3095  0.4418  0.4418  0.1419  0.1419  0.1401  0.1041  0.1041  0.0630  0.0845

 Free energy of the ion-electron system (eV)
  ---------------------------------------------------
  alpha Z        PSCENC =         4.70715579
  Ewald energy   TEWEN  =     12701.60591305
  -Hartree energ DENC   =    -22566.09773662
  -exchange      EXHF   =         0.00000000
  -V(xc)+E(xc)   XCENC  =       301.01003922
  PAW double counting   =     10480.09913465   -11157.47097506
  entropy T*S    EENTRO =        -0.06790845
  eigenvalues    EBANDS =      -575.65013636
  atomic energy  EATOM  =     10776.63837129
  Solvation  Ediel_sol  =         0.00000000
  ---------------------------------------------------
  free energy    TOTEN  =       -35.22614248 eV

  energy without entropy =      -35.15823403  energy(sigma->0) =      -35.20350633


--------------------------------------------------------------------------------------------------------




--------------------------------------- Iteration      1(  16)  ---------------------------------------


    POTLOK:  cpu time    1.6012: real time    1.6052
    SETDIJ:  cpu time    0.0127: real time    0.0127
     EDDAV:  cpu time    8.8953: real time    9.5148
       DOS:  cpu time    0.0020: real time    0.0020
    CHARGE:  cpu time    0.4417: real time    0.4461
    MIXING:  cpu time    0.0622: real time    0.0623
    --------------------------------------------
      LOOP:  cpu time   11.0151: real time   11.6431

 eigenvalue-minimisations  :   324
 total energy-change (2. order) :-0.3912709E-01  (-0.7477354E-01)
 number of electron     100.0000230 magnetization       9.3910839
 augmentation part       62.3265482 magnetization       7.7491518

 Broyden mixing:
  rms(total) = 0.94547E+00    rms(broyden)= 0.94506E+00
  rms(prec ) = 0.10044E+01
  weight for this iteration     100.00

 eigenvalues of (default mixing * dielectric matrix)
  average eigenvalue GAMMA=   0.3267
  1.4864  0.5262  0.5262  0.3014  0.1983  0.1022  0.1022  0.1187  0.0926  0.0627
  0.0771

 Free energy of the ion-electron system (eV)
  ---------------------------------------------------
  alpha Z        PSCENC =         4.70715579
  Ewald energy   TEWEN  =     12701.60591305
  -Hartree energ DENC   =    -22567.60151937
  -exchange      EXHF   =         0.00000000
  -V(xc)+E(xc)   XCENC  =       301.01646866
  PAW double counting   =     10494.61022505   -11172.25970442
  entropy T*S    EENTRO =        -0.05450212
  eigenvalues    EBANDS =      -573.92767752
  atomic energy  EATOM  =     10776.63837129
  Solvation  Ediel_sol  =         0.00000000
  ---------------------------------------------------
  free energy    TOTEN  =       -35.26526957 eV

  energy without entropy =      -35.21076745  energy(sigma->0) =      -35.24710220


--------------------------------------------------------------------------------------------------------




--------------------------------------- Iteration      1(  17)  ---------------------------------------


    POTLOK:  cpu time    1.5901: real time    1.5938
    SETDIJ:  cpu time    0.0148: real time    0.0149
     EDDAV:  cpu time    4.6524: real time    4.6837
       DOS:  cpu time    0.0025: real time    0.0025
    CHARGE:  cpu time    0.4549: real time    0.4560
    MIXING:  cpu time    0.0673: real time    0.0683
    --------------------------------------------
      LOOP:  cpu time    6.7820: real time    6.8192

 eigenvalue-minimisations  :   316
 total energy-change (2. order) : 0.1186331E+00  (-0.3890639E-01)
 number of electron     100.0000215 magnetization       9.3769828
 augmentation part       62.3992389 magnetization       7.7737437

 Broyden mixing:
  rms(total) = 0.40919E+00    rms(broyden)= 0.40865E+00
  rms(prec ) = 0.43129E+00
  weight for this iteration     100.00

 eigenvalues of (default mixing * dielectric matrix)
  average eigenvalue GAMMA=   0.3108
  1.4853  0.5379  0.5379  0.3216  0.1882  0.1017  0.1017  0.1258  0.0964  0.0964
  0.0628  0.0735

 Free energy of the ion-electron system (eV)
  ---------------------------------------------------
  alpha Z        PSCENC =         4.70715579
  Ewald energy   TEWEN  =     12701.60591305
  -Hartree energ DENC   =    -22569.94985079
  -exchange      EXHF   =         0.00000000
  -V(xc)+E(xc)   XCENC  =       300.89521439
  PAW double counting   =     10519.77673855   -11197.48716447
  entropy T*S    EENTRO =        -0.06187005
  eigenvalues    EBANDS =      -571.27114420
  atomic energy  EATOM  =     10776.63837129
  Solvation  Ediel_sol  =         0.00000000
  ---------------------------------------------------
  free energy    TOTEN  =       -35.14663643 eV

  energy without entropy =      -35.08476638  energy(sigma->0) =      -35.12601308


--------------------------------------------------------------------------------------------------------




--------------------------------------- Iteration      1(  18)  ---------------------------------------


    POTLOK:  cpu time    1.5894: real time    1.5966
    SETDIJ:  cpu time    0.0147: real time    0.0147
     EDDAV:  cpu time    5.0175: real time    5.0439
       DOS:  cpu time    0.0025: real time    0.0025
    CHARGE:  cpu time    0.4443: real time    0.4448
    MIXING:  cpu time    0.0722: real time    0.0732
    --------------------------------------------
      LOOP:  cpu time    7.1406: real time    7.1757

 eigenvalue-minimisations  :   350
 total energy-change (2. order) : 0.1735640E-01  (-0.1856986E-01)
 number of electron     100.0000215 magnetization       9.3143823
 augmentation part       62.4304805 magnetization       7.6787239

 Broyden mixing:
  rms(total) = 0.32194E+00    rms(broyden)= 0.32175E+00
  rms(prec ) = 0.33738E+00
  weight for this iteration     100.00

 eigenvalues of (default mixing * dielectric matrix)
  average eigenvalue GAMMA=   0.3520
  1.5553  0.7253  0.7253  0.3502  0.3502  0.2069  0.1022  0.1022  0.1142  0.1142
  0.0909  0.0628  0.0764

 Free energy of the ion-electron system (eV)
  ---------------------------------------------------
  alpha Z        PSCENC =         4.70715579
  Ewald energy   TEWEN  =     12701.60591305
  -Hartree energ DENC   =    -22570.21859294
  -exchange      EXHF   =         0.00000000
  -V(xc)+E(xc)   XCENC  =       300.88189746
  PAW double counting   =     10522.16091646   -11199.74910889
  entropy T*S    EENTRO =        -0.08088813
  eigenvalues    EBANDS =      -571.07494414
  atomic energy  EATOM  =     10776.63837129
  Solvation  Ediel_sol  =         0.00000000
  ---------------------------------------------------
  free energy    TOTEN  =       -35.12928004 eV

  energy without entropy =      -35.04839191  energy(sigma->0) =      -35.10231733


--------------------------------------------------------------------------------------------------------




--------------------------------------- Iteration      1(  19)  ---------------------------------------


    POTLOK:  cpu time    1.5781: real time    1.5864
    SETDIJ:  cpu time    0.0146: real time    0.0146
     EDDAV:  cpu time    4.7035: real time    4.7243
       DOS:  cpu time    0.0025: real time    0.0026
    CHARGE:  cpu time    0.4471: real time    0.4498
    MIXING:  cpu time    0.0782: real time    0.0784
    --------------------------------------------
      LOOP:  cpu time    6.8241: real time    6.8561

 eigenvalue-minimisations  :   322
 total energy-change (2. order) :-0.7356028E-01  (-0.8753712E-02)
 number of electron     100.0000210 magnetization       9.2686841
 augmentation part       62.4280420 magnetization       7.6665133

 Broyden mixing:
  rms(total) = 0.29791E+00    rms(broyden)= 0.29765E+00
  rms(prec ) = 0.31516E+00
  weight for this iteration     100.00

 eigenvalues of (default mixing * dielectric matrix)
  average eigenvalue GAMMA=   0.3674
  1.5966  0.7884  0.7884  0.4101  0.4101  0.2955  0.2020  0.1022  0.1022  0.1112
  0.1112  0.0628  0.0865  0.0768

 Free energy of the ion-electron system (eV)
  ---------------------------------------------------
  alpha Z        PSCENC =         4.70715579
  Ewald energy   TEWEN  =     12701.60591305
  -Hartree energ DENC   =    -22574.45473793
  -exchange      EXHF   =         0.00000000
  -V(xc)+E(xc)   XCENC  =       300.86407942
  PAW double counting   =     10534.13719318   -11211.68956522
  entropy T*S    EENTRO =        -0.06651085
  eigenvalues    EBANDS =      -566.94473905
  atomic energy  EATOM  =     10776.63837129
  Solvation  Ediel_sol  =         0.00000000
  ---------------------------------------------------
  free energy    TOTEN  =       -35.20284032 eV

  energy without entropy =      -35.13632947  energy(sigma->0) =      -35.18067003


--------------------------------------------------------------------------------------------------------




--------------------------------------- Iteration      1(  20)  ---------------------------------------


    POTLOK:  cpu time    1.5873: real time    1.6004
    SETDIJ:  cpu time    0.0154: real time    0.0155
     EDDAV:  cpu time    5.8316: real time    6.2766
       DOS:  cpu time    0.0072: real time    0.0072
    CHARGE:  cpu time    0.4366: real time    0.4369
    MIXING:  cpu time    0.0937: real time    0.0938
    --------------------------------------------
      LOOP:  cpu time    7.9719: real time    8.4302

 eigenvalue-minimisations  :   302
 total energy-change (2. order) :-0.7801337E-01  (-0.1671440E-01)
 number of electron     100.0000218 magnetization       9.1930015
 augmentation part       62.4810921 magnetization       7.6338615

 Broyden mixing:
  rms(total) = 0.48181E+00    rms(broyden)= 0.48157E+00
  rms(prec ) = 0.50873E+00
  weight for this iteration     100.00

 eigenvalues of (default mixing * dielectric matrix)
  average eigenvalue GAMMA=   0.4017
  1.7902  0.9184  0.9184  0.5603  0.5603  0.3181  0.2029  0.1022  0.1022  0.1100
  0.1100  0.0628  0.1072  0.0768  0.0865

 Free energy of the ion-electron system (eV)
  ---------------------------------------------------
  alpha Z        PSCENC =         4.70715579
  Ewald energy   TEWEN  =     12701.60591305
  -Hartree energ DENC   =    -22575.93790240
  -exchange      EXHF   =         0.00000000
  -V(xc)+E(xc)   XCENC  =       300.82295761
  PAW double counting   =     10540.65983487   -11218.06683010
  entropy T*S    EENTRO =        -0.07053095
  eigenvalues    EBANDS =      -565.63982285
  atomic energy  EATOM  =     10776.63837129
  Solvation  Ediel_sol  =         0.00000000
  ---------------------------------------------------
  free energy    TOTEN  =       -35.28085368 eV

  energy without entropy =      -35.21032274  energy(sigma->0) =      -35.25734337


--------------------------------------------------------------------------------------------------------




--------------------------------------- Iteration      1(  21)  ---------------------------------------


    POTLOK:  cpu time    1.5791: real time    1.5941
    SETDIJ:  cpu time    0.0213: real time    0.0213
     EDDAV:  cpu time    4.1272: real time    4.1307
       DOS:  cpu time    0.0082: real time    0.0082
    CHARGE:  cpu time    0.4369: real time    0.4372
    MIXING:  cpu time    0.0993: real time    0.0994
    --------------------------------------------
      LOOP:  cpu time    6.2720: real time    6.2908

 eigenvalue-minimisations  :   274
 total energy-change (2. order) :-0.3570709E-01  (-0.1714484E-01)
 number of electron     100.0000215 magnetization       9.0905646
 augmentation part       62.5398051 magnetization       7.5989924

 Broyden mixing:
  rms(total) = 0.18196E+00    rms(broyden)= 0.18146E+00
  rms(prec ) = 0.19301E+00
  weight for this iteration     100.00

 eigenvalues of (default mixing * dielectric matrix)
  average eigenvalue GAMMA=   0.4439
  1.9720  1.0983  0.7808  0.7808  0.5910  0.5910  0.3356  0.2007  0.1022  0.1022
  0.1116  0.1116  0.0628  0.0769  0.0855  0.0996

 Free energy of the ion-electron system (eV)
  ---------------------------------------------------
  alpha Z        PSCENC =         4.70715579
  Ewald energy   TEWEN  =     12701.60591305
  -Hartree energ DENC   =    -22579.20506826
  -exchange      EXHF   =         0.00000000
  -V(xc)+E(xc)   XCENC  =       300.75932171
  PAW double counting   =     10550.64633701   -11228.03157256
  entropy T*S    EENTRO =        -0.05043563
  eigenvalues    EBANDS =      -562.38658318
  atomic energy  EATOM  =     10776.63837129
  Solvation  Ediel_sol  =         0.00000000
  ---------------------------------------------------
  free energy    TOTEN  =       -35.31656077 eV

  energy without entropy =      -35.26612514  energy(sigma->0) =      -35.29974889


--------------------------------------------------------------------------------------------------------




--------------------------------------- Iteration      1(  22)  ---------------------------------------


    POTLOK:  cpu time    1.5896: real time    1.5908
    SETDIJ:  cpu time    0.0213: real time    0.0213
     EDDAV:  cpu time    6.9762: real time    7.9445
       DOS:  cpu time    0.0007: real time    0.0007
    CHARGE:  cpu time    0.4392: real time    0.4397
    MIXING:  cpu time    0.1033: real time    0.1034
    --------------------------------------------
      LOOP:  cpu time    9.1304: real time   10.1005

 eigenvalue-minimisations  :   308
 total energy-change (2. order) :-0.1093403E+00  (-0.5045796E-02)
 number of electron     100.0000214 magnetization       9.0147575
 augmentation part       62.5350183 magnetization       7.5339519

 Broyden mixing:
  rms(total) = 0.92969E-01    rms(broyden)= 0.92770E-01
  rms(prec ) = 0.98510E-01
  weight for this iteration     100.00

 eigenvalues of (default mixing * dielectric matrix)
  average eigenvalue GAMMA=   0.5072
  2.2044  1.6476  0.8275  0.8275  0.7140  0.5580  0.5580  0.3325  0.2008  0.1022
  0.1022  0.1116  0.1116  0.0628  0.0769  0.0854  0.0994

 Free energy of the ion-electron system (eV)
  ---------------------------------------------------
  alpha Z        PSCENC =         4.70715579
  Ewald energy   TEWEN  =     12701.60591305
  -Hartree energ DENC   =    -22584.91453625
  -exchange      EXHF   =         0.00000000
  -V(xc)+E(xc)   XCENC  =       300.71550603
  PAW double counting   =     10554.96574451   -11232.35160057
  entropy T*S    EENTRO =        -0.05734521
  eigenvalues    EBANDS =      -556.73510977
  atomic energy  EATOM  =     10776.63837129
  Solvation  Ediel_sol  =         0.00000000
  ---------------------------------------------------
  free energy    TOTEN  =       -35.42590112 eV

  energy without entropy =      -35.36855591  energy(sigma->0) =      -35.40678605


--------------------------------------------------------------------------------------------------------




--------------------------------------- Iteration      1(  23)  ---------------------------------------


    POTLOK:  cpu time    1.5952: real time    1.5972
    SETDIJ:  cpu time    0.0179: real time    0.0179
     EDDAV:  cpu time    4.6275: real time    4.6328
       DOS:  cpu time    0.0019: real time    0.0019
    CHARGE:  cpu time    0.4324: real time    0.4328
    MIXING:  cpu time    0.1139: real time    0.1140
    --------------------------------------------
      LOOP:  cpu time    6.7888: real time    6.7967

 eigenvalue-minimisations  :   318
 total energy-change (2. order) :-0.1015138E+00  (-0.2169810E-02)
 number of electron     100.0000213 magnetization       8.9673370
 augmentation part       62.5209411 magnetization       7.5128264

 Broyden mixing:
  rms(total) = 0.10438E+00    rms(broyden)= 0.10432E+00
  rms(prec ) = 0.11086E+00
  weight for this iteration     100.00

 eigenvalues of (default mixing * dielectric matrix)
  average eigenvalue GAMMA=   0.5327
  2.3783  1.6720  0.8045  0.8045  0.7441  0.7441  0.5770  0.5770  0.3337  0.2008
  0.1022  0.1022  0.1116  0.1116  0.0628  0.0769  0.0854  0.0995

 Free energy of the ion-electron system (eV)
  ---------------------------------------------------
  alpha Z        PSCENC =         4.70715579
  Ewald energy   TEWEN  =     12701.60591305
  -Hartree energ DENC   =    -22588.52216508
  -exchange      EXHF   =         0.00000000
  -V(xc)+E(xc)   XCENC  =       300.67038204
  PAW double counting   =     10553.15593601   -11230.53226541
  entropy T*S    EENTRO =        -0.05783721
  eigenvalues    EBANDS =      -553.19290536
  atomic energy  EATOM  =     10776.63837129
  Solvation  Ediel_sol  =         0.00000000
  ---------------------------------------------------
  free energy    TOTEN  =       -35.52741487 eV

  energy without entropy =      -35.46957766  energy(sigma->0) =      -35.50813580


--------------------------------------------------------------------------------------------------------




--------------------------------------- Iteration      1(  24)  ---------------------------------------


    POTLOK:  cpu time    1.6034: real time    1.6055
    SETDIJ:  cpu time    0.0173: real time    0.0173
     EDDAV:  cpu time    4.1975: real time    4.2023
       DOS:  cpu time    0.0008: real time    0.0008
    CHARGE:  cpu time    0.4449: real time    0.4454
    MIXING:  cpu time    0.1181: real time    0.1183
    --------------------------------------------
      LOOP:  cpu time    6.3819: real time    6.3895

 eigenvalue-minimisations  :   282
 total energy-change (2. order) :-0.6878282E-01  (-0.9820296E-03)
 number of electron     100.0000213 magnetization       8.9180561
 augmentation part       62.5191897 magnetization       7.4948526

 Broyden mixing:
  rms(total) = 0.37944E-01    rms(broyden)= 0.37888E-01
  rms(prec ) = 0.41006E-01
  weight for this iteration     100.00

 eigenvalues of (default mixing * dielectric matrix)
  average eigenvalue GAMMA=   0.5660
  2.6807  1.6308  0.9612  0.9612  0.7033  0.7033  0.6485  0.5898  0.5898  0.3332
  0.2008  0.1022  0.1022  0.1116  0.1116  0.0628  0.0769  0.0854  0.0995

 Free energy of the ion-electron system (eV)
  ---------------------------------------------------
  alpha Z        PSCENC =         4.70715579
  Ewald energy   TEWEN  =     12701.60591305
  -Hartree energ DENC   =    -22589.97008676
  -exchange      EXHF   =         0.00000000
  -V(xc)+E(xc)   XCENC  =       300.61929938
  PAW double counting   =     10550.02915396   -11227.46194928
  entropy T*S    EENTRO =        -0.05333196
  eigenvalues    EBANDS =      -551.71072318
  atomic energy  EATOM  =     10776.63837129
  Solvation  Ediel_sol  =         0.00000000
  ---------------------------------------------------
  free energy    TOTEN  =       -35.59619769 eV

  energy without entropy =      -35.54286573  energy(sigma->0) =      -35.57842037


--------------------------------------------------------------------------------------------------------




--------------------------------------- Iteration      1(  25)  ---------------------------------------


    POTLOK:  cpu time    1.5898: real time    1.6009
    SETDIJ:  cpu time    0.0178: real time    0.0179
     EDDAV:  cpu time    4.9106: real time    5.0295
       DOS:  cpu time    0.0016: real time    0.0016
    CHARGE:  cpu time    0.4558: real time    0.4563
    MIXING:  cpu time    0.1259: real time    0.1261
    --------------------------------------------
      LOOP:  cpu time    7.1014: real time    7.2321

 eigenvalue-minimisations  :   302
 total energy-change (2. order) :-0.5843580E-01  (-0.4162328E-03)
 number of electron     100.0000214 magnetization       8.8570160
 augmentation part       62.5225931 magnetization       7.4574641

 Broyden mixing:
  rms(total) = 0.19623E-01    rms(broyden)= 0.19594E-01
  rms(prec ) = 0.21881E-01
  weight for this iteration     100.00

 eigenvalues of (default mixing * dielectric matrix)
  average eigenvalue GAMMA=   0.5989
  2.9085  1.3472  1.0819  1.0819  0.8860  0.7821  0.7821  0.6676  0.5770  0.5770
  0.3333  0.2008  0.1022  0.1022  0.1116  0.1116  0.0628  0.0769  0.0854  0.0995

 Free energy of the ion-electron system (eV)
  ---------------------------------------------------
  alpha Z        PSCENC =         4.70715579
  Ewald energy   TEWEN  =     12701.60591305
  -Hartree energ DENC   =    -22591.37076242
  -exchange      EXHF   =         0.00000000
  -V(xc)+E(xc)   XCENC  =       300.57477557
  PAW double counting   =     10547.80695078   -11225.26475167
  entropy T*S    EENTRO =        -0.05226310
  eigenvalues    EBANDS =      -550.30002278
  atomic energy  EATOM  =     10776.63837129
  Solvation  Ediel_sol  =         0.00000000
  ---------------------------------------------------
  free energy    TOTEN  =       -35.65463349 eV

  energy without entropy =      -35.60237039  energy(sigma->0) =      -35.63721246


--------------------------------------------------------------------------------------------------------




--------------------------------------- Iteration      1(  26)  ---------------------------------------


    POTLOK:  cpu time    1.5895: real time    1.5946
    SETDIJ:  cpu time    0.0175: real time    0.0175
     EDDAV:  cpu time    6.4706: real time    6.8640
       DOS:  cpu time    0.3981: real time    0.3982
    CHARGE:  cpu time    0.4764: real time    0.4785
    MIXING:  cpu time    0.1370: real time    0.1372
    --------------------------------------------
      LOOP:  cpu time    9.0891: real time    9.4902

 eigenvalue-minimisations  :   282
 total energy-change (2. order) :-0.6641360E-01  (-0.3363317E-03)
 number of electron     100.0000214 magnetization       8.7966379
 augmentation part       62.5153526 magnetization       7.4168826

 Broyden mixing:
  rms(total) = 0.27878E-01    rms(broyden)= 0.27860E-01
  rms(prec ) = 0.30106E-01
  weight for this iteration     100.00

 eigenvalues of (default mixing * dielectric matrix)
  average eigenvalue GAMMA=   0.6391
  3.0236  1.6229  1.6229  0.9089  0.9089  0.7653  0.7653  0.6751  0.6751  0.5836
  0.5836  0.3333  0.2008  0.1022  0.1022  0.1116  0.1116  0.0628  0.0769  0.0854
  0.0995

 Free energy of the ion-electron system (eV)
  ---------------------------------------------------
  alpha Z        PSCENC =         4.70715579
  Ewald energy   TEWEN  =     12701.60591305
  -Hartree energ DENC   =    -22592.99808958
  -exchange      EXHF   =         0.00000000
  -V(xc)+E(xc)   XCENC  =       300.52814845
  PAW double counting   =     10544.76305558   -11222.28032277
  entropy T*S    EENTRO =        -0.05277718
  eigenvalues    EBANDS =      -548.63250174
  atomic energy  EATOM  =     10776.63837129
  Solvation  Ediel_sol  =         0.00000000
  ---------------------------------------------------
  free energy    TOTEN  =       -35.72104709 eV

  energy without entropy =      -35.66826991  energy(sigma->0) =      -35.70345470


--------------------------------------------------------------------------------------------------------




--------------------------------------- Iteration      1(  27)  ---------------------------------------


    POTLOK:  cpu time    1.5944: real time    1.6012
    SETDIJ:  cpu time    0.0182: real time    0.0182
     EDDAV:  cpu time    4.7557: real time    4.7717
       DOS:  cpu time    0.0050: real time    0.0050
    CHARGE:  cpu time    0.4639: real time    0.4644
    MIXING:  cpu time    0.1468: real time    0.1470
    --------------------------------------------
      LOOP:  cpu time    6.9840: real time    7.0076

 eigenvalue-minimisations  :   290
 total energy-change (2. order) :-0.5956032E-01  (-0.2970887E-03)
 number of electron     100.0000214 magnetization       8.7317140
 augmentation part       62.5185826 magnetization       7.3778693

 Broyden mixing:
  rms(total) = 0.13627E-01    rms(broyden)= 0.13606E-01
  rms(prec ) = 0.14950E-01
  weight for this iteration     100.00

 eigenvalues of (default mixing * dielectric matrix)
  average eigenvalue GAMMA=   0.6763
  3.2218  1.8704  1.8704  0.9417  0.9417  0.8412  0.7329  0.7329  0.5813  0.5813
  0.6387  0.6387  0.3333  0.2008  0.1022  0.1022  0.1116  0.1116  0.0628  0.0769
  0.0854  0.0995

 Free energy of the ion-electron system (eV)
  ---------------------------------------------------
  alpha Z        PSCENC =         4.70715579
  Ewald energy   TEWEN  =     12701.60591305
  -Hartree energ DENC   =    -22594.10304536
  -exchange      EXHF   =         0.00000000
  -V(xc)+E(xc)   XCENC  =       300.47576203
  PAW double counting   =     10541.12061302   -11218.64776293
  entropy T*S    EENTRO =        -0.05139940
  eigenvalues    EBANDS =      -547.52621491
  atomic energy  EATOM  =     10776.63837129
  Solvation  Ediel_sol  =         0.00000000
  ---------------------------------------------------
  free energy    TOTEN  =       -35.78060741 eV

  energy without entropy =      -35.72920800  energy(sigma->0) =      -35.76347427


--------------------------------------------------------------------------------------------------------




--------------------------------------- Iteration      1(  28)  ---------------------------------------


    POTLOK:  cpu time    3.7269: real time    3.7916
    SETDIJ:  cpu time    0.0177: real time    0.0178
     EDDAV:  cpu time    5.9202: real time    6.0525
       DOS:  cpu time    0.0034: real time    0.0034
    CHARGE:  cpu time    0.4636: real time    0.4643
    MIXING:  cpu time    0.1570: real time    0.1571
    --------------------------------------------
      LOOP:  cpu time   10.2888: real time   10.4867

 eigenvalue-minimisations  :   266
 total energy-change (2. order) :-0.5007679E-01  (-0.2389306E-03)
 number of electron     100.0000214 magnetization       8.6730702
 augmentation part       62.5206393 magnetization       7.3405499

 Broyden mixing:
  rms(total) = 0.11647E-01    rms(broyden)= 0.11625E-01
  rms(prec ) = 0.12695E-01
  weight for this iteration     100.00

 eigenvalues of (default mixing * dielectric matrix)
  average eigenvalue GAMMA=   0.7243
  3.7310  1.9921  1.9921  1.1209  0.9743  0.9743  0.7352  0.7352  0.5800  0.5800
  0.6683  0.6683  0.6203  0.3333  0.2008  0.1022  0.1022  0.1116  0.1116  0.0628
  0.0769  0.0854  0.0995

 Free energy of the ion-electron system (eV)
  ---------------------------------------------------
  alpha Z        PSCENC =         4.70715579
  Ewald energy   TEWEN  =     12701.60591305
  -Hartree energ DENC   =    -22595.31129029
  -exchange      EXHF   =         0.00000000
  -V(xc)+E(xc)   XCENC  =       300.43291552
  PAW double counting   =     10538.30150380   -11215.84254697
  entropy T*S    EENTRO =        -0.05170311
  eigenvalues    EBANDS =      -546.31100329
  atomic energy  EATOM  =     10776.63837129
  Solvation  Ediel_sol  =         0.00000000
  ---------------------------------------------------
  free energy    TOTEN  =       -35.83068420 eV

  energy without entropy =      -35.77898109  energy(sigma->0) =      -35.81344983


--------------------------------------------------------------------------------------------------------




--------------------------------------- Iteration      1(  29)  ---------------------------------------


    POTLOK:  cpu time    1.5891: real time    1.5949
    SETDIJ:  cpu time    0.0173: real time    0.0173
     EDDAV:  cpu time    3.9877: real time    3.9951
       DOS:  cpu time    0.0036: real time    0.0036
    CHARGE:  cpu time    0.4655: real time    0.4662
    MIXING:  cpu time    0.1681: real time    0.1683
    --------------------------------------------
      LOOP:  cpu time    6.2313: real time    6.2454

 eigenvalue-minimisations  :   252
 total energy-change (2. order) :-0.3512014E-01  (-0.1342185E-03)
 number of electron     100.0000214 magnetization       8.6384243
 augmentation part       62.5190731 magnetization       7.3231249

 Broyden mixing:
  rms(total) = 0.10200E-01    rms(broyden)= 0.10189E-01
  rms(prec ) = 0.10952E-01
  weight for this iteration     100.00

 eigenvalues of (default mixing * dielectric matrix)
  average eigenvalue GAMMA=   0.7383
  3.9344  2.0427  2.0427  0.9997  0.9997  1.0575  0.7555  0.7555  0.7238  0.7238
  0.5829  0.5829  0.6155  0.6155  0.3333  0.2008  0.1022  0.1022  0.1116  0.1116
  0.0628  0.0769  0.0854  0.0995

 Free energy of the ion-electron system (eV)
  ---------------------------------------------------
  alpha Z        PSCENC =         4.70715579
  Ewald energy   TEWEN  =     12701.60591305
  -Hartree energ DENC   =    -22596.38948113
  -exchange      EXHF   =         0.00000000
  -V(xc)+E(xc)   XCENC  =       300.40770040
  PAW double counting   =     10536.96261095   -11214.52179627
  entropy T*S    EENTRO =        -0.05155805
  eigenvalues    EBANDS =      -545.22472038
  atomic energy  EATOM  =     10776.63837129
  Solvation  Ediel_sol  =         0.00000000
  ---------------------------------------------------
  free energy    TOTEN  =       -35.86580433 eV

  energy without entropy =      -35.81424629  energy(sigma->0) =      -35.84861832


--------------------------------------------------------------------------------------------------------




--------------------------------------- Iteration      1(  30)  ---------------------------------------


    POTLOK:  cpu time    1.5876: real time    1.5899
    SETDIJ:  cpu time    0.0172: real time    0.0172
     EDDAV:  cpu time    3.8209: real time    3.8261
       DOS:  cpu time    0.0024: real time    0.0025
    CHARGE:  cpu time    0.4696: real time    0.4703
    MIXING:  cpu time    0.1796: real time    0.1798
    --------------------------------------------
      LOOP:  cpu time    6.0773: real time    6.0857

 eigenvalue-minimisations  :   236
 total energy-change (2. order) :-0.1924185E-01  (-0.4977642E-04)
 number of electron     100.0000214 magnetization       8.5880535
 augmentation part       62.5195555 magnetization       7.2828157

 Broyden mixing:
  rms(total) = 0.62900E-02    rms(broyden)= 0.62781E-02
  rms(prec ) = 0.67466E-02
  weight for this iteration     100.00

 eigenvalues of (default mixing * dielectric matrix)
  average eigenvalue GAMMA=   0.7728
  4.3100  2.0752  2.0752  0.9772  0.9772  1.0771  1.0223  1.0223  0.7207  0.7207
  0.5804  0.5804  0.6402  0.6402  0.6144  0.3333  0.2008  0.1022  0.1022  0.1116
  0.1116  0.0628  0.0769  0.0854  0.0995

 Free energy of the ion-electron system (eV)
  ---------------------------------------------------
  alpha Z        PSCENC =         4.70715579
  Ewald energy   TEWEN  =     12701.60591305
  -Hartree energ DENC   =    -22596.82142261
  -exchange      EXHF   =         0.00000000
  -V(xc)+E(xc)   XCENC  =       300.39049994
  PAW double counting   =     10536.03146304   -11213.58234265
  entropy T*S    EENTRO =        -0.05173744
  eigenvalues    EBANDS =      -544.80294661
  atomic energy  EATOM  =     10776.63837129
  Solvation  Ediel_sol  =         0.00000000
  ---------------------------------------------------
  free energy    TOTEN  =       -35.88504619 eV

  energy without entropy =      -35.83330875  energy(sigma->0) =      -35.86780037


--------------------------------------------------------------------------------------------------------




--------------------------------------- Iteration      1(  31)  ---------------------------------------


    POTLOK:  cpu time    1.7369: real time    1.7387
    SETDIJ:  cpu time    0.0173: real time    0.0173
     EDDAV:  cpu time    3.8228: real time    3.8292
       DOS:  cpu time    0.0013: real time    0.0013
    CHARGE:  cpu time    0.4428: real time    0.4433
    MIXING:  cpu time    0.1890: real time    0.1892
    --------------------------------------------
      LOOP:  cpu time    6.2103: real time    6.2191

 eigenvalue-minimisations  :   236
 total energy-change (2. order) :-0.2469936E-01  (-0.7505347E-04)
 number of electron     100.0000214 magnetization       8.5415883
 augmentation part       62.5198553 magnetization       7.2507779

 Broyden mixing:
  rms(total) = 0.51908E-02    rms(broyden)= 0.51813E-02
  rms(prec ) = 0.55068E-02
  weight for this iteration     100.00

 eigenvalues of (default mixing * dielectric matrix)
  average eigenvalue GAMMA=   0.8172
  5.0725  2.3771  2.0010  1.1373  1.1373  1.1319  0.9596  0.9596  0.7253  0.7253
[...]
 total energy-change (2. order) : 0.3798380E-04  (-0.1530879E-04)
 number of electron     100.0000080 magnetization       8.1927012
 augmentation part       62.3691330 magnetization       7.0275923

 Free energy of the ion-electron system (eV)
  ---------------------------------------------------
  alpha Z        PSCENC =         4.70715579
  Ewald energy   TEWEN  =     13435.49796535
  -Hartree energ DENC   =    -23314.27144751
  -exchange      EXHF   =         0.00000000
  -V(xc)+E(xc)   XCENC  =       301.57137506
  PAW double counting   =     10825.69883574   -11506.60358676
  entropy T*S    EENTRO =        -0.02435237
  eigenvalues    EBANDS =      -559.59693799
  atomic energy  EATOM  =     10776.63837129
  Solvation  Ediel_sol  =         0.00000000
  ---------------------------------------------------
  free energy    TOTEN  =       -36.38262139 eV

  energy without entropy =      -36.35826903  energy(sigma->0) =      -36.37450394


--------------------------------------------------------------------------------------------------------




 average (electrostatic) potential at core
  the test charge radii are     0.9791
  (the norm of the test charge is              1.0000)
       1 -95.0382       2 -94.7834       3 -94.6111       4 -94.9209       5 -95.0120
       6 -94.8844       7 -94.8957       8 -94.9645       9 -95.2227      10 -94.6317
 
 
 
 E-fermi :  -3.8256     XC(G=0):  -0.3160     alpha+bet : -0.1653


 spin component 1

 k-point     1 :       0.0000    0.0000    0.0000
  band No.  band energies     occupation 
      1      -9.8642      1.00000
      2      -8.2503      1.00000
      3      -8.0661      1.00000
      4      -7.5700      1.00000
      5      -7.4250      1.00000
      6      -7.3406      1.00000
      7      -7.1659      1.00000
      8      -7.1513      1.00000
      9      -7.0604      1.00000
     10      -6.9599      1.00000
     11      -6.9037      1.00000
     12      -6.8930      1.00000
     13      -6.8493      1.00000
     14      -6.7145      1.00000
     15      -6.5797      1.00000
     16      -6.3687      1.00000
     17      -6.3462      1.00000
     18      -6.2406      1.00000
     19      -6.1379      1.00000
     20      -6.0703      1.00000
     21      -5.9464      1.00000
     22      -5.8717      1.00000
     23      -5.8384      1.00000
     24      -5.7921      1.00000
     25      -5.6322      1.00000
     26      -5.6116      1.00000
     27      -5.4985      1.00000
     28      -5.4528      1.00000
     29      -5.3546      1.00000
     30      -5.2476      1.00000
     31      -5.2325      1.00000
     32      -5.1779      1.00000
     33      -5.1153      1.00000
     34      -5.0878      1.00000
     35      -5.0541      1.00000
     36      -5.0045      1.00000
     37      -4.9882      1.00000
     38      -4.9716      1.00000
     39      -4.9166      1.00000
     40      -4.8713      1.00000
     41      -4.8298      1.00000
     42      -4.8089      1.00000
     43      -4.7799      1.00000
     44      -4.7515      1.00000
     45      -4.7270      1.00000
     46      -4.7139      1.00000
     47      -4.6604      1.00000
     48      -4.6396      1.00000
     49      -4.6070      1.00000
     50      -4.5751      1.00000
     51      -4.5668      1.00000
     52      -4.5370      1.00000
     53      -4.5183      1.00001
     54      -4.3707      1.00040
     55      -3.7146      0.10128
     56      -3.0000     -0.00000
     57      -2.8501     -0.00000
     58      -2.5531     -0.00000
     59      -2.1935     -0.00000
     60      -1.8056     -0.00000
     61      -1.5620     -0.00000
     62      -0.8966     -0.00000
     63      -0.7541     -0.00000
     64      -0.5447     -0.00000
     65      -0.2993     -0.00000
     66      -0.1566     -0.00000

 spin component 2

 k-point     1 :       0.0000    0.0000    0.0000
  band No.  band energies     occupation 
      1      -9.8419      1.00000
      2      -8.0341      1.00000
      3      -7.7695      1.00000
      4      -7.1302      1.00000
      5      -6.9416      1.00000
      6      -6.7593      1.00000
      7      -6.5532      1.00000
      8      -6.5057      1.00000
      9      -6.4084      1.00000
     10      -6.2599      1.00000
     11      -6.1414      1.00000
     12      -6.1246      1.00000
     13      -6.0610      1.00000
     14      -5.9725      1.00000
     15      -5.8477      1.00000
     16      -5.6561      1.00000
     17      -5.6266      1.00000
     18      -5.5182      1.00000
     19      -5.4158      1.00000
     20      -5.2395      1.00000
     21      -5.1835      1.00000
     22      -5.1458      1.00000
     23      -5.0252      1.00000
     24      -4.9882      1.00000
     25      -4.9308      1.00000
     26      -4.8938      1.00000
     27      -4.8479      1.00000
     28      -4.7336      1.00000
     29      -4.7170      1.00000
     30      -4.6080      1.00000
     31      -4.5476      1.00000
     32      -4.4392      1.00006
     33      -4.4122      1.00014
     34      -4.3555      1.00058
     35      -4.3217      1.00126
     36      -4.3011      1.00197
     37      -4.2781      1.00313
     38      -4.2321      1.00719
     39      -4.1878      1.01401
     40      -4.1775      1.01603
     41      -4.1032      1.03220
     42      -4.0353      1.02948
     43      -3.9672      0.96263
     44      -3.9358      0.89674
     45      -3.9106      0.82624
     46      -3.8233      0.49017
     47      -3.7954      0.37398
     48      -3.7552      0.22177
     49      -3.7116      0.09387
     50      -3.6940      0.05564
     51      -3.6042     -0.03296
     52      -3.5846     -0.03539
     53      -3.5742     -0.03531
     54      -3.5121     -0.02456
     55      -3.2920     -0.00053
     56      -2.7381     -0.00000
     57      -2.5970     -0.00000
     58      -2.2533     -0.00000
     59      -1.9306     -0.00000
     60      -1.5474     -0.00000
     61      -1.3603     -0.00000
     62      -0.7853     -0.00000
     63      -0.6597     -0.00000
     64      -0.4358     -0.00000
     65      -0.2129     -0.00000
     66      -0.0524     -0.00000


--------------------------------------------------------------------------------------------------------


 soft charge-density along one line, spin component            1
         0         1         2         3         4         5         6         7         8         9
 total charge-density along one line
 
 soft charge-density along one line, spin component            2
         0         1         2         3         4         5         6         7         8         9
 total charge-density along one line
 
 pseudopotential strength for first ion, spin component:            1
-10.097   0.002  -0.068   0.055   0.040 -10.375   0.002  -0.065
  0.002  -9.870  -0.036   0.055  -0.052   0.002 -10.158  -0.035
 -0.068  -0.036  -9.914   0.050  -0.026  -0.065  -0.035 -10.201
  0.055   0.055   0.050  -9.864   0.157   0.053   0.052   0.047
  0.040  -0.052  -0.026   0.157  -9.958   0.038  -0.050  -0.025
-10.375   0.002  -0.065   0.053   0.038 -10.598   0.001  -0.062
  0.002 -10.158  -0.035   0.052  -0.050   0.001 -10.391  -0.033
 -0.065  -0.035 -10.201   0.047  -0.025  -0.062  -0.033 -10.432
  0.053   0.052   0.047 -10.152   0.150   0.050   0.049   0.045
  0.038  -0.050  -0.025   0.150 -10.242   0.037  -0.047  -0.024
 -0.018  -0.013  -0.020  -0.023  -0.004  -0.018  -0.012  -0.019
 -0.032  -0.023  -0.035  -0.040  -0.007  -0.031  -0.022  -0.034
 -0.004  -0.012   0.000   0.002   0.003  -0.004  -0.011   0.000
  0.002  -0.003  -0.013  -0.006  -0.002   0.002  -0.003  -0.012
 -0.002   0.002   0.003  -0.016  -0.006  -0.001   0.002   0.002
 -0.003  -0.012  -0.000   0.003   0.002  -0.003  -0.011  -0.001
  0.003  -0.002  -0.013  -0.005  -0.002   0.002  -0.002  -0.012
 -0.000   0.003   0.003  -0.017  -0.007   0.000   0.002   0.002
 pseudopotential strength for first ion, spin component:            2
 -9.268   0.093  -0.044   0.025  -0.017  -9.584   0.090  -0.042
  0.093  -9.254   0.042   0.035  -0.019   0.090  -9.571   0.041
 -0.044   0.042  -9.175   0.028   0.003  -0.042   0.041  -9.495
  0.025   0.035   0.028  -9.233   0.026   0.024   0.033   0.027
 -0.017  -0.019   0.003   0.026  -9.329  -0.016  -0.018   0.003
 -9.584   0.090  -0.042   0.024  -0.016  -9.844   0.086  -0.040
  0.090  -9.571   0.041   0.033  -0.018   0.086  -9.832   0.039
 -0.042   0.041  -9.495   0.027   0.003  -0.040   0.039  -9.759
  0.024   0.033   0.027  -9.551   0.025   0.022   0.032   0.025
 -0.016  -0.018   0.003   0.025  -9.643  -0.016  -0.017   0.003
 -0.009  -0.007  -0.011  -0.014  -0.001  -0.008  -0.007  -0.011
 -0.015  -0.013  -0.019  -0.025  -0.001  -0.015  -0.012  -0.018
 -0.008  -0.016   0.003  -0.000   0.005  -0.007  -0.014   0.003
 -0.000  -0.007  -0.018  -0.008  -0.000  -0.000  -0.006  -0.017
 -0.007  -0.000   0.004  -0.017  -0.007  -0.006  -0.000   0.004
 -0.009  -0.018   0.004  -0.000   0.006  -0.008  -0.016   0.003
 -0.000  -0.007  -0.020  -0.008  -0.000  -0.000  -0.006  -0.018
 -0.007  -0.000   0.005  -0.018  -0.007  -0.007  -0.000   0.004
 total augmentation occupancy for first ion, spin component:            1
  2.300  -0.024  -0.233   0.299   0.209  -0.907  -0.058   0.112  -0.156  -0.109   0.181   0.019  -0.124   0.062  -0.110   0.005
 -0.024   3.110  -0.222   0.097  -0.264  -0.039  -1.305   0.121  -0.044   0.181   0.098   0.037  -0.250  -0.058   0.054   0.009
 -0.233  -0.222   2.986   0.133  -0.038   0.108   0.117  -1.269  -0.071   0.005   0.231   0.004   0.150  -0.227   0.139  -0.009
  0.299   0.097   0.133   2.869   0.527  -0.154  -0.039  -0.067  -1.052  -0.259   0.188   0.027   0.054  -0.082  -0.170  -0.005
  0.209  -0.264  -0.038   0.527   3.055  -0.112   0.184   0.002  -0.248  -1.303   0.187  -0.008   0.206   0.016  -0.231  -0.012
 -0.907  -0.039   0.108  -0.154  -0.112   1.166   0.073  -0.020   0.048   0.057  -0.206  -0.003   0.146  -0.041   0.138  -0.014
 -0.058  -1.305   0.117  -0.039   0.184   0.073   1.322  -0.070   0.008  -0.138  -0.136  -0.019   0.286   0.072  -0.035  -0.026
  0.112   0.121  -1.269  -0.067   0.002  -0.020  -0.070   1.304   0.021   0.015  -0.238   0.008  -0.174   0.281  -0.155   0.016
 -0.156  -0.044  -0.071  -1.052  -0.248   0.048   0.008   0.021   1.043   0.101  -0.192  -0.015  -0.034   0.098   0.162   0.004
 -0.109   0.181   0.005  -0.259  -1.303   0.057  -0.138   0.015   0.101   1.345  -0.163   0.011  -0.234  -0.044   0.244   0.022
  0.181   0.098   0.231   0.188   0.187  -0.206  -0.136  -0.238  -0.192  -0.163   2.089  -0.235   0.157   0.234   0.153  -0.027
  0.019   0.037   0.004   0.027  -0.008  -0.003  -0.019   0.008  -0.015   0.011  -0.235   0.036  -0.029  -0.041  -0.032   0.004
 -0.124  -0.250   0.150   0.054   0.206   0.146   0.286  -0.174  -0.034  -0.234   0.157  -0.029   0.246  -0.021  -0.028  -0.022
  0.062  -0.058  -0.227  -0.082   0.016  -0.041   0.072   0.281   0.098  -0.044   0.234  -0.041  -0.021   0.183  -0.021  -0.000
 -0.110   0.054   0.139  -0.170  -0.231   0.138  -0.035  -0.155   0.162   0.244   0.153  -0.032  -0.028  -0.021   0.220   0.001
  0.005   0.009  -0.009  -0.005  -0.012  -0.014  -0.026   0.016   0.004   0.022  -0.027   0.004  -0.022  -0.000   0.001   0.002
 -0.005  -0.003   0.005   0.001  -0.002   0.004  -0.007  -0.025  -0.009   0.004  -0.042   0.006  -0.000  -0.020  -0.001   0.000
  0.000  -0.005  -0.010   0.004   0.012  -0.011   0.003   0.015  -0.017  -0.022  -0.029   0.005   0.001  -0.001  -0.020   0.000
 total augmentation occupancy for first ion, spin component:            2
  1.374   0.233   0.138  -0.150  -0.156  -0.661  -0.092  -0.082   0.087   0.071   0.050   0.018  -0.030  -0.018  -0.029  -0.003
  0.233   0.634   0.202  -0.114   0.132  -0.119  -0.277  -0.093   0.069  -0.067   0.050   0.019  -0.016  -0.008  -0.023  -0.004
  0.138   0.202   0.961  -0.103   0.093  -0.077  -0.089  -0.429   0.060  -0.051   0.028   0.008   0.010  -0.011  -0.007   0.001
 -0.150  -0.114  -0.103   0.716  -0.408   0.081   0.064   0.052  -0.332   0.205   0.006   0.008  -0.022  -0.002   0.010  -0.000
 -0.156   0.132   0.093  -0.408   0.756   0.071  -0.073  -0.043   0.193  -0.358   0.002   0.002   0.005   0.005   0.009   0.003
 -0.661  -0.119  -0.077   0.081   0.071   0.217   0.043   0.035  -0.037  -0.027  -0.018  -0.011   0.009   0.008   0.008   0.002
 -0.092  -0.277  -0.089   0.064  -0.073   0.043   0.039   0.037  -0.031   0.030  -0.017  -0.009   0.001  -0.002   0.010   0.003
 -0.082  -0.093  -0.429   0.052  -0.043   0.035   0.037   0.107  -0.024   0.023  -0.010  -0.006   0.001  -0.008   0.009  -0.001
  0.087   0.069   0.060  -0.332   0.193  -0.037  -0.031  -0.024   0.077  -0.083   0.006  -0.006   0.010  -0.004  -0.006  -0.000
  0.071  -0.067  -0.051   0.205  -0.358  -0.027   0.030   0.023  -0.083   0.087  -0.004  -0.003   0.003   0.001  -0.009  -0.002
  0.050   0.050   0.028   0.006   0.002  -0.018  -0.017  -0.010   0.006  -0.004  -0.110   0.046  -0.026  -0.016  -0.020   0.002
  0.018   0.019   0.008   0.008   0.002  -0.011  -0.009  -0.006  -0.006  -0.003   0.046  -0.007   0.001   0.004   0.002  -0.001
 -0.030  -0.016   0.010  -0.022   0.005   0.009   0.001   0.001   0.010   0.003  -0.026   0.001  -0.008   0.005   0.007   0.002
 -0.018  -0.008  -0.011  -0.002   0.005   0.008  -0.002  -0.008  -0.004   0.001  -0.016   0.004   0.005  -0.013   0.004  -0.000
 -0.029  -0.023  -0.007   0.010   0.009   0.008   0.010   0.009  -0.006  -0.009  -0.020   0.002   0.007   0.004  -0.013  -0.000
 -0.003  -0.004   0.001  -0.000   0.003   0.002   0.003  -0.001  -0.000  -0.002   0.002  -0.001   0.002  -0.000  -0.000  -0.000
 -0.001  -0.004  -0.006  -0.002   0.000  -0.000   0.002   0.004   0.001   0.000   0.002  -0.001  -0.000   0.002  -0.000   0.000
 -0.003  -0.000   0.002  -0.003  -0.001   0.001  -0.000  -0.002   0.003   0.002   0.002  -0.001  -0.000  -0.000   0.002   0.000


------------------------ aborting loop because EDIFF is reached ----------------------------------------


    CHARGE:  cpu time    0.4632: real time    0.4640
    FORLOC:  cpu time    0.0404: real time    0.0405
    FORNL :  cpu time    1.2522: real time    1.2533
    FORCOR:  cpu time    1.5260: real time    1.5310
    FORHAR:  cpu time    0.2049: real time    0.2051
    MIXING:  cpu time    0.0401: real time    0.0402
    OFIELD:  cpu time    0.0000: real time    0.0000

 VOLUME and BASIS-vectors are now :
 -----------------------------------------------------------------------------
  energy-cutoff  :      400.00
  volume of cell :    10834.44
      direct lattice vectors                 reciprocal lattice vectors
    21.517572105  0.000000000  0.000000000     0.046473645  0.000000000  0.000000000
     0.000000000 22.011425243  0.000000000     0.000000000  0.045430952  0.000000000
     0.000000000  0.000000000 22.875209048     0.000000000  0.000000000  0.043715447

  length of vectors
    21.517572105 22.011425243 22.875209048     0.046473645  0.045430952  0.043715447


 FORCES acting on ions
    electron-ion (+dipol)            ewald-force                    non-local-force                 convergence-correction
 -----------------------------------------------------------------------------------------------
   0.501E+03 0.391E+03 0.809E+03   -.501E+03 -.390E+03 -.807E+03   -.591E+00 -.100E+01 -.202E+01   -.292E-01 0.206E-02 -.734E-01
   -.697E+03 0.242E+03 0.840E+03   0.692E+03 -.241E+03 -.833E+03   0.495E+01 -.139E+01 -.713E+01   -.290E-01 0.141E-02 -.667E-01
   0.789E+03 -.616E+03 0.420E+03   -.781E+03 0.612E+03 -.418E+03   -.793E+01 0.414E+01 -.255E+01   -.158E-01 -.285E-01 -.593E-01
   -.396E+03 0.103E+04 0.511E+02   0.394E+03 -.103E+04 -.516E+02   0.201E+01 -.506E+01 0.657E+00   -.412E-01 -.260E-02 -.618E-01
   0.772E+03 0.757E+03 -.152E+03   -.768E+03 -.754E+03 0.152E+03   -.431E+01 -.353E+01 0.130E+00   -.631E-01 -.138E-01 -.437E-01
   -.363E+03 -.889E+03 0.554E+03   0.360E+03 0.884E+03 -.551E+03   0.281E+01 0.473E+01 -.280E+01   -.504E-01 -.172E-01 -.971E-01
   -.444E+03 0.298E+03 -.959E+03   0.440E+03 -.296E+03 0.954E+03   0.345E+01 -.234E+01 0.471E+01   -.119E-01 -.238E-01 0.577E-01
   -.101E+04 -.306E+03 -.301E+03   0.100E+04 0.305E+03 0.299E+03   0.407E+01 0.147E+01 0.150E+01   -.631E-02 0.123E-01 -.561E-01
   0.240E+03 -.733E+03 -.404E+03   -.241E+03 0.733E+03 0.404E+03   0.540E+00 0.496E+00 0.298E+00   -.500E-01 -.109E-01 -.612E-01
   0.604E+03 -.179E+03 -.857E+03   -.598E+03 0.176E+03 0.851E+03   -.626E+01 0.263E+01 0.684E+01   -.324E-01 -.226E-01 0.431E-01
 -----------------------------------------------------------------------------------------------
   0.157E+01 -.245E-01 0.805E+00   -.227E-12 0.199E-12 0.000E+00   -.126E+01 0.139E+00 -.369E+00   -.329E+00 -.104E+00 -.418E+00
 
 
 POSITION                                       TOTAL-FORCE (eV/Angst)
 -----------------------------------------------------------------------------------
     10.14578     10.48264      9.82274         0.030827     -0.021133      0.010782
     12.41345     10.38543      9.27252         0.010954     -0.001186     -0.004762
      9.04205     12.49246      9.96258         0.015214     -0.002144      0.010813
     11.61347      9.10405     11.05362        -0.012374      0.007316      0.000612
      9.45880      9.60382     11.89579        -0.026817      0.008853      0.007885
     11.33637     12.46576      9.84648         0.010915      0.014691     -0.047027
     11.27318     10.20366     13.20237        -0.012763      0.006757     -0.004078
     12.50638     11.17307     11.45590        -0.034368      0.016745     -0.023504
     10.23105     11.81135     11.80977         0.000425     -0.012422      0.035200
      9.18880     11.04480     13.69079         0.017988     -0.017477      0.014080
 -----------------------------------------------------------------------------------
    total drift:                               -0.019802      0.011113      0.017129


--------------------------------------------------------------------------------------------------------



  FREE ENERGIE OF THE ION-ELECTRON SYSTEM (eV)
  ---------------------------------------------------
  free  energy   TOTEN  =       -36.38262139 eV

  energy  without entropy=      -36.35826903  energy(sigma->0) =      -36.37450394
 
 d Force = 0.1386052E-03[ 0.132E-03, 0.145E-03]  d Energy = 0.3748708E-03-0.236E-03
 d Force =-0.4697213E+00[-0.470E+00,-0.470E+00]  d Ewald  =-0.4697212E+00-0.698E-07


--------------------------------------------------------------------------------------------------------


    POTLOK:  cpu time    1.6086: real time    1.6127


--------------------------------------------------------------------------------------------------------




--------------------------------------------------------------------------------------------------------


  
 reached required accuracy - stopping structural energy minimisation
     LOOP+:  cpu time   53.9314: real time   56.3065
    4ORBIT:  cpu time    0.0000: real time    0.0000

 total amount of memory used by VASP MPI-rank0   135827. kBytes
=======================================================================

   base      :      30000. kBytes
   nonl-proj :       3741. kBytes
   fftplans  :      26336. kBytes
   grid      :      62705. kBytes
   one-center:         31. kBytes
   wavefun   :      13014. kBytes
 
  
  
 General timing and accounting informations for this job:
 ========================================================
  
                  Total CPU time used (sec):     2102.441
                            User time (sec):     2079.332
                          System time (sec):       23.109
                         Elapsed time (sec):     2147.169
  
                   Maximum memory used (kb):      269008.
                   Average memory used (kb):           0.
  
                          Minor page faults:      3970471
                          Major page faults:        86101
                 Voluntary context switches:         7724
