<?xml version="1.0" encoding="ISO-8859-1"?>
<modeling>
 <generator>
  <i name="program" type="string">vasp </i>
  <i name="version" type="string">6.1.2  </i>
  <i name="subversion" type="string">22Jul20 (build Aug  2 2021 21:04:21) gamma-only                       parallel </i>
  <i name="platform" type="string">LinuxPGI </i>
  <i name="date" type="string">2021 12 25 </i>
  <i name="time" type="string">16:56:38 </i>
 </generator>
 <incar>
  <i type="int" name="ISPIN">     2</i>
  <i type="int" name="IBRION">     2</i>
  <i type="int" name="NSW">  1000</i>
  <i type="int" name="ISIF">     0</i>
  <i type="int" name="ISYM">     0</i>
  <i name="ENCUT">    400.00000000</i>
  <i type="logical" name="LREAL"> F  </i>
  <i type="int" name="ISMEAR">     1</i>
  <i name="SIGMA">      0.20000000</i>
  <i type="logical" name="LWAVE"> F  </i>
  <i type="logical" name="LCHARG"> F  </i>
  <i type="int" name="KPAR">     1</i>
  <i type="int" name="NCORE">     8</i>
  <i type="string" name="GGA"> PE</i>
  <i type="int" name="ISPIN">     2</i>
 </incar>
 <structure name="primitive_cell" >
  <crystal>
   <varray name="basis" >
    <v>      21.51757210       0.00000000       0.00000000 </v>
    <v>       0.00000000      22.01142524       0.00000000 </v>
    <v>       0.00000000       0.00000000      22.87520905 </v>
   </varray>
   <i name="volume">  10834.44084343 </i>
   <varray name="rec_basis" >
    <v>       0.04647364       0.00000000       0.00000000 </v>
    <v>       0.00000000       0.04543095       0.00000000 </v>
    <v>       0.00000000       0.00000000       0.04371545 </v>
   </varray>
  </crystal>
  <varray name="positions" >
   <v>       0.46888276       0.47412025       0.42564529 </v>
   <v>       0.57918240       0.47236391       0.40432488 </v>
   <v>       0.41770112       0.56972414       0.43508538 </v>
   <v>       0.53798629       0.41441734       0.48561203 </v>
   <v>       0.43338207       0.43435169       0.51990854 </v>
   <v>       0.52957090       0.56793549       0.42566258 </v>
   <v>       0.52576791       0.46048065       0.58026514 </v>
   <v>       0.58618072       0.51195289       0.50215270 </v>
   <v>       0.47827793       0.53535080       0.51579151 </v>
   <v>       0.42547567       0.50069337       0.60223125 </v>
  </varray>
 </structure>
 <varray name="primitive_index" >
  <v type="int" >        1 </v>
  <v type="int" >        2 </v>
  <v type="int" >        3 </v>
  <v type="int" >        4 </v>
  <v type="int" >        5 </v>
  <v type="int" >        6 </v>
  <v type="int" >        7 </v>
  <v type="int" >        8 </v>
  <v type="int" >        9 </v>
  <v type="int" >       10 </v>
 </varray>
 <kpoints>
  <generation param="Gamma">
   <v type="int" name="divisions">       1        1        1 </v>
   <v name="usershift">      0.00000000       0.00000000       0.00000000 </v>
   <v name="genvec1">      1.00000000       0.00000000       0.00000000 </v>
   <v name="genvec2">      0.00000000       1.00000000       0.00000000 </v>
   <v name="genvec3">      0.00000000       0.00000000       1.00000000 </v>
   <v name="shift">      0.00000000       0.00000000       0.00000000 </v>
  </generation>
  <varray name="kpointlist" >
   <v>       0.00000000       0.00000000       0.00000000 </v>
  </varray>
  <varray name="weights" >
   <v>       1.00000000 </v>
  </varray>
 </kpoints>
 <parameters>
  <separator name="general" >
   <i type="string" name="SYSTEM">unknown system</i>
   <i type="logical" name="LCOMPAT"> F  </i>
  </separator>
  <separator name="electronic" >
   <i type="string" name="PREC">normal</i>
   <i name="ENMAX">    400.00000000</i>
   <i name="ENAUG">    544.56500000</i>
   <i name="EDIFF">      0.00010000</i>
   <i type="int" name="IALGO">    38</i>
   <i type="int" name="IWAVPR">    11</i>
   <i type="int" name="NBANDS">    66</i>
   <i type="int" name="NBANDSLOW">    -1</i>
   <i type="int" name="NBANDSHIGH">    -1</i>
   <i name="NELECT">    100.00000000</i>
   <i type="int" name="TURBO">     0</i>
   <i type="int" name="IRESTART">     0</i>
   <i type="int" name="NREBOOT">     0</i>
   <i type="int" name="NMIN">     0</i>
   <i name="EREF">      0.00000000</i>
   <separator name="electronic smearing" >
    <i type="int" name="ISMEAR">     1</i>
    <i name="SIGMA">      0.20000000</i>
    <i name="KSPACING">      0.50000000</i>
    <i type="logical" name="KGAMMA"> T  </i>
    <i type="logical" name="KBLOWUP"> T  </i>
   </separator>
   <separator name="electronic projectors" >
    <i type="logical" name="LREAL"> F  </i>
    <v name="ROPT">      0.00000000</v>
    <i type="int" name="LMAXPAW">  -100</i>
    <i type="int" name="LMAXMIX">     2</i>
    <i type="logical" name="NLSPLINE"> F  </i>
   </separator>
   <separator name="electronic startup" >
    <i type="int" name="ISTART">     0</i>
    <i type="int" name="ICHARG">     2</i>
    <i type="int" name="INIWAV">     1</i>
   </separator>
   <separator name="electronic spin" >
    <i type="int" name="ISPIN">     2</i>
    <i type="logical" name="LNONCOLLINEAR"> F  </i>
    <v name="MAGMOM">      1.00000000      1.00000000      1.00000000      1.00000000      1.00000000      1.00000000      1.00000000      1.00000000      1.00000000      1.00000000</v>
    <i name="NUPDOWN">     -1.00000000</i>
    <i type="logical" name="LSORBIT"> F  </i>
    <v name="SAXIS">      0.00000000      0.00000000      1.00000000</v>
    <i type="logical" name="LSPIRAL"> F  </i>
    <v name="QSPIRAL">      0.00000000      0.00000000      0.00000000</v>
    <i type="logical" name="LZEROZ"> F  </i>
   </separator>
   <separator name="electronic exchange-correlation" >
    <i type="logical" name="LASPH"> F  </i>
    <i type="logical" name="LMETAGGA"> F  </i>
   </separator>
   <separator name="electronic convergence" >
    <i type="int" name="NELM">    60</i>
    <i type="int" name="NELMDL">     0</i>
    <i type="int" name="NELMIN">     2</i>
    <i name="ENINI">    400.00000000</i>
    <separator name="electronic convergence detail" >
     <i type="logical" name="LDIAG"> T  </i>
     <i type="logical" name="LSUBROT"> F  </i>
     <i name="WEIMIN">      0.00100000</i>
     <i name="EBREAK">      0.00000038</i>
     <i name="DEPER">      0.30000000</i>
     <i type="int" name="NRMM">     4</i>
     <i name="TIME">      0.40000000</i>
    </separator>
   </separator>
   <separator name="electronic mixer" >
    <i name="AMIX">      0.40000000</i>
    <i name="BMIX">      1.00000000</i>
    <i name="AMIN">      0.10000000</i>
    <i name="AMIX_MAG">      1.60000000</i>
    <i name="BMIX_MAG">      1.00000000</i>
    <separator name="electronic mixer details" >
     <i type="int" name="IMIX">     4</i>
     <i type="logical" name="MIXFIRST"> F  </i>
     <i type="int" name="MAXMIX">   -45</i>
     <i name="WC">    100.00000000</i>
     <i type="int" name="INIMIX">     1</i>
     <i type="int" name="MIXPRE">     1</i>
     <i type="int" name="MREMOVE">     5</i>
    </separator>
   </separator>
   <separator name="electronic dipolcorrection" >
    <i type="logical" name="LDIPOL"> F  </i>
    <i type="logical" name="LMONO"> F  </i>
    <i type="int" name="IDIPOL">     0</i>
    <i name="EPSILON">      1.00000000</i>
    <v name="DIPOL">   -100.00000000   -100.00000000   -100.00000000</v>
    <i name="EFIELD">      0.00000000</i>
   </separator>
  </separator>
  <separator name="grids" >
   <i type="int" name="NGX">   108</i>
   <i type="int" name="NGY">   108</i>
   <i type="int" name="NGZ">   112</i>
   <i type="int" name="NGXF">   216</i>
   <i type="int" name="NGYF">   216</i>
   <i type="int" name="NGZF">   224</i>
   <i type="logical" name="ADDGRID"> F  </i>
  </separator>
  <separator name="ionic" >
   <i type="int" name="NSW">  1000</i>
   <i type="int" name="IBRION">     2</i>
   <i type="int" name="MDALGO">     0</i>
   <i type="int" name="ISIF">     0</i>
   <i name="PSTRESS">      0.00000000</i>
   <i name="EDIFFG">      0.00100000</i>
   <i type="int" name="NFREE">     1</i>
   <i name="POTIM">      0.50000000</i>
   <i name="SMASS">     -3.00000000</i>
   <i name="SCALEE">      1.00000000</i>
  </separator>
  <separator name="ionic md" >
   <i name="TEBEG">      0.00010000</i>
   <i name="TEEND">      0.00010000</i>
   <i type="int" name="NBLOCK">     1</i>
   <i type="int" name="KBLOCK">  1000</i>
   <i type="int" name="NPACO">   256</i>
   <i name="APACO">     16.00000000</i>
  </separator>
  <separator name="symmetry" >
   <i type="int" name="ISYM">     0</i>
   <i name="SYMPREC">      0.00001000</i>
  </separator>
  <separator name="dos" >
   <i type="int" name="LORBIT">     0</i>
   <v name="RWIGS">     -1.00000000</v>
   <i type="int" name="NEDOS">   301</i>
   <i name="EMIN">     10.00000000</i>
   <i name="EMAX">    -10.00000000</i>
   <i name="EFERMI">      0.00000000</i>
  </separator>
  <separator name="writing" >
   <i type="int" name="NWRITE">     2</i>
   <i type="logical" name="LWAVE"> F  </i>
   <i type="logical" name="LDOWNSAMPLE"> F  </i>
   <i type="logical" name="LCHARG"> F  </i>
   <i type="logical" name="LPARD"> F  </i>
   <i type="logical" name="LVTOT"> F  </i>
   <i type="logical" name="LVHAR"> F  </i>
   <i type="logical" name="LELF"> F  </i>
   <i type="logical" name="LOPTICS"> F  </i>
   <v name="STM">      0.00000000      0.00000000      0.00000000      0.00000000      0.00000000      0.00000000      0.00000000</v>
  </separator>
  <separator name="performance" >
   <i type="int" name="NPAR">     2</i>
   <i type="int" name="NSIM">     4</i>
   <i type="int" name="NBLK">    -1</i>
   <i type="logical" name="LPLANE"> T  </i>
   <i type="logical" name="LSCALAPACK"> T  </i>
   <i type="logical" name="LSCAAWARE"> F  </i>
   <i type="logical" name="LSCALU"> F  </i>
   <i type="logical" name="LASYNC"> F  </i>
   <i type="logical" name="LORBITALREAL"> F  </i>
  </separator>
  <separator name="miscellaneous" >
   <i type="int" name="IDIOT">     3</i>
   <i type="int" name="PHON_NSTRUCT">    -1</i>
   <i type="logical" name="LMUSIC"> F  </i>
   <v name="POMASS">     58.69000000</v>
   <v name="DARWINR">      0.00000000</v>
   <v name="DARWINV">      1.00000000</v>
   <i type="logical" name="LCORR"> T  </i>
  </separator>
  <i type="logical" name="GGA_COMPAT"> T  </i>
  <i type="logical" name="LBERRY"> F  </i>
  <i type="int" name="ICORELEVEL">     0</i>
  <i type="logical" name="LDAU"> F  </i>
  <i type="int" name="I_CONSTRAINED_M">     0</i>
  <separator name="electronic exchange-correlation" >
   <i type="string" name="GGA">PE</i>
   <i type="int" name="VOSKOWN">     0</i>
   <i type="logical" name="LHFCALC"> F  </i>
   <i type="string" name="PRECFOCK"></i>
   <i type="logical" name="LSYMGRAD"> F  </i>
   <i type="logical" name="LHFONE"> F  </i>
   <i type="logical" name="LRHFCALC"> F  </i>
   <i type="logical" name="LTHOMAS"> F  </i>
   <i type="logical" name="LMODELHF"> F  </i>
   <i type="logical" name="LFOCKACE"> F  </i>
   <i name="ENCUT4O">     -1.00000000</i>
   <i type="int" name="EXXOEP">     0</i>
   <i type="int" name="FOURORBIT">     0</i>
   <i name="AEXX">      0.00000000</i>
   <i name="HFALPHA">      0.00000000</i>
   <i name="MCALPHA">      0.00000000</i>
   <i name="ALDAX">      1.00000000</i>
   <i name="AGGAX">      1.00000000</i>
   <i name="ALDAC">      1.00000000</i>
   <i name="AGGAC">      1.00000000</i>
   <i type="int" name="NKREDX">     1</i>
   <i type="int" name="NKREDY">     1</i>
   <i type="int" name="NKREDZ">     1</i>
   <i type="logical" name="SHIFTRED"> F  </i>
   <i type="logical" name="ODDONLY"> F  </i>
   <i type="logical" name="EVENONLY"> F  </i>
   <i type="int" name="LMAXFOCK">     0</i>
   <i type="int" name="NMAXFOCKAE">     0</i>
   <i type="logical" name="LFOCKAEDFT"> F  </i>
   <i name="HFSCREEN">      0.00000000</i>
   <i name="HFSCREENC">      0.00000000</i>
   <i type="int" name="NBANDSGWLOW">     0</i>
  </separator>
  <separator name="vdW DFT" >
   <i type="logical" name="LUSE_VDW"> F  </i>
   <i name="Zab_VDW">     -0.84910000</i>
   <i name="PARAM1">      0.12340000</i>
   <i name="PARAM2">      1.00000000</i>
   <i name="PARAM3">      0.00000000</i>
  </separator>
  <separator name="model GW" >
   <i type="int" name="MODEL_GW">     0</i>
   <i name="MODEL_EPS0">    650.06645061</i>
   <i name="MODEL_ALPHA">      1.00000000</i>
  </separator>
  <separator name="linear response parameters" >
   <i type="logical" name="LEPSILON"> F  </i>
   <i type="logical" name="LRPA"> F  </i>
   <i type="logical" name="LNABLA"> F  </i>
   <i type="logical" name="LVEL"> F  </i>
   <i type="int" name="KINTER">     0</i>
   <i name="CSHIFT">      0.10000000</i>
   <i name="OMEGAMAX">     -1.00000000</i>
   <i name="DEG_THRESHOLD">      0.00200000</i>
   <i name="RTIME">     -0.10000000</i>
   <i name="WPLASMAI">      0.00000000</i>
   <v name="DFIELD">      0.00000000      0.00000000      0.00000000</v>
   <v name="WPLASMA">      0.00000000      0.00000000      0.00000000      0.00000000      0.00000000      0.00000000      0.00000000      0.00000000      0.00000000</v>
  </separator>
  <separator name="orbital magnetization" >
   <i type="logical" name="NUCIND"> F  </i>
   <v name="MAGPOS">      0.00000000      0.00000000      0.00000000</v>
   <i type="logical" name="LNICSALL"> T  </i>
   <i type="logical" name="ORBITALMAG"> F  </i>
   <i type="logical" name="LMAGBLOCH"> F  </i>
   <i type="logical" name="LCHIMAG"> F  </i>
   <i type="logical" name="LGAUGE"> T  </i>
   <i type="int" name="MAGATOM">     0</i>
   <v name="MAGDIPOL">      0.00000000      0.00000000      0.00000000</v>
   <v name="AVECCONST">      0.00000000      0.00000000      0.00000000</v>
  </separator>
  <separator name="response functions" >
   <i type="logical" name="LFINITE_TEMPERATURE"> F  </i>
   <i type="logical" name="LADDER"> F  </i>
   <i type="logical" name="LRPAFORCE"> F  </i>
   <i type="logical" name="LFXC"> F  </i>
   <i type="logical" name="LHARTREE"> T  </i>
   <i type="int" name="IBSE">     0</i>
   <v type="int" name="KPOINT">    -1     0     0     0</v>
   <i type="logical" name="LTCTC"> F  </i>
   <i type="logical" name="LTCTE"> F  </i>
   <i type="logical" name="LTETE"> F  </i>
   <i type="logical" name="LTRIPLET"> F  </i>
   <i type="logical" name="LFXCEPS"> F  </i>
   <i type="logical" name="LFXHEG"> F  </i>
   <i type="int" name="NATURALO">     2</i>
   <i type="logical" name="LHOLEGF"> F  </i>
   <i type="logical" name="L2ORDER"> F  </i>
   <i type="logical" name="LDMP1"> F  </i>
   <i type="logical" name="LMP2LT"> F  </i>
   <i type="logical" name="LSMP2LT"> F  </i>
   <i type="logical" name="LGWLF"> F  </i>
   <i name="ENCUTGW">     -2.00000000</i>
   <i name="ENCUTGWSOFT">     -2.00000000</i>
   <i name="ENCUTLF">     -1.00000000</i>
   <i type="logical" name="LESF_SPLINES"> F  </i>
   <i type="int" name="LMAXMP2">    -1</i>
   <i name="SCISSOR">      0.00000000</i>
   <i type="int" name="NOMEGA">     0</i>
   <i type="int" name="NOMEGAR">     0</i>
   <i type="int" name="NBANDSGW">    -1</i>
   <i type="int" name="NBANDSO">    -1</i>
   <i type="int" name="NBANDSV">    -1</i>
   <i type="int" name="NELM">     1</i>
   <i type="int" name="NELMHF">     1</i>
   <i type="int" name="DIM">     3</i>
   <i type="int" name="IESPILON">     4</i>
   <i type="int" name="ANTIRES">     0</i>
   <i name="OMEGAMAX">    -30.00000000</i>
   <i name="OMEGAMIN">    -30.00000000</i>
   <i name="OMEGATL">   -200.00000000</i>
   <i type="int" name="OMEGAGRID">     0</i>
   <i name="CSHIFT">     -0.10000000</i>
   <i type="logical" name="LSELFENERGY"> F  </i>
   <i type="logical" name="LSPECTRAL"> F  </i>
   <i type="logical" name="LSPECTRALGW"> F  </i>
   <i type="logical" name="LSINGLES"> F  </i>
   <i type="logical" name="LFERMIGW"> F  </i>
   <i type="logical" name="ODDONLYGW"> F  </i>
   <i type="logical" name="EVENONLYGW"> F  </i>
   <i type="int" name="NKREDLFX">     1</i>
   <i type="int" name="NKREDLFY">     1</i>
   <i type="int" name="NKREDLFZ">     1</i>
   <i type="int" name="MAXMEM">  2800</i>
   <i type="int" name="TELESCOPE">     0</i>
   <i type="int" name="NTAUPAR">    -1</i>
   <i type="int" name="NOMEGAPAR">    -1</i>
   <i name="LAMBDA">      1.00000000</i>
  </separator>
  <separator name="External order field" >
   <i name="OFIELD_KAPPA">      0.00000000</i>
   <v name="OFIELD_K">      0.00000000      0.00000000      0.00000000</v>
   <i name="OFIELD_Q6_NEAR">      0.00000000</i>
   <i name="OFIELD_Q6_FAR">      0.00000000</i>
   <i name="OFIELD_A">      0.00000000</i>
  </separator>
 </parameters>
 <atominfo>
  <atoms>      10 </atoms>
  <types>       1 </types>
  <array name="atoms" >
   <dimension dim="1">ion</dimension>
   <field type="string">element</field>
   <field type="int">atomtype</field>
   <set>
    <rc><c>Ni</c><c>   1</c></rc>
    <rc><c>Ni</c><c>   1</c></rc>
    <rc><c>Ni</c><c>   1</c></rc>
    <rc><c>Ni</c><c>   1</c></rc>
    <rc><c>Ni</c><c>   1</c></rc>
    <rc><c>Ni</c><c>   1</c></rc>
    <rc><c>Ni</c><c>   1</c></rc>
    <rc><c>Ni</c><c>   1</c></rc>
    <rc><c>Ni</c><c>   1</c></rc>
    <rc><c>Ni</c><c>   1</c></rc>
   </set>
  </array>
  <array name="atomtypes" >
   <dimension dim="1">type</dimension>
   <field type="int">atomspertype</field>
   <field type="string">element</field>
   <field>mass</field>
   <field>valence</field>
   <field type="string">pseudopotential</field>
   <set>
    <rc><c>  10</c><c>Ni</c><c>     58.69000000</c><c>     10.00000000</c><c>  PAW_PBE Ni 02Aug2007                  </c></rc>
   </set>
  </array>
 </atominfo>
 <structure name="initialpos" >
  <crystal>
   <varray name="basis" >
    <v>      21.51757210       0.00000000       0.00000000 </v>
    <v>       0.00000000      22.01142524       0.00000000 </v>
    <v>       0.00000000       0.00000000      22.87520905 </v>
   </varray>
   <i name="volume">  10834.44084343 </i>
   <varray name="rec_basis" >
    <v>       0.04647364       0.00000000       0.00000000 </v>
    <v>       0.00000000       0.04543095       0.00000000 </v>
    <v>       0.00000000       0.00000000       0.04371545 </v>
   </varray>
  </crystal>
  <varray name="positions" >
   <v>       0.46888276       0.47412025       0.42564529 </v>
   <v>       0.57918240       0.47236391       0.40432488 </v>
   <v>       0.41770112       0.56972414       0.43508538 </v>
   <v>       0.53798629       0.41441734       0.48561203 </v>
   <v>       0.43338207       0.43435169       0.51990854 </v>
   <v>       0.52957090       0.56793549       0.42566258 </v>
   <v>       0.52576791       0.46048065       0.58026514 </v>
   <v>       0.58618072       0.51195289       0.50215270 </v>
   <v>       0.47827793       0.53535080       0.51579151 </v>
   <v>       0.42547567       0.50069337       0.60223125 </v>
  </varray>
 </structure>
 <calculation>
  <scstep>
   <time name="dav">    4.11    4.13</time>
   <time name="total">    5.70    5.73</time>
   <energy>
    <i name="alphaZ">      4.70715579 </i>
    <i name="ewald">  12701.60591305 </i>
    <i name="hartreedc"> -22554.31753501 </i>
    <i name="XCdc">    304.82740307 </i>
    <i name="pawpsdc">   9628.33173603 </i>
    <i name="pawaedc"> -10296.70712275 </i>
    <i name="eentropy">     -0.01171580 </i>
    <i name="bandstr">     60.99221078 </i>
    <i name="atom">  10776.63837129 </i>
    <i name="e_fr_energy">    626.06641646 </i>
    <i name="e_wo_entrp">    626.07813226 </i>
    <i name="e_0_energy">    626.07032173 </i>
   </energy>
  </scstep>
  <scstep>
   <time name="dav">    7.28    7.30</time>
   <time name="total">    7.29    7.30</time>
   <energy>
    <i name="e_fr_energy">    101.21202886 </i>
    <i name="e_wo_entrp">    101.22941423 </i>
    <i name="e_0_energy">    101.21782398 </i>
   </energy>
  </scstep>
  <scstep>
   <time name="dav">    4.77    4.80</time>
   <time name="total">    4.77    4.80</time>
   <energy>
    <i name="e_fr_energy">    -30.35223700 </i>
    <i name="e_wo_entrp">    -30.31387827 </i>
    <i name="e_0_energy">    -30.33945076 </i>
   </energy>
  </scstep>
  <scstep>
   <time name="dav">    4.66    4.79</time>
   <time name="total">    4.67    4.79</time>
   <energy>
    <i name="e_fr_energy">    -41.36151178 </i>
    <i name="e_wo_entrp">    -41.29040283 </i>
    <i name="e_0_energy">    -41.33780879 </i>
   </energy>
  </scstep>
  <scstep>
   <time name="dav">   10.21   10.48</time>
   <time name="total">   10.70   10.96</time>
   <energy>
    <i name="e_fr_energy">    -41.61679433 </i>
    <i name="e_wo_entrp">    -41.54643683 </i>
    <i name="e_0_energy">    -41.59334183 </i>
   </energy>
  </scstep>
  <scstep>
   <time name="dav">    9.94    9.95</time>
   <time name="total">   13.40   13.41</time>
   <energy>
    <i name="e_fr_energy">    -43.04233555 </i>
    <i name="e_wo_entrp">    -43.04807401 </i>
    <i name="e_0_energy">    -43.04424837 </i>
   </energy>
  </scstep>
  <scstep>
   <time name="dav">    4.41    4.41</time>
   <time name="total">    6.50    6.51</time>
   <energy>
    <i name="e_fr_energy">    -40.66678536 </i>
    <i name="e_wo_entrp">    -40.72219798 </i>
    <i name="e_0_energy">    -40.68525623 </i>
   </energy>
  </scstep>
  <scstep>
   <time name="dav">    5.06    5.23</time>
   <time name="total">    7.18    7.36</time>
   <energy>
    <i name="e_fr_energy">    -40.23237697 </i>
    <i name="e_wo_entrp">    -40.24868025 </i>
    <i name="e_0_energy">    -40.23781140 </i>
   </energy>
  </scstep>
  <scstep>
   <time name="dav">    8.84    8.86</time>
   <time name="total">   10.97   10.99</time>
   <energy>
    <i name="e_fr_energy">    -38.12807439 </i>
    <i name="e_wo_entrp">    -38.18497608 </i>
    <i name="e_0_energy">    -38.14704162 </i>
   </energy>
  </scstep>
  <scstep>
   <time name="dav">    8.65    8.66</time>
   <time name="total">   10.78   10.80</time>
   <energy>
    <i name="e_fr_energy">    -36.66757939 </i>
    <i name="e_wo_entrp">    -36.63279817 </i>
    <i name="e_0_energy">    -36.65598565 </i>
   </energy>
  </scstep>
  <scstep>
   <time name="dav">    9.47    9.48</time>
   <time name="total">   11.58   11.60</time>
   <energy>
    <i name="e_fr_energy">    -37.20567985 </i>
    <i name="e_wo_entrp">    -37.19957658 </i>
    <i name="e_0_energy">    -37.20364543 </i>
   </energy>
  </scstep>
  <scstep>
   <time name="dav">    5.04    5.05</time>
   <time name="total">    7.19    7.22</time>
   <energy>
    <i name="e_fr_energy">    -36.90369112 </i>
    <i name="e_wo_entrp">    -36.86287567 </i>
    <i name="e_0_energy">    -36.89008597 </i>
   </energy>
  </scstep>
  <scstep>
   <time name="dav">    4.71    4.72</time>
   <time name="total">    6.83    6.84</time>
   <energy>
    <i name="e_fr_energy">    -35.67334882 </i>
    <i name="e_wo_entrp">    -35.59159115 </i>
    <i name="e_0_energy">    -35.64609626 </i>
   </energy>
  </scstep>
  <scstep>
   <time name="dav">    4.88    4.90</time>
   <time name="total">    6.99    7.01</time>
   <energy>
    <i name="e_fr_energy">    -35.35451578 </i>
    <i name="e_wo_entrp">    -35.28519727 </i>
    <i name="e_0_energy">    -35.33140961 </i>
   </energy>
  </scstep>
  <scstep>
   <time name="dav">    6.78    6.92</time>
   <time name="total">   10.95   11.54</time>
   <energy>
    <i name="e_fr_energy">    -35.22614248 </i>
    <i name="e_wo_entrp">    -35.15823403 </i>
    <i name="e_0_energy">    -35.20350633 </i>
   </energy>
  </scstep>
  <scstep>
   <time name="dav">    8.90    9.51</time>
   <time name="total">   11.02   11.64</time>
   <energy>
    <i name="e_fr_energy">    -35.26526957 </i>
    <i name="e_wo_entrp">    -35.21076745 </i>
    <i name="e_0_energy">    -35.24710220 </i>
   </energy>
  </scstep>
  <scstep>
   <time name="dav">    4.65    4.68</time>
   <time name="total">    6.78    6.82</time>
   <energy>
    <i name="e_fr_energy">    -35.14663643 </i>
    <i name="e_wo_entrp">    -35.08476638 </i>
    <i name="e_0_energy">    -35.12601308 </i>
   </energy>
  </scstep>
  <scstep>
   <time name="dav">    5.02    5.04</time>
   <time name="total">    7.14    7.18</time>
   <energy>
    <i name="e_fr_energy">    -35.12928004 </i>
    <i name="e_wo_entrp">    -35.04839191 </i>
    <i name="e_0_energy">    -35.10231733 </i>
   </energy>
  </scstep>
  <scstep>
   <time name="dav">    4.70    4.72</time>
   <time name="total">    6.82    6.86</time>
   <energy>
    <i name="e_fr_energy">    -35.20284032 </i>
    <i name="e_wo_entrp">    -35.13632947 </i>
    <i name="e_0_energy">    -35.18067003 </i>
   </energy>
  </scstep>
  <scstep>
   <time name="dav">    5.83    6.28</time>
   <time name="total">    7.97    8.43</time>
   <energy>
    <i name="e_fr_energy">    -35.28085368 </i>
    <i name="e_wo_entrp">    -35.21032274 </i>
    <i name="e_0_energy">    -35.25734337 </i>
   </energy>
  </scstep>
  <scstep>
   <time name="dav">    4.13    4.13</time>
   <time name="total">    6.27    6.29</time>
   <energy>
    <i name="e_fr_energy">    -35.31656077 </i>
    <i name="e_wo_entrp">    -35.26612514 </i>
    <i name="e_0_energy">    -35.29974889 </i>
   </energy>
  </scstep>
  <scstep>
   <time name="dav">    6.98    7.94</time>
   <time name="total">    9.13   10.10</time>
   <energy>
    <i name="e_fr_energy">    -35.42590112 </i>
    <i name="e_wo_entrp">    -35.36855591 </i>
    <i name="e_0_energy">    -35.40678605 </i>
   </energy>
  </scstep>
  <scstep>
   <time name="dav">    4.63    4.63</time>
   <time name="total">    6.79    6.80</time>
   <energy>
    <i name="e_fr_energy">    -35.52741487 </i>
    <i name="e_wo_entrp">    -35.46957766 </i>
    <i name="e_0_energy">    -35.50813580 </i>
   </energy>
  </scstep>
  <scstep>
   <time name="dav">    4.20    4.20</time>
   <time name="total">    6.38    6.39</time>
   <energy>
    <i name="e_fr_energy">    -35.59619769 </i>
    <i name="e_wo_entrp">    -35.54286573 </i>
    <i name="e_0_energy">    -35.57842037 </i>
   </energy>
  </scstep>
  <scstep>
   <time name="dav">    4.91    5.03</time>
   <time name="total">    7.10    7.23</time>
   <energy>
    <i name="e_fr_energy">    -35.65463349 </i>
    <i name="e_wo_entrp">    -35.60237039 </i>
    <i name="e_0_energy">    -35.63721246 </i>
   </energy>
  </scstep>
  <scstep>
   <time name="dav">    6.47    6.86</time>
   <time name="total">    9.09    9.49</time>
   <energy>
    <i name="e_fr_energy">    -35.72104709 </i>
    <i name="e_wo_entrp">    -35.66826991 </i>
    <i name="e_0_energy">    -35.70345470 </i>
   </energy>
  </scstep>
  <scstep>
   <time name="dav">    4.76    4.77</time>
   <time name="total">    6.98    7.01</time>
   <energy>
    <i name="e_fr_energy">    -35.78060741 </i>
    <i name="e_wo_entrp">    -35.72920800 </i>
    <i name="e_0_energy">    -35.76347427 </i>
   </energy>
  </scstep>
  <scstep>
   <time name="dav">    5.92    6.05</time>
   <time name="total">   10.29   10.49</time>
   <energy>
    <i name="e_fr_energy">    -35.83068420 </i>
    <i name="e_wo_entrp">    -35.77898109 </i>
    <i name="e_0_energy">    -35.81344983 </i>
   </energy>
  </scstep>
  <scstep>
   <time name="dav">    3.99    4.00</time>
   <time name="total">    6.23    6.25</time>
   <energy>
    <i name="e_fr_energy">    -35.86580433 </i>
    <i name="e_wo_entrp">    -35.81424629 </i>
    <i name="e_0_energy">    -35.84861832 </i>
   </energy>
  </scstep>
  <scstep>
   <time name="dav">    3.82    3.83</time>
   <time name="total">    6.08    6.09</time>
   <energy>
    <i name="e_fr_energy">    -35.88504619 </i>
    <i name="e_wo_entrp">    -35.83330875 </i>
    <i name="e_0_energy">    -35.86780037 </i>
   </energy>
  </scstep>
  <scstep>
   <time name="dav">    3.82    3.83</time>
   <time name="total">    6.21    6.22</time>
   <energy>
    <i name="e_fr_energy">    -35.90974555 </i>
    <i name="e_wo_entrp">    -35.85810030 </i>
    <i name="e_0_energy">    -35.89253047 </i>
   </energy>
  </scstep>
  <scstep>
   <time name="dav">    4.05    4.06</time>
   <time name="total">    6.34    6.35</time>
   <energy>
    <i name="e_fr_energy">    -35.92855727 </i>
    <i name="e_wo_entrp">    -35.87679777 </i>
    <i name="e_0_energy">    -35.91130410 </i>
   </energy>
  </scstep>
  <scstep>
   <time name="dav">    5.07    5.33</time>
   <time name="total">    8.51    9.10</time>
   <energy>
    <i name="e_fr_energy">    -35.94048309 </i>
    <i name="e_wo_entrp">    -35.88889583 </i>
    <i name="e_0_energy">    -35.92328733 </i>
   </energy>
  </scstep>
  <scstep>
   <time name="dav">    3.59    3.60</time>
   <time name="total">    9.25   10.08</time>
   <energy>
    <i name="e_fr_energy">    -35.94810097 </i>
    <i name="e_wo_entrp">    -35.89639086 </i>
    <i name="e_0_energy">    -35.93086427 </i>
   </energy>
  </scstep>
  <scstep>
   <time name="dav">   17.01   17.37</time>
   <time name="total">   20.86   21.27</time>
   <energy>
    <i name="e_fr_energy">    -35.95183969 </i>
    <i name="e_wo_entrp">    -35.90028996 </i>
    <i name="e_0_energy">    -35.93465644 </i>
   </energy>
  </scstep>
  <scstep>
   <time name="dav">    3.16    3.16</time>
   <time name="total">    5.65    5.86</time>
   <energy>
    <i name="e_fr_energy">    -35.95377606 </i>
    <i name="e_wo_entrp">    -35.90221859 </i>
    <i name="e_0_energy">    -35.93659024 </i>
   </energy>
  </scstep>
  <scstep>
   <time name="dav">    4.98    5.77</time>
   <time name="total">    7.36    8.17</time>
   <energy>
    <i name="e_fr_energy">    -35.95565363 </i>
    <i name="e_wo_entrp">    -35.90407721 </i>
    <i name="e_0_energy">    -35.93846149 </i>
   </energy>
  </scstep>
  <scstep>
   <time name="dav">    3.12    3.12</time>
   <time name="total">    5.46    5.47</time>
   <energy>
    <i name="e_fr_energy">    -35.95686714 </i>
    <i name="e_wo_entrp">    -35.90534719 </i>
    <i name="e_0_energy">    -35.93969382 </i>
   </energy>
  </scstep>
  <scstep>
   <time name="dav">    3.18    3.19</time>
   <time name="total">    5.53    5.54</time>
   <energy>
    <i name="e_fr_energy">    -35.95790716 </i>
    <i name="e_wo_entrp">    -35.90639158 </i>
    <i name="e_0_energy">    -35.94073530 </i>
   </energy>
  </scstep>
  <scstep>
   <time name="dav">    3.21    3.21</time>
   <time name="total">    5.97    5.98</time>
   <energy>
    <i name="e_fr_energy">    -35.95859899 </i>
    <i name="e_wo_entrp">    -35.90711602 </i>
    <i name="e_0_energy">    -35.94143800 </i>
   </energy>
  </scstep>
  <scstep>
   <time name="dav">    6.21    7.36</time>
   <time name="total">   11.47   13.64</time>
   <energy>
    <i name="e_fr_energy">    -35.95905911 </i>
    <i name="e_wo_entrp">    -35.90757965 </i>
    <i name="e_0_energy">    -35.94189929 </i>
   </energy>
  </scstep>
  <scstep>
   <time name="dav">    3.46    3.46</time>
   <time name="total">    6.82    6.83</time>
   <energy>
    <i name="e_fr_energy">    -35.95930750 </i>
    <i name="e_wo_entrp">    -35.90785592 </i>
    <i name="e_0_energy">    -35.94215697 </i>
   </energy>
  </scstep>
  <scstep>
   <time name="dav">    6.67    6.69</time>
   <time name="total">    9.07    9.09</time>
   <energy>
    <i name="e_fr_energy">    -35.95944868 </i>
    <i name="e_wo_entrp">    -35.90802131 </i>
    <i name="e_0_energy">    -35.94230623 </i>
   </energy>
  </scstep>
  <scstep>
   <time name="dav">    3.74    3.74</time>
   <time name="total">    5.33    5.34</time>
   <energy>
    <i name="alphaZ">      4.70715579 </i>
    <i name="ewald">  12701.60591305 </i>
    <i name="hartreedc"> -22598.00994757 </i>
    <i name="XCdc">    300.32228573 </i>
    <i name="pawpsdc">  10535.52103437 </i>
    <i name="pawaedc"> -11213.01405330 </i>
    <i name="eentropy">     -0.05142323 </i>
    <i name="bandstr">   -543.67885089 </i>
    <i name="atom">  10776.63837129 </i>
    <i name="e_fr_energy">    -35.95951474 </i>
    <i name="e_wo_entrp">    -35.90809151 </i>
    <i name="e_0_energy">    -35.94237367 </i>
   </energy>
  </scstep>
  <structure>
   <crystal>
    <varray name="basis" >
     <v>      21.51757210       0.00000000       0.00000000 </v>
     <v>       0.00000000      22.01142524       0.00000000 </v>
     <v>       0.00000000       0.00000000      22.87520905 </v>
    </varray>
    <i name="volume">  10834.44084343 </i>
    <varray name="rec_basis" >
     <v>       0.04647364       0.00000000       0.00000000 </v>
     <v>       0.00000000       0.04543095       0.00000000 </v>
     <v>       0.00000000       0.00000000       0.04371545 </v>
    </varray>
   </crystal>
   <varray name="positions" >
    <v>       0.46888276       0.47412025       0.42564529 </v>
    <v>       0.57918240       0.47236391       0.40432488 </v>
    <v>       0.41770112       0.56972414       0.43508538 </v>
    <v>       0.53798629       0.41441734       0.48561203 </v>
    <v>       0.43338207       0.43435169       0.51990854 </v>
    <v>       0.52957090       0.56793549       0.42566258 </v>
    <v>       0.52576791       0.46048065       0.58026514 </v>
    <v>       0.58618072       0.51195289       0.50215270 </v>
    <v>       0.47827793       0.53535080       0.51579151 </v>
    <v>       0.42547567       0.50069337       0.60223125 </v>
   </varray>
  </structure>
  <varray name="forces" >
   <v>       0.41716477       0.58116751       0.67908275 </v>
   <v>      -0.50635146       0.12427962       0.65729648 </v>
   <v>       0.91656168      -0.50873191       0.23814521 </v>
   <v>      -0.07830348       0.87646501      -0.13941404 </v>
   <v>       0.78349718       0.75965254       0.10253882 </v>
   <v>      -0.62576938      -0.76106955       0.54425120 </v>
   <v>      -0.65568834       0.44372138      -0.71164788 </v>
   <v>      -0.75054346      -0.54552286      -0.32597675 </v>
   <v>      -0.12003986      -0.73392652      -0.27759039 </v>
   <v>       0.61947233      -0.23603521      -0.76668540 </v>
  </varray>
  <energy>
   <i name="e_fr_energy">    -35.95951474 </i>
   <i name="e_wo_entrp">    -35.90809151 </i>
   <i name="e_0_energy">    -35.94237367 </i>
  </energy>
  <time name="totalsc">  360.72  370.60</time>
 </calculation>
 <calculation>
  <scstep>
   <time name="dav">    4.10    4.11</time>
   <time name="total">    6.23    6.24</time>
   <energy>
    <i name="alphaZ">      4.70715579 </i>
    <i name="ewald">  13168.34343134 </i>
    <i name="hartreedc"> -23058.45017109 </i>
    <i name="XCdc">    301.45340233 </i>
    <i name="pawpsdc">  10535.53323525 </i>
    <i name="pawaedc"> -11213.02605235 </i>
    <i name="eentropy">     -0.05538217 </i>
    <i name="bandstr">   -551.29253021 </i>
    <i name="atom">  10776.63837129 </i>
    <i name="e_fr_energy">    -36.14853981 </i>
    <i name="e_wo_entrp">    -36.09315764 </i>
    <i name="e_0_energy">    -36.13007909 </i>
   </energy>
  </scstep>
  <scstep>
   <time name="dav">    5.43    5.45</time>
   <time name="total">    8.56    8.59</time>
   <energy>
    <i name="e_fr_energy">    -37.03580781 </i>
    <i name="e_wo_entrp">    -36.98210344 </i>
    <i name="e_0_energy">    -37.01790635 </i>
   </energy>
  </scstep>
  <scstep>
   <time name="dav">   20.19   24.83</time>
   <time name="total">   25.69   31.07</time>
   <energy>
    <i name="e_fr_energy">    -36.21705072 </i>
    <i name="e_wo_entrp">    -36.19523563 </i>
    <i name="e_0_energy">    -36.20977902 </i>
   </energy>
  </scstep>
  <scstep>
   <time name="dav">    8.00    9.32</time>
   <time name="total">   11.02   12.93</time>
   <energy>
    <i name="e_fr_energy">    -36.44864960 </i>
    <i name="e_wo_entrp">    -36.38197303 </i>
    <i name="e_0_energy">    -36.42642408 </i>
   </energy>
  </scstep>
  <scstep>
   <time name="dav">    4.56    4.57</time>
   <time name="total">    6.71    6.73</time>
   <energy>
    <i name="e_fr_energy">    -36.27781350 </i>
    <i name="e_wo_entrp">    -36.22543704 </i>
    <i name="e_0_energy">    -36.26035468 </i>
   </energy>
  </scstep>
  <scstep>
   <time name="dav">    4.80    4.81</time>
   <time name="total">    7.26    7.27</time>
   <energy>
    <i name="e_fr_energy">    -36.28183399 </i>
    <i name="e_wo_entrp">    -36.22207522 </i>
    <i name="e_0_energy">    -36.26191440 </i>
   </energy>
  </scstep>
  <scstep>
   <time name="dav">    5.01    5.02</time>
   <time name="total">    7.11    7.13</time>
   <energy>
    <i name="e_fr_energy">    -36.30918822 </i>
    <i name="e_wo_entrp">    -36.27505349 </i>
    <i name="e_0_energy">    -36.29780998 </i>
   </energy>
  </scstep>
  <scstep>
   <time name="dav">    5.65    5.68</time>
   <time name="total">    7.75    7.79</time>
   <energy>
    <i name="e_fr_energy">    -36.28085047 </i>
    <i name="e_wo_entrp">    -36.23330539 </i>
    <i name="e_0_energy">    -36.26500211 </i>
   </energy>
  </scstep>
  <scstep>
   <time name="dav">    5.03    5.04</time>
   <time name="total">    7.15    7.17</time>
   <energy>
    <i name="e_fr_energy">    -36.29301777 </i>
    <i name="e_wo_entrp">    -36.24405654 </i>
    <i name="e_0_energy">    -36.27669736 </i>
   </energy>
  </scstep>
  <scstep>
   <time name="dav">    8.66    8.92</time>
   <time name="total">   11.46   11.73</time>
   <energy>
    <i name="e_fr_energy">    -36.28947768 </i>
    <i name="e_wo_entrp">    -36.23245369 </i>
    <i name="e_0_energy">    -36.27046968 </i>
   </energy>
  </scstep>
  <scstep>
   <time name="dav">    7.27    7.35</time>
   <time name="total">    9.42    9.50</time>
   <energy>
    <i name="e_fr_energy">    -36.28871176 </i>
    <i name="e_wo_entrp">    -36.24451460 </i>
    <i name="e_0_energy">    -36.27397937 </i>
   </energy>
  </scstep>
  <scstep>
   <time name="dav">    6.96    7.05</time>
   <time name="total">    9.10    9.19</time>
   <energy>
    <i name="e_fr_energy">    -36.28886762 </i>
    <i name="e_wo_entrp">    -36.24112155 </i>
    <i name="e_0_energy">    -36.27295226 </i>
   </energy>
  </scstep>
  <scstep>
   <time name="dav">    4.35    4.44</time>
   <time name="total">    6.50    6.60</time>
   <energy>
    <i name="e_fr_energy">    -36.29149595 </i>
    <i name="e_wo_entrp">    -36.24512851 </i>
    <i name="e_0_energy">    -36.27604013 </i>
   </energy>
  </scstep>
  <scstep>
   <time name="dav">    4.17    4.17</time>
   <time name="total">    6.32    6.34</time>
   <energy>
    <i name="e_fr_energy">    -36.29124393 </i>
    <i name="e_wo_entrp">    -36.24224346 </i>
    <i name="e_0_energy">    -36.27491044 </i>
   </energy>
  </scstep>
  <scstep>
   <time name="dav">    4.03    4.04</time>
   <time name="total">    6.18    6.20</time>
   <energy>
    <i name="e_fr_energy">    -36.29279476 </i>
    <i name="e_wo_entrp">    -36.24489856 </i>
    <i name="e_0_energy">    -36.27682936 </i>
   </energy>
  </scstep>
  <scstep>
   <time name="dav">    3.75    3.75</time>
   <time name="total">    5.37    5.38</time>
   <energy>
    <i name="alphaZ">      4.70715579 </i>
    <i name="ewald">  13168.34343134 </i>
    <i name="hartreedc"> -23053.56873183 </i>
    <i name="XCdc">    301.11010506 </i>
    <i name="pawpsdc">  10715.49496400 </i>
    <i name="pawaedc"> -11395.14968979 </i>
    <i name="eentropy">     -0.04781624 </i>
    <i name="bandstr">   -553.82048866 </i>
    <i name="atom">  10776.63837129 </i>
    <i name="e_fr_energy">    -36.29269901 </i>
    <i name="e_wo_entrp">    -36.24488278 </i>
    <i name="e_0_energy">    -36.27676027 </i>
   </energy>
  </scstep>
  <structure>
   <crystal>
    <varray name="basis" >
     <v>      21.51757210       0.00000000       0.00000000 </v>
     <v>       0.00000000      22.01142524       0.00000000 </v>
     <v>       0.00000000       0.00000000      22.87520905 </v>
    </varray>
    <i name="volume">  10834.44084343 </i>
    <varray name="rec_basis" >
     <v>       0.04647364       0.00000000       0.00000000 </v>
     <v>       0.00000000       0.04543095       0.00000000 </v>
     <v>       0.00000000       0.00000000       0.04371545 </v>
    </varray>
   </crystal>
   <varray name="positions" >
    <v>       0.46981805       0.47539400       0.42707744 </v>
    <v>       0.57804716       0.47263629       0.40571108 </v>
    <v>       0.41975606       0.56860915       0.43558761 </v>
    <v>       0.53781074       0.41633830       0.48531801 </v>
    <v>       0.43513868       0.43601663       0.52012479 </v>
    <v>       0.52816791       0.56626745       0.42681038 </v>
    <v>       0.52429785       0.46145315       0.57876432 </v>
    <v>       0.58449799       0.51075726       0.50146523 </v>
    <v>       0.47800880       0.53374224       0.51520608 </v>
    <v>       0.42686453       0.50017605       0.60061435 </v>
   </varray>
  </structure>
  <varray name="forces" >
   <v>       0.13530697       0.16391102       0.25049995 </v>
   <v>      -0.21445589      -0.02606390       0.23519129 </v>
   <v>       0.39739447      -0.20425330       0.12517695 </v>
   <v>       0.04699384       0.29454571      -0.14440492 </v>
   <v>       0.34019409       0.25120067      -0.00998416 </v>
   <v>      -0.29821536      -0.24770308       0.31089928 </v>
   <v>      -0.23443300       0.23038259      -0.29583814 </v>
   <v>      -0.32033698      -0.25761748      -0.07066881 </v>
   <v>      -0.11691817      -0.18345440      -0.06418678 </v>
   <v>       0.26447004      -0.02094784      -0.33668464 </v>
  </varray>
  <energy>
   <i name="e_fr_energy">    -36.29269901 </i>
   <i name="e_wo_entrp">    -36.24488278 </i>
   <i name="e_0_energy">    -36.27676027 </i>
  </energy>
  <time name="totalsc">  147.39  155.48</time>
 </calculation>
 <calculation>
  <scstep>
   <time name="dav">    4.25    4.26</time>
   <time name="total">    6.39    6.40</time>
   <energy>
    <i name="alphaZ">      4.70715579 </i>
    <i name="ewald">  13443.83834652 </i>
    <i name="hartreedc"> -23324.52657438 </i>
    <i name="XCdc">    301.78716777 </i>
    <i name="pawpsdc">  10715.45274627 </i>
    <i name="pawaedc"> -11395.10447050 </i>
    <i name="eentropy">     -0.04897522 </i>
    <i name="bandstr">   -559.03535653 </i>
    <i name="atom">  10776.63837129 </i>
    <i name="e_fr_energy">    -36.29158898 </i>
    <i name="e_wo_entrp">    -36.24261375 </i>
    <i name="e_0_energy">    -36.27526390 </i>
   </energy>
  </scstep>
  <scstep>
   <time name="dav">    5.82    5.84</time>
   <time name="total">    7.91    7.94</time>
   <energy>
    <i name="e_fr_energy">    -36.57766387 </i>
    <i name="e_wo_entrp">    -36.53810673 </i>
    <i name="e_0_energy">    -36.56447816 </i>
   </energy>
  </scstep>
  <scstep>
   <time name="dav">    6.38    6.40</time>
   <time name="total">   10.38   10.41</time>
   <energy>
    <i name="e_fr_energy">    -36.29042474 </i>
    <i name="e_wo_entrp">    -36.25376990 </i>
    <i name="e_0_energy">    -36.27820646 </i>
   </energy>
  </scstep>
  <scstep>
   <time name="dav">    5.43    5.45</time>
   <time name="total">    9.91    9.93</time>
   <energy>
    <i name="e_fr_energy">    -36.38350351 </i>
    <i name="e_wo_entrp">    -36.33524184 </i>
    <i name="e_0_energy">    -36.36741629 </i>
   </energy>
  </scstep>
  <scstep>
   <time name="dav">    4.82    4.83</time>
   <time name="total">    6.93    6.95</time>
   <energy>
    <i name="e_fr_energy">    -36.32467087 </i>
    <i name="e_wo_entrp">    -36.27399564 </i>
    <i name="e_0_energy">    -36.30777913 </i>
   </energy>
  </scstep>
  <scstep>
   <time name="dav">    4.96    4.99</time>
   <time name="total">    7.10    7.14</time>
   <energy>
    <i name="e_fr_energy">    -36.33521664 </i>
    <i name="e_wo_entrp">    -36.29321700 </i>
    <i name="e_0_energy">    -36.32121676 </i>
   </energy>
  </scstep>
  <scstep>
   <time name="dav">    4.91    4.93</time>
   <time name="total">    7.04    7.06</time>
   <energy>
    <i name="e_fr_energy">    -36.33941936 </i>
    <i name="e_wo_entrp">    -36.29040863 </i>
    <i name="e_0_energy">    -36.32308245 </i>
   </energy>
  </scstep>
  <scstep>
   <time name="dav">    5.11    5.12</time>
   <time name="total">    9.23    9.26</time>
   <energy>
    <i name="e_fr_energy">    -36.33891105 </i>
    <i name="e_wo_entrp">    -36.30128972 </i>
    <i name="e_0_energy">    -36.32637061 </i>
   </energy>
  </scstep>
  <scstep>
   <time name="dav">    5.00    5.02</time>
   <time name="total">    7.14    7.17</time>
   <energy>
    <i name="e_fr_energy">    -36.34180144 </i>
    <i name="e_wo_entrp">    -36.29357634 </i>
    <i name="e_0_energy">    -36.32572640 </i>
   </energy>
  </scstep>
  <scstep>
   <time name="dav">   14.28   14.30</time>
   <time name="total">   16.41   16.43</time>
   <energy>
    <i name="e_fr_energy">    -36.33503399 </i>
    <i name="e_wo_entrp">    -36.29067189 </i>
    <i name="e_0_energy">    -36.32024662 </i>
   </energy>
  </scstep>
  <scstep>
   <time name="dav">    5.47    5.48</time>
   <time name="total">    7.60    7.62</time>
   <energy>
    <i name="e_fr_energy">    -36.33862403 </i>
    <i name="e_wo_entrp">    -36.29354485 </i>
    <i name="e_0_energy">    -36.32359764 </i>
   </energy>
  </scstep>
  <scstep>
   <time name="dav">    6.79    6.82</time>
   <time name="total">    8.93    8.98</time>
   <energy>
    <i name="e_fr_energy">    -36.33779435 </i>
    <i name="e_wo_entrp">    -36.29334689 </i>
    <i name="e_0_energy">    -36.32297853 </i>
   </energy>
  </scstep>
  <scstep>
   <time name="dav">    4.25    4.26</time>
   <time name="total">    6.35    6.37</time>
   <energy>
    <i name="e_fr_energy">    -36.33860060 </i>
    <i name="e_wo_entrp">    -36.29402621 </i>
    <i name="e_0_energy">    -36.32374247 </i>
   </energy>
  </scstep>
  <scstep>
   <time name="dav">    3.81    3.81</time>
   <time name="total">    7.16    8.06</time>
   <energy>
    <i name="e_fr_energy">    -36.33920826 </i>
    <i name="e_wo_entrp">    -36.29492553 </i>
    <i name="e_0_energy">    -36.32444735 </i>
   </energy>
  </scstep>
  <scstep>
   <time name="dav">    7.08    7.36</time>
   <time name="total">    9.21    9.49</time>
   <energy>
    <i name="e_fr_energy">    -36.33979750 </i>
    <i name="e_wo_entrp">    -36.29496760 </i>
    <i name="e_0_energy">    -36.32485420 </i>
   </energy>
  </scstep>
  <scstep>
   <time name="dav">    3.19    3.20</time>
   <time name="total">    5.41    5.42</time>
   <energy>
    <i name="e_fr_energy">    -36.34008916 </i>
    <i name="e_wo_entrp">    -36.29601147 </i>
    <i name="e_0_energy">    -36.32539659 </i>
   </energy>
  </scstep>
  <scstep>
   <time name="dav">    3.12    3.12</time>
   <time name="total">    5.30    5.31</time>
   <energy>
    <i name="e_fr_energy">    -36.34054792 </i>
    <i name="e_wo_entrp">    -36.29636658 </i>
    <i name="e_0_energy">    -36.32582081 </i>
   </energy>
  </scstep>
  <scstep>
   <time name="dav">    3.07    3.08</time>
   <time name="total">    5.27    5.28</time>
   <energy>
    <i name="e_fr_energy">    -36.34082700 </i>
    <i name="e_wo_entrp">    -36.29682844 </i>
    <i name="e_0_energy">    -36.32616081 </i>
   </energy>
  </scstep>
  <scstep>
   <time name="dav">    3.15    3.15</time>
   <time name="total">    5.34    5.34</time>
   <energy>
    <i name="e_fr_energy">    -36.34132683 </i>
    <i name="e_wo_entrp">    -36.29739887 </i>
    <i name="e_0_energy">    -36.32668418 </i>
   </energy>
  </scstep>
  <scstep>
   <time name="dav">    3.08    3.08</time>
   <time name="total">    5.29    5.30</time>
   <energy>
    <i name="e_fr_energy">    -36.34162196 </i>
    <i name="e_wo_entrp">    -36.29769688 </i>
    <i name="e_0_energy">    -36.32698027 </i>
   </energy>
  </scstep>
  <scstep>
   <time name="dav">    5.53    5.68</time>
   <time name="total">    9.19    9.71</time>
   <energy>
    <i name="e_fr_energy">    -36.34194521 </i>
    <i name="e_wo_entrp">    -36.29805107 </i>
    <i name="e_0_energy">    -36.32731383 </i>
   </energy>
  </scstep>
  <scstep>
   <time name="dav">    4.96    5.25</time>
   <time name="total">   10.64   12.35</time>
   <energy>
    <i name="e_fr_energy">    -36.34255015 </i>
    <i name="e_wo_entrp">    -36.29870341 </i>
    <i name="e_0_energy">    -36.32793457 </i>
   </energy>
  </scstep>
  <scstep>
   <time name="dav">    6.09    7.23</time>
   <time name="total">   10.06   11.75</time>
   <energy>
    <i name="e_fr_energy">    -36.34298767 </i>
    <i name="e_wo_entrp">    -36.29920281 </i>
    <i name="e_0_energy">    -36.32839272 </i>
   </energy>
  </scstep>
  <scstep>
   <time name="dav">    3.24    3.24</time>
   <time name="total">    5.45    5.46</time>
   <energy>
    <i name="e_fr_energy">    -36.34349190 </i>
    <i name="e_wo_entrp">    -36.29976397 </i>
    <i name="e_0_energy">    -36.32891593 </i>
   </energy>
  </scstep>
  <scstep>
   <time name="dav">    3.29    3.29</time>
   <time name="total">    5.52    5.54</time>
   <energy>
    <i name="e_fr_energy">    -36.34398575 </i>
    <i name="e_wo_entrp">    -36.30028948 </i>
    <i name="e_0_energy">    -36.32942033 </i>
   </energy>
  </scstep>
  <scstep>
   <time name="dav">    3.32    3.33</time>
   <time name="total">    7.56    7.74</time>
   <energy>
    <i name="e_fr_energy">    -36.34425154 </i>
    <i name="e_wo_entrp">    -36.30057175 </i>
    <i name="e_0_energy">    -36.32969161 </i>
   </energy>
  </scstep>
  <scstep>
   <time name="dav">    4.87    5.02</time>
   <time name="total">    7.84    8.05</time>
   <energy>
    <i name="e_fr_energy">    -36.34458388 </i>
    <i name="e_wo_entrp">    -36.30093580 </i>
    <i name="e_0_energy">    -36.33003452 </i>
   </energy>
  </scstep>
  <scstep>
   <time name="dav">    3.26    3.28</time>
   <time name="total">    5.55    5.58</time>
   <energy>
    <i name="e_fr_energy">    -36.34478508 </i>
    <i name="e_wo_entrp">    -36.30115218 </i>
    <i name="e_0_energy">    -36.33024078 </i>
   </energy>
  </scstep>
  <scstep>
   <time name="dav">    8.55    9.70</time>
   <time name="total">   12.09   13.54</time>
   <energy>
    <i name="alphaZ">      4.70715579 </i>
    <i name="ewald">  13443.83834652 </i>
    <i name="hartreedc"> -23321.53147875 </i>
    <i name="XCdc">    301.59948948 </i>
    <i name="pawpsdc">  10833.54455881 </i>
    <i name="pawaedc"> -11514.59313958 </i>
    <i name="eentropy">     -0.04362539 </i>
    <i name="bandstr">   -560.50455039 </i>
    <i name="atom">  10776.63837129 </i>
    <i name="e_fr_energy">    -36.34487221 </i>
    <i name="e_wo_entrp">    -36.30124681 </i>
    <i name="e_0_energy">    -36.33033041 </i>
   </energy>
  </scstep>
  <structure>
   <crystal>
    <varray name="basis" >
     <v>      21.51757210       0.00000000       0.00000000 </v>
     <v>       0.00000000      22.01142524       0.00000000 </v>
     <v>       0.00000000       0.00000000      22.87520905 </v>
    </varray>
    <i name="volume">  10834.44084343 </i>
    <varray name="rec_basis" >
     <v>       0.04647364       0.00000000       0.00000000 </v>
     <v>       0.00000000       0.04543095       0.00000000 </v>
     <v>       0.00000000       0.00000000       0.04371545 </v>
    </varray>
   </crystal>
   <varray name="positions" >
    <v>       0.47035114       0.47612001       0.42789373 </v>
    <v>       0.57740009       0.47279155       0.40650119 </v>
    <v>       0.42092733       0.56797363       0.43587388 </v>
    <v>       0.53771067       0.41743320       0.48515043 </v>
    <v>       0.43613991       0.43696561       0.52024804 </v>
    <v>       0.52736824       0.56531670       0.42746460 </v>
    <v>       0.52345995       0.46200746       0.57790888 </v>
    <v>       0.58353887       0.51007578       0.50107339 </v>
    <v>       0.47785540       0.53282540       0.51487240 </v>
    <v>       0.42765615       0.49988119       0.59969275 </v>
   </varray>
  </structure>
  <varray name="forces" >
   <v>      -0.06971357      -0.15852085      -0.04676700 </v>
   <v>      -0.01147890      -0.12054138      -0.05804179 </v>
   <v>       0.03184350       0.01312837       0.04801132 </v>
   <v>       0.10977404      -0.12760201      -0.14045143 </v>
   <v>       0.02866360      -0.13390855      -0.11838738 </v>
   <v>      -0.03751668       0.10561690       0.15587135 </v>
   <v>       0.08879991       0.08640491      -0.00319712 </v>
   <v>      -0.03583286      -0.03670279       0.11250407 </v>
   <v>      -0.10540289       0.23002685       0.08064504 </v>
   <v>       0.00086384       0.14209853      -0.03018705 </v>
  </varray>
  <energy>
   <i name="e_fr_energy">    -36.34487221 </i>
   <i name="e_wo_entrp">    -36.30124681 </i>
   <i name="e_0_energy">    -36.33033041 </i>
  </energy>
  <time name="totalsc">  238.97  246.55</time>
 </calculation>
 <calculation>
  <scstep>
   <time name="dav">    4.13    4.14</time>
   <time name="total">    6.28    6.29</time>
   <energy>
    <i name="alphaZ">      4.70715579 </i>
    <i name="ewald">  13410.08221232 </i>
    <i name="hartreedc"> -23288.37649424 </i>
    <i name="XCdc">    301.51769989 </i>
    <i name="pawpsdc">  10833.54430022 </i>
    <i name="pawaedc"> -11514.59324563 </i>
    <i name="eentropy">     -0.04366505 </i>
    <i name="bandstr">   -559.82135519 </i>
    <i name="atom">  10776.63837129 </i>
    <i name="e_fr_energy">    -36.34502058 </i>
    <i name="e_wo_entrp">    -36.30135553 </i>
    <i name="e_0_energy">    -36.33046557 </i>
   </energy>
  </scstep>
  <scstep>
   <time name="dav">    6.14    6.14</time>
   <time name="total">    8.29    8.30</time>
   <energy>
    <i name="e_fr_energy">    -36.34815890 </i>
    <i name="e_wo_entrp">    -36.30404737 </i>
    <i name="e_0_energy">    -36.33345505 </i>
   </energy>
  </scstep>
  <scstep>
   <time name="dav">    6.05    6.05</time>
   <time name="total">    8.19    8.19</time>
   <energy>
    <i name="e_fr_energy">    -36.34351888 </i>
    <i name="e_wo_entrp">    -36.29952776 </i>
    <i name="e_0_energy">    -36.32885517 </i>
   </energy>
  </scstep>
  <scstep>
   <time name="dav">    5.42    5.42</time>
   <time name="total">    7.57    7.58</time>
   <energy>
    <i name="e_fr_energy">    -36.34618400 </i>
    <i name="e_wo_entrp">    -36.30024677 </i>
    <i name="e_0_energy">    -36.33087159 </i>
   </energy>
  </scstep>
  <scstep>
   <time name="dav">    4.55    4.56</time>
   <time name="total">    6.70    6.71</time>
   <energy>
    <i name="e_fr_energy">    -36.34503763 </i>
    <i name="e_wo_entrp">    -36.30216399 </i>
    <i name="e_0_energy">    -36.33074642 </i>
   </energy>
  </scstep>
  <scstep>
   <time name="dav">    3.68    3.68</time>
   <time name="total">    5.82    5.83</time>
   <energy>
    <i name="e_fr_energy">    -36.34545984 </i>
    <i name="e_wo_entrp">    -36.30103953 </i>
    <i name="e_0_energy">    -36.33065307 </i>
   </energy>
  </scstep>
  <scstep>
   <time name="dav">    3.41    3.41</time>
   <time name="total">    5.56    5.56</time>
   <energy>
    <i name="e_fr_energy">    -36.34578405 </i>
    <i name="e_wo_entrp">    -36.30205769 </i>
    <i name="e_0_energy">    -36.33120860 </i>
   </energy>
  </scstep>
  <scstep>
   <time name="dav">    3.62    3.63</time>
   <time name="total">    5.77    5.77</time>
   <energy>
    <i name="e_fr_energy">    -36.34565439 </i>
    <i name="e_wo_entrp">    -36.30129718 </i>
    <i name="e_0_energy">    -36.33086865 </i>
   </energy>
  </scstep>
  <scstep>
   <time name="dav">   10.33   11.55</time>
   <time name="total">   15.00   16.31</time>
   <energy>
    <i name="alphaZ">      4.70715579 </i>
    <i name="ewald">  13410.08221232 </i>
    <i name="hartreedc"> -23288.74057989 </i>
    <i name="XCdc">    301.53927534 </i>
    <i name="pawpsdc">  10819.05860141 </i>
    <i name="pawaedc"> -11499.93581227 </i>
    <i name="eentropy">     -0.04351914 </i>
    <i name="bandstr">   -559.65139629 </i>
    <i name="atom">  10776.63837129 </i>
    <i name="e_fr_energy">    -36.34569142 </i>
    <i name="e_wo_entrp">    -36.30217228 </i>
    <i name="e_0_energy">    -36.33118504 </i>
   </energy>
  </scstep>
  <structure>
   <crystal>
    <varray name="basis" >
     <v>      21.51757210       0.00000000       0.00000000 </v>
     <v>       0.00000000      22.01142524       0.00000000 </v>
     <v>       0.00000000       0.00000000      22.87520905 </v>
    </varray>
    <i name="volume">  10834.44084343 </i>
    <varray name="rec_basis" >
     <v>       0.04647364       0.00000000       0.00000000 </v>
     <v>       0.00000000       0.04543095       0.00000000 </v>
     <v>       0.00000000       0.00000000       0.04371545 </v>
    </varray>
   </crystal>
   <varray name="positions" >
    <v>       0.47028656       0.47603205       0.42779484 </v>
    <v>       0.57747849       0.47277274       0.40640546 </v>
    <v>       0.42078543       0.56805063       0.43583919 </v>
    <v>       0.53772280       0.41730055       0.48517073 </v>
    <v>       0.43601861       0.43685063       0.52023311 </v>
    <v>       0.52746513       0.56543189       0.42738534 </v>
    <v>       0.52356146       0.46194031       0.57801252 </v>
    <v>       0.58365508       0.51015834       0.50112086 </v>
    <v>       0.47787398       0.53293648       0.51491283 </v>
    <v>       0.42756024       0.49991691       0.59980441 </v>
   </varray>
  </structure>
  <varray name="forces" >
   <v>      -0.04558736      -0.12197695      -0.01513651 </v>
   <v>      -0.04759895      -0.10368676      -0.00680690 </v>
   <v>       0.07397674      -0.01043235       0.05554468 </v>
   <v>       0.10660929      -0.08285990      -0.14294178 </v>
   <v>       0.07696475      -0.07789063      -0.10519015 </v>
   <v>      -0.07605985       0.04822298       0.18153342 </v>
   <v>       0.04355224       0.10793789      -0.04816636 </v>
   <v>      -0.06467068      -0.06296470       0.09166482 </v>
   <v>      -0.10864650       0.18305476       0.06528684 </v>
   <v>       0.04146033       0.12059566      -0.07578807 </v>
  </varray>
  <energy>
   <i name="e_fr_energy">    -36.34569142 </i>
   <i name="e_wo_entrp">    -36.30217228 </i>
   <i name="e_0_energy">    -36.33118504 </i>
  </energy>
  <time name="totalsc">   77.07   79.66</time>
 </calculation>
 <calculation>
  <scstep>
   <time name="dav">    4.40    4.41</time>
   <time name="total">    6.49    6.50</time>
   <energy>
    <i name="alphaZ">      4.70715579 </i>
    <i name="ewald">  13419.18196302 </i>
    <i name="hartreedc"> -23297.87054474 </i>
    <i name="XCdc">    301.55415215 </i>
    <i name="pawpsdc">  10818.20684050 </i>
    <i name="pawaedc"> -11499.06041924 </i>
    <i name="eentropy">     -0.04396068 </i>
    <i name="bandstr">   -559.66564488 </i>
    <i name="atom">  10776.63837129 </i>
    <i name="e_fr_energy">    -36.35208678 </i>
    <i name="e_wo_entrp">    -36.30812610 </i>
    <i name="e_0_energy">    -36.33743322 </i>
   </energy>
  </scstep>
  <scstep>
   <time name="dav">    6.23    6.24</time>
   <time name="total">    8.36    8.37</time>
   <energy>
    <i name="e_fr_energy">    -36.39927866 </i>
    <i name="e_wo_entrp">    -36.35567394 </i>
    <i name="e_0_energy">    -36.38474375 </i>
   </energy>
  </scstep>
  <scstep>
   <time name="dav">    4.53    4.53</time>
   <time name="total">    7.66    7.67</time>
   <energy>
    <i name="e_fr_energy">    -36.34233827 </i>
    <i name="e_wo_entrp">    -36.30060804 </i>
    <i name="e_0_energy">    -36.32842819 </i>
   </energy>
  </scstep>
  <scstep>
   <time name="dav">    9.71    9.88</time>
   <time name="total">   15.75   16.41</time>
   <energy>
    <i name="e_fr_energy">    -36.35789270 </i>
    <i name="e_wo_entrp">    -36.31405308 </i>
    <i name="e_0_energy">    -36.34327949 </i>
   </energy>
  </scstep>
  <scstep>
   <time name="dav">    4.64    4.64</time>
   <time name="total">    6.74    6.75</time>
   <energy>
    <i name="e_fr_energy">    -36.35500164 </i>
    <i name="e_wo_entrp">    -36.30712005 </i>
    <i name="e_0_energy">    -36.33904111 </i>
   </energy>
  </scstep>
  <scstep>
   <time name="dav">    5.39    5.40</time>
   <time name="total">    7.48    7.49</time>
   <energy>
    <i name="e_fr_energy">    -36.35478890 </i>
    <i name="e_wo_entrp">    -36.31234270 </i>
    <i name="e_0_energy">    -36.34064017 </i>
   </energy>
  </scstep>
  <scstep>
   <time name="dav">    5.99    5.99</time>
   <time name="total">    8.54    8.55</time>
   <energy>
    <i name="e_fr_energy">    -36.35552884 </i>
    <i name="e_wo_entrp">    -36.31102091 </i>
    <i name="e_0_energy">    -36.34069286 </i>
   </energy>
  </scstep>
  <scstep>
   <time name="dav">    6.49    6.50</time>
   <time name="total">    8.65    8.67</time>
   <energy>
    <i name="e_fr_energy">    -36.35553709 </i>
    <i name="e_wo_entrp">    -36.31285430 </i>
    <i name="e_0_energy">    -36.34130949 </i>
   </energy>
  </scstep>
  <scstep>
   <time name="dav">    3.85    3.86</time>
   <time name="total">    5.94    5.95</time>
   <energy>
    <i name="e_fr_energy">    -36.35534513 </i>
    <i name="e_wo_entrp">    -36.31196686 </i>
    <i name="e_0_energy">    -36.34088570 </i>
   </energy>
  </scstep>
  <scstep>
   <time name="dav">    3.84    3.85</time>
   <time name="total">    5.47    5.48</time>
   <energy>
    <i name="alphaZ">      4.70715579 </i>
    <i name="ewald">  13419.18196302 </i>
    <i name="hartreedc"> -23297.95209612 </i>
    <i name="XCdc">    301.54755783 </i>
    <i name="pawpsdc">  10820.42622785 </i>
    <i name="pawaedc"> -11501.30436351 </i>
    <i name="eentropy">     -0.04305238 </i>
    <i name="bandstr">   -559.55705330 </i>
    <i name="atom">  10776.63837129 </i>
    <i name="e_fr_energy">    -36.35528952 </i>
    <i name="e_wo_entrp">    -36.31223714 </i>
    <i name="e_0_energy">    -36.34093873 </i>
   </energy>
  </scstep>
  <structure>
   <crystal>
    <varray name="basis" >
     <v>      21.51757210       0.00000000       0.00000000 </v>
     <v>       0.00000000      22.01142524       0.00000000 </v>
     <v>       0.00000000       0.00000000      22.87520905 </v>
    </varray>
    <i name="volume">  10834.44084343 </i>
    <varray name="rec_basis" >
     <v>       0.04647364       0.00000000       0.00000000 </v>
     <v>       0.00000000       0.04543095       0.00000000 </v>
     <v>       0.00000000       0.00000000       0.04371545 </v>
    </varray>
   </crystal>
   <varray name="positions" >
    <v>       0.47019409       0.47576513       0.42779031 </v>
    <v>       0.57733683       0.47252854       0.40641928 </v>
    <v>       0.42101179       0.56800166       0.43597880 </v>
    <v>       0.53798201       0.41714178       0.48483279 </v>
    <v>       0.43624597       0.43669838       0.51999366 </v>
    <v>       0.52724755       0.56551254       0.42783106 </v>
    <v>       0.52363749       0.46222135       0.57786870 </v>
    <v>       0.58345961       0.50998098       0.50131886 </v>
    <v>       0.47760024       0.53334352       0.51505181 </v>
    <v>       0.42769218       0.50019665       0.59959403 </v>
   </varray>
  </structure>
  <varray name="forces" >
   <v>      -0.03176651      -0.07030266       0.00343701 </v>
   <v>      -0.04001188      -0.06409422      -0.01603801 </v>
   <v>       0.01423028      -0.00565341       0.02697913 </v>
   <v>       0.07266877      -0.07891357      -0.08837612 </v>
   <v>       0.08154645      -0.04648554      -0.06929628 </v>
   <v>      -0.02130151       0.03609161       0.13957104 </v>
   <v>       0.04582327       0.07287661      -0.03590776 </v>
   <v>      -0.06108868      -0.05171679       0.06017924 </v>
   <v>      -0.08768120       0.11904713       0.06191082 </v>
   <v>       0.02758101       0.08915084      -0.08245909 </v>
  </varray>
  <energy>
   <i name="e_fr_energy">    -36.35528952 </i>
   <i name="e_wo_entrp">    -36.31223714 </i>
   <i name="e_0_energy">    -36.34093873 </i>
  </energy>
  <time name="totalsc">   86.64   87.46</time>
 </calculation>
 <calculation>
  <scstep>
   <time name="dav">    5.88    5.90</time>
   <time name="total">    8.01    8.03</time>
   <energy>
    <i name="alphaZ">      4.70715579 </i>
    <i name="ewald">  13440.62072228 </i>
    <i name="hartreedc"> -23319.60272352 </i>
    <i name="XCdc">    301.59698243 </i>
    <i name="pawpsdc">  10820.52998500 </i>
    <i name="pawaedc"> -11501.41710865 </i>
    <i name="eentropy">     -0.04267269 </i>
    <i name="bandstr">   -559.37210443 </i>
    <i name="atom">  10776.63837129 </i>
    <i name="e_fr_energy">    -36.34139250 </i>
    <i name="e_wo_entrp">    -36.29871981 </i>
    <i name="e_0_energy">    -36.32716827 </i>
   </energy>
  </scstep>
  <scstep>
   <time name="dav">    5.23    5.25</time>
   <time name="total">    7.32    7.35</time>
   <energy>
    <i name="e_fr_energy">    -36.56652282 </i>
    <i name="e_wo_entrp">    -36.52590609 </i>
    <i name="e_0_energy">    -36.55298391 </i>
   </energy>
  </scstep>
  <scstep>
   <time name="dav">    5.98    6.74</time>
   <time name="total">    8.22    8.99</time>
   <energy>
    <i name="e_fr_energy">    -36.32544359 </i>
    <i name="e_wo_entrp">    -36.29344811 </i>
    <i name="e_0_energy">    -36.31477843 </i>
   </energy>
  </scstep>
  <scstep>
   <time name="dav">   11.47   12.14</time>
   <time name="total">   14.96   15.64</time>
   <energy>
    <i name="e_fr_energy">    -36.37754095 </i>
    <i name="e_wo_entrp">    -36.32876901 </i>
    <i name="e_0_energy">    -36.36128364 </i>
   </energy>
  </scstep>
  <scstep>
   <time name="dav">   12.92   12.93</time>
   <time name="total">   19.07   19.08</time>
   <energy>
    <i name="e_fr_energy">    -36.36164534 </i>
    <i name="e_wo_entrp">    -36.31855010 </i>
    <i name="e_0_energy">    -36.34728026 </i>
   </energy>
  </scstep>
  <scstep>
   <time name="dav">    4.64    4.64</time>
   <time name="total">    6.75    6.76</time>
   <energy>
    <i name="e_fr_energy">    -36.35754204 </i>
    <i name="e_wo_entrp">    -36.31346425 </i>
    <i name="e_0_energy">    -36.34284944 </i>
   </energy>
  </scstep>
  <scstep>
   <time name="dav">    5.55    5.56</time>
   <time name="total">    8.41    8.48</time>
   <energy>
    <i name="e_fr_energy">    -36.36226847 </i>
    <i name="e_wo_entrp">    -36.32704803 </i>
    <i name="e_0_energy">    -36.35052833 </i>
   </energy>
  </scstep>
  <scstep>
   <time name="dav">    6.96    7.04</time>
   <time name="total">    9.11    9.19</time>
   <energy>
    <i name="e_fr_energy">    -36.35910878 </i>
    <i name="e_wo_entrp">    -36.31722135 </i>
    <i name="e_0_energy">    -36.34514630 </i>
   </energy>
  </scstep>
  <scstep>
   <time name="dav">    6.32    6.43</time>
   <time name="total">    8.44    8.55</time>
   <energy>
    <i name="e_fr_energy">    -36.35994724 </i>
    <i name="e_wo_entrp">    -36.32093036 </i>
    <i name="e_0_energy">    -36.34694162 </i>
   </energy>
  </scstep>
  <scstep>
   <time name="dav">    6.23    6.30</time>
   <time name="total">   11.20   11.28</time>
   <energy>
    <i name="e_fr_energy">    -36.35967223 </i>
    <i name="e_wo_entrp">    -36.31956188 </i>
    <i name="e_0_energy">    -36.34630211 </i>
   </energy>
  </scstep>
  <scstep>
   <time name="dav">    9.16    9.17</time>
   <time name="total">   11.46   11.47</time>
   <energy>
    <i name="e_fr_energy">    -36.35946552 </i>
    <i name="e_wo_entrp">    -36.31755783 </i>
    <i name="e_0_energy">    -36.34549629 </i>
   </energy>
  </scstep>
  <scstep>
   <time name="dav">    9.00   10.22</time>
   <time name="total">   11.14   12.37</time>
   <energy>
    <i name="e_fr_energy">    -36.36017661 </i>
    <i name="e_wo_entrp">    -36.31921840 </i>
    <i name="e_0_energy">    -36.34652388 </i>
   </energy>
  </scstep>
  <scstep>
   <time name="dav">    9.33    9.70</time>
   <time name="total">   11.50   11.87</time>
   <energy>
    <i name="e_fr_energy">    -36.36034204 </i>
    <i name="e_wo_entrp">    -36.31976994 </i>
    <i name="e_0_energy">    -36.34681801 </i>
   </energy>
  </scstep>
  <scstep>
   <time name="dav">    3.14    3.14</time>
   <time name="total">    5.31    5.32</time>
   <energy>
    <i name="e_fr_energy">    -36.36078622 </i>
    <i name="e_wo_entrp">    -36.32042670 </i>
    <i name="e_0_energy">    -36.34733305 </i>
   </energy>
  </scstep>
  <scstep>
   <time name="dav">    4.03    4.03</time>
   <time name="total">    6.21    6.21</time>
   <energy>
    <i name="e_fr_energy">    -36.36112304 </i>
    <i name="e_wo_entrp">    -36.32116950 </i>
    <i name="e_0_energy">    -36.34780520 </i>
   </energy>
  </scstep>
  <scstep>
   <time name="dav">    3.46    3.75</time>
   <time name="total">    6.46    6.76</time>
   <energy>
    <i name="e_fr_energy">    -36.36156225 </i>
    <i name="e_wo_entrp">    -36.32115792 </i>
    <i name="e_0_energy">    -36.34809414 </i>
   </energy>
  </scstep>
  <scstep>
   <time name="dav">    3.09    3.10</time>
   <time name="total">    5.25    5.27</time>
   <energy>
    <i name="e_fr_energy">    -36.36212255 </i>
    <i name="e_wo_entrp">    -36.32172618 </i>
    <i name="e_0_energy">    -36.34865709 </i>
   </energy>
  </scstep>
  <scstep>
   <time name="dav">   10.05   10.06</time>
   <time name="total">   14.64   14.66</time>
   <energy>
    <i name="e_fr_energy">    -36.36241475 </i>
    <i name="e_wo_entrp">    -36.32209304 </i>
    <i name="e_0_energy">    -36.34897418 </i>
   </energy>
  </scstep>
  <scstep>
   <time name="dav">    6.90    6.90</time>
   <time name="total">    9.09    9.10</time>
   <energy>
    <i name="e_fr_energy">    -36.36328729 </i>
    <i name="e_wo_entrp">    -36.32310855 </i>
    <i name="e_0_energy">    -36.34989438 </i>
   </energy>
  </scstep>
  <scstep>
   <time name="dav">    3.19    3.20</time>
   <time name="total">    5.41    5.43</time>
   <energy>
    <i name="e_fr_energy">    -36.36379447 </i>
    <i name="e_wo_entrp">    -36.32362356 </i>
    <i name="e_0_energy">    -36.35040417 </i>
   </energy>
  </scstep>
  <scstep>
   <time name="dav">    5.98    6.41</time>
   <time name="total">   10.04   10.71</time>
   <energy>
    <i name="e_fr_energy">    -36.36445779 </i>
    <i name="e_wo_entrp">    -36.32433261 </i>
    <i name="e_0_energy">    -36.35108273 </i>
   </energy>
  </scstep>
  <scstep>
   <time name="dav">    7.01    7.68</time>
   <time name="total">   12.74   14.46</time>
   <energy>
    <i name="e_fr_energy">    -36.36522273 </i>
    <i name="e_wo_entrp">    -36.32512464 </i>
    <i name="e_0_energy">    -36.35185670 </i>
   </energy>
  </scstep>
  <scstep>
   <time name="dav">    6.69    6.69</time>
   <time name="total">   10.55   10.56</time>
   <energy>
    <i name="e_fr_energy">    -36.36578876 </i>
    <i name="e_wo_entrp">    -36.32572272 </i>
    <i name="e_0_energy">    -36.35243342 </i>
   </energy>
  </scstep>
  <scstep>
   <time name="dav">    3.26    3.27</time>
   <time name="total">    7.38    7.39</time>
   <energy>
    <i name="e_fr_energy">    -36.36634073 </i>
    <i name="e_wo_entrp">    -36.32634078 </i>
    <i name="e_0_energy">    -36.35300741 </i>
   </energy>
  </scstep>
  <scstep>
   <time name="dav">    3.30    3.31</time>
   <time name="total">    5.55    5.56</time>
   <energy>
    <i name="e_fr_energy">    -36.36698346 </i>
    <i name="e_wo_entrp">    -36.32703269 </i>
    <i name="e_0_energy">    -36.35366653 </i>
   </energy>
  </scstep>
  <scstep>
   <time name="dav">    3.26    3.26</time>
   <time name="total">    5.51    5.52</time>
   <energy>
    <i name="e_fr_energy">    -36.36740548 </i>
    <i name="e_wo_entrp">    -36.32750132 </i>
    <i name="e_0_energy">    -36.35410409 </i>
   </energy>
  </scstep>
  <scstep>
   <time name="dav">    3.66    3.73</time>
   <time name="total">    8.35    8.42</time>
   <energy>
    <i name="e_fr_energy">    -36.36777445 </i>
    <i name="e_wo_entrp">    -36.32790165 </i>
    <i name="e_0_energy">    -36.35448352 </i>
   </energy>
  </scstep>
  <scstep>
   <time name="dav">    3.17    3.17</time>
   <time name="total">    5.45    5.47</time>
   <energy>
    <i name="e_fr_energy">    -36.36788033 </i>
    <i name="e_wo_entrp">    -36.32801299 </i>
    <i name="e_0_energy">    -36.35459122 </i>
   </energy>
  </scstep>
  <scstep>
   <time name="dav">    3.35    3.35</time>
   <time name="total">    5.01    5.02</time>
   <energy>
    <i name="alphaZ">      4.70715579 </i>
    <i name="ewald">  13440.62072228 </i>
    <i name="hartreedc"> -23319.46566861 </i>
    <i name="XCdc">    301.56737341 </i>
    <i name="pawpsdc">  10826.04138221 </i>
    <i name="pawaedc"> -11506.94402147 </i>
    <i name="eentropy">     -0.03986552 </i>
    <i name="bandstr">   -559.49341054 </i>
    <i name="atom">  10776.63837129 </i>
    <i name="e_fr_energy">    -36.36796115 </i>
    <i name="e_wo_entrp">    -36.32809563 </i>
    <i name="e_0_energy">    -36.35467264 </i>
   </energy>
  </scstep>
  <structure>
   <crystal>
    <varray name="basis" >
     <v>      21.51757210       0.00000000       0.00000000 </v>
     <v>       0.00000000      22.01142524       0.00000000 </v>
     <v>       0.00000000       0.00000000      22.87520905 </v>
    </varray>
    <i name="volume">  10834.44084343 </i>
    <varray name="rec_basis" >
     <v>       0.04647364       0.00000000       0.00000000 </v>
     <v>       0.00000000       0.04543095       0.00000000 </v>
     <v>       0.00000000       0.00000000       0.04371545 </v>
    </varray>
   </crystal>
   <varray name="positions" >
    <v>       0.46997865       0.47514326       0.42777976 </v>
    <v>       0.57700678       0.47195958       0.40645147 </v>
    <v>       0.42153920       0.56788756       0.43630406 </v>
    <v>       0.53858595       0.41677188       0.48404544 </v>
    <v>       0.43677571       0.43634365       0.51943578 </v>
    <v>       0.52674062       0.56570044       0.42886952 </v>
    <v>       0.52381462       0.46287614       0.57753363 </v>
    <v>       0.58300421       0.50956774       0.50178017 </v>
    <v>       0.47696246       0.53429187       0.51537560 </v>
    <v>       0.42799957       0.50084841       0.59910386 </v>
   </varray>
  </structure>
  <varray name="forces" >
   <v>       0.00074978       0.03942873       0.02682909 </v>
   <v>      -0.00574685       0.04270050      -0.04708792 </v>
   <v>      -0.14790052       0.02454754      -0.05021549 </v>
   <v>       0.01053483      -0.12974533       0.04247753 </v>
   <v>       0.11891573       0.04204259       0.01302102 </v>
   <v>       0.10623210      -0.04718793       0.07183450 </v>
   <v>       0.01448184       0.01255994      -0.04953997 </v>
   <v>      -0.04425700      -0.01056835      -0.02702603 </v>
   <v>      -0.02095950      -0.00980484       0.06816862 </v>
   <v>      -0.03205042       0.03602715      -0.04846135 </v>
  </varray>
  <energy>
   <i name="e_fr_energy">    -36.36796115 </i>
   <i name="e_wo_entrp">    -36.32809563 </i>
   <i name="e_0_energy">    -36.35467264 </i>
  </energy>
  <time name="totalsc">  264.25  270.70</time>
 </calculation>
 <calculation>
  <scstep>
   <time name="dav">    4.14    4.15</time>
   <time name="total">    6.27    6.28</time>
   <energy>
    <i name="alphaZ">      4.70715579 </i>
    <i name="ewald">  13444.63333419 </i>
    <i name="hartreedc"> -23323.51840969 </i>
    <i name="XCdc">    301.57153052 </i>
    <i name="pawpsdc">  10826.04329825 </i>
    <i name="pawaedc"> -11506.94576537 </i>
    <i name="eentropy">     -0.03866153 </i>
    <i name="bandstr">   -559.45954664 </i>
    <i name="atom">  10776.63837129 </i>
    <i name="e_fr_energy">    -36.36869318 </i>
    <i name="e_wo_entrp">    -36.33003165 </i>
    <i name="e_0_energy">    -36.35580600 </i>
   </energy>
  </scstep>
  <scstep>
   <time name="dav">    7.37    7.39</time>
   <time name="total">    9.45    9.48</time>
   <energy>
    <i name="e_fr_energy">    -36.46186894 </i>
    <i name="e_wo_entrp">    -36.40748769 </i>
    <i name="e_0_energy">    -36.44374186 </i>
   </energy>
  </scstep>
  <scstep>
   <time name="dav">    5.65    5.66</time>
   <time name="total">    7.74    7.76</time>
   <energy>
    <i name="e_fr_energy">    -36.35006899 </i>
    <i name="e_wo_entrp">    -36.31777715 </i>
    <i name="e_0_energy">    -36.33930504 </i>
   </energy>
  </scstep>
  <scstep>
   <time name="dav">   12.65   12.67</time>
   <time name="total">   14.74   14.77</time>
   <energy>
    <i name="e_fr_energy">    -36.37194147 </i>
    <i name="e_wo_entrp">    -36.32718514 </i>
    <i name="e_0_energy">    -36.35702269 </i>
   </energy>
  </scstep>
  <scstep>
   <time name="dav">    4.54    4.57</time>
   <time name="total">    6.63    6.67</time>
   <energy>
    <i name="e_fr_energy">    -36.37437634 </i>
    <i name="e_wo_entrp">    -36.33511666 </i>
    <i name="e_0_energy">    -36.36128978 </i>
   </energy>
  </scstep>
  <scstep>
   <time name="dav">    5.52    5.53</time>
   <time name="total">    7.63    7.65</time>
   <energy>
    <i name="e_fr_energy">    -36.37152450 </i>
    <i name="e_wo_entrp">    -36.33098722 </i>
    <i name="e_0_energy">    -36.35801207 </i>
   </energy>
  </scstep>
  <scstep>
   <time name="dav">    5.11    5.12</time>
   <time name="total">    7.26    7.31</time>
   <energy>
    <i name="e_fr_energy">    -36.37291306 </i>
    <i name="e_wo_entrp">    -36.33311503 </i>
    <i name="e_0_energy">    -36.35964705 </i>
   </energy>
  </scstep>
  <scstep>
   <time name="dav">    4.48    4.49</time>
   <time name="total">    6.73    6.76</time>
   <energy>
    <i name="e_fr_energy">    -36.37319219 </i>
    <i name="e_wo_entrp">    -36.33340451 </i>
    <i name="e_0_energy">    -36.35992963 </i>
   </energy>
  </scstep>
  <scstep>
   <time name="dav">   20.19   20.21</time>
   <time name="total">   23.60   23.62</time>
   <energy>
    <i name="e_fr_energy">    -36.37316849 </i>
    <i name="e_wo_entrp">    -36.33213390 </i>
    <i name="e_0_energy">    -36.35949029 </i>
   </energy>
  </scstep>
  <scstep>
   <time name="dav">    3.90    3.92</time>
   <time name="total">    5.50    5.52</time>
   <energy>
    <i name="alphaZ">      4.70715579 </i>
    <i name="ewald">  13444.63333419 </i>
    <i name="hartreedc"> -23323.43021723 </i>
    <i name="XCdc">    301.56822848 </i>
    <i name="pawpsdc">  10825.93230165 </i>
    <i name="pawaedc"> -11506.84280382 </i>
    <i name="eentropy">     -0.04042293 </i>
    <i name="bandstr">   -559.53918394 </i>
    <i name="atom">  10776.63837129 </i>
    <i name="e_fr_energy">    -36.37323651 </i>
    <i name="e_wo_entrp">    -36.33281358 </i>
    <i name="e_0_energy">    -36.35976220 </i>
   </energy>
  </scstep>
  <structure>
   <crystal>
    <varray name="basis" >
     <v>      21.51757210       0.00000000       0.00000000 </v>
     <v>       0.00000000      22.01142524       0.00000000 </v>
     <v>       0.00000000       0.00000000      22.87520905 </v>
    </varray>
    <i name="volume">  10834.44084343 </i>
    <varray name="rec_basis" >
     <v>       0.04647364       0.00000000       0.00000000 </v>
     <v>       0.00000000       0.04543095       0.00000000 </v>
     <v>       0.00000000       0.00000000       0.04371545 </v>
    </varray>
   </crystal>
   <varray name="positions" >
    <v>       0.46992985       0.47513396       0.42786849 </v>
    <v>       0.57690709       0.47197450       0.40629900 </v>
    <v>       0.42113048       0.56794705       0.43621102 </v>
    <v>       0.53876843       0.41622481       0.48400168 </v>
    <v>       0.43733235       0.43640746       0.51934670 </v>
    <v>       0.52700356       0.56557856       0.42936213 </v>
    <v>       0.52390934       0.46307708       0.57728502 </v>
    <v>       0.58273530       0.50943159       0.50179854 </v>
    <v>       0.47673420       0.53448394       0.51568488 </v>
    <v>       0.42795716       0.50113158       0.59882183 </v>
   </varray>
  </structure>
  <varray name="forces" >
   <v>       0.02305543       0.07496044       0.02809474 </v>
   <v>      -0.01437749       0.02933519      -0.01432956 </v>
   <v>      -0.02198944      -0.03105960      -0.01279124 </v>
   <v>       0.01766446      -0.07269505       0.00977331 </v>
[...]
       <r>    -1.6435     4.3895    60.1778 </r>
       <r>    -1.5975     4.4230    60.3815 </r>
       <r>    -1.5514     4.3089    60.5799 </r>
       <r>    -1.5054     3.8434    60.7568 </r>
       <r>    -1.4593     2.9857    60.8943 </r>
       <r>    -1.4133     1.9139    60.9824 </r>
       <r>    -1.3673     0.9050    61.0240 </r>
       <r>    -1.3212     0.1626    61.0315 </r>
       <r>    -1.2752    -0.2679    61.0192 </r>
       <r>    -1.2291    -0.4578    60.9981 </r>
       <r>    -1.1831    -0.4868    60.9757 </r>
       <r>    -1.1371    -0.3556    60.9593 </r>
       <r>    -1.0910     0.0268    60.9606 </r>
       <r>    -1.0450     0.7768    60.9963 </r>
       <r>    -0.9989     1.9316    61.0853 </r>
       <r>    -0.9529     3.3697    61.2404 </r>
       <r>    -0.9069     4.8184    61.4622 </r>
       <r>    -0.8608     5.9538    61.7363 </r>
       <r>    -0.8148     6.5431    62.0376 </r>
       <r>    -0.7687     6.5481    62.3391 </r>
       <r>    -0.7227     6.1316    62.6213 </r>
       <r>    -0.6767     5.5599    62.8773 </r>
       <r>    -0.6306     5.0522    63.1099 </r>
       <r>    -0.5846     4.6749    63.3251 </r>
       <r>    -0.5386     4.3671    63.5262 </r>
       <r>    -0.4925     4.0776    63.7139 </r>
       <r>    -0.4465     3.8843    63.8928 </r>
       <r>    -0.4004     3.9679    64.0754 </r>
       <r>    -0.3544     4.4509    64.2804 </r>
       <r>    -0.3084     5.2483    64.5220 </r>
       <r>    -0.2623     6.0619    64.8011 </r>
       <r>    -0.2163     6.5199    65.1012 </r>
       <r>    -0.1702     6.3545    65.3938 </r>
       <r>    -0.1242     5.5171    65.6478 </r>
       <r>    -0.0782     4.1878    65.8406 </r>
       <r>    -0.0321     2.6916    65.9645 </r>
       <r>     0.0139     1.3620    66.0272 </r>
       <r>     0.0600     0.4160    66.0464 </r>
       <r>     0.1060    -0.1005    66.0417 </r>
       <r>     0.1520    -0.2791    66.0289 </r>
       <r>     0.1981    -0.2649    66.0167 </r>
       <r>     0.2441    -0.1821    66.0083 </r>
       <r>     0.2902    -0.1020    66.0036 </r>
       <r>     0.3362    -0.0485    66.0014 </r>
       <r>     0.3822    -0.0199    66.0005 </r>
       <r>     0.4283    -0.0072    66.0001 </r>
       <r>     0.4743    -0.0023    66.0000 </r>
       <r>     0.5203    -0.0006    66.0000 </r>
       <r>     0.5664    -0.0002    66.0000 </r>
       <r>     0.6124    -0.0000    66.0000 </r>
       <r>     0.6585    -0.0000    66.0000 </r>
       <r>     0.7045    -0.0000    66.0000 </r>
       <r>     0.7505    -0.0000    66.0000 </r>
       <r>     0.7966    -0.0000    66.0000 </r>
       <r>     0.8426    -0.0000    66.0000 </r>
       <r>     0.8887    -0.0000    66.0000 </r>
       <r>     0.9347    -0.0000    66.0000 </r>
       <r>     0.9807    -0.0000    66.0000 </r>
       <r>     1.0268    -0.0000    66.0000 </r>
       <r>     1.0728    -0.0000    66.0000 </r>
       <r>     1.1189     0.0000    66.0000 </r>
       <r>     1.1649     0.0000    66.0000 </r>
       <r>     1.2109     0.0000    66.0000 </r>
       <r>     1.2570     0.0000    66.0000 </r>
       <r>     1.3030     0.0000    66.0000 </r>
       <r>     1.3491     0.0000    66.0000 </r>
       <r>     1.3951     0.0000    66.0000 </r>
       <r>     1.4411     0.0000    66.0000 </r>
       <r>     1.4872     0.0000    66.0000 </r>
       <r>     1.5332     0.0000    66.0000 </r>
       <r>     1.5792     0.0000    66.0000 </r>
       <r>     1.6253     0.0000    66.0000 </r>
       <r>     1.6713     0.0000    66.0000 </r>
       <r>     1.7174     0.0000    66.0000 </r>
       <r>     1.7634     0.0000    66.0000 </r>
       <r>     1.8094     0.0000    66.0000 </r>
       <r>     1.8555     0.0000    66.0000 </r>
       <r>     1.9015     0.0000    66.0000 </r>
       <r>     1.9476     0.0000    66.0000 </r>
      </set>
      <set comment="spin 2">
       <r>   -11.8642     0.0000     0.0000 </r>
       <r>   -11.8181     0.0000     0.0000 </r>
       <r>   -11.7721     0.0000     0.0000 </r>
       <r>   -11.7261     0.0000     0.0000 </r>
       <r>   -11.6800     0.0000     0.0000 </r>
       <r>   -11.6340     0.0000     0.0000 </r>
       <r>   -11.5879     0.0000     0.0000 </r>
       <r>   -11.5419     0.0000     0.0000 </r>
       <r>   -11.4959     0.0000     0.0000 </r>
       <r>   -11.4498    -0.0000    -0.0000 </r>
       <r>   -11.4038    -0.0000    -0.0000 </r>
       <r>   -11.3578    -0.0000    -0.0000 </r>
       <r>   -11.3117    -0.0000    -0.0000 </r>
       <r>   -11.2657    -0.0000    -0.0000 </r>
       <r>   -11.2196    -0.0000    -0.0000 </r>
       <r>   -11.1736    -0.0000    -0.0000 </r>
       <r>   -11.1276    -0.0000    -0.0000 </r>
       <r>   -11.0815    -0.0000    -0.0000 </r>
       <r>   -11.0355    -0.0000    -0.0000 </r>
       <r>   -10.9894    -0.0000    -0.0000 </r>
       <r>   -10.9434    -0.0000    -0.0000 </r>
       <r>   -10.8974    -0.0000    -0.0000 </r>
       <r>   -10.8513    -0.0000    -0.0000 </r>
       <r>   -10.8053    -0.0000    -0.0000 </r>
       <r>   -10.7592    -0.0000    -0.0000 </r>
       <r>   -10.7132    -0.0000    -0.0000 </r>
       <r>   -10.6672    -0.0000    -0.0000 </r>
       <r>   -10.6211    -0.0000    -0.0000 </r>
       <r>   -10.5751    -0.0000    -0.0000 </r>
       <r>   -10.5290    -0.0001    -0.0000 </r>
       <r>   -10.4830    -0.0005    -0.0000 </r>
       <r>   -10.4370    -0.0017    -0.0001 </r>
       <r>   -10.3909    -0.0055    -0.0004 </r>
       <r>   -10.3449    -0.0157    -0.0011 </r>
       <r>   -10.2989    -0.0388    -0.0029 </r>
       <r>   -10.2528    -0.0828    -0.0067 </r>
       <r>   -10.2068    -0.1486    -0.0135 </r>
       <r>   -10.1607    -0.2134    -0.0233 </r>
       <r>   -10.1147    -0.2099    -0.0330 </r>
       <r>   -10.0687    -0.0217    -0.0340 </r>
       <r>   -10.0226     0.4787    -0.0120 </r>
       <r>    -9.9766     1.3429     0.0499 </r>
       <r>    -9.9305     2.4538     0.1628 </r>
       <r>    -9.8845     3.5093     0.3244 </r>
       <r>    -9.8385     4.1349     0.5148 </r>
       <r>    -9.7924     4.0803     0.7026 </r>
       <r>    -9.7464     3.3682     0.8577 </r>
       <r>    -9.7003     2.2799     0.9626 </r>
       <r>    -9.6543     1.1909     1.0175 </r>
       <r>    -9.6083     0.3792     1.0349 </r>
       <r>    -9.5622    -0.0675     1.0318 </r>
       <r>    -9.5162    -0.2190     1.0217 </r>
       <r>    -9.4701    -0.2057     1.0123 </r>
       <r>    -9.4241    -0.1377     1.0059 </r>
       <r>    -9.3781    -0.0746     1.0025 </r>
       <r>    -9.3320    -0.0341     1.0009 </r>
       <r>    -9.2860    -0.0135     1.0003 </r>
       <r>    -9.2400    -0.0047     1.0001 </r>
       <r>    -9.1939    -0.0014     1.0000 </r>
       <r>    -9.1479    -0.0004     1.0000 </r>
       <r>    -9.1018    -0.0001     1.0000 </r>
       <r>    -9.0558    -0.0000     1.0000 </r>
       <r>    -9.0098    -0.0000     1.0000 </r>
       <r>    -8.9637    -0.0000     1.0000 </r>
       <r>    -8.9177    -0.0000     1.0000 </r>
       <r>    -8.8716    -0.0000     1.0000 </r>
       <r>    -8.8256    -0.0000     1.0000 </r>
       <r>    -8.7796    -0.0000     1.0000 </r>
       <r>    -8.7335    -0.0001     1.0000 </r>
       <r>    -8.6875    -0.0003     1.0000 </r>
       <r>    -8.6414    -0.0012     0.9999 </r>
       <r>    -8.5954    -0.0041     0.9997 </r>
       <r>    -8.5494    -0.0120     0.9992 </r>
       <r>    -8.5033    -0.0309     0.9978 </r>
       <r>    -8.4573    -0.0688     0.9946 </r>
       <r>    -8.4112    -0.1300     0.9886 </r>
       <r>    -8.3652    -0.2007     0.9794 </r>
       <r>    -8.3192    -0.2289     0.9688 </r>
       <r>    -8.2731    -0.1133     0.9636 </r>
       <r>    -8.2271     0.2708     0.9761 </r>
       <r>    -8.1811     0.9974     1.0220 </r>
       <r>    -8.1350     1.9996     1.1141 </r>
       <r>    -8.0890     3.0417     1.2541 </r>
       <r>    -8.0429     3.8171     1.4298 </r>
       <r>    -7.9969     4.1392     1.6204 </r>
       <r>    -7.9509     4.0791     1.8082 </r>
       <r>    -7.9048     3.9139     1.9884 </r>
       <r>    -7.8588     3.9001     2.1679 </r>
       <r>    -7.8127     4.0565     2.3547 </r>
       <r>    -7.7667     4.1479     2.5457 </r>
       <r>    -7.7207     3.8841     2.7245 </r>
       <r>    -7.6746     3.1577     2.8699 </r>
       <r>    -7.6286     2.1224     2.9676 </r>
       <r>    -7.5825     1.0733     3.0170 </r>
       <r>    -7.5365     0.2556     3.0288 </r>
       <r>    -7.4905    -0.2422     3.0176 </r>
       <r>    -7.4444    -0.4581     2.9965 </r>
       <r>    -7.3984    -0.4496     2.9758 </r>
       <r>    -7.3523    -0.2119     2.9661 </r>
       <r>    -7.3063     0.3184     2.9807 </r>
       <r>    -7.2603     1.1809     3.0351 </r>
       <r>    -7.2142     2.3029     3.1411 </r>
       <r>    -7.1682     3.4840     3.3015 </r>
       <r>    -7.1222     4.4846     3.5080 </r>
       <r>    -7.0761     5.1522     3.7452 </r>
       <r>    -7.0301     5.4837     3.9977 </r>
       <r>    -6.9840     5.5808     4.2546 </r>
       <r>    -6.9380     5.5531     4.5102 </r>
       <r>    -6.8920     5.4570     4.7615 </r>
       <r>    -6.8459     5.3057     5.0058 </r>
       <r>    -6.7999     5.1250     5.2417 </r>
       <r>    -6.7538     5.0129     5.4725 </r>
       <r>    -6.7078     5.1585     5.7100 </r>
       <r>    -6.6618     5.7702     5.9756 </r>
       <r>    -6.6157     6.9140     6.2940 </r>
       <r>    -6.5697     8.3705     6.6793 </r>
       <r>    -6.5236     9.6642     7.1243 </r>
       <r>    -6.4776    10.3089     7.5989 </r>
       <r>    -6.4316    10.1224     8.0649 </r>
       <r>    -6.3855     9.3794     8.4967 </r>
       <r>    -6.3395     8.6867     8.8967 </r>
       <r>    -6.2934     8.6582     9.2953 </r>
       <r>    -6.2474     9.5843     9.7365 </r>
       <r>    -6.2014    11.2720    10.2555 </r>
       <r>    -6.1553    13.1270    10.8598 </r>
       <r>    -6.1093    14.4345    11.5244 </r>
       <r>    -6.0632    14.6891    12.2007 </r>
       <r>    -6.0172    13.7998    12.8360 </r>
       <r>    -5.9712    12.0725    13.3918 </r>
       <r>    -5.9251    10.0227    13.8532 </r>
       <r>    -5.8791     8.1706    14.2294 </r>
       <r>    -5.8331     6.9261    14.5483 </r>
       <r>    -5.7870     6.5450    14.8496 </r>
       <r>    -5.7410     7.0766    15.1754 </r>
       <r>    -5.6949     8.2986    15.5575 </r>
       <r>    -5.6489     9.7346    16.0056 </r>
       <r>    -5.6029    10.8197    16.5038 </r>
       <r>    -5.5568    11.1462    17.0169 </r>
       <r>    -5.5108    10.6350    17.5065 </r>
       <r>    -5.4647     9.5468    17.9461 </r>
       <r>    -5.4187     8.3654    18.3312 </r>
       <r>    -5.3727     7.6239    18.6822 </r>
       <r>    -5.3266     7.7098    19.0372 </r>
       <r>    -5.2806     8.6940    19.4374 </r>
       <r>    -5.2345    10.2911    19.9112 </r>
       <r>    -5.1885    12.0302    20.4651 </r>
       <r>    -5.1425    13.5531    21.0891 </r>
       <r>    -5.0964    14.8021    21.7705 </r>
       <r>    -5.0504    15.9302    22.5039 </r>
       <r>    -5.0043    17.0261    23.2878 </r>
       <r>    -4.9583    17.9330    24.1134 </r>
       <r>    -4.9123    18.3391    24.9577 </r>
       <r>    -4.8662    18.0391    25.7882 </r>
       <r>    -4.8202    17.1086    26.5759 </r>
       <r>    -4.7742    15.8446    27.3054 </r>
       <r>    -4.7281    14.5661    27.9760 </r>
       <r>    -4.6821    13.4780    28.5965 </r>
       <r>    -4.6360    12.7057    29.1815 </r>
       <r>    -4.5900    12.4197    29.7533 </r>
       <r>    -4.5440    12.8952    30.3469 </r>
       <r>    -4.4979    14.4145    31.0106 </r>
       <r>    -4.4519    17.0538    31.7957 </r>
       <r>    -4.4058    20.4986    32.7395 </r>
       <r>    -4.3598    24.0332    33.8459 </r>
       <r>    -4.3138    26.7548    35.0777 </r>
       <r>    -4.2677    27.9287    36.3635 </r>
       <r>    -4.2217    27.3090    37.6208 </r>
       <r>    -4.1756    25.2566    38.7836 </r>
       <r>    -4.1296    22.5871    39.8235 </r>
       <r>    -4.0836    20.2192    40.7543 </r>
       <r>    -4.0375    18.8002    41.6199 </r>
       <r>    -3.9915    18.5071    42.4719 </r>
       <r>    -3.9454    19.1105    43.3518 </r>
       <r>    -3.8994    20.2175    44.2826 </r>
       <r>    -3.8534    21.4990    45.2724 </r>
       <r>    -3.8073    22.7637    46.3204 </r>
       <r>    -3.7613    23.8850    47.4200 </r>
       <r>    -3.7153    24.6887    48.5567 </r>
       <r>    -3.6692    24.8885    49.7025 </r>
       <r>    -3.6232    24.1190    50.8129 </r>
       <r>    -3.5771    22.0833    51.8296 </r>
       <r>    -3.5311    18.7798    52.6942 </r>
       <r>    -3.4851    14.6601    53.3692 </r>
       <r>    -3.4390    10.5366    53.8543 </r>
       <r>    -3.3930     7.2162    54.1865 </r>
       <r>    -3.3469     5.0885    54.4208 </r>
       <r>    -3.3009     3.9743    54.6038 </r>
       <r>    -3.2549     3.3426    54.7576 </r>
       <r>    -3.2088     2.7017    54.8820 </r>
       <r>    -3.1628     1.8631    54.9678 </r>
       <r>    -3.1167     0.9345    55.0108 </r>
       <r>    -3.0707     0.1368    55.0171 </r>
       <r>    -3.0247    -0.3576    55.0007 </r>
       <r>    -2.9786    -0.4628    54.9794 </r>
       <r>    -2.9326    -0.1335    54.9732 </r>
       <r>    -2.8865     0.6609    55.0036 </r>
       <r>    -2.8405     1.8956    55.0909 </r>
       <r>    -2.7945     3.4243    55.2486 </r>
       <r>    -2.7484     4.9629    55.4770 </r>
       <r>    -2.7024     6.1566    55.7605 </r>
       <r>    -2.6564     6.6979    56.0689 </r>
       <r>    -2.6103     6.4392    56.3653 </r>
       <r>    -2.5643     5.4618    56.6168 </r>
       <r>    -2.5182     4.0795    56.8046 </r>
       <r>    -2.4722     2.7593    56.9316 </r>
       <r>    -2.4262     1.9526    57.0215 </r>
       <r>    -2.3801     1.8897    57.1085 </r>
       <r>    -2.3341     2.4505    57.2213 </r>
       <r>    -2.2880     3.2133    57.3693 </r>
       <r>    -2.2420     3.6909    57.5392 </r>
       <r>    -2.1960     3.6229    57.7060 </r>
       <r>    -2.1499     3.1322    57.8502 </r>
       <r>    -2.1039     2.6272    57.9712 </r>
       <r>    -2.0578     2.5069    58.0866 </r>
       <r>    -2.0118     2.8744    58.2189 </r>
       <r>    -1.9658     3.4601    58.3782 </r>
       <r>    -1.9197     3.8085    58.5536 </r>
       <r>    -1.8737     3.5918    58.7189 </r>
       <r>    -1.8276     2.8313    58.8493 </r>
       <r>    -1.7816     1.8879    58.9362 </r>
       <r>    -1.7356     1.2468    58.9936 </r>
       <r>    -1.6895     1.2494    59.0511 </r>
       <r>    -1.6435     1.9316    59.1400 </r>
       <r>    -1.5975     3.0435    59.2802 </r>
       <r>    -1.5514     4.2123    59.4741 </r>
       <r>    -1.5054     5.1307    59.7103 </r>
       <r>    -1.4593     5.6479    59.9703 </r>
       <r>    -1.4133     5.7327    60.2343 </r>
       <r>    -1.3673     5.3889    60.4824 </r>
       <r>    -1.3212     4.6310    60.6956 </r>
       <r>    -1.2752     3.5345    60.8583 </r>
       <r>    -1.2291     2.2773    60.9631 </r>
       <r>    -1.1831     1.0961    61.0136 </r>
       <r>    -1.1371     0.1858    61.0222 </r>
       <r>    -1.0910    -0.3643    61.0054 </r>
       <r>    -1.0450    -0.5429    60.9804 </r>
       <r>    -0.9989    -0.3402    60.9647 </r>
       <r>    -0.9529     0.2909    60.9781 </r>
       <r>    -0.9069     1.3878    61.0420 </r>
       <r>    -0.8608     2.8785    61.1745 </r>
       <r>    -0.8148     4.5177    61.3825 </r>
       <r>    -0.7687     5.9320    61.6556 </r>
       <r>    -0.7227     6.7687    61.9673 </r>
       <r>    -0.6767     6.8697    62.2835 </r>
       <r>    -0.6306     6.3581    62.5763 </r>
       <r>    -0.5846     5.5720    62.8328 </r>
       <r>    -0.5386     4.8742    63.0572 </r>
       <r>    -0.4925     4.4600    63.2625 </r>
       <r>    -0.4465     4.3050    63.4607 </r>
       <r>    -0.4004     4.2792    63.6577 </r>
       <r>    -0.3544     4.3140    63.8563 </r>
       <r>    -0.3084     4.4600    64.0617 </r>
       <r>    -0.2623     4.7995    64.2826 </r>
       <r>    -0.2163     5.3155    64.5274 </r>
       <r>    -0.1702     5.8475    64.7966 </r>
       <r>    -0.1242     6.1554    65.0800 </r>
       <r>    -0.0782     6.0292    65.3576 </r>
       <r>    -0.0321     5.3773    65.6051 </r>
       <r>     0.0139     4.2704    65.8017 </r>
       <r>     0.0600     2.9273    65.9365 </r>
       <r>     0.1060     1.6352    66.0118 </r>
       <r>     0.1520     0.6333    66.0409 </r>
       <r>     0.1981     0.0243    66.0420 </r>
       <r>     0.2441    -0.2337    66.0313 </r>
       <r>     0.2902    -0.2654    66.0191 </r>
       <r>     0.3362    -0.1986    66.0099 </r>
       <r>     0.3822    -0.1179    66.0045 </r>
       <r>     0.4283    -0.0588    66.0018 </r>
       <r>     0.4743    -0.0252    66.0006 </r>
       <r>     0.5203    -0.0094    66.0002 </r>
       <r>     0.5664    -0.0031    66.0001 </r>
       <r>     0.6124    -0.0009    66.0000 </r>
       <r>     0.6585    -0.0002    66.0000 </r>
       <r>     0.7045    -0.0001    66.0000 </r>
       <r>     0.7505    -0.0000    66.0000 </r>
       <r>     0.7966    -0.0000    66.0000 </r>
       <r>     0.8426    -0.0000    66.0000 </r>
       <r>     0.8887    -0.0000    66.0000 </r>
       <r>     0.9347    -0.0000    66.0000 </r>
       <r>     0.9807    -0.0000    66.0000 </r>
       <r>     1.0268    -0.0000    66.0000 </r>
       <r>     1.0728    -0.0000    66.0000 </r>
       <r>     1.1189    -0.0000    66.0000 </r>
       <r>     1.1649    -0.0000    66.0000 </r>
       <r>     1.2109    -0.0000    66.0000 </r>
       <r>     1.2570     0.0000    66.0000 </r>
       <r>     1.3030     0.0000    66.0000 </r>
       <r>     1.3491     0.0000    66.0000 </r>
       <r>     1.3951     0.0000    66.0000 </r>
       <r>     1.4411     0.0000    66.0000 </r>
       <r>     1.4872     0.0000    66.0000 </r>
       <r>     1.5332     0.0000    66.0000 </r>
       <r>     1.5792     0.0000    66.0000 </r>
       <r>     1.6253     0.0000    66.0000 </r>
       <r>     1.6713     0.0000    66.0000 </r>
       <r>     1.7174     0.0000    66.0000 </r>
       <r>     1.7634     0.0000    66.0000 </r>
       <r>     1.8094     0.0000    66.0000 </r>
       <r>     1.8555     0.0000    66.0000 </r>
       <r>     1.9015     0.0000    66.0000 </r>
       <r>     1.9476     0.0000    66.0000 </r>
      </set>
     </set>
    </array>
   </total>
  </dos>
 </calculation>
 <structure name="finalpos" >
  <crystal>
   <varray name="basis" >
    <v>      21.51757210       0.00000000       0.00000000 </v>
    <v>       0.00000000      22.01142524       0.00000000 </v>
    <v>       0.00000000       0.00000000      22.87520905 </v>
   </varray>
   <i name="volume">  10834.44084343 </i>
   <varray name="rec_basis" >
    <v>       0.04647364       0.00000000       0.00000000 </v>
    <v>       0.00000000       0.04543095       0.00000000 </v>
    <v>       0.00000000       0.00000000       0.04371545 </v>
   </varray>
  </crystal>
  <varray name="positions" >
   <v>       0.47151130       0.47623628       0.42940546 </v>
   <v>       0.57689808       0.47182016       0.40535251 </v>
   <v>       0.42021691       0.56754454       0.43551880 </v>
   <v>       0.53972027       0.41360565       0.48321412 </v>
   <v>       0.43958475       0.43631081       0.52002995 </v>
   <v>       0.52684235       0.56633117       0.43044307 </v>
   <v>       0.52390561       0.46356182       0.57714747 </v>
   <v>       0.58121723       0.50760335       0.50079972 </v>
   <v>       0.47547432       0.53660090       0.51626923 </v>
   <v>       0.42703694       0.50177585       0.59849896 </v>
  </varray>
 </structure>
</modeling>
