unknown system                          
            1
    21.517572    0.000000    0.000000
     0.000000   22.011425    0.000000
     0.000000    0.000000   22.875209
   Ni
    10
Direct configuration=     1
   0.46888276  0.47412025  0.42564529
   0.57918240  0.47236391  0.40432488
   0.41770112  0.56972414  0.43508538
   0.53798629  0.41441734  0.48561203
   0.43338207  0.43435169  0.51990854
   0.52957090  0.56793549  0.42566258
   0.52576791  0.46048065  0.58026514
   0.58618072  0.51195289  0.50215270
   0.47827793  0.53535080  0.51579151
   0.42547567  0.50069337  0.60223125
Direct configuration=     2
   0.46981805  0.47539400  0.42707744
   0.57804716  0.47263629  0.40571108
   0.41975606  0.56860915  0.43558761
   0.53781074  0.41633830  0.48531801
   0.43513868  0.43601663  0.52012479
   0.52816791  0.56626745  0.42681038
   0.52429785  0.46145315  0.57876432
   0.58449799  0.51075726  0.50146523
   0.47800880  0.53374224  0.51520608
   0.42686453  0.50017605  0.60061435
Direct configuration=     3
   0.47035114  0.47612001  0.42789373
   0.57740009  0.47279155  0.40650119
   0.42092733  0.56797363  0.43587388
   0.53771067  0.41743320  0.48515043
   0.43613991  0.43696561  0.52024804
   0.52736824  0.56531670  0.42746460
   0.52345995  0.46200746  0.57790888
   0.58353887  0.51007578  0.50107339
   0.47785540  0.53282540  0.51487240
   0.42765615  0.49988119  0.59969275
Direct configuration=     4
   0.47028656  0.47603205  0.42779484
   0.57747849  0.47277274  0.40640546
   0.42078543  0.56805063  0.43583919
   0.53772280  0.41730055  0.48517073
   0.43601861  0.43685063  0.52023311
   0.52746513  0.56543189  0.42738534
   0.52356146  0.46194031  0.57801252
   0.58365508  0.51015834  0.50112086
   0.47787398  0.53293648  0.51491283
   0.42756024  0.49991691  0.59980441
Direct configuration=     5
   0.47019409  0.47576513  0.42779031
   0.57733683  0.47252854  0.40641928
   0.42101179  0.56800166  0.43597880
   0.53798201  0.41714178  0.48483279
   0.43624597  0.43669838  0.51999366
   0.52724755  0.56551254  0.42783106
   0.52363749  0.46222135  0.57786870
   0.58345961  0.50998098  0.50131886
   0.47760024  0.53334352  0.51505181
   0.42769218  0.50019665  0.59959403
Direct configuration=     6
   0.46997865  0.47514326  0.42777976
   0.57700678  0.47195958  0.40645147
   0.42153920  0.56788756  0.43630406
   0.53858595  0.41677188  0.48404544
   0.43677571  0.43634365  0.51943578
   0.52674062  0.56570044  0.42886952
   0.52381462  0.46287614  0.57753363
   0.58300421  0.50956774  0.50178017
   0.47696246  0.53429187  0.51537560
   0.42799957  0.50084841  0.59910386
Direct configuration=     7
   0.46992985  0.47513396  0.42786849
   0.57690709  0.47197450  0.40629900
   0.42113048  0.56794705  0.43621102
   0.53876843  0.41622481  0.48400168
   0.43733235  0.43640746  0.51934670
   0.52700356  0.56557856  0.42936213
   0.52390934  0.46307708  0.57728502
   0.58273530  0.50943159  0.50179854
   0.47673420  0.53448394  0.51568488
   0.42795716  0.50113158  0.59882183
Direct configuration=     8
   0.46989989  0.47512825  0.42792297
   0.57684589  0.47198366  0.40620538
   0.42087953  0.56798358  0.43615389
   0.53888048  0.41588891  0.48397482
   0.43767413  0.43644664  0.51929200
   0.52716500  0.56550373  0.42966459
   0.52396749  0.46320046  0.57713237
   0.58257019  0.50934799  0.50180981
   0.47659404  0.53460186  0.51587478
   0.42793113  0.50130545  0.59864867
Direct configuration=     9
   0.47004498  0.47554376  0.42814179
   0.57671781  0.47205913  0.40611001
   0.42070962  0.56782362  0.43608976
   0.53911231  0.41533869  0.48390373
   0.43813188  0.43642130  0.51933213
   0.52717622  0.56534519  0.43011122
   0.52416793  0.46318808  0.57712583
   0.58239976  0.50907536  0.50162789
   0.47628665  0.53508990  0.51567051
   0.42766060  0.50150550  0.59856641
Direct configuration=    10
   0.47007513  0.47563011  0.42818727
   0.57669120  0.47207481  0.40609019
   0.42067431  0.56779038  0.43607644
   0.53916049  0.41522434  0.48388895
   0.43822700  0.43641604  0.51934047
   0.52717856  0.56531225  0.43020404
   0.52420958  0.46318551  0.57712447
   0.58236434  0.50901870  0.50159009
   0.47622277  0.53519132  0.51562806
   0.42760439  0.50154708  0.59854932
Direct configuration=    11
   0.47040021  0.47587926  0.42845258
   0.57665650  0.47203549  0.40598341
   0.42047923  0.56772048  0.43590278
   0.53937244  0.41481722  0.48372454
   0.43866182  0.43643456  0.51957356
   0.52711698  0.56552103  0.43032302
   0.52412637  0.46323876  0.57711698
   0.58220930  0.50856579  0.50139464
   0.47591536  0.53554700  0.51579722
   0.42746956  0.50163094  0.59841054
Direct configuration=    12
   0.47092732  0.47628326  0.42888277
   0.57660023  0.47197174  0.40581028
   0.42016291  0.56760714  0.43562121
   0.53971611  0.41415708  0.48345795
   0.43936685  0.43646458  0.51995151
   0.52701713  0.56585956  0.43051595
   0.52399146  0.46332511  0.57710484
   0.58195791  0.50783141  0.50107772
   0.47541691  0.53612372  0.51607153
   0.42725094  0.50176693  0.59818552
Direct configuration=    13
   0.47127890  0.47629953  0.42920435
   0.57674569  0.47186166  0.40554121
   0.42003707  0.56760479  0.43547254
   0.53979541  0.41376653  0.48328926
   0.43966433  0.43637694  0.52005934
   0.52692720  0.56620238  0.43053403
   0.52392403  0.46344796  0.57709787
   0.58160787  0.50752810  0.50093264
   0.47536501  0.53647970  0.51623674
   0.42706227  0.50182292  0.59831130
Direct configuration=    14
   0.47138751  0.47630455  0.42930370
   0.57679062  0.47182766  0.40545809
   0.41999820  0.56760406  0.43542661
   0.53981991  0.41364589  0.48323715
   0.43975622  0.43634987  0.52009266
   0.52689942  0.56630829  0.43053961
   0.52390320  0.46348592  0.57709571
   0.58149973  0.50743441  0.50088782
   0.47534898  0.53658967  0.51628778
   0.42700398  0.50184022  0.59835016
Direct configuration=    15
   0.47149233  0.47624674  0.42938987
   0.57688162  0.47182131  0.40536869
   0.42018340  0.56755366  0.43550468
   0.53973554  0.41361182  0.48321765
   0.43961103  0.43631679  0.52003955
   0.52685109  0.56632766  0.43045786
   0.52390524  0.46355019  0.57713954
   0.58126052  0.50757746  0.50081322
   0.47545511  0.53659918  0.51627207
   0.42703189  0.50178571  0.59847616
Direct configuration=    16
   0.47151130  0.47623628  0.42940546
   0.57689808  0.47182016  0.40535251
   0.42021691  0.56754454  0.43551880
   0.53972027  0.41360565  0.48321412
   0.43958475  0.43631081  0.52002995
   0.52684235  0.56633117  0.43044307
   0.52390561  0.46356182  0.57714747
   0.58121723  0.50760335  0.50079972
   0.47547432  0.53660090  0.51626923
   0.42703694  0.50177585  0.59849896
