       N       E                     dE             d eps       ncg     rms          rms(c)
DAV:   1     0.140982710310E+04    0.14098E+04   -0.25302E+04   416   0.709E+02
DAV:   2     0.804726812329E+03   -0.60510E+03   -0.54639E+03   800   0.793E+01
DAV:   3     0.182246774381E+03   -0.62248E+03   -0.57378E+03   712   0.773E+01
DAV:   4    -0.301172777097E+02   -0.21236E+03   -0.19312E+03   576   0.531E+01
DAV:   5    -0.614386739920E+02   -0.31321E+02   -0.25737E+02   560   0.199E+01    0.270E+01
DAV:   6    -0.534929270080E+02    0.79457E+01   -0.57259E+01   456   0.171E+01    0.176E+01
DAV:   7    -0.574159477954E+02   -0.39230E+01   -0.40999E+01   464   0.422E+01    0.263E+01
DAV:   8    -0.513601087308E+02    0.60558E+01   -0.28389E+01   464   0.310E+01    0.215E+01
DAV:   9    -0.465238535790E+02    0.48363E+01   -0.19826E+01   464   0.213E+01    0.114E+01
DAV:  10    -0.469979958083E+02   -0.47414E+00   -0.67615E+00   464   0.147E+01    0.941E+00
DAV:  11    -0.480527114549E+02   -0.10547E+01   -0.36777E+00   456   0.104E+01    0.584E+00
DAV:  12    -0.494850823236E+02   -0.14324E+01   -0.14389E+00   448   0.703E+00    0.418E+00
DAV:  13    -0.512656686027E+02   -0.17806E+01   -0.88503E-01   448   0.447E+00    0.303E+00
DAV:  14    -0.529474037872E+02   -0.16817E+01   -0.56123E-01   448   0.354E+00    0.226E+00
DAV:  15    -0.551439453716E+02   -0.21965E+01   -0.69247E-01   432   0.283E+00    0.211E+00
DAV:  16    -0.561162383820E+02   -0.97229E+00   -0.28010E-01   472   0.241E+00    0.165E+00
DAV:  17    -0.566634254326E+02   -0.54719E+00   -0.98182E-02   456   0.163E+00    0.113E+00
DAV:  18    -0.570652072502E+02   -0.40178E+00   -0.45437E-02   456   0.115E+00    0.822E-01
DAV:  19    -0.576006137288E+02   -0.53541E+00   -0.43151E-02   448   0.753E-01    0.750E-01
DAV:  20    -0.579719156938E+02   -0.37130E+00   -0.25100E-02   464   0.607E-01    0.705E-01
DAV:  21    -0.584074563249E+02   -0.43554E+00   -0.28922E-02   432   0.642E-01    0.617E-01
DAV:  22    -0.590206891571E+02   -0.61323E+00   -0.49672E-02   440   0.615E-01    0.628E-01
DAV:  23    -0.592946262261E+02   -0.27394E+00   -0.11972E-02   488   0.438E-01    0.502E-01
DAV:  24    -0.598008298731E+02   -0.50620E+00   -0.35011E-02   424   0.511E-01    0.439E-01
DAV:  25    -0.600197953509E+02   -0.21897E+00   -0.12475E-02   480   0.432E-01    0.350E-01
DAV:  26    -0.603367646109E+02   -0.31697E+00   -0.18697E-02   432   0.417E-01    0.283E-01
DAV:  27    -0.607490822179E+02   -0.41232E+00   -0.20025E-02   480   0.305E-01    0.181E-01
DAV:  28    -0.609290575993E+02   -0.17998E+00   -0.58061E-03   472   0.229E-01    0.146E-01
DAV:  29    -0.610058550450E+02   -0.76797E-01   -0.19343E-03   448   0.172E-01    0.990E-02
DAV:  30    -0.610610226279E+02   -0.55168E-01   -0.15059E-03   472   0.127E-01    0.945E-02
DAV:  31    -0.610945613806E+02   -0.33539E-01   -0.86216E-04   424   0.113E-01    0.628E-02
DAV:  32    -0.611255871667E+02   -0.31026E-01   -0.77981E-04   408   0.766E-02    0.416E-02
DAV:  33    -0.611551152514E+02   -0.29528E-01   -0.56378E-04   408   0.552E-02    0.381E-02
DAV:  34    -0.611727800784E+02   -0.17665E-01   -0.19288E-04   328   0.526E-02    0.283E-02
DAV:  35    -0.611870118196E+02   -0.14232E-01   -0.17270E-04   320   0.321E-02    0.200E-02
DAV:  36    -0.611943135800E+02   -0.73018E-02   -0.68688E-05   304   0.258E-02    0.167E-02
DAV:  37    -0.611996276043E+02   -0.53140E-02   -0.51739E-05   280   0.211E-02    0.118E-02
DAV:  38    -0.612033854917E+02   -0.37579E-02   -0.37177E-05   288   0.148E-02    0.893E-03
DAV:  39    -0.612054545989E+02   -0.20691E-02   -0.17096E-05   288   0.120E-02    0.695E-03
DAV:  40    -0.612070099763E+02   -0.15554E-02   -0.12920E-05   280   0.928E-03    0.544E-03
DAV:  41    -0.612084104266E+02   -0.14005E-02   -0.94046E-06   272   0.632E-03    0.325E-03
DAV:  42    -0.612093221222E+02   -0.91170E-03   -0.52453E-06   280   0.421E-03    0.264E-03
DAV:  43    -0.612099257551E+02   -0.60363E-03   -0.33623E-06   264   0.337E-03    0.173E-03
DAV:  44    -0.612103032272E+02   -0.37747E-03   -0.18583E-06   288   0.254E-03    0.127E-03
DAV:  45    -0.612106115548E+02   -0.30833E-03   -0.12579E-06   256   0.207E-03    0.833E-04
DAV:  46    -0.612108375756E+02   -0.22602E-03   -0.10395E-06   264   0.188E-03    0.626E-04
DAV:  47    -0.612110015552E+02   -0.16398E-03   -0.88297E-07   264   0.158E-03    0.436E-04
DAV:  48    -0.612110800553E+02   -0.78500E-04   -0.52799E-07   264   0.120E-03
   1 F= -.61211080E+02 E0= -.61205684E+02  d E =-.612111E+02  mag=     6.9395
       N       E                     dE             d eps       ncg     rms          rms(c)
DAV:   1    -0.613347116769E+02   -0.12371E+00   -0.16054E+02   416   0.332E+01    0.337E+00
DAV:   2    -0.616388778278E+02   -0.30417E+00   -0.29193E+00   432   0.672E+00    0.522E+00
DAV:   3    -0.615560916830E+02    0.82786E-01   -0.12854E+00   448   0.622E+00    0.325E+00
DAV:   4    -0.615063824955E+02    0.49709E-01   -0.43438E-01   448   0.344E+00    0.318E+00
DAV:   5    -0.614417703982E+02    0.64612E-01   -0.32673E-01   464   0.303E+00    0.192E+00
DAV:   6    -0.613985230914E+02    0.43247E-01   -0.21326E-01   464   0.233E+00    0.177E+00
DAV:   7    -0.613394840095E+02    0.59039E-01   -0.90912E-02   448   0.180E+00    0.106E+00
DAV:   8    -0.613322124956E+02    0.72715E-02   -0.39331E-02   464   0.118E+00    0.573E-01
DAV:   9    -0.613434211475E+02   -0.11209E-01   -0.10813E-02   440   0.611E-01    0.312E-01
DAV:  10    -0.613568414662E+02   -0.13420E-01   -0.35407E-03   456   0.384E-01    0.213E-01
DAV:  11    -0.613728079924E+02   -0.15967E-01   -0.19541E-03   448   0.234E-01    0.171E-01
DAV:  12    -0.613832250664E+02   -0.10417E-01   -0.89792E-04   432   0.168E-01    0.916E-02
DAV:  13    -0.613937061100E+02   -0.10481E-01   -0.40081E-04   344   0.928E-02    0.897E-02
DAV:  14    -0.614069884343E+02   -0.13282E-01   -0.35461E-04   336   0.699E-02    0.737E-02
DAV:  15    -0.614201918492E+02   -0.13203E-01   -0.29455E-04   344   0.601E-02    0.686E-02
DAV:  16    -0.614374718435E+02   -0.17280E-01   -0.48400E-04   368   0.656E-02    0.607E-02
DAV:  17    -0.614568514305E+02   -0.19380E-01   -0.66748E-04   392   0.696E-02    0.536E-02
DAV:  18    -0.614709151558E+02   -0.14064E-01   -0.45560E-04   368   0.665E-02    0.399E-02
DAV:  19    -0.614826409339E+02   -0.11726E-01   -0.35815E-04   336   0.562E-02    0.389E-02
DAV:  20    -0.614908990037E+02   -0.82581E-02   -0.27622E-04   344   0.481E-02    0.214E-02
DAV:  21    -0.614965963500E+02   -0.56973E-02   -0.82838E-05   296   0.258E-02    0.160E-02
DAV:  22    -0.615006545548E+02   -0.40582E-02   -0.58456E-05   264   0.214E-02    0.134E-02
DAV:  23    -0.615050938840E+02   -0.44393E-02   -0.52211E-05   272   0.167E-02    0.929E-03
DAV:  24    -0.615089845731E+02   -0.38907E-02   -0.43755E-05   264   0.131E-02    0.793E-03
DAV:  25    -0.615115542710E+02   -0.25697E-02   -0.31735E-05   288   0.126E-02    0.622E-03
DAV:  26    -0.615141734536E+02   -0.26192E-02   -0.29254E-05   280   0.986E-03    0.412E-03
DAV:  27    -0.615165011498E+02   -0.23277E-02   -0.38045E-05   288   0.860E-03    0.357E-03
DAV:  28    -0.615172198700E+02   -0.71872E-03   -0.13706E-05   288   0.761E-03    0.237E-03
DAV:  29    -0.615177803203E+02   -0.56045E-03   -0.11987E-05   288   0.495E-03    0.181E-03
DAV:  30    -0.615180496760E+02   -0.26936E-03   -0.55455E-06   272   0.399E-03    0.165E-03
DAV:  31    -0.615183098478E+02   -0.26017E-03   -0.40964E-06   248   0.300E-03    0.122E-03
DAV:  32    -0.615184973539E+02   -0.18751E-03   -0.19787E-06   248   0.231E-03    0.949E-04
DAV:  33    -0.615187326226E+02   -0.23527E-03   -0.12915E-06   256   0.188E-03    0.934E-04
DAV:  34    -0.615189124438E+02   -0.17982E-03   -0.79551E-07   272   0.177E-03    0.539E-04
DAV:  35    -0.615190274731E+02   -0.11503E-03   -0.45648E-07   264   0.113E-03    0.332E-04
DAV:  36    -0.615190585159E+02   -0.31043E-04   -0.19066E-07   248   0.764E-04
   2 F= -.61519059E+02 E0= -.61523686E+02  d E =-.307978E+00  mag=     6.0859
       N       E                     dE             d eps       ncg     rms          rms(c)
DAV:   1    -0.615186452117E+02    0.38226E-03   -0.10032E+01   416   0.824E+00    0.776E-01
DAV:   2    -0.615376201812E+02   -0.18975E-01   -0.18769E-01   440   0.169E+00    0.128E+00
DAV:   3    -0.615309467638E+02    0.66734E-02   -0.61019E-02   440   0.151E+00    0.708E-01
DAV:   4    -0.615267666517E+02    0.41801E-02   -0.13465E-02   448   0.682E-01    0.452E-01
DAV:   5    -0.615249501923E+02    0.18165E-02   -0.81137E-03   448   0.579E-01    0.418E-01
DAV:   6    -0.615223709287E+02    0.25793E-02   -0.10453E-02   472   0.528E-01    0.480E-01
DAV:   7    -0.615187226683E+02    0.36483E-02   -0.75608E-03   472   0.447E-01    0.285E-01
DAV:   8    -0.615177607336E+02    0.96193E-03   -0.25173E-03   456   0.273E-01    0.969E-02
DAV:   9    -0.615180450708E+02   -0.28434E-03   -0.42226E-04   280   0.123E-01    0.749E-02
DAV:  10    -0.615183639785E+02   -0.31891E-03   -0.14239E-04   288   0.824E-02    0.453E-02
DAV:  11    -0.615188118955E+02   -0.44792E-03   -0.73490E-05   264   0.476E-02    0.335E-02
DAV:  12    -0.615192579723E+02   -0.44608E-03   -0.41348E-05   280   0.324E-02    0.199E-02
DAV:  13    -0.615196325758E+02   -0.37460E-03   -0.18384E-05   272   0.189E-02    0.183E-02
DAV:  14    -0.615203161686E+02   -0.68359E-03   -0.17163E-05   272   0.146E-02    0.158E-02
DAV:  15    -0.615211161578E+02   -0.79999E-03   -0.20631E-05   296   0.143E-02    0.154E-02
DAV:  16    -0.615225411322E+02   -0.14250E-02   -0.49096E-05   296   0.166E-02    0.134E-02
DAV:  17    -0.615236174262E+02   -0.10763E-02   -0.41617E-05   304   0.161E-02    0.114E-02
DAV:  18    -0.615246944803E+02   -0.10771E-02   -0.47932E-05   280   0.167E-02    0.899E-03
DAV:  19    -0.615257086974E+02   -0.10142E-02   -0.46345E-05   296   0.133E-02    0.796E-03
DAV:  20    -0.615265056077E+02   -0.79691E-03   -0.31017E-05   272   0.118E-02    0.449E-03
DAV:  21    -0.615271880130E+02   -0.68241E-03   -0.19648E-05   296   0.776E-03    0.343E-03
DAV:  22    -0.615278904327E+02   -0.70242E-03   -0.14497E-05   272   0.656E-03    0.288E-03
DAV:  23    -0.615286895986E+02   -0.79917E-03   -0.12845E-05   296   0.580E-03    0.211E-03
DAV:  24    -0.615292829476E+02   -0.59335E-03   -0.11074E-05   280   0.520E-03    0.181E-03
DAV:  25    -0.615296112348E+02   -0.32829E-03   -0.72884E-06   280   0.454E-03    0.114E-03
DAV:  26    -0.615298651619E+02   -0.25393E-03   -0.57918E-06   272   0.334E-03    0.905E-04
DAV:  27    -0.615300381005E+02   -0.17294E-03   -0.37686E-06   248   0.294E-03    0.696E-04
DAV:  28    -0.615301212552E+02   -0.83155E-04   -0.22186E-06   256   0.211E-03
   3 F= -.61530121E+02 E0= -.61537585E+02  d E =-.319041E+00  mag=     5.9034
       N       E                     dE             d eps       ncg     rms          rms(c)
DAV:   1    -0.615411351558E+02   -0.11097E-01   -0.90898E+00   416   0.786E+00    0.663E-01
DAV:   2    -0.615738396114E+02   -0.32704E-01   -0.23610E-01   456   0.212E+00    0.207E+00
DAV:   3    -0.615505810036E+02    0.23259E-01   -0.10167E-01   432   0.175E+00    0.593E-01
DAV:   4    -0.615532590757E+02   -0.26781E-02   -0.25241E-02   424   0.846E-01    0.633E-01
DAV:   5    -0.615509043269E+02    0.23547E-02   -0.11307E-02   432   0.601E-01    0.364E-01
DAV:   6    -0.615501693335E+02    0.73499E-03   -0.31438E-03   448   0.359E-01    0.196E-01
DAV:   7    -0.615494239794E+02    0.74535E-03   -0.19702E-03   472   0.272E-01    0.225E-01
DAV:   8    -0.615487831618E+02    0.64082E-03   -0.13904E-03   440   0.254E-01    0.110E-01
DAV:   9    -0.615487464961E+02    0.36666E-04   -0.46778E-04   312   0.129E-01
   4 F= -.61548746E+02 E0= -.61557035E+02  d E =-.186252E-01  mag=     5.8830
       N       E                     dE             d eps       ncg     rms          rms(c)
DAV:   1    -0.615450892313E+02    0.36939E-02   -0.97227E+00   416   0.813E+00    0.690E-01
DAV:   2    -0.615812273191E+02   -0.36138E-01   -0.26170E-01   440   0.223E+00    0.217E+00
DAV:   3    -0.615549209597E+02    0.26306E-01   -0.11558E-01   432   0.186E+00    0.623E-01
DAV:   4    -0.615573822866E+02   -0.24613E-02   -0.27409E-02   432   0.889E-01    0.647E-01
DAV:   5    -0.615546403358E+02    0.27420E-02   -0.11796E-02   432   0.615E-01    0.369E-01
DAV:   6    -0.615536596035E+02    0.98073E-03   -0.32513E-03   424   0.366E-01    0.204E-01
DAV:   7    -0.615528964831E+02    0.76312E-03   -0.27114E-03   456   0.317E-01    0.288E-01
DAV:   8    -0.615518191962E+02    0.10773E-02   -0.20900E-03   448   0.289E-01    0.115E-01
DAV:   9    -0.615518248940E+02   -0.56978E-05   -0.53171E-04   304   0.138E-01
   5 F= -.61551825E+02 E0= -.61560984E+02  d E =-.217036E-01  mag=     5.8492
       N       E                     dE             d eps       ncg     rms          rms(c)
DAV:   1    -0.615553482400E+02   -0.35290E-02   -0.68335E+00   416   0.679E+00    0.404E-01
DAV:   2    -0.615674489840E+02   -0.12101E-01   -0.11900E-01   424   0.143E+00    0.811E-01
DAV:   3    -0.615626747775E+02    0.47742E-02   -0.23283E-02   432   0.987E-01    0.345E-01
DAV:   4    -0.615619854061E+02    0.68937E-03   -0.75200E-03   432   0.439E-01    0.352E-01
DAV:   5    -0.615602834289E+02    0.17020E-02   -0.36238E-03   432   0.312E-01    0.202E-01
DAV:   6    -0.615592325781E+02    0.10509E-02   -0.15599E-03   400   0.223E-01    0.171E-01
DAV:   7    -0.615558139489E+02    0.34186E-02   -0.15833E-03   456   0.209E-01    0.183E-01
DAV:   8    -0.615538027549E+02    0.20112E-02   -0.98517E-04   376   0.190E-01    0.896E-02
DAV:   9    -0.615533609172E+02    0.44184E-03   -0.23307E-04   272   0.963E-02    0.474E-02
DAV:  10    -0.615534664801E+02   -0.10556E-03   -0.60847E-05   272   0.468E-02    0.309E-02
DAV:  11    -0.615537119185E+02   -0.24544E-03   -0.29374E-05   256   0.309E-02    0.322E-02
DAV:  12    -0.615543378055E+02   -0.62589E-03   -0.35802E-05   272   0.290E-02    0.278E-02
DAV:  13    -0.615550715364E+02   -0.73373E-03   -0.32145E-05   280   0.243E-02    0.220E-02
DAV:  14    -0.615564562360E+02   -0.13847E-02   -0.38843E-05   288   0.172E-02    0.183E-02
DAV:  15    -0.615580751644E+02   -0.16189E-02   -0.40079E-05   280   0.185E-02    0.189E-02
DAV:  16    -0.615602792341E+02   -0.22041E-02   -0.66954E-05   280   0.222E-02    0.163E-02
DAV:  17    -0.615624192606E+02   -0.21400E-02   -0.97196E-05   312   0.204E-02    0.127E-02
DAV:  18    -0.615640346264E+02   -0.16154E-02   -0.62887E-05   272   0.195E-02    0.102E-02
DAV:  19    -0.615653150189E+02   -0.12804E-02   -0.50067E-05   288   0.150E-02    0.720E-03
DAV:  20    -0.615662073344E+02   -0.89232E-03   -0.34144E-05   280   0.126E-02    0.605E-03
DAV:  21    -0.615670975008E+02   -0.89017E-03   -0.25274E-05   280   0.988E-03    0.411E-03
DAV:  22    -0.615677393800E+02   -0.64188E-03   -0.15171E-05   264   0.716E-03    0.330E-03
DAV:  23    -0.615686813566E+02   -0.94198E-03   -0.13299E-05   272   0.601E-03    0.253E-03
DAV:  24    -0.615696292301E+02   -0.94787E-03   -0.13100E-05   296   0.578E-03    0.214E-03
DAV:  25    -0.615700122047E+02   -0.38297E-03   -0.81404E-06   280   0.498E-03    0.146E-03
DAV:  26    -0.615703454272E+02   -0.33322E-03   -0.74019E-06   280   0.399E-03    0.103E-03
DAV:  27    -0.615704913386E+02   -0.14591E-03   -0.39341E-06   264   0.314E-03    0.888E-04
DAV:  28    -0.615705925354E+02   -0.10120E-03   -0.22952E-06   256   0.218E-03    0.609E-04
DAV:  29    -0.615706923823E+02   -0.99847E-04   -0.11759E-06   248   0.165E-03
   6 F= -.61570692E+02 E0= -.61581847E+02  d E =-.188675E-01  mag=     5.6094
       N       E                     dE             d eps       ncg     rms          rms(c)
DAV:   1    -0.615131039025E+02    0.57489E-01   -0.61716E+01   416   0.205E+01    0.118E+00
DAV:   2    -0.616253426965E+02   -0.11224E+00   -0.10546E+00   432   0.425E+00    0.225E+00
DAV:   3    -0.615907520573E+02    0.34591E-01   -0.18167E-01   432   0.285E+00    0.926E-01
DAV:   4    -0.615898778326E+02    0.87422E-03   -0.58627E-02   432   0.122E+00    0.970E-01
DAV:   5    -0.615814388106E+02    0.84390E-02   -0.29363E-02   456   0.893E-01    0.568E-01
DAV:   6    -0.615779610872E+02    0.34777E-02   -0.13472E-02   456   0.663E-01    0.529E-01
DAV:   7    -0.615640886975E+02    0.13872E-01   -0.13326E-02   456   0.613E-01    0.482E-01
DAV:   8    -0.615565938900E+02    0.74948E-02   -0.72301E-03   440   0.538E-01    0.260E-01
DAV:   9    -0.615552070399E+02    0.13869E-02   -0.21756E-03   448   0.284E-01    0.135E-01
DAV:  10    -0.615556415731E+02   -0.43453E-03   -0.50877E-04   288   0.136E-01    0.724E-02
DAV:  11    -0.615561392056E+02   -0.49763E-03   -0.18433E-04   288   0.827E-02    0.704E-02
DAV:  12    -0.615574389049E+02   -0.12997E-02   -0.18808E-04   272   0.696E-02    0.550E-02
DAV:  13    -0.615586371282E+02   -0.11982E-02   -0.11223E-04   280   0.546E-02    0.392E-02
DAV:  14    -0.615607478642E+02   -0.21107E-02   -0.97204E-05   272   0.349E-02    0.337E-02
DAV:  15    -0.615625595153E+02   -0.18117E-02   -0.61007E-05   280   0.330E-02    0.336E-02
DAV:  16    -0.615663842833E+02   -0.38248E-02   -0.14967E-04   304   0.336E-02    0.284E-02
DAV:  17    -0.615701034451E+02   -0.37192E-02   -0.11563E-04   312   0.312E-02    0.241E-02
DAV:  18    -0.615750550681E+02   -0.49516E-02   -0.25553E-04   312   0.349E-02    0.199E-02
DAV:  19    -0.615780510782E+02   -0.29960E-02   -0.90912E-05   320   0.275E-02    0.175E-02
DAV:  20    -0.615808656503E+02   -0.28146E-02   -0.12852E-04   288   0.245E-02    0.111E-02
DAV:  21    -0.615826065787E+02   -0.17409E-02   -0.37680E-05   288   0.159E-02    0.833E-03
DAV:  22    -0.615841505709E+02   -0.15440E-02   -0.30532E-05   272   0.120E-02    0.652E-03
DAV:  23    -0.615859965135E+02   -0.18459E-02   -0.20012E-05   264   0.864E-03    0.551E-03
DAV:  24    -0.615875562684E+02   -0.15598E-02   -0.18912E-05   280   0.874E-03    0.479E-03
DAV:  25    -0.615887816419E+02   -0.12254E-02   -0.16205E-05   288   0.835E-03    0.311E-03
DAV:  26    -0.615896605411E+02   -0.87890E-03   -0.16231E-05   304   0.641E-03    0.223E-03
DAV:  27    -0.615900167394E+02   -0.35620E-03   -0.93211E-06   280   0.544E-03    0.176E-03
DAV:  28    -0.615903102610E+02   -0.29352E-03   -0.70737E-06   280   0.410E-03    0.124E-03
DAV:  29    -0.615905401063E+02   -0.22985E-03   -0.38286E-06   280   0.311E-03    0.976E-04
DAV:  30    -0.615906815940E+02   -0.14149E-03   -0.20227E-06   272   0.225E-03    0.859E-04
DAV:  31    -0.615908414485E+02   -0.15985E-03   -0.12472E-06   280   0.182E-03    0.651E-04
DAV:  32    -0.615909739102E+02   -0.13246E-03   -0.87032E-07   272   0.145E-03    0.514E-04
DAV:  33    -0.615910438924E+02   -0.69982E-04   -0.52036E-07   264   0.127E-03
   7 F= -.61591044E+02 E0= -.61606251E+02  d E =-.392190E-01  mag=     5.2339
       N       E                     dE             d eps       ncg     rms          rms(c)
DAV:   1    -0.615850801209E+02    0.58938E-02   -0.56615E+00   424   0.619E+00    0.346E-01
DAV:   2    -0.615949729481E+02   -0.98928E-02   -0.95395E-02   440   0.127E+00    0.667E-01
DAV:   3    -0.615919047732E+02    0.30682E-02   -0.15877E-02   440   0.844E-01    0.268E-01
DAV:   4    -0.615919052025E+02   -0.42934E-06   -0.42272E-03   432   0.346E-01    0.261E-01
DAV:   5    -0.615911987529E+02    0.70645E-03   -0.22867E-03   416   0.255E-01    0.170E-01
DAV:   6    -0.615909556990E+02    0.24305E-03   -0.14475E-03   376   0.205E-01    0.180E-01
DAV:   7    -0.615894256390E+02    0.15301E-02   -0.14391E-03   464   0.195E-01    0.147E-01
DAV:   8    -0.615886682991E+02    0.75734E-03   -0.63930E-04   328   0.162E-01    0.738E-02
DAV:   9    -0.615885013325E+02    0.16697E-03   -0.16729E-04   264   0.797E-02    0.377E-02
DAV:  10    -0.615884761598E+02    0.25173E-04   -0.42585E-05   272   0.391E-02
   8 F= -.61588476E+02 E0= -.61604368E+02  d E =-.366513E-01  mag=     5.2099
       N       E                     dE             d eps       ncg     rms          rms(c)
DAV:   1    -0.615831100128E+02    0.53913E-02   -0.11058E+01   416   0.866E+00    0.487E-01
DAV:   2    -0.616059902013E+02   -0.22880E-01   -0.19709E-01   440   0.185E+00    0.119E+00
DAV:   3    -0.615964842185E+02    0.95060E-02   -0.40861E-02   432   0.130E+00    0.384E-01
DAV:   4    -0.615972867700E+02   -0.80255E-03   -0.10025E-02   424   0.565E-01    0.433E-01
DAV:   5    -0.615960093936E+02    0.12774E-02   -0.52612E-03   416   0.405E-01    0.251E-01
DAV:   6    -0.615957322677E+02    0.27713E-03   -0.18070E-03   416   0.246E-01    0.181E-01
DAV:   7    -0.615954551689E+02    0.27710E-03   -0.23250E-03   424   0.258E-01    0.243E-01
DAV:   8    -0.615947663545E+02    0.68881E-03   -0.16477E-03   416   0.234E-01    0.845E-02
DAV:   9    -0.615948002144E+02   -0.33860E-04   -0.25524E-04   272   0.109E-01
   9 F= -.61594800E+02 E0= -.61611103E+02  d E =-.632405E-02  mag=     5.1826
