 vasp.6.1.2 22Jul20 (build Aug  2 2021 21:04:21) gamma-only                      
 executed on             LinuxPGI date 2021.12.13  21:56:56
 running on   16 total cores
 distrk:  each k-point on   16 cores,    1 groups
 distr:  one band on NCORE=   8 cores,    2 groups


--------------------------------------------------------------------------------------------------------


 INCAR:
 POTCAR:    PAW_PBE Pd 04Jan2005                  
 -----------------------------------------------------------------------------
|                                                                             |
|           W    W    AA    RRRRR   N    N  II  N    N   GGGG   !!!           |
|           W    W   A  A   R    R  NN   N  II  NN   N  G    G  !!!           |
|           W    W  A    A  R    R  N N  N  II  N N  N  G       !!!           |
|           W WW W  AAAAAA  RRRRR   N  N N  II  N  N N  G  GGG   !            |
|           WW  WW  A    A  R   R   N   NN  II  N   NN  G    G                |
|           W    W  A    A  R    R  N    N  II  N    N   GGGG   !!!           |
|                                                                             |
|     You use a magnetic or noncollinear calculation, but did not specify     |
|     the initial magnetic moment with the MAGMOM tag. Note that a            |
|     default of 1 will be used for all atoms. This ferromagnetic setup       |
|     may break the symmetry of the crystal, in particular it may rule        |
|     out finding an antiferromagnetic solution. Thence, we recommend         |
|     setting the initial magnetic moment manually or verifying carefully     |
|     that this magnetic setup is desired.                                    |
|                                                                             |
 -----------------------------------------------------------------------------

 POTCAR:    PAW_PBE Pd 04Jan2005                  
   SHA256 =  dd6f6f02930356371984e2b707ff5e456046761dc76b07c1eba30abd15eb3c39 Pd/POTCAR             
   COPYR  = (c) Copyright 04Jan2005 Georg Kresse                                                    
   COPYR  = This file is part of the software VASP. Any use, copying, and all other rights are regul
   COPYR  = If you do not have a valid VASP license, you may not use, copy or distribute this file. 
   VRHFIN =Pd : s1 d9                                                                               
   LEXCH  = PE                                                                                      
   EATOM  =   809.7530 eV,   59.5152 Ry                                                             
                                                                                                    
   TITEL  = PAW_PBE Pd 04Jan2005                                                                    
   LULTRA =        F    use ultrasoft PP ?                                                          
   IUNSCR =        1    unscreen: 0-lin 1-nonlin 2-no                                               
   RPACOR =    2.000    partial core radius                                                         
   POMASS =  106.420; ZVAL   =   10.000    mass and valenz                                          
   RCORE  =    2.600    outmost cutoff radius                                                       
   RWIGS  =    2.710; RWIGS  =    1.434    wigner-seitz radius (au A)                               
   ENMAX  =  250.925; ENMIN  =  188.194 eV                                                          
   ICORE  =        3    local potential                                                             
   LCOR   =        T    correct aug charges                                                         
   LPAW   =        T    paw PP                                                                      
   EAUG   =  416.230                                                                                
   DEXC   =    0.000                                                                                
   RMAX   =    2.653    core radius for proj-oper                                                   
   RAUG   =    1.300    factor for augmentation sphere                                              
   RDEP   =    2.734    radius for radial grids                                                     
   RDEPT  =    2.103    core radius for aug-charge                                                  
                                                                                                    
   Atomic configuration                                                                             
   12 entries                                                                                       
     n  l   j            E        occ.                                                              
     1  0  0.50    -24164.6631   2.0000                                                             
     2  0  0.50     -3530.9218   2.0000                                                             
     2  1  1.50     -3165.6822   6.0000                                                             
     3  0  0.50      -639.4577   2.0000                                                             
     3  1  1.50      -519.4532   6.0000                                                             
     3  2  2.50      -328.9757  10.0000                                                             
     4  0  0.50       -88.7014   2.0000                                                             
     4  1  1.50       -54.4540   6.0000                                                             
     4  2  2.50        -6.6878   9.0000                                                             
     5  0  0.50        -4.3543   1.0000                                                             
     5  1  0.50        -1.3606   0.0000                                                             
     4  3  2.50        -1.3606   0.0000                                                             
   Description                                                                                      
     l       E           TYP  RCUT    TYP  RCUT                                                     
     2     -6.6878251     23  2.400                                                                 
     2     -8.0484077     23  2.400                                                                 
     0     -4.3542939     23  2.400                                                                 
     0      4.3406793     23  2.400                                                                 
     1     -4.0817478     23  2.600                                                                 
     1     15.8380318     23  2.600                                                                 
     3     -4.0817478     23  2.400                                                                 
  local pseudopotential read in
  partial core-charges read in
  partial kinetic energy density read in
  atomic valenz-charges read in
  non local Contribution for L=            2  read in
    real space projection operators read in
  non local Contribution for L=            2  read in
    real space projection operators read in
  non local Contribution for L=            0  read in
    real space projection operators read in
  non local Contribution for L=            0  read in
    real space projection operators read in
  non local Contribution for L=            1  read in
    real space projection operators read in
  non local Contribution for L=            1  read in
    real space projection operators read in
    PAW grid and wavefunctions read in
 
   number of l-projection  operators is LMAX  =            6
   number of lm-projection operators is LMMAX =           18
 
  PAW_PBE Pd 04Jan2005                  :
 energy of atom  1       EATOM= -809.7530
 kinetic energy error for atom=    0.0091 (will be added to EATOM!!)
 
 
 POSCAR: Pd
  positions in cartesian coordinates
  No initial velocities read in
 exchange correlation table for  LEXCH =        8
   RHO(1)=    0.500       N(1)  =     2000
   RHO(2)=  100.500       N(2)  =     4000
 


--------------------------------------------------------------------------------------------------------


 ion  position               nearest neighbor table
   1  0.542  0.456  0.547-   7 2.59  14 2.60   8 2.61  12 2.62   2 2.62   6 2.64   3 2.73   4 2.76
                            10 3.40
   2  0.550  0.448  0.453-   5 2.60  16 2.60   9 2.62   1 2.62  13 2.63   6 2.70   3 2.76  11 2.77

   3  0.496  0.536  0.492-   7 2.58   4 2.63   9 2.64  11 2.64  13 2.71   1 2.73  12 2.74   2 2.76

   4  0.574  0.567  0.541-  15 2.58  10 2.59   3 2.63   6 2.64  13 2.65  12 2.65   1 2.76   8 3.40

   5  0.507  0.424  0.372-  11 2.57  16 2.58   2 2.60   9 2.62
   6  0.628  0.482  0.507-  14 2.61   1 2.64   4 2.64  13 2.65  10 2.67   2 2.70
   7  0.447  0.461  0.540-   3 2.58   1 2.59   9 2.61  12 2.64
   8  0.564  0.478  0.636-  15 2.55  10 2.60   1 2.61  14 2.61  12 2.68   4 3.40
   9  0.454  0.451  0.447-   7 2.61   5 2.62   2 2.62   3 2.64  11 2.64
  10  0.642  0.523  0.596-  14 2.55   4 2.59   8 2.60  15 2.62   6 2.67   1 3.40
  11  0.502  0.529  0.397-   5 2.57  16 2.58   3 2.64   9 2.64  13 2.65   2 2.77
  12  0.495  0.538  0.590-   1 2.62  15 2.62   7 2.64   4 2.65   8 2.68   3 2.74
  13  0.583  0.553  0.447-  16 2.61   2 2.63   4 2.65  11 2.65   6 2.65   3 2.71
  14  0.624  0.417  0.583-  10 2.55   1 2.60   6 2.61   8 2.61
  15  0.571  0.585  0.632-   8 2.55   4 2.58  12 2.62  10 2.62
  16  0.586  0.486  0.372-   5 2.58  11 2.58   2 2.60  13 2.61
 

IMPORTANT INFORMATION: All symmetrisations will be switched off!
NOSYMM: (Re-)initialisation of all symmetry stuff for point group C_1.


----------------------------------------------------------------------------------------

                                     Primitive cell                                     

  volume of cell :   17746.0762

  direct lattice vectors                    reciprocal lattice vectors
    27.099954890  0.000000000  0.000000000     0.036900430  0.000000000  0.000000000
     0.000000000 23.570568919  0.000000000     0.000000000  0.042425790  0.000000000
     0.000000000  0.000000000 27.782012986     0.000000000  0.000000000  0.035994512

  length of vectors
    27.099954890 23.570568919 27.782012986     0.036900430  0.042425790  0.035994512

  position of ions in fractional coordinates (direct lattice)
     0.542349195  0.455984919  0.546755579
     0.550169442  0.448364071  0.452834593
     0.495807126  0.536153664  0.492051730
     0.574400225  0.566944907  0.540782224
     0.507447397  0.424405225  0.371723665
     0.627718431  0.482001277  0.506717087
     0.446995412  0.460942162  0.539808883
     0.564413180  0.477644336  0.636184286
     0.453698959  0.450668796  0.446654580
     0.641688352  0.522629239  0.595552864
     0.502161470  0.528751198  0.397424007
     0.494863985  0.537860426  0.590496989
     0.583197416  0.553141605  0.446685367
     0.624040251  0.417288167  0.582850068
     0.571178512  0.585322725  0.632245575
     0.586018816  0.486160787  0.372071131

  ion indices of the primitive-cell ions
   primitive index   ion index
                 1           1
                 2           2
                 3           3
                 4           4
                 5           5
                 6           6
                 7           7
                 8           8
                 9           9
                10          10
                11          11
                12          12
                13          13
                14          14
                15          15
                16          16

----------------------------------------------------------------------------------------

 
 
 KPOINTS: KPOINTS created by Atomic Simulation Env

Automatic generation of k-mesh.
Space group operators:
 irot       det(A)        alpha          n_x          n_y          n_z        tau_x        tau_y        tau_z
    1     1.000000     0.000000     1.000000     0.000000     0.000000     0.000000     0.000000     0.000000
 
 Subroutine IBZKPT returns following result:
 ===========================================
 
 Found      1 irreducible k-points:
 
 Following reciprocal coordinates:
            Coordinates               Weight
  0.000000  0.000000  0.000000      1.000000
 
 Following cartesian coordinates:
            Coordinates               Weight
  0.000000  0.000000  0.000000      1.000000
 


--------------------------------------------------------------------------------------------------------




 Dimension of arrays:
   k-points           NKPTS =      1   k-points in BZ     NKDIM =      1   number of bands    NBANDS=    104
   number of dos      NEDOS =    301   number of ions     NIONS =     16
   non local maximal  LDIM  =      6   non local SUM 2l+1 LMDIM =     18
   total plane-waves  NPLWV = ******
   max r-space proj   IRMAX =      1   max aug-charges    IRDMAX=   6628
   dimension x,y,z NGX =   140 NGY =  120 NGZ =  140
   dimension x,y,z NGXF=   280 NGYF=  240 NGZF=  280
   support grid    NGXF=   280 NGYF=  240 NGZF=  280
   ions per type =              16
   NGX,Y,Z   is equivalent  to a cutoff of   8.59,  8.46,  8.38 a.u.
   NGXF,Y,Z  is equivalent  to a cutoff of  17.18, 16.93, 16.76 a.u.

 SYSTEM =  unknown system                          
 POSCAR =  Pd                                      

 Startparameter for this run:
   NWRITE =      2    write-flag & timer
   PREC   = normal    normal or accurate (medium, high low for compatibility)
   ISTART =      0    job   : 0-new  1-cont  2-samecut
   ICHARG =      2    charge: 1-file 2-atom 10-const
   ISPIN  =      2    spin polarized calculation?
   LNONCOLLINEAR =      F non collinear calculations
   LSORBIT =      F    spin-orbit coupling
   INIWAV =      1    electr: 0-lowe 1-rand  2-diag
   LASPH  =      F    aspherical Exc in radial PAW
   METAGGA=      F    non-selfconsistent MetaGGA calc.

 Electronic Relaxation 1
   ENCUT  =  400.0 eV  29.40 Ry    5.42 a.u.  44.19 38.44 45.31*2*pi/ulx,y,z
   ENINI  =  400.0     initial cutoff
   ENAUG  =  416.2 eV  augmentation charge cutoff
   NELM   =     60;   NELMIN=  2; NELMDL=  0     # of ELM steps 
   EDIFF  = 0.1E-03   stopping-criterion for ELM
   LREAL  =      F    real-space projection
   NLSPLINE    = F    spline interpolate recip. space projectors
   LCOMPAT=      F    compatible to vasp.4.4
   GGA_COMPAT  = T    GGA compatible to vasp.4.4-vasp.4.6
   LMAXPAW     = -100 max onsite density
   LMAXMIX     =    2 max onsite mixed and CHGCAR
   VOSKOWN=      0    Vosko Wilk Nusair interpolation
   ROPT   =    0.00000
 Ionic relaxation
   EDIFFG = 0.1E-02   stopping-criterion for IOM
   NSW    =   1000    number of steps for IOM
   NBLOCK =      1;   KBLOCK =   1000    inner block; outer block 
   IBRION =      2    ionic relax: 0-MD 1-quasi-New 2-CG
   NFREE  =      1    steps in history (QN), initial steepest desc. (CG)
   ISIF   =      0    stress and relaxation
   IWAVPR =     11    prediction:  0-non 1-charg 2-wave 3-comb
   ISYM   =      0    0-nonsym 1-usesym 2-fastsym
   LCORR  =      T    Harris-Foulkes like correction to forces

   POTIM  = 0.5000    time-step for ionic-motion
   TEIN   =    0.0    initial temperature
   TEBEG  =    0.0;   TEEND  =   0.0 temperature during run
   SMASS  =  -3.00    Nose mass-parameter (am)
   estimated Nose-frequenzy (Omega)   =  0.10E-29 period in steps = 0.13E+47 mass=  -0.168E-25a.u.
   SCALEE = 1.0000    scale energy and forces
   NPACO  =    256;   APACO  = 16.0  distance and # of slots for P.C.
   PSTRESS=    0.0 pullay stress

  Mass of Ions in am
   POMASS = 106.42
  Ionic Valenz
   ZVAL   =  10.00
  Atomic Wigner-Seitz radii
   RWIGS  =  -1.00
  virtual crystal weights 
   VCA    =   1.00
   NELECT =     160.0000    total number of electrons
   NUPDOWN=      -1.0000    fix difference up-down

 DOS related values:
   EMIN   =  10.00;   EMAX   =-10.00  energy-range for DOS
   EFERMI =   0.00
   ISMEAR =     1;   SIGMA  =   0.20  broadening in eV -4-tet -1-fermi 0-gaus

 Electronic relaxation 2 (details)
   IALGO  =     38    algorithm
   LDIAG  =      T    sub-space diagonalisation (order eigenvalues)
   LSUBROT=      F    optimize rotation matrix (better conditioning)
   TURBO    =      0    0=normal 1=particle mesh
   IRESTART =      0    0=no restart 2=restart with 2 vectors
   NREBOOT  =      0    no. of reboots
   NMIN     =      0    reboot dimension
   EREF     =   0.00    reference energy to select bands
   IMIX   =      4    mixing-type and parameters
     AMIX     =   0.40;   BMIX     =  1.00
     AMIX_MAG =   1.60;   BMIX_MAG =  1.00
     AMIN     =   0.10
     WC   =   100.;   INIMIX=   1;  MIXPRE=   1;  MAXMIX= -45

 Intra band minimization:
   WEIMIN = 0.0010     energy-eigenvalue tresh-hold
   EBREAK =  0.24E-06  absolut break condition
   DEPER  =   0.30     relativ break condition  

   TIME   =   0.40     timestep for ELM

  volume/ion in A,a.u.               =    1109.13      7484.78
  Fermi-wavevector in a.u.,A,eV,Ry     =   0.340733  0.643892  1.579621  0.116099
  Thomas-Fermi vector in A             =   1.244689
 
 Write flags
   LWAVE        =      F    write WAVECAR
   LDOWNSAMPLE  =      F    k-point downsampling of WAVECAR
   LCHARG       =      F    write CHGCAR
   LVTOT        =      F    write LOCPOT, total local potential
   LVHAR        =      F    write LOCPOT, Hartree potential only
   LELF         =      F    write electronic localiz. function (ELF)
   LORBIT       =      0    0 simple, 1 ext, 2 COOP (PROOUT), +10 PAW based schemes


 Dipole corrections
   LMONO  =      F    monopole corrections only (constant potential shift)
   LDIPOL =      F    correct potential (dipole corrections)
   IDIPOL =      0    1-x, 2-y, 3-z, 4-all directions 
   EPSILON=  1.0000000 bulk dielectric constant

 Exchange correlation treatment:
   GGA     =    PE    GGA type
   LEXCH   =     8    internal setting for exchange type
   VOSKOWN=      0    Vosko Wilk Nusair interpolation
   LHFCALC =     F    Hartree Fock is set to
   LHFONE  =     F    Hartree Fock one center treatment
   AEXX    =    0.0000 exact exchange contribution

 Linear response parameters
   LEPSILON=     F    determine dielectric tensor
   LRPA    =     F    only Hartree local field effects (RPA)
   LNABLA  =     F    use nabla operator in PAW spheres
   LVEL    =     F    velocity operator in full k-point grid
   LINTERFAST=   F  fast interpolation
   KINTER  =     0    interpolate to denser k-point grid
   CSHIFT  =0.1000    complex shift for real part using Kramers Kronig
   OMEGAMAX=  -1.0    maximum frequency
   DEG_THRESHOLD= 0.2000000E-02 threshold for treating states as degnerate
   RTIME   =   -0.100 relaxation time in fs
  (WPLASMAI=    0.000 imaginary part of plasma frequency in eV, 0.658/RTIME)
   DFIELD  = 0.0000000 0.0000000 0.0000000 field for delta impulse in time
 
 Orbital magnetization related:
   ORBITALMAG=     F  switch on orbital magnetization
   LCHIMAG   =     F  perturbation theory with respect to B field
   DQ        =  0.001000  dq finite difference perturbation B field
   LLRAUG    =     F  two centre corrections for induced B field



--------------------------------------------------------------------------------------------------------


 conjugate gradient relaxation of ions
 charge density and potential will be updated during run
 spin polarized calculation
 Variant of blocked Davidson
 Davidson routine will perform the subspace rotation
 perform sub-space diagonalisation
    after iterative eigenvector-optimisation
 modified Broyden-mixing scheme, WC =      100.0
 initial mixing is a Kerker type mixing with AMIX =  0.4000 and BMIX =      1.0000
 Hartree-type preconditioning will be used
 using additional bands            24
 reciprocal scheme for non local part
 use partial core corrections
 calculate Harris-corrections to forces 
   (improved forces if not selfconsistent)
 use gradient corrections 
 use of overlap-Matrix (Vanderbilt PP)
 Methfessel and Paxton  Order N= 1 SIGMA  =   0.20


--------------------------------------------------------------------------------------------------------


  energy-cutoff  :      400.00
  volume of cell :    17746.08
      direct lattice vectors                 reciprocal lattice vectors
    27.099954890  0.000000000  0.000000000     0.036900430  0.000000000  0.000000000
     0.000000000 23.570568919  0.000000000     0.000000000  0.042425790  0.000000000
     0.000000000  0.000000000 27.782012986     0.000000000  0.000000000  0.035994512

  length of vectors
    27.099954890 23.570568919 27.782012986     0.036900430  0.042425790  0.035994512


 
 k-points in units of 2pi/SCALE and weight: KPOINTS created by Atomic Simulation Env
   0.00000000  0.00000000  0.00000000       1.000
 
 k-points in reciprocal lattice and weights: KPOINTS created by Atomic Simulation Env
   0.00000000  0.00000000  0.00000000       1.000
 
 position of ions in fractional coordinates (direct lattice) 
   0.54234920  0.45598492  0.54675558
   0.55016944  0.44836407  0.45283459
   0.49580713  0.53615366  0.49205173
   0.57440023  0.56694491  0.54078222
   0.50744740  0.42440522  0.37172366
   0.62771843  0.48200128  0.50671709
   0.44699541  0.46094216  0.53980888
   0.56441318  0.47764434  0.63618429
   0.45369896  0.45066880  0.44665458
   0.64168835  0.52262924  0.59555286
   0.50216147  0.52875120  0.39742401
   0.49486399  0.53786043  0.59049699
   0.58319742  0.55314160  0.44668537
   0.62404025  0.41728817  0.58285007
   0.57117851  0.58532273  0.63224557
   0.58601882  0.48616079  0.37207113
 
 position of ions in cartesian coordinates  (Angst):
  14.69763872 10.74782395 15.18997060
  14.90956707 10.56819623 12.58065655
  13.43635076 12.63744689 13.67018756
  15.56622020 13.36321400 15.02401877
  13.75180158 10.00347261 10.32723168
  17.01114116 11.36104433 14.07762070
  12.11355551 10.86466900 14.99697740
  15.29557171 11.25834875 17.67448011
  12.29522132 10.62251991 12.40896334
  17.38972539 12.31866850 16.54565741
  13.60855319 12.46296655 11.04123891
  13.41079167 12.67767624 16.40519502
  15.80462367 13.03786232 12.40981868
  16.91146265  9.83571951 16.19274815
  15.47891192 13.79638963 17.56505477
  15.88108349 11.45908634 10.33688499
 


--------------------------------------------------------------------------------------------------------


 use parallel FFT for orbitals z direction half grid
 k-point   1 :   0.0000 0.0000 0.0000  plane waves:  161244

 maximum and minimum number of plane-waves per node :     20159    20149

 maximum number of plane-waves:    161244
 maximum index in each direction: 
   IXMAX=   44   IYMAX=   38   IZMAX=   45
   IXMIN=  -44   IYMIN=  -38   IZMIN=    0


 parallel 3D FFT for wavefunctions:
    minimum data exchange during FFTs selected (reduces bandwidth)
 parallel 3D FFT for charge:
    minimum data exchange during FFTs selected (reduces bandwidth)


 total amount of memory used by VASP MPI-rank0   230479. kBytes
=======================================================================

   base      :      30000. kBytes
   nonl-proj :       8062. kBytes
   fftplans  :      46981. kBytes
   grid      :     111836. kBytes
   one-center:         31. kBytes
   wavefun   :      33569. kBytes
 
     INWAV:  cpu time    0.0000: real time    0.0000
 Broyden mixing: mesh for mixing (old mesh)
   NGX = 89   NGY = 77   NGZ = 91
  (NGX  =280   NGY  =240   NGZ  =280)
  gives a total of 623623 points

 initial charge density was supplied:
 charge density of overlapping atoms calculated
 number of electron     160.0000000 magnetization      16.0000000
 keeping initial charge density in first step


--------------------------------------------------------------------------------------------------------


 Maximum index for augmentation-charges           420 (set IRDMAX)


--------------------------------------------------------------------------------------------------------


 First call to EWALD:  gamma=   0.068
 Maximum number of real-space cells 3x 3x 3
 Maximum number of reciprocal cells 3x 3x 3

    FEWALD:  cpu time    0.0060: real time    0.0060


--------------------------------------- Iteration      1(   1)  ---------------------------------------


    POTLOK:  cpu time    5.1551: real time    5.6190
    SETDIJ:  cpu time    0.2851: real time    0.2852
     EDDAV:  cpu time   38.5814: real time   39.3964
       DOS:  cpu time    0.0220: real time    0.0220
    --------------------------------------------
      LOOP:  cpu time   44.0436: real time   45.3226

 eigenvalue-minimisations  :   416
 total energy-change (2. order) : 0.1409827E+04  (-0.2530215E+04)
 number of electron     160.0000000 magnetization      16.0000000
 augmentation part      160.0000000 magnetization      16.0000000

 Free energy of the ion-electron system (eV)
  ---------------------------------------------------
  alpha Z        PSCENC =         9.40199815
  Ewald energy   TEWEN  =     26916.59496209
  -Hartree energ DENC   =    -39204.43176428
  -exchange      EXHF   =         0.00000000
  -V(xc)+E(xc)   XCENC  =      -479.79925420
  PAW double counting   =     12906.36685261   -11910.91650437
  entropy T*S    EENTRO =        -0.04102714
  eigenvalues    EBANDS =       216.74955896
  atomic energy  EATOM  =     12955.90228127
  Solvation  Ediel_sol  =         0.00000000
  ---------------------------------------------------
  free energy    TOTEN  =      1409.82710310 eV

  energy without entropy =     1409.86813023  energy(sigma->0) =     1409.84077881


--------------------------------------------------------------------------------------------------------




--------------------------------------- Iteration      1(   2)  ---------------------------------------


     EDDAV:  cpu time   87.5043: real time   90.9172
       DOS:  cpu time    0.0017: real time    0.0017
    --------------------------------------------
      LOOP:  cpu time   87.5060: real time   90.9189

 eigenvalue-minimisations  :   800
 total energy-change (2. order) :-0.6051003E+03  (-0.5463940E+03)
 number of electron     160.0000000 magnetization      16.0000000
 augmentation part      160.0000000 magnetization      16.0000000

 Free energy of the ion-electron system (eV)
  ---------------------------------------------------
  alpha Z        PSCENC =         9.40199815
  Ewald energy   TEWEN  =     26916.59496209
  -Hartree energ DENC   =    -39204.43176428
  -exchange      EXHF   =         0.00000000
  -V(xc)+E(xc)   XCENC  =      -479.79925420
  PAW double counting   =     12906.36685261   -11910.91650437
  entropy T*S    EENTRO =        -0.06857914
  eigenvalues    EBANDS =      -388.32317979
  atomic energy  EATOM  =     12955.90228127
  Solvation  Ediel_sol  =         0.00000000
  ---------------------------------------------------
  free energy    TOTEN  =       804.72681233 eV

  energy without entropy =      804.79539147  energy(sigma->0) =      804.74967204


--------------------------------------------------------------------------------------------------------




--------------------------------------- Iteration      1(   3)  ---------------------------------------


     EDDAV:  cpu time   82.3410: real time   84.1372
       DOS:  cpu time    0.0261: real time    0.0262
    --------------------------------------------
      LOOP:  cpu time   82.3671: real time   84.1634

 eigenvalue-minimisations  :   712
 total energy-change (2. order) :-0.6224800E+03  (-0.5737780E+03)
 number of electron     160.0000000 magnetization      16.0000000
 augmentation part      160.0000000 magnetization      16.0000000

 Free energy of the ion-electron system (eV)
  ---------------------------------------------------
  alpha Z        PSCENC =         9.40199815
  Ewald energy   TEWEN  =     26916.59496209
  -Hartree energ DENC   =    -39204.43176428
  -exchange      EXHF   =         0.00000000
  -V(xc)+E(xc)   XCENC  =      -479.79925420
  PAW double counting   =     12906.36685261   -11910.91650437
  entropy T*S    EENTRO =        -0.04939578
  eigenvalues    EBANDS =     -1010.82240111
  atomic energy  EATOM  =     12955.90228127
  Solvation  Ediel_sol  =         0.00000000
  ---------------------------------------------------
  free energy    TOTEN  =       182.24677438 eV

  energy without entropy =      182.29617016  energy(sigma->0) =      182.26323964


--------------------------------------------------------------------------------------------------------




--------------------------------------- Iteration      1(   4)  ---------------------------------------


     EDDAV:  cpu time   69.1724: real time   69.4407
       DOS:  cpu time    0.0008: real time    0.0008
    --------------------------------------------
      LOOP:  cpu time   69.1732: real time   69.4415

 eigenvalue-minimisations  :   576
 total energy-change (2. order) :-0.2123641E+03  (-0.1931172E+03)
 number of electron     160.0000000 magnetization      16.0000000
 augmentation part      160.0000000 magnetization      16.0000000

 Free energy of the ion-electron system (eV)
  ---------------------------------------------------
  alpha Z        PSCENC =         9.40199815
  Ewald energy   TEWEN  =     26916.59496209
  -Hartree energ DENC   =    -39204.43176428
  -exchange      EXHF   =         0.00000000
  -V(xc)+E(xc)   XCENC  =      -479.79925420
  PAW double counting   =     12906.36685261   -11910.91650437
  entropy T*S    EENTRO =        -0.00663232
  eigenvalues    EBANDS =     -1223.22921666
  atomic energy  EATOM  =     12955.90228127
  Solvation  Ediel_sol  =         0.00000000
  ---------------------------------------------------
  free energy    TOTEN  =       -30.11727771 eV

  energy without entropy =      -30.11064539  energy(sigma->0) =      -30.11506694


--------------------------------------------------------------------------------------------------------




--------------------------------------- Iteration      1(   5)  ---------------------------------------


     EDDAV:  cpu time   66.2790: real time   66.7955
       DOS:  cpu time    0.0041: real time    0.0041
    CHARGE:  cpu time    3.0624: real time    3.0688
    MIXING:  cpu time    0.1207: real time    0.1210
    --------------------------------------------
      LOOP:  cpu time   69.4662: real time   69.9894

 eigenvalue-minimisations  :   560
 total energy-change (2. order) :-0.3132140E+02  (-0.2573745E+02)
 number of electron     160.0000064 magnetization      15.1902552
 augmentation part       67.3715416 magnetization      12.2448817

 Broyden mixing:
  rms(total) = 0.26984E+01    rms(broyden)= 0.26982E+01
  rms(prec ) = 0.27332E+01
  weight for this iteration     100.00

 Free energy of the ion-electron system (eV)
  ---------------------------------------------------
  alpha Z        PSCENC =         9.40199815
  Ewald energy   TEWEN  =     26916.59496209
  -Hartree energ DENC   =    -39204.43176428
  -exchange      EXHF   =         0.00000000
  -V(xc)+E(xc)   XCENC  =      -479.79925420
  PAW double counting   =     12906.36685261   -11910.91650437
  entropy T*S    EENTRO =         0.04420976
  eigenvalues    EBANDS =     -1254.60145502
  atomic energy  EATOM  =     12955.90228127
  Solvation  Ediel_sol  =         0.00000000
  ---------------------------------------------------
  free energy    TOTEN  =       -61.43867399 eV

  energy without entropy =      -61.48288376  energy(sigma->0) =      -61.45341058


--------------------------------------------------------------------------------------------------------




--------------------------------------- Iteration      1(   6)  ---------------------------------------


    POTLOK:  cpu time    5.6776: real time    5.6896
    SETDIJ:  cpu time    0.0516: real time    0.0516
     EDDAV:  cpu time   57.4838: real time   57.9155
       DOS:  cpu time    0.0101: real time    0.0101
    CHARGE:  cpu time    3.3517: real time    3.4676
    MIXING:  cpu time    0.1484: real time    0.1489
    --------------------------------------------
      LOOP:  cpu time   66.7233: real time   67.2834

 eigenvalue-minimisations  :   456
 total energy-change (2. order) : 0.7945747E+01  (-0.5725947E+01)
 number of electron     160.0000057 magnetization      14.6980486
 augmentation part       68.7965311 magnetization       9.4690240

 Broyden mixing:
  rms(total) = 0.17640E+01    rms(broyden)= 0.17638E+01
  rms(prec ) = 0.18866E+01
  weight for this iteration     100.00

 eigenvalues of (default mixing * dielectric matrix)
  average eigenvalue GAMMA=   0.7673
  0.7673

 Free energy of the ion-electron system (eV)
  ---------------------------------------------------
  alpha Z        PSCENC =         9.40199815
  Ewald energy   TEWEN  =     26916.59496209
  -Hartree energ DENC   =    -39249.71929263
  -exchange      EXHF   =         0.00000000
  -V(xc)+E(xc)   XCENC  =      -474.55650592
  PAW double counting   =     13834.43302178   -12850.69538892
  entropy T*S    EENTRO =         0.00168912
  eigenvalues    EBANDS =     -1194.85569194
  atomic energy  EATOM  =     12955.90228127
  Solvation  Ediel_sol  =         0.00000000
  ---------------------------------------------------
  free energy    TOTEN  =       -53.49292701 eV

  energy without entropy =      -53.49461613  energy(sigma->0) =      -53.49349005


--------------------------------------------------------------------------------------------------------




--------------------------------------- Iteration      1(   7)  ---------------------------------------


    POTLOK:  cpu time    5.8757: real time    6.0393
    SETDIJ:  cpu time    0.0513: real time    0.0515
     EDDAV:  cpu time   58.5677: real time   58.8554
       DOS:  cpu time    0.0434: real time    0.0434
    CHARGE:  cpu time    3.1500: real time    3.1618
    MIXING:  cpu time    0.1504: real time    0.1508
    --------------------------------------------
      LOOP:  cpu time   67.8385: real time   68.3022

 eigenvalue-minimisations  :   464
 total energy-change (2. order) :-0.3923021E+01  (-0.4099904E+01)
 number of electron     160.0000075 magnetization      14.2097909
 augmentation part       67.3011711 magnetization       9.7508471

 Broyden mixing:
  rms(total) = 0.26282E+01    rms(broyden)= 0.26279E+01
  rms(prec ) = 0.29815E+01
  weight for this iteration     100.00

 eigenvalues of (default mixing * dielectric matrix)
  average eigenvalue GAMMA=   0.6764
  1.0521  0.3007

 Free energy of the ion-electron system (eV)
  ---------------------------------------------------
  alpha Z        PSCENC =         9.40199815
  Ewald energy   TEWEN  =     26916.59496209
  -Hartree energ DENC   =    -39324.84995616
  -exchange      EXHF   =         0.00000000
  -V(xc)+E(xc)   XCENC  =      -469.90143634
  PAW double counting   =     14279.95835634   -13299.40474786
  entropy T*S    EENTRO =        -0.05157131
  eigenvalues    EBANDS =     -1125.06583397
  atomic energy  EATOM  =     12955.90228127
  Solvation  Ediel_sol  =         0.00000000
  ---------------------------------------------------
  free energy    TOTEN  =       -57.41594780 eV

  energy without entropy =      -57.36437649  energy(sigma->0) =      -57.39875736


--------------------------------------------------------------------------------------------------------




--------------------------------------- Iteration      1(   8)  ---------------------------------------


    POTLOK:  cpu time    6.2822: real time    6.3094
    SETDIJ:  cpu time    0.0499: real time    0.0501
     EDDAV:  cpu time   58.0696: real time   58.2687
       DOS:  cpu time    0.0451: real time    0.0452
    CHARGE:  cpu time    3.1526: real time    3.1596
    MIXING:  cpu time    0.1749: real time    0.1752
    --------------------------------------------
      LOOP:  cpu time   67.7744: real time   68.0082

 eigenvalue-minimisations  :   464
 total energy-change (2. order) : 0.6055839E+01  (-0.2838859E+01)
 number of electron     160.0000070 magnetization      13.9304058
 augmentation part       67.8457097 magnetization       9.3769326

 Broyden mixing:
  rms(total) = 0.21489E+01    rms(broyden)= 0.21486E+01
  rms(prec ) = 0.23782E+01
  weight for this iteration     100.00

 eigenvalues of (default mixing * dielectric matrix)
  average eigenvalue GAMMA=   0.6108
  1.2424  0.3513  0.2389

 Free energy of the ion-electron system (eV)
  ---------------------------------------------------
  alpha Z        PSCENC =         9.40199815
  Ewald energy   TEWEN  =     26916.59496209
  -Hartree energ DENC   =    -39352.74323310
  -exchange      EXHF   =         0.00000000
  -V(xc)+E(xc)   XCENC  =      -468.00515319
  PAW double counting   =     14598.79425784   -13622.31521315
  entropy T*S    EENTRO =        -0.03195194
  eigenvalues    EBANDS =     -1088.95805669
  atomic energy  EATOM  =     12955.90228127
  Solvation  Ediel_sol  =         0.00000000
  ---------------------------------------------------
  free energy    TOTEN  =       -51.36010873 eV

  energy without entropy =      -51.32815679  energy(sigma->0) =      -51.34945808


--------------------------------------------------------------------------------------------------------




--------------------------------------- Iteration      1(   9)  ---------------------------------------


    POTLOK:  cpu time    5.5996: real time    5.6151
    SETDIJ:  cpu time    0.0545: real time    0.0546
     EDDAV:  cpu time   57.0786: real time   57.1767
       DOS:  cpu time    0.0155: real time    0.0155
    CHARGE:  cpu time    3.0475: real time    3.0539
    MIXING:  cpu time    0.1755: real time    0.1759
    --------------------------------------------
      LOOP:  cpu time   65.9712: real time   66.0917

 eigenvalue-minimisations  :   464
 total energy-change (2. order) : 0.4836255E+01  (-0.1982600E+01)
 number of electron     160.0000065 magnetization      13.7128180
 augmentation part       68.3799858 magnetization       8.7564579

 Broyden mixing:
  rms(total) = 0.11433E+01    rms(broyden)= 0.11430E+01
  rms(prec ) = 0.12401E+01
  weight for this iteration     100.00

 eigenvalues of (default mixing * dielectric matrix)
  average eigenvalue GAMMA=   0.5881
  1.3539  0.4065  0.4065  0.1853

 Free energy of the ion-electron system (eV)
  ---------------------------------------------------
  alpha Z        PSCENC =         9.40199815
  Ewald energy   TEWEN  =     26916.59496209
  -Hartree energ DENC   =    -39356.19472670
  -exchange      EXHF   =         0.00000000
  -V(xc)+E(xc)   XCENC  =      -467.36046896
  PAW double counting   =     14740.96685784   -13765.98316463
  entropy T*S    EENTRO =        -0.07073516
  eigenvalues    EBANDS =     -1079.78085748
  atomic energy  EATOM  =     12955.90228127
  Solvation  Ediel_sol  =         0.00000000
  ---------------------------------------------------
  free energy    TOTEN  =       -46.52385358 eV

  energy without entropy =      -46.45311842  energy(sigma->0) =      -46.50027519


--------------------------------------------------------------------------------------------------------




--------------------------------------- Iteration      1(  10)  ---------------------------------------


    POTLOK:  cpu time    5.6805: real time    5.6954
    SETDIJ:  cpu time    0.0568: real time    0.0569
     EDDAV:  cpu time   56.5814: real time   56.6995
       DOS:  cpu time    0.0079: real time    0.0079
    CHARGE:  cpu time    2.9917: real time    2.9982
    MIXING:  cpu time    0.2001: real time    0.2004
    --------------------------------------------
      LOOP:  cpu time   65.5185: real time   65.6583

 eigenvalue-minimisations  :   464
 total energy-change (2. order) :-0.4741422E+00  (-0.6761496E+00)
 number of electron     160.0000066 magnetization      13.4397206
 augmentation part       68.3191029 magnetization       8.5858955

 Broyden mixing:
  rms(total) = 0.94074E+00    rms(broyden)= 0.94052E+00
  rms(prec ) = 0.10282E+01
  weight for this iteration     100.00

 eigenvalues of (default mixing * dielectric matrix)
  average eigenvalue GAMMA=   0.5769
  1.4982  0.5958  0.3622  0.2142  0.2142

 Free energy of the ion-electron system (eV)
  ---------------------------------------------------
  alpha Z        PSCENC =         9.40199815
  Ewald energy   TEWEN  =     26916.59496209
  -Hartree energ DENC   =    -39369.55795800
  -exchange      EXHF   =         0.00000000
  -V(xc)+E(xc)   XCENC  =      -468.10911429
  PAW double counting   =     14828.16656743   -13853.34971690
  entropy T*S    EENTRO =        -0.03135349
  eigenvalues    EBANDS =     -1066.01566206
  atomic energy  EATOM  =     12955.90228127
  Solvation  Ediel_sol  =         0.00000000
  ---------------------------------------------------
  free energy    TOTEN  =       -46.99799581 eV

  energy without entropy =      -46.96664232  energy(sigma->0) =      -46.98754465


--------------------------------------------------------------------------------------------------------




--------------------------------------- Iteration      1(  11)  ---------------------------------------


    POTLOK:  cpu time    5.6250: real time    5.6427
    SETDIJ:  cpu time    0.0537: real time    0.0537
     EDDAV:  cpu time   58.6830: real time   58.7948
       DOS:  cpu time    0.0009: real time    0.0009
    CHARGE:  cpu time    2.7929: real time    2.7977
    MIXING:  cpu time    0.2064: real time    0.2068
    --------------------------------------------
      LOOP:  cpu time   67.3617: real time   67.4966

 eigenvalue-minimisations  :   456
 total energy-change (2. order) :-0.1054716E+01  (-0.3677711E+00)
 number of electron     160.0000064 magnetization      13.2262363
 augmentation part       68.1692368 magnetization       8.0754332

 Broyden mixing:
  rms(total) = 0.58364E+00    rms(broyden)= 0.58336E+00
  rms(prec ) = 0.62503E+00
  weight for this iteration     100.00

 eigenvalues of (default mixing * dielectric matrix)
  average eigenvalue GAMMA=   0.5690
  1.5584  0.7164  0.3689  0.3689  0.2007  0.2007

 Free energy of the ion-electron system (eV)
  ---------------------------------------------------
  alpha Z        PSCENC =         9.40199815
  Ewald energy   TEWEN  =     26916.59496209
  -Hartree energ DENC   =    -39387.42448144
  -exchange      EXHF   =         0.00000000
  -V(xc)+E(xc)   XCENC  =      -469.00372012
  PAW double counting   =     14909.18538325   -13934.54209884
  entropy T*S    EENTRO =         0.00143047
  eigenvalues    EBANDS =     -1048.16846628
  atomic energy  EATOM  =     12955.90228127
  Solvation  Ediel_sol  =         0.00000000
  ---------------------------------------------------
  free energy    TOTEN  =       -48.05271145 eV

  energy without entropy =      -48.05414193  energy(sigma->0) =      -48.05318828


--------------------------------------------------------------------------------------------------------




--------------------------------------- Iteration      1(  12)  ---------------------------------------


    POTLOK:  cpu time    5.4802: real time    5.4904
    SETDIJ:  cpu time    0.0494: real time    0.0495
     EDDAV:  cpu time   56.9089: real time   57.0063
       DOS:  cpu time    0.0009: real time    0.0009
    CHARGE:  cpu time    3.0762: real time    3.0824
    MIXING:  cpu time    0.2341: real time    0.2348
    --------------------------------------------
      LOOP:  cpu time   65.7497: real time   65.8644

 eigenvalue-minimisations  :   448
 total energy-change (2. order) :-0.1432371E+01  (-0.1438947E+00)
 number of electron     160.0000063 magnetization      12.9815072
 augmentation part       68.1451869 magnetization       7.9211220

 Broyden mixing:
  rms(total) = 0.41767E+00    rms(broyden)= 0.41752E+00
  rms(prec ) = 0.44527E+00
  weight for this iteration     100.00

 eigenvalues of (default mixing * dielectric matrix)
  average eigenvalue GAMMA=   0.5790
  1.5472  0.9126  0.4743  0.4743  0.2364  0.2041  0.2041

 Free energy of the ion-electron system (eV)
  ---------------------------------------------------
  alpha Z        PSCENC =         9.40199815
  Ewald energy   TEWEN  =     26916.59496209
  -Hartree energ DENC   =    -39393.47247650
  -exchange      EXHF   =         0.00000000
  -V(xc)+E(xc)   XCENC  =      -470.12320915
  PAW double counting   =     14944.88928223   -13970.50917598
  entropy T*S    EENTRO =        -0.02638653
  eigenvalues    EBANDS =     -1042.14235790
  atomic energy  EATOM  =     12955.90228127
  Solvation  Ediel_sol  =         0.00000000
  ---------------------------------------------------
  free energy    TOTEN  =       -49.48508232 eV

  energy without entropy =      -49.45869579  energy(sigma->0) =      -49.47628681


--------------------------------------------------------------------------------------------------------




--------------------------------------- Iteration      1(  13)  ---------------------------------------


    POTLOK:  cpu time    5.7114: real time    5.7267
    SETDIJ:  cpu time    0.0513: real time    0.0516
     EDDAV:  cpu time   56.9321: real time   57.0591
       DOS:  cpu time    0.0015: real time    0.0015
    CHARGE:  cpu time    3.0284: real time    3.0345
    MIXING:  cpu time    0.2445: real time    0.2461
    --------------------------------------------
      LOOP:  cpu time   65.9693: real time   66.1196

 eigenvalue-minimisations  :   448
 total energy-change (2. order) :-0.1780586E+01  (-0.8850334E-01)
 number of electron     160.0000063 magnetization      12.7118358
 augmentation part       68.1545932 magnetization       7.7521339

 Broyden mixing:
  rms(total) = 0.30325E+00    rms(broyden)= 0.30318E+00
  rms(prec ) = 0.32313E+00
  weight for this iteration     100.00

 eigenvalues of (default mixing * dielectric matrix)
  average eigenvalue GAMMA=   0.5990
  1.3999  1.3999  0.5180  0.5180  0.2783  0.2783  0.1998  0.1998

 Free energy of the ion-electron system (eV)
  ---------------------------------------------------
  alpha Z        PSCENC =         9.40199815
  Ewald energy   TEWEN  =     26916.59496209
  -Hartree energ DENC   =    -39399.13230858
  -exchange      EXHF   =         0.00000000
  -V(xc)+E(xc)   XCENC  =      -471.54156810
  PAW double counting   =     14962.65000162   -13988.56463660
  entropy T*S    EENTRO =        -0.01174889
  eigenvalues    EBANDS =     -1036.56464955
  atomic energy  EATOM  =     12955.90228127
  Solvation  Ediel_sol  =         0.00000000
  ---------------------------------------------------
  free energy    TOTEN  =       -51.26566860 eV

  energy without entropy =      -51.25391971  energy(sigma->0) =      -51.26175230


--------------------------------------------------------------------------------------------------------




--------------------------------------- Iteration      1(  14)  ---------------------------------------


    POTLOK:  cpu time    5.5064: real time    5.5206
    SETDIJ:  cpu time    0.0569: real time    0.0570
     EDDAV:  cpu time   57.2814: real time   57.5837
       DOS:  cpu time    0.0016: real time    0.0016
    CHARGE:  cpu time    2.5689: real time    2.5745
    MIXING:  cpu time    0.2337: real time    0.2342
    --------------------------------------------
      LOOP:  cpu time   65.6488: real time   65.9717

 eigenvalue-minimisations  :   448
 total energy-change (2. order) :-0.1681735E+01  (-0.5612331E-01)
 number of electron     160.0000065 magnetization      12.3128419
 augmentation part       68.1452409 magnetization       7.5051799

 Broyden mixing:
  rms(total) = 0.22553E+00    rms(broyden)= 0.22547E+00
  rms(prec ) = 0.23816E+00
  weight for this iteration     100.00

 eigenvalues of (default mixing * dielectric matrix)
  average eigenvalue GAMMA=   0.6545
  1.7319  1.7319  0.6175  0.4669  0.4669  0.2396  0.2172  0.2172  0.2016

 Free energy of the ion-electron system (eV)
  ---------------------------------------------------
  alpha Z        PSCENC =         9.40199815
  Ewald energy   TEWEN  =     26916.59496209
  -Hartree energ DENC   =    -39405.50522596
  -exchange      EXHF   =         0.00000000
  -V(xc)+E(xc)   XCENC  =      -472.83979532
  PAW double counting   =     14970.39830919   -13996.54177267
  entropy T*S    EENTRO =        -0.01679867
  eigenvalues    EBANDS =     -1030.34136187
  atomic energy  EATOM  =     12955.90228127
  Solvation  Ediel_sol  =         0.00000000
  ---------------------------------------------------
  free energy    TOTEN  =       -52.94740379 eV

  energy without entropy =      -52.93060511  energy(sigma->0) =      -52.94180423


--------------------------------------------------------------------------------------------------------




--------------------------------------- Iteration      1(  15)  ---------------------------------------


    POTLOK:  cpu time    5.2760: real time    5.2879
    SETDIJ:  cpu time    0.0424: real time    0.0425
     EDDAV:  cpu time   56.0457: real time   56.2698
       DOS:  cpu time    0.0189: real time    0.0189
    CHARGE:  cpu time    3.0972: real time    3.1344
    MIXING:  cpu time    0.2854: real time    0.2861
    --------------------------------------------
      LOOP:  cpu time   64.7656: real time   65.0396

 eigenvalue-minimisations  :   432
 total energy-change (2. order) :-0.2196542E+01  (-0.6924723E-01)
 number of electron     160.0000065 magnetization      12.0421146
 augmentation part       68.1195830 magnetization       7.4401794

 Broyden mixing:
  rms(total) = 0.21054E+00    rms(broyden)= 0.21049E+00
  rms(prec ) = 0.22368E+00
  weight for this iteration     100.00

 eigenvalues of (default mixing * dielectric matrix)
  average eigenvalue GAMMA=   0.6731
  1.9055  1.9055  0.6383  0.6383  0.3794  0.3794  0.2619  0.2101  0.2101  0.2025

 Free energy of the ion-electron system (eV)
  ---------------------------------------------------
  alpha Z        PSCENC =         9.40199815
  Ewald energy   TEWEN  =     26916.59496209
  -Hartree energ DENC   =    -39415.06702450
  -exchange      EXHF   =         0.00000000
  -V(xc)+E(xc)   XCENC  =      -474.48603381
  PAW double counting   =     14969.60847478   -13995.86399352
  entropy T*S    EENTRO =        -0.01769270
  eigenvalues    EBANDS =     -1021.21691713
  atomic energy  EATOM  =     12955.90228127
  Solvation  Ediel_sol  =         0.00000000
  ---------------------------------------------------
  free energy    TOTEN  =       -55.14394537 eV

  energy without entropy =      -55.12625267  energy(sigma->0) =      -55.13804781


--------------------------------------------------------------------------------------------------------




--------------------------------------- Iteration      1(  16)  ---------------------------------------


    POTLOK:  cpu time    5.5566: real time    5.5819
    SETDIJ:  cpu time    0.0545: real time    0.0546
     EDDAV:  cpu time   57.1063: real time   58.3141
       DOS:  cpu time    0.0154: real time    0.0154
    CHARGE:  cpu time    9.7323: real time    9.7375
    MIXING:  cpu time    0.5092: real time    0.5099
    --------------------------------------------
      LOOP:  cpu time   72.9741: real time   74.2133

 eigenvalue-minimisations  :   472
 total energy-change (2. order) :-0.9722930E+00  (-0.2801012E-01)
 number of electron     160.0000065 magnetization      11.8361181
 augmentation part       68.1119253 magnetization       7.3672692

 Broyden mixing:
  rms(total) = 0.16486E+00    rms(broyden)= 0.16483E+00
  rms(prec ) = 0.17651E+00
  weight for this iteration     100.00

 eigenvalues of (default mixing * dielectric matrix)
  average eigenvalue GAMMA=   0.6739
  1.8662  1.8662  0.8281  0.8281  0.4480  0.4480  0.2859  0.2180  0.2180  0.2087
  0.1985

 Free energy of the ion-electron system (eV)
  ---------------------------------------------------
  alpha Z        PSCENC =         9.40199815
  Ewald energy   TEWEN  =     26916.59496209
  -Hartree energ DENC   =    -39421.20590155
  -exchange      EXHF   =         0.00000000
  -V(xc)+E(xc)   XCENC  =      -475.20917585
  PAW double counting   =     14970.37653350   -13996.77629147
  entropy T*S    EENTRO =        -0.03285793
  eigenvalues    EBANDS =     -1015.16778658
  atomic energy  EATOM  =     12955.90228127
  Solvation  Ediel_sol  =         0.00000000
  ---------------------------------------------------
  free energy    TOTEN  =       -56.11623838 eV

  energy without entropy =      -56.08338045  energy(sigma->0) =      -56.10528574


--------------------------------------------------------------------------------------------------------




--------------------------------------- Iteration      1(  17)  ---------------------------------------


    POTLOK:  cpu time    7.3402: real time    7.3521
    SETDIJ:  cpu time    0.0446: real time    0.0447
     EDDAV:  cpu time   57.6752: real time   57.9636
       DOS:  cpu time    0.0177: real time    0.0177
    CHARGE:  cpu time    2.9656: real time    2.9729
    MIXING:  cpu time    0.3623: real time    0.3633
    --------------------------------------------
      LOOP:  cpu time   68.4056: real time   68.7143

 eigenvalue-minimisations  :   456
 total energy-change (2. order) :-0.5471871E+00  (-0.9818166E-02)
 number of electron     160.0000065 magnetization      11.6662729
 augmentation part       68.1074433 magnetization       7.2827486

 Broyden mixing:
  rms(total) = 0.11346E+00    rms(broyden)= 0.11344E+00
  rms(prec ) = 0.12161E+00
  weight for this iteration     100.00

 eigenvalues of (default mixing * dielectric matrix)
  average eigenvalue GAMMA=   0.6638
  2.1413  1.5196  0.9189  0.9189  0.4467  0.4467  0.4581  0.2736  0.2105  0.2105
  0.2252  0.1953

 Free energy of the ion-electron system (eV)
  ---------------------------------------------------
  alpha Z        PSCENC =         9.40199815
  Ewald energy   TEWEN  =     26916.59496209
  -Hartree energ DENC   =    -39424.66775132
  -exchange      EXHF   =         0.00000000
  -V(xc)+E(xc)   XCENC  =      -475.67611308
  PAW double counting   =     14969.47499263   -13996.02499718
  entropy T*S    EENTRO =        -0.03055841
  eigenvalues    EBANDS =     -1011.63823958
  atomic energy  EATOM  =     12955.90228127
  Solvation  Ediel_sol  =         0.00000000
  ---------------------------------------------------
  free energy    TOTEN  =       -56.66342543 eV

  energy without entropy =      -56.63286702  energy(sigma->0) =      -56.65323929


--------------------------------------------------------------------------------------------------------




--------------------------------------- Iteration      1(  18)  ---------------------------------------


    POTLOK:  cpu time    5.4960: real time    5.5208
    SETDIJ:  cpu time    0.0499: real time    0.0500
     EDDAV:  cpu time   53.4975: real time   53.8145
       DOS:  cpu time    0.0128: real time    0.0129
    CHARGE:  cpu time    3.0828: real time    3.0906
    MIXING:  cpu time    0.3832: real time    0.3842
    --------------------------------------------
      LOOP:  cpu time   62.5221: real time   62.8729

 eigenvalue-minimisations  :   456
 total energy-change (2. order) :-0.4017818E+00  (-0.4543661E-02)
 number of electron     160.0000065 magnetization      11.4060304
 augmentation part       68.1136354 magnetization       7.0837200

 Broyden mixing:
  rms(total) = 0.82161E-01    rms(broyden)= 0.82149E-01
  rms(prec ) = 0.86661E-01
  weight for this iteration     100.00

 eigenvalues of (default mixing * dielectric matrix)
  average eigenvalue GAMMA=   0.6755
  2.2299  1.4067  1.4067  0.7260  0.7260  0.4320  0.4320  0.3389  0.2330  0.2330
  0.2111  0.2111  0.1950

 Free energy of the ion-electron system (eV)
  ---------------------------------------------------
  alpha Z        PSCENC =         9.40199815
  Ewald energy   TEWEN  =     26916.59496209
  -Hartree energ DENC   =    -39426.81031033
  -exchange      EXHF   =         0.00000000
  -V(xc)+E(xc)   XCENC  =      -476.03400613
  PAW double counting   =     14963.89059708   -13990.51324045
  entropy T*S    EENTRO =        -0.03327239
  eigenvalues    EBANDS =     -1009.46421653
  atomic energy  EATOM  =     12955.90228127
  Solvation  Ediel_sol  =         0.00000000
  ---------------------------------------------------
  free energy    TOTEN  =       -57.06520725 eV

  energy without entropy =      -57.03193486  energy(sigma->0) =      -57.05411645


--------------------------------------------------------------------------------------------------------




--------------------------------------- Iteration      1(  19)  ---------------------------------------


    POTLOK:  cpu time    5.3806: real time    5.4048
    SETDIJ:  cpu time    0.0529: real time    0.0530
     EDDAV:  cpu time   57.4709: real time   57.9520
       DOS:  cpu time    0.0113: real time    0.0113
    CHARGE:  cpu time    3.0548: real time    3.0623
    MIXING:  cpu time    0.4894: real time    0.4905
    --------------------------------------------
      LOOP:  cpu time   66.4598: real time   66.9738

 eigenvalue-minimisations  :   448
 total energy-change (2. order) :-0.5354065E+00  (-0.4315069E-02)
 number of electron     160.0000065 magnetization      11.1805461
 augmentation part       68.1137857 magnetization       6.9415128

 Broyden mixing:
  rms(total) = 0.75007E-01    rms(broyden)= 0.74996E-01
  rms(prec ) = 0.78604E-01
  weight for this iteration     100.00

 eigenvalues of (default mixing * dielectric matrix)
  average eigenvalue GAMMA=   0.6948
  2.2464  1.6034  1.6034  0.6790  0.6790  0.6049  0.4607  0.4607  0.2805  0.2805
  0.2132  0.2132  0.2011  0.2011

 Free energy of the ion-electron system (eV)
  ---------------------------------------------------
  alpha Z        PSCENC =         9.40199815
  Ewald energy   TEWEN  =     26916.59496209
  -Hartree energ DENC   =    -39430.13787696
  -exchange      EXHF   =         0.00000000
  -V(xc)+E(xc)   XCENC  =      -476.50446750
  PAW double counting   =     14952.78824688   -13979.44686930
  entropy T*S    EENTRO =        -0.03022952
  eigenvalues    EBANDS =     -1006.16865884
  atomic energy  EATOM  =     12955.90228127
  Solvation  Ediel_sol  =         0.00000000
  ---------------------------------------------------
  free energy    TOTEN  =       -57.60061373 eV

  energy without entropy =      -57.57038421  energy(sigma->0) =      -57.59053722


--------------------------------------------------------------------------------------------------------




--------------------------------------- Iteration      1(  20)  ---------------------------------------


    POTLOK:  cpu time    6.3291: real time    6.9510
    SETDIJ:  cpu time    0.0547: real time    0.0548
     EDDAV:  cpu time   61.1677: real time   61.8754
       DOS:  cpu time    0.0172: real time    0.0172
    CHARGE:  cpu time    2.9955: real time    3.0027
    MIXING:  cpu time    0.4314: real time    0.4327
    --------------------------------------------
      LOOP:  cpu time   70.9956: real time   72.3339

 eigenvalue-minimisations  :   464
 total energy-change (2. order) :-0.3713020E+00  (-0.2509966E-02)
 number of electron     160.0000065 magnetization      10.9057922
 augmentation part       68.1078813 magnetization       6.7144252

 Broyden mixing:
  rms(total) = 0.70455E-01    rms(broyden)= 0.70448E-01
  rms(prec ) = 0.75150E-01
  weight for this iteration     100.00

 eigenvalues of (default mixing * dielectric matrix)
  average eigenvalue GAMMA=   0.7036
  2.3139  1.6589  1.6589  0.8141  0.8141  0.6526  0.4615  0.4615  0.3220  0.3220
  0.2130  0.2130  0.2267  0.2267  0.1953

 Free energy of the ion-electron system (eV)
  ---------------------------------------------------
  alpha Z        PSCENC =         9.40199815
  Ewald energy   TEWEN  =     26916.59496209
  -Hartree energ DENC   =    -39432.67700219
  -exchange      EXHF   =         0.00000000
  -V(xc)+E(xc)   XCENC  =      -476.83125001
  PAW double counting   =     14944.55770785   -13971.21362207
  entropy T*S    EENTRO =        -0.02907426
  eigenvalues    EBANDS =     -1003.67791652
  atomic energy  EATOM  =     12955.90228127
  Solvation  Ediel_sol  =         0.00000000
  ---------------------------------------------------
  free energy    TOTEN  =       -57.97191569 eV

  energy without entropy =      -57.94284144  energy(sigma->0) =      -57.96222427


--------------------------------------------------------------------------------------------------------




--------------------------------------- Iteration      1(  21)  ---------------------------------------


    POTLOK:  cpu time    5.5744: real time    5.5914
    SETDIJ:  cpu time    0.0565: real time    0.0567
     EDDAV:  cpu time   57.3169: real time   58.5584
       DOS:  cpu time    0.0051: real time    0.0051
    CHARGE:  cpu time    3.0149: real time    3.0220
    MIXING:  cpu time    0.4746: real time    0.4798
    --------------------------------------------
      LOOP:  cpu time   66.4425: real time   67.7135

 eigenvalue-minimisations  :   432
 total energy-change (2. order) :-0.4355406E+00  (-0.2892237E-02)
 number of electron     160.0000065 magnetization      10.4861382
 augmentation part       68.1146091 magnetization       6.3837102

 Broyden mixing:
  rms(total) = 0.61684E-01    rms(broyden)= 0.61676E-01
  rms(prec ) = 0.64345E-01
  weight for this iteration     100.00

 eigenvalues of (default mixing * dielectric matrix)
  average eigenvalue GAMMA=   0.7409
  2.6556  1.7441  1.7441  0.8602  0.8602  0.7120  0.7120  0.4479  0.4479  0.3000
  0.3000  0.2142  0.2142  0.1966  0.2256  0.2206

 Free energy of the ion-electron system (eV)
  ---------------------------------------------------
  alpha Z        PSCENC =         9.40199815
  Ewald energy   TEWEN  =     26916.59496209
  -Hartree energ DENC   =    -39435.25089057
  -exchange      EXHF   =         0.00000000
  -V(xc)+E(xc)   XCENC  =      -477.21455305
  PAW double counting   =     14935.83910345   -13962.50048101
  entropy T*S    EENTRO =        -0.03026628
  eigenvalues    EBANDS =     -1001.14961036
  atomic energy  EATOM  =     12955.90228127
  Solvation  Ediel_sol  =         0.00000000
  ---------------------------------------------------
  free energy    TOTEN  =       -58.40745632 eV

  energy without entropy =      -58.37719004  energy(sigma->0) =      -58.39736756


--------------------------------------------------------------------------------------------------------




--------------------------------------- Iteration      1(  22)  ---------------------------------------


    POTLOK:  cpu time    5.7073: real time    5.7354
    SETDIJ:  cpu time    0.0522: real time    0.0564
     EDDAV:  cpu time   57.6093: real time   58.9552
       DOS:  cpu time    0.0145: real time    0.0145
    CHARGE:  cpu time    3.5608: real time    3.5989
    MIXING:  cpu time    0.5973: real time    0.5987
    --------------------------------------------
      LOOP:  cpu time   67.5415: real time   68.9592

 eigenvalue-minimisations  :   440
 total energy-change (2. order) :-0.6132328E+00  (-0.4967200E-02)
 number of electron     160.0000065 magnetization      10.2613370
 augmentation part       68.1154300 magnetization       6.2747089

 Broyden mixing:
  rms(total) = 0.62817E-01    rms(broyden)= 0.62810E-01
  rms(prec ) = 0.66475E-01
  weight for this iteration     100.00

 eigenvalues of (default mixing * dielectric matrix)
  average eigenvalue GAMMA=   0.7383
  2.7283  1.8597  1.8597  0.8044  0.8044  0.7673  0.7673  0.4503  0.4503  0.3514
  0.3514  0.2792  0.2136  0.2136  0.2383  0.1965  0.2161

 Free energy of the ion-electron system (eV)
  ---------------------------------------------------
  alpha Z        PSCENC =         9.40199815
  Ewald energy   TEWEN  =     26916.59496209
  -Hartree energ DENC   =    -39439.35755969
  -exchange      EXHF   =         0.00000000
  -V(xc)+E(xc)   XCENC  =      -477.75143269
  PAW double counting   =     14924.71286600   -13951.35796828
  entropy T*S    EENTRO =        -0.02986186
  eigenvalues    EBANDS =      -997.13597414
  atomic energy  EATOM  =     12955.90228127
  Solvation  Ediel_sol  =         0.00000000
  ---------------------------------------------------
  free energy    TOTEN  =       -59.02068916 eV

  energy without entropy =      -58.99082730  energy(sigma->0) =      -59.01073520


--------------------------------------------------------------------------------------------------------




--------------------------------------- Iteration      1(  23)  ---------------------------------------


    POTLOK:  cpu time    6.4575: real time    7.1492
    SETDIJ:  cpu time    0.0745: real time    0.0747
     EDDAV:  cpu time   63.4094: real time   63.8117
       DOS:  cpu time    0.0245: real time    0.0246
    CHARGE:  cpu time    3.0609: real time    3.0689
    MIXING:  cpu time    0.5636: real time    0.5650
    --------------------------------------------
      LOOP:  cpu time   73.5904: real time   74.6941

 eigenvalue-minimisations  :   488
 total energy-change (2. order) :-0.2739371E+00  (-0.1197249E-02)
 number of electron     160.0000065 magnetization       9.7247549
 augmentation part       68.1126199 magnetization       5.7898392

 Broyden mixing:
  rms(total) = 0.50224E-01    rms(broyden)= 0.50221E-01
  rms(prec ) = 0.52868E-01
  weight for this iteration     100.00

 eigenvalues of (default mixing * dielectric matrix)
  average eigenvalue GAMMA=   0.7875
  3.1939  1.9076  1.9076  1.0196  1.0196  0.8048  0.8048  0.6175  0.4542  0.4542
  0.3278  0.3198  0.2723  0.2139  0.2139  0.1964  0.2219  0.2247

 Free energy of the ion-electron system (eV)
  ---------------------------------------------------
  alpha Z        PSCENC =         9.40199815
  Ewald energy   TEWEN  =     26916.59496209
  -Hartree energ DENC   =    -39441.26762665
  -exchange      EXHF   =         0.00000000
  -V(xc)+E(xc)   XCENC  =      -478.00041071
  PAW double counting   =     14919.78539478   -13946.39993017
  entropy T*S    EENTRO =        -0.03005021
  eigenvalues    EBANDS =      -995.28124476
  atomic energy  EATOM  =     12955.90228127
  Solvation  Ediel_sol  =         0.00000000
  ---------------------------------------------------
  free energy    TOTEN  =       -59.29462623 eV

  energy without entropy =      -59.26457601  energy(sigma->0) =      -59.28460949


--------------------------------------------------------------------------------------------------------




--------------------------------------- Iteration      1(  24)  ---------------------------------------


    POTLOK:  cpu time    5.6416: real time    5.6850
    SETDIJ:  cpu time    0.0558: real time    0.0561
     EDDAV:  cpu time   56.0685: real time   56.2294
       DOS:  cpu time    0.0111: real time    0.0111
    CHARGE:  cpu time    3.0294: real time    3.0369
    MIXING:  cpu time    0.5759: real time    0.5774
    --------------------------------------------
      LOOP:  cpu time   65.3823: real time   65.5959

 eigenvalue-minimisations  :   424
 total energy-change (2. order) :-0.5062036E+00  (-0.3501107E-02)
 number of electron     160.0000065 magnetization       9.3951614
 augmentation part       68.1156612 magnetization       5.5820806

 Broyden mixing:
  rms(total) = 0.43934E-01    rms(broyden)= 0.43926E-01
  rms(prec ) = 0.45878E-01
  weight for this iteration     100.00

 eigenvalues of (default mixing * dielectric matrix)
  average eigenvalue GAMMA=   0.8199
  3.6191  2.1066  2.1066  1.1637  0.8181  0.8181  0.8687  0.7037  0.4607  0.4607
  0.4897  0.3283  0.2947  0.2139  0.2139  0.1964  0.2684  0.2209  0.2254

 Free energy of the ion-electron system (eV)
  ---------------------------------------------------
  alpha Z        PSCENC =         9.40199815
  Ewald energy   TEWEN  =     26916.59496209
  -Hartree energ DENC   =    -39445.06268349
  -exchange      EXHF   =         0.00000000
  -V(xc)+E(xc)   XCENC  =      -478.46772338
  PAW double counting   =     14913.10207706   -13939.64866066
  entropy T*S    EENTRO =        -0.02822836
  eigenvalues    EBANDS =      -991.59485253
  atomic energy  EATOM  =     12955.90228127
  Solvation  Ediel_sol  =         0.00000000
  ---------------------------------------------------
  free energy    TOTEN  =       -59.80082987 eV

  energy without entropy =      -59.77260151  energy(sigma->0) =      -59.79142042


--------------------------------------------------------------------------------------------------------




--------------------------------------- Iteration      1(  25)  ---------------------------------------


    POTLOK:  cpu time    5.6116: real time    5.6396
    SETDIJ:  cpu time    0.0504: real time    0.0505
     EDDAV:  cpu time   62.0626: real time   62.2339
       DOS:  cpu time    0.3538: real time    0.3539
    CHARGE:  cpu time    2.8977: real time    2.9129
    MIXING:  cpu time    0.6207: real time    0.6223
    --------------------------------------------
      LOOP:  cpu time   71.5968: real time   71.8131

 eigenvalue-minimisations  :   480
 total energy-change (2. order) :-0.2189655E+00  (-0.1247506E-02)
 number of electron     160.0000065 magnetization       8.8592814
 augmentation part       68.1123413 magnetization       5.1171865

 Broyden mixing:
  rms(total) = 0.34971E-01    rms(broyden)= 0.34964E-01
  rms(prec ) = 0.36138E-01
  weight for this iteration     100.00

 eigenvalues of (default mixing * dielectric matrix)
  average eigenvalue GAMMA=   0.9023
  5.1215  2.2293  2.2293  1.2596  0.9013  0.9013  0.7925  0.7925  0.6615  0.4571
  0.4571  0.3221  0.3221  0.2139  0.2139  0.1965  0.2641  0.2641  0.2226  0.2226

 Free energy of the ion-electron system (eV)
  ---------------------------------------------------
  alpha Z        PSCENC =         9.40199815
  Ewald energy   TEWEN  =     26916.59496209
  -Hartree energ DENC   =    -39446.84493010
  -exchange      EXHF   =         0.00000000
  -V(xc)+E(xc)   XCENC  =      -478.68085217
  PAW double counting   =     14911.66455025   -13938.17272181
  entropy T*S    EENTRO =        -0.02612352
  eigenvalues    EBANDS =      -989.85895950
  atomic energy  EATOM  =     12955.90228127
  Solvation  Ediel_sol  =         0.00000000
  ---------------------------------------------------
  free energy    TOTEN  =       -60.01979535 eV

  energy without entropy =      -59.99367183  energy(sigma->0) =      -60.01108751


--------------------------------------------------------------------------------------------------------




--------------------------------------- Iteration      1(  26)  ---------------------------------------


    POTLOK:  cpu time    5.6693: real time    5.6858
    SETDIJ:  cpu time    0.0502: real time    0.0503
     EDDAV:  cpu time   57.1439: real time   57.2704
       DOS:  cpu time    0.0161: real time    0.0162
    CHARGE:  cpu time    3.0932: real time    3.1137
    MIXING:  cpu time    0.6619: real time    0.6636
    --------------------------------------------
      LOOP:  cpu time   66.6346: real time   66.7999

 eigenvalue-minimisations  :   432
 total energy-change (2. order) :-0.3169693E+00  (-0.1869720E-02)
 number of electron     160.0000065 magnetization       8.3123573
 augmentation part       68.1147612 magnetization       4.6957096

 Broyden mixing:
  rms(total) = 0.28251E-01    rms(broyden)= 0.28240E-01
  rms(prec ) = 0.30037E-01
  weight for this iteration     100.00

 eigenvalues of (default mixing * dielectric matrix)
  average eigenvalue GAMMA=   1.0285
  7.6333  2.1877  2.1877  1.7248  0.8093  0.8093  0.8908  0.8908  0.7154  0.5821
  0.4624  0.4624  0.3374  0.3106  0.2787  0.2139  0.2139  0.1964  0.2205  0.2256
  0.2448

 Free energy of the ion-electron system (eV)
  ---------------------------------------------------
  alpha Z        PSCENC =         9.40199815
  Ewald energy   TEWEN  =     26916.59496209
  -Hartree energ DENC   =    -39449.32369198
  -exchange      EXHF   =         0.00000000
  -V(xc)+E(xc)   XCENC  =      -478.99547250
  PAW double counting   =     14910.00072993   -13936.44718741
  entropy T*S    EENTRO =        -0.02435385
  eigenvalues    EBANDS =      -987.44603030
  atomic energy  EATOM  =     12955.90228127
  Solvation  Ediel_sol  =         0.00000000
  ---------------------------------------------------
  free energy    TOTEN  =       -60.33676461 eV

  energy without entropy =      -60.31241076  energy(sigma->0) =      -60.32864666


--------------------------------------------------------------------------------------------------------




--------------------------------------- Iteration      1(  27)  ---------------------------------------


    POTLOK:  cpu time    5.4039: real time    5.4467
    SETDIJ:  cpu time    0.0476: real time    0.0477
     EDDAV:  cpu time   61.0527: real time   61.3634
       DOS:  cpu time    0.0133: real time    0.0133
    CHARGE:  cpu time    3.0391: real time    3.0514
    MIXING:  cpu time    0.7183: real time    0.7243
    --------------------------------------------
      LOOP:  cpu time   70.2749: real time   70.6467

 eigenvalue-minimisations  :   480
 total energy-change (2. order) :-0.4123176E+00  (-0.2002473E-02)
 number of electron     160.0000065 magnetization       7.9565855
 augmentation part       68.1159605 magnetization       4.4635431

 Broyden mixing:
  rms(total) = 0.18080E-01    rms(broyden)= 0.18071E-01
  rms(prec ) = 0.19160E-01
  weight for this iteration     100.00

 eigenvalues of (default mixing * dielectric matrix)
  average eigenvalue GAMMA=   1.1422
 10.0361  2.3251  2.3251  1.6657  1.0596  0.8109  0.8109  0.8752  0.8752  0.5919
  0.5919  0.4612  0.4612  0.3331  0.3112  0.2763  0.2139  0.2139  0.1964  0.2206
  0.2252  0.2468

 Free energy of the ion-electron system (eV)
  ---------------------------------------------------
  alpha Z        PSCENC =         9.40199815
  Ewald energy   TEWEN  =     26916.59496209
  -Hartree energ DENC   =    -39451.12319976
  -exchange      EXHF   =         0.00000000
  -V(xc)+E(xc)   XCENC  =      -479.40440602
  PAW double counting   =     14908.83648376   -13935.19296535
  entropy T*S    EENTRO =        -0.02197343
  eigenvalues    EBANDS =      -985.74226291
  atomic energy  EATOM  =     12955.90228127
  Solvation  Ediel_sol  =         0.00000000
  ---------------------------------------------------
  free energy    TOTEN  =       -60.74908222 eV

  energy without entropy =      -60.72710878  energy(sigma->0) =      -60.74175774


--------------------------------------------------------------------------------------------------------




--------------------------------------- Iteration      1(  28)  ---------------------------------------


    POTLOK:  cpu time    5.4328: real time    5.4861
    SETDIJ:  cpu time    0.0547: real time    0.0548
     EDDAV:  cpu time   58.6302: real time   58.9469
       DOS:  cpu time    0.0049: real time    0.0049
    CHARGE:  cpu time    3.1006: real time    3.1087
    MIXING:  cpu time    0.7466: real time    0.7486
    --------------------------------------------
      LOOP:  cpu time   67.9697: real time   68.3501

 eigenvalue-minimisations  :   472
 total energy-change (2. order) :-0.1799754E+00  (-0.5806087E-03)
 number of electron     160.0000065 magnetization       7.7503935
 augmentation part       68.1188002 magnetization       4.3285733

 Broyden mixing:
  rms(total) = 0.14621E-01    rms(broyden)= 0.14615E-01
  rms(prec ) = 0.15753E-01
  weight for this iteration     100.00

 eigenvalues of (default mixing * dielectric matrix)
  average eigenvalue GAMMA=   1.2093
 11.7287  2.8171  2.1081  1.5178  1.5178  0.8800  0.8800  0.8047  0.8047  0.6038
  0.6038  0.4615  0.4615  0.3868  0.3351  0.3084  0.2139  0.2139  0.1964  0.2774
  0.2208  0.2250  0.2464

 Free energy of the ion-electron system (eV)
  ---------------------------------------------------
  alpha Z        PSCENC =         9.40199815
  Ewald energy   TEWEN  =     26916.59496209
  -Hartree energ DENC   =    -39451.36711156
  -exchange      EXHF   =         0.00000000
  -V(xc)+E(xc)   XCENC  =      -479.59316664
  PAW double counting   =     14910.18412795   -13936.50075889
  entropy T*S    EENTRO =        -0.01992015
  eigenvalues    EBANDS =      -985.53146982
  atomic energy  EATOM  =     12955.90228127
  Solvation  Ediel_sol  =         0.00000000
  ---------------------------------------------------
  free energy    TOTEN  =       -60.92905760 eV

  energy without entropy =      -60.90913745  energy(sigma->0) =      -60.92241755


--------------------------------------------------------------------------------------------------------




--------------------------------------- Iteration      1(  29)  ---------------------------------------


    POTLOK:  cpu time    5.5381: real time    5.7213
    SETDIJ:  cpu time    0.0504: real time    0.0505
     EDDAV:  cpu time   57.0578: real time   57.3542
       DOS:  cpu time    0.0010: real time    0.0010
    CHARGE:  cpu time    3.0123: real time    3.1148
    MIXING:  cpu time    0.8179: real time    0.8198
    --------------------------------------------
      LOOP:  cpu time   66.4775: real time   67.0616

 eigenvalue-minimisations  :   448
 total energy-change (2. order) :-0.7679745E-01  (-0.1934325E-03)
 number of electron     160.0000065 magnetization       7.5645281
 augmentation part       68.1201772 magnetization       4.1862198

 Broyden mixing:
  rms(total) = 0.99007E-02    rms(broyden)= 0.98960E-02
  rms(prec ) = 0.11092E-01
  weight for this iteration     100.00

 eigenvalues of (default mixing * dielectric matrix)
  average eigenvalue GAMMA=   1.2602
 12.9520  3.1381  2.1043  1.5809  1.5809  0.9470  0.9470  0.7971  0.7971  0.6936
  0.6936  0.5511  0.4614  0.4614  0.3340  0.3168  0.2139  0.2139  0.1964  0.2952
  0.2781  0.2207  0.2252  0.2462

 Free energy of the ion-electron system (eV)
  ---------------------------------------------------
  alpha Z        PSCENC =         9.40199815
  Ewald energy   TEWEN  =     26916.59496209
  -Hartree energ DENC   =    -39450.96640451
  -exchange      EXHF   =         0.00000000
  -V(xc)+E(xc)   XCENC  =      -479.67972839
  PAW double counting   =     14911.35781291   -13937.65072554
  entropy T*S    EENTRO =        -0.01916850
  eigenvalues    EBANDS =      -985.94688252
  atomic energy  EATOM  =     12955.90228127
  Solvation  Ediel_sol  =         0.00000000
  ---------------------------------------------------
  free energy    TOTEN  =       -61.00585504 eV

  energy without entropy =      -60.98668654  energy(sigma->0) =      -60.99946554


--------------------------------------------------------------------------------------------------------




--------------------------------------- Iteration      1(  30)  ---------------------------------------


    POTLOK:  cpu time    5.6484: real time    5.6593
    SETDIJ:  cpu time    0.0528: real time    0.0528
     EDDAV:  cpu time   59.0415: real time   59.7842
       DOS:  cpu time    0.0197: real time    0.0197
    CHARGE:  cpu time    3.0847: real time    3.0924
    MIXING:  cpu time    0.8449: real time    0.8511
    --------------------------------------------
      LOOP:  cpu time   68.6919: real time   69.4596

 eigenvalue-minimisations  :   472
 total energy-change (2. order) :-0.5516758E-01  (-0.1505917E-03)
 number of electron     160.0000065 magnetization       7.4330470
 augmentation part       68.1222865 magnetization       4.0908789

 Broyden mixing:
  rms(total) = 0.94470E-02    rms(broyden)= 0.94424E-02
  rms(prec ) = 0.10746E-01
  weight for this iteration     100.00

 eigenvalues of (default mixing * dielectric matrix)
  average eigenvalue GAMMA=   1.2891
 13.9111  3.3171  2.1610  1.6772  1.6772  1.0111  1.0111  0.8014  0.8014  0.7100
  0.7100  0.5543  0.4618  0.4618  0.4382  0.1964  0.2139  0.2139  0.3306  0.3161
  0.2206  0.2253  0.2462  0.2799  0.2799

 Free energy of the ion-electron system (eV)
[...]
   0.249E+03 0.576E+03 0.787E+03   -.247E+03 -.571E+03 -.782E+03   -.179E+01 -.538E+01 -.520E+01   0.391E-01 -.233E-01 -.571E-01
   -.927E+03 0.199E+03 0.247E+03   0.923E+03 -.198E+03 -.245E+03   0.408E+01 -.789E+00 -.250E+01   0.236E-01 0.930E-01 -.140E-01
   0.925E+03 0.372E+03 -.341E+03   -.919E+03 -.368E+03 0.339E+03   -.535E+01 -.321E+01 0.270E+01   -.209E-01 0.103E-01 -.809E-02
   0.596E+02 0.334E+03 -.975E+03   -.581E+02 -.331E+03 0.970E+03   -.160E+01 -.276E+01 0.487E+01   0.713E-01 0.394E-03 0.626E-01
   0.861E+03 0.421E+03 0.291E+03   -.856E+03 -.419E+03 -.290E+03   -.451E+01 -.260E+01 -.747E+00   -.199E-01 0.577E-01 -.377E-01
   -.901E+03 -.240E+03 -.465E+03   0.895E+03 0.237E+03 0.464E+03   0.539E+01 0.225E+01 0.170E+01   0.397E-01 0.235E-01 -.618E-02
   0.453E+03 -.543E+03 0.753E+03   -.450E+03 0.538E+03 -.750E+03   -.310E+01 0.442E+01 -.315E+01   0.808E-01 0.198E-01 -.624E-01
   0.704E+03 -.425E+03 -.604E+03   -.700E+03 0.423E+03 0.601E+03   -.377E+01 0.228E+01 0.278E+01   -.389E-01 0.747E-02 -.302E-01
   -.480E+03 -.734E+03 0.479E+03   0.477E+03 0.729E+03 -.478E+03   0.240E+01 0.435E+01 -.117E+01   0.369E-01 -.101E-01 -.449E-01
   -.564E+03 0.800E+03 -.369E+03   0.561E+03 -.794E+03 0.368E+03   0.287E+01 -.671E+01 0.137E+01   0.702E-01 0.432E-01 0.328E-01
   -.844E+02 -.710E+03 -.750E+03   0.837E+02 0.704E+03 0.746E+03   0.654E+00 0.572E+01 0.484E+01   0.317E-01 0.915E-02 -.330E-01
   -.558E+03 0.317E+02 0.854E+03   0.553E+03 -.312E+02 -.850E+03   0.542E+01 -.485E+00 -.473E+01   0.942E-02 0.456E-01 -.593E-02
 -----------------------------------------------------------------------------------------------
   -.949E+00 0.131E+01 -.307E-01   0.114E-12 -.888E-13 -.455E-12   0.613E+00 -.193E+01 0.410E+00   0.335E+00 0.611E+00 -.378E+00
 
 
 POSITION                                       TOTAL-FORCE (eV/Angst)
 -----------------------------------------------------------------------------------
     14.64831     10.65761     15.15486        -0.009547     -0.028950     -0.038584
     14.97573     10.45805     12.61836         0.028473     -0.018545     -0.047831
     13.46871     12.66291     13.69160        -0.017513     -0.020735     -0.002400
     15.60184     13.38553     15.01824        -0.021574     -0.023050      0.020165
     13.70852      9.97545     10.30784         0.034863      0.043247      0.021262
     17.02571     11.33602     14.02542         0.027736      0.005356      0.016609
     12.07317     10.84041     15.05898        -0.022303      0.048696      0.022441
     15.23443     11.24439     17.62773        -0.025237      0.014090     -0.041426
     12.37634     10.58585     12.48612        -0.046557     -0.078931      0.014311
     17.47653     12.33131     16.51699         0.004921     -0.011366      0.004912
     13.56210     12.54865     11.00047         0.003548     -0.029701      0.102534
     13.30844     12.76526     16.38534         0.015552      0.023275     -0.008209
     15.81301     13.10869     12.43160         0.009292      0.027101     -0.006438
     16.92473      9.79013     16.17160        -0.024301     -0.021418     -0.037530
     15.44763     13.83552     17.57177         0.019898      0.060767      0.007866
     15.91699     11.48930     10.37978         0.022748      0.010165     -0.027682
 -----------------------------------------------------------------------------------
    total drift:                               -0.001786     -0.003822      0.001399


--------------------------------------------------------------------------------------------------------



  FREE ENERGIE OF THE ION-ELECTRON SYSTEM (eV)
  ---------------------------------------------------
  free  energy   TOTEN  =       -61.59480021 eV

  energy  without entropy=      -61.64370837  energy(sigma->0) =      -61.61110293
 
 d Force = 0.8400404E-02[ 0.608E-02, 0.107E-01]  d Energy = 0.6324055E-02 0.208E-02
 d Force =-0.2993156E+02[-0.298E+02,-0.300E+02]  d Ewald  =-0.2993149E+02-0.608E-04


--------------------------------------------------------------------------------------------------------


    POTLOK:  cpu time    5.2941: real time    5.3725


--------------------------------------------------------------------------------------------------------


 Conjugate gradient step on ions:
 trial-energy change:   -0.006324  1 .order   -0.008400   -0.010725   -0.006076
  (g-gl).g = 0.463E-02      g.g   = 0.478E-02  gl.gl    = 0.105E-01
 g(Force)  = 0.478E-02   g(Stress)= 0.000E+00 ortho     =-0.618E-04
 gamma     =   0.43996
 trial     =   2.25874
 opt step  =   5.21007  (harmonic =   5.21007) maximal distance =0.03198057
 next E    =   -61.600846   (d E  =  -0.01237)


--------------------------------------------------------------------------------------------------------


    WAVPRE:  cpu time    0.4763: real time    0.4852
    FEWALD:  cpu time    0.0105: real time    0.0105
    ORTHCH:  cpu time    5.1601: real time    5.1639
     LOOP+:  cpu time  540.5617: real time  545.3510


--------------------------------------- Iteration     10(   1)  ---------------------------------------


    POTLOK:  cpu time    5.2288: real time    5.2458
    SETDIJ:  cpu time    0.0662: real time    0.0664
     EDDAV:  cpu time   49.7206: real time   50.2115
       DOS:  cpu time    0.0341: real time    0.0342
    CHARGE:  cpu time    2.8059: real time    2.8104
    MIXING:  cpu time    0.1483: real time    0.1486
    --------------------------------------------
      LOOP:  cpu time   58.0040: real time   58.5169

 eigenvalue-minimisations  :   416
 total energy-change (2. order) : 0.1979415E-01  (-0.1887970E+01)
 number of electron     160.0000018 magnetization       5.1771911
 augmentation part       68.2680277 magnetization       2.8278231

 Broyden mixing:
  rms(total) = 0.64373E-01    rms(broyden)= 0.64289E-01
  rms(prec ) = 0.67770E-01
  weight for this iteration     100.00

 Free energy of the ion-electron system (eV)
  ---------------------------------------------------
  alpha Z        PSCENC =         9.40199815
  Ewald energy   TEWEN  =     26407.03349460
  -Hartree energ DENC   =    -38960.89367837
  -exchange      EXHF   =         0.00000000
  -V(xc)+E(xc)   XCENC  =      -481.31744518
  PAW double counting   =     14641.47163206   -13663.12911571
  entropy T*S    EENTRO =         0.05053756
  eigenvalues    EBANDS =      -970.09467658
  atomic energy  EATOM  =     12955.90228127
  Solvation  Ediel_sol  =         0.00000000
  ---------------------------------------------------
  free energy    TOTEN  =       -61.57497221 eV

  energy without entropy =      -61.62550976  energy(sigma->0) =      -61.59181806


--------------------------------------------------------------------------------------------------------




--------------------------------------- Iteration     10(   2)  ---------------------------------------


    POTLOK:  cpu time    5.2728: real time    5.2801
    SETDIJ:  cpu time    0.0619: real time    0.0619
     EDDAV:  cpu time   50.8506: real time   51.1296
       DOS:  cpu time    0.0035: real time    0.0035
    CHARGE:  cpu time    3.3490: real time    3.3564
    MIXING:  cpu time    0.1352: real time    0.1355
    --------------------------------------------
      LOOP:  cpu time   59.6730: real time   59.9671

 eigenvalue-minimisations  :   432
 total energy-change (2. order) :-0.3985373E-01  (-0.3387779E-01)
 number of electron     160.0000019 magnetization       5.1762851
 augmentation part       68.2754845 magnetization       2.8124494

 Broyden mixing:
  rms(total) = 0.15611E+00    rms(broyden)= 0.15607E+00
  rms(prec ) = 0.16924E+00
  weight for this iteration     100.00

 eigenvalues of (default mixing * dielectric matrix)
  average eigenvalue GAMMA=   0.2544
  0.2544

 Free energy of the ion-electron system (eV)
  ---------------------------------------------------
  alpha Z        PSCENC =         9.40199815
  Ewald energy   TEWEN  =     26407.03349460
  -Hartree energ DENC   =    -38960.85732683
  -exchange      EXHF   =         0.00000000
  -V(xc)+E(xc)   XCENC  =      -481.33151923
  PAW double counting   =     14645.18097653   -13666.90842146
  entropy T*S    EENTRO =         0.04716317
  eigenvalues    EBANDS =      -970.08347214
  atomic energy  EATOM  =     12955.90228127
  Solvation  Ediel_sol  =         0.00000000
  ---------------------------------------------------
  free energy    TOTEN  =       -61.61482594 eV

  energy without entropy =      -61.66198911  energy(sigma->0) =      -61.63054699


--------------------------------------------------------------------------------------------------------




--------------------------------------- Iteration     10(   3)  ---------------------------------------


    POTLOK:  cpu time    5.2917: real time    5.3107
    SETDIJ:  cpu time    0.0505: real time    0.0506
     EDDAV:  cpu time   51.7911: real time   52.1758
       DOS:  cpu time    0.0094: real time    0.0094
    CHARGE:  cpu time    2.9701: real time    2.9775
    MIXING:  cpu time    0.1391: real time    0.1395
    --------------------------------------------
      LOOP:  cpu time   60.2520: real time   60.6636

 eigenvalue-minimisations  :   432
 total energy-change (2. order) : 0.1619671E-01  (-0.6960089E-02)
 number of electron     160.0000018 magnetization       5.1736610
 augmentation part       68.2800560 magnetization       2.8273258

 Broyden mixing:
  rms(total) = 0.50433E-01    rms(broyden)= 0.50366E-01
  rms(prec ) = 0.55066E-01
  weight for this iteration     100.00

 eigenvalues of (default mixing * dielectric matrix)
  average eigenvalue GAMMA=   0.3686
  0.5287  0.2085

 Free energy of the ion-electron system (eV)
  ---------------------------------------------------
  alpha Z        PSCENC =         9.40199815
  Ewald energy   TEWEN  =     26407.03349460
  -Hartree energ DENC   =    -38960.53481703
  -exchange      EXHF   =         0.00000000
  -V(xc)+E(xc)   XCENC  =      -481.32917965
  PAW double counting   =     14645.42052745   -13667.15168293
  entropy T*S    EENTRO =         0.05031672
  eigenvalues    EBANDS =      -970.39156781
  atomic energy  EATOM  =     12955.90228127
  Solvation  Ediel_sol  =         0.00000000
  ---------------------------------------------------
  free energy    TOTEN  =       -61.59862923 eV

  energy without entropy =      -61.64894594  energy(sigma->0) =      -61.61540147


--------------------------------------------------------------------------------------------------------




--------------------------------------- Iteration     10(   4)  ---------------------------------------


    POTLOK:  cpu time    5.2515: real time    5.2791
    SETDIJ:  cpu time    0.0589: real time    0.0591
     EDDAV:  cpu time   51.2086: real time   51.5100
       DOS:  cpu time    0.0013: real time    0.0014
    CHARGE:  cpu time    2.8967: real time    2.9079
    MIXING:  cpu time    0.1556: real time    0.1559
    --------------------------------------------
      LOOP:  cpu time   59.5726: real time   59.9133

 eigenvalue-minimisations  :   424
 total energy-change (2. order) :-0.1280849E-02  (-0.1653670E-02)
 number of electron     160.0000018 magnetization       5.1713284
 augmentation part       68.2806677 magnetization       2.8280885

 Broyden mixing:
  rms(total) = 0.57259E-01    rms(broyden)= 0.57246E-01
  rms(prec ) = 0.64313E-01
  weight for this iteration     100.00

 eigenvalues of (default mixing * dielectric matrix)
  average eigenvalue GAMMA=   0.3646
  0.6575  0.2749  0.1615

 Free energy of the ion-electron system (eV)
  ---------------------------------------------------
  alpha Z        PSCENC =         9.40199815
  Ewald energy   TEWEN  =     26407.03349460
  -Hartree energ DENC   =    -38960.59088035
  -exchange      EXHF   =         0.00000000
  -V(xc)+E(xc)   XCENC  =      -481.32932839
  PAW double counting   =     14646.15365419   -13667.89087440
  entropy T*S    EENTRO =         0.04807822
  eigenvalues    EBANDS =      -970.32833336
  atomic energy  EATOM  =     12955.90228127
  Solvation  Ediel_sol  =         0.00000000
  ---------------------------------------------------
  free energy    TOTEN  =       -61.59991008 eV

  energy without entropy =      -61.64798830  energy(sigma->0) =      -61.61593615


--------------------------------------------------------------------------------------------------------




--------------------------------------- Iteration     10(   5)  ---------------------------------------


    POTLOK:  cpu time    6.7567: real time    6.7971
    SETDIJ:  cpu time    0.0477: real time    0.0478
     EDDAV:  cpu time   49.0897: real time   49.4490
       DOS:  cpu time    0.0017: real time    0.0017
    CHARGE:  cpu time    2.7977: real time    2.8133
    MIXING:  cpu time    0.1643: real time    0.1648
    --------------------------------------------
      LOOP:  cpu time   58.8578: real time   59.2737

 eigenvalue-minimisations  :   424
 total energy-change (2. order) : 0.1991292E-02  (-0.8787125E-03)
 number of electron     160.0000018 magnetization       5.1692222
 augmentation part       68.2759388 magnetization       2.8177577

 Broyden mixing:
  rms(total) = 0.33142E-01    rms(broyden)= 0.33126E-01
  rms(prec ) = 0.36286E-01
  weight for this iteration     100.00

 eigenvalues of (default mixing * dielectric matrix)
  average eigenvalue GAMMA=   0.3726
  0.6817  0.4504  0.2125  0.1458

 Free energy of the ion-electron system (eV)
  ---------------------------------------------------
  alpha Z        PSCENC =         9.40199815
  Ewald energy   TEWEN  =     26407.03349460
  -Hartree energ DENC   =    -38960.69166190
  -exchange      EXHF   =         0.00000000
  -V(xc)+E(xc)   XCENC  =      -481.32896498
  PAW double counting   =     14646.77453061   -13668.51536170
  entropy T*S    EENTRO =         0.05087506
  eigenvalues    EBANDS =      -970.22510989
  atomic energy  EATOM  =     12955.90228127
  Solvation  Ediel_sol  =         0.00000000
  ---------------------------------------------------
  free energy    TOTEN  =       -61.59791879 eV

  energy without entropy =      -61.64879384  energy(sigma->0) =      -61.61487714


--------------------------------------------------------------------------------------------------------




--------------------------------------- Iteration     10(   6)  ---------------------------------------


    POTLOK:  cpu time    5.3582: real time    5.4102
    SETDIJ:  cpu time    0.0464: real time    0.0465
     EDDAV:  cpu time   50.6445: real time   51.0510
       DOS:  cpu time    0.0222: real time    0.0222
    CHARGE:  cpu time    2.9045: real time    2.9086
    MIXING:  cpu time    0.2014: real time    0.2017
    --------------------------------------------
      LOOP:  cpu time   59.1772: real time   59.6402

 eigenvalue-minimisations  :   424
 total energy-change (2. order) : 0.4463312E-03  (-0.3112145E-03)
 number of electron     160.0000018 magnetization       5.1626103
 augmentation part       68.2776611 magnetization       2.8170578

 Broyden mixing:
  rms(total) = 0.23719E-01    rms(broyden)= 0.23711E-01
  rms(prec ) = 0.25452E-01
  weight for this iteration     100.00

 eigenvalues of (default mixing * dielectric matrix)
  average eigenvalue GAMMA=   0.5173
  1.0517  0.9323  0.2595  0.2027  0.1402

 Free energy of the ion-electron system (eV)
  ---------------------------------------------------
  alpha Z        PSCENC =         9.40199815
  Ewald energy   TEWEN  =     26407.03349460
  -Hartree energ DENC   =    -38960.61747702
  -exchange      EXHF   =         0.00000000
  -V(xc)+E(xc)   XCENC  =      -481.32811671
  PAW double counting   =     14647.17198369   -13668.91807424
  entropy T*S    EENTRO =         0.04974302
  eigenvalues    EBANDS =      -970.29330521
  atomic energy  EATOM  =     12955.90228127
  Solvation  Ediel_sol  =         0.00000000
  ---------------------------------------------------
  free energy    TOTEN  =       -61.59747246 eV

  energy without entropy =      -61.64721548  energy(sigma->0) =      -61.61405346


--------------------------------------------------------------------------------------------------------




--------------------------------------- Iteration     10(   7)  ---------------------------------------


    POTLOK:  cpu time    5.3023: real time    5.3196
    SETDIJ:  cpu time    0.0630: real time    0.0631
     EDDAV:  cpu time   51.7743: real time   52.0798
       DOS:  cpu time    0.0111: real time    0.0111
    CHARGE:  cpu time    2.9167: real time    2.9310
    MIXING:  cpu time    0.1988: real time    0.1996
    --------------------------------------------
      LOOP:  cpu time   60.2661: real time   60.6042

 eigenvalue-minimisations  :   440
 total energy-change (2. order) : 0.4395382E-04  (-0.3921150E-03)
 number of electron     160.0000018 magnetization       5.1562752
 augmentation part       68.2783527 magnetization       2.8127422

 Broyden mixing:
  rms(total) = 0.31684E-01    rms(broyden)= 0.31678E-01
  rms(prec ) = 0.34802E-01
  weight for this iteration     100.00

 eigenvalues of (default mixing * dielectric matrix)
  average eigenvalue GAMMA=   0.6201
  2.0301  0.8388  0.2672  0.2672  0.1780  0.1394

 Free energy of the ion-electron system (eV)
  ---------------------------------------------------
  alpha Z        PSCENC =         9.40199815
  Ewald energy   TEWEN  =     26407.03349460
  -Hartree energ DENC   =    -38960.52291485
  -exchange      EXHF   =         0.00000000
  -V(xc)+E(xc)   XCENC  =      -481.32682287
  PAW double counting   =     14648.24169728   -13669.99917103
  entropy T*S    EENTRO =         0.04956273
  eigenvalues    EBANDS =      -970.37755378
  atomic energy  EATOM  =     12955.90228127
  Solvation  Ediel_sol  =         0.00000000
  ---------------------------------------------------
  free energy    TOTEN  =       -61.59742850 eV

  energy without entropy =      -61.64699123  energy(sigma->0) =      -61.61394941


--------------------------------------------------------------------------------------------------------




--------------------------------------- Iteration     10(   8)  ---------------------------------------


    POTLOK:  cpu time    5.0907: real time    5.1190
    SETDIJ:  cpu time    0.0419: real time    0.0419
     EDDAV:  cpu time   51.8801: real time   52.3336
       DOS:  cpu time    0.0070: real time    0.0070
    CHARGE:  cpu time    2.9270: real time    2.9339
    MIXING:  cpu time    0.2247: real time    0.2253
    --------------------------------------------
      LOOP:  cpu time   60.1713: real time   60.6608

 eigenvalue-minimisations  :   440
 total energy-change (2. order) : 0.8668041E-03  (-0.2777976E-03)
 number of electron     160.0000018 magnetization       5.1533546
 augmentation part       68.2761476 magnetization       2.8114936

 Broyden mixing:
  rms(total) = 0.10885E-01    rms(broyden)= 0.10874E-01
  rms(prec ) = 0.11778E-01
  weight for this iteration     100.00

 eigenvalues of (default mixing * dielectric matrix)
  average eigenvalue GAMMA=   0.6474
  2.3290  0.8094  0.5575  0.3090  0.2126  0.1753  0.1388

 Free energy of the ion-electron system (eV)
  ---------------------------------------------------
  alpha Z        PSCENC =         9.40199815
  Ewald energy   TEWEN  =     26407.03349460
  -Hartree energ DENC   =    -38960.61030311
  -exchange      EXHF   =         0.00000000
  -V(xc)+E(xc)   XCENC  =      -481.32762103
  PAW double counting   =     14649.22220791   -13670.98910541
  entropy T*S    EENTRO =         0.05042775
  eigenvalues    EBANDS =      -970.27994183
  atomic energy  EATOM  =     12955.90228127
  Solvation  Ediel_sol  =         0.00000000
  ---------------------------------------------------
  free energy    TOTEN  =       -61.59656170 eV

  energy without entropy =      -61.64698945  energy(sigma->0) =      -61.61337095


--------