<?xml version="1.0" encoding="ISO-8859-1"?>
<modeling>
 <generator>
  <i name="program" type="string">vasp </i>
  <i name="version" type="string">6.1.2  </i>
  <i name="subversion" type="string">22Jul20 (build Aug  2 2021 21:04:21) gamma-only                       parallel </i>
  <i name="platform" type="string">LinuxPGI </i>
  <i name="date" type="string">2021 12 13 </i>
  <i name="time" type="string">21:56:56 </i>
 </generator>
 <incar>
  <i type="int" name="ISPIN">     2</i>
  <i type="int" name="IBRION">     2</i>
  <i type="int" name="NSW">  1000</i>
  <i type="int" name="ISIF">     0</i>
  <i type="int" name="ISYM">     0</i>
  <i name="ENCUT">    400.00000000</i>
  <i type="logical" name="LREAL"> F  </i>
  <i type="int" name="ISMEAR">     1</i>
  <i name="SIGMA">      0.20000000</i>
  <i type="logical" name="LWAVE"> F  </i>
  <i type="logical" name="LCHARG"> F  </i>
  <i type="int" name="KPAR">     1</i>
  <i type="int" name="NCORE">     8</i>
  <i type="string" name="GGA"> PE</i>
  <i type="int" name="ISPIN">     2</i>
 </incar>
 <structure name="primitive_cell" >
  <crystal>
   <varray name="basis" >
    <v>      27.09995489       0.00000000       0.00000000 </v>
    <v>       0.00000000      23.57056892       0.00000000 </v>
    <v>       0.00000000       0.00000000      27.78201299 </v>
   </varray>
   <i name="volume">  17746.07624397 </i>
   <varray name="rec_basis" >
    <v>       0.03690043       0.00000000       0.00000000 </v>
    <v>       0.00000000       0.04242579       0.00000000 </v>
    <v>       0.00000000       0.00000000       0.03599451 </v>
   </varray>
  </crystal>
  <varray name="positions" >
   <v>       0.54234920       0.45598492       0.54675558 </v>
   <v>       0.55016944       0.44836407       0.45283459 </v>
   <v>       0.49580713       0.53615366       0.49205173 </v>
   <v>       0.57440023       0.56694491       0.54078222 </v>
   <v>       0.50744740       0.42440522       0.37172366 </v>
   <v>       0.62771843       0.48200128       0.50671709 </v>
   <v>       0.44699541       0.46094216       0.53980888 </v>
   <v>       0.56441318       0.47764434       0.63618429 </v>
   <v>       0.45369896       0.45066880       0.44665458 </v>
   <v>       0.64168835       0.52262924       0.59555286 </v>
   <v>       0.50216147       0.52875120       0.39742401 </v>
   <v>       0.49486399       0.53786043       0.59049699 </v>
   <v>       0.58319742       0.55314160       0.44668537 </v>
   <v>       0.62404025       0.41728817       0.58285007 </v>
   <v>       0.57117851       0.58532273       0.63224557 </v>
   <v>       0.58601882       0.48616079       0.37207113 </v>
  </varray>
 </structure>
 <varray name="primitive_index" >
  <v type="int" >        1 </v>
  <v type="int" >        2 </v>
  <v type="int" >        3 </v>
  <v type="int" >        4 </v>
  <v type="int" >        5 </v>
  <v type="int" >        6 </v>
  <v type="int" >        7 </v>
  <v type="int" >        8 </v>
  <v type="int" >        9 </v>
  <v type="int" >       10 </v>
  <v type="int" >       11 </v>
  <v type="int" >       12 </v>
  <v type="int" >       13 </v>
  <v type="int" >       14 </v>
  <v type="int" >       15 </v>
  <v type="int" >       16 </v>
 </varray>
 <kpoints>
  <generation param="Gamma">
   <v type="int" name="divisions">       1        1        1 </v>
   <v name="usershift">      0.00000000       0.00000000       0.00000000 </v>
   <v name="genvec1">      1.00000000       0.00000000       0.00000000 </v>
   <v name="genvec2">      0.00000000       1.00000000       0.00000000 </v>
   <v name="genvec3">      0.00000000       0.00000000       1.00000000 </v>
   <v name="shift">      0.00000000       0.00000000       0.00000000 </v>
  </generation>
  <varray name="kpointlist" >
   <v>       0.00000000       0.00000000       0.00000000 </v>
  </varray>
  <varray name="weights" >
   <v>       1.00000000 </v>
  </varray>
 </kpoints>
 <parameters>
  <separator name="general" >
   <i type="string" name="SYSTEM">unknown system</i>
   <i type="logical" name="LCOMPAT"> F  </i>
  </separator>
  <separator name="electronic" >
   <i type="string" name="PREC">normal</i>
   <i name="ENMAX">    400.00000000</i>
   <i name="ENAUG">    416.23000000</i>
   <i name="EDIFF">      0.00010000</i>
   <i type="int" name="IALGO">    38</i>
   <i type="int" name="IWAVPR">    11</i>
   <i type="int" name="NBANDS">   104</i>
   <i type="int" name="NBANDSLOW">    -1</i>
   <i type="int" name="NBANDSHIGH">    -1</i>
   <i name="NELECT">    160.00000000</i>
   <i type="int" name="TURBO">     0</i>
   <i type="int" name="IRESTART">     0</i>
   <i type="int" name="NREBOOT">     0</i>
   <i type="int" name="NMIN">     0</i>
   <i name="EREF">      0.00000000</i>
   <separator name="electronic smearing" >
    <i type="int" name="ISMEAR">     1</i>
    <i name="SIGMA">      0.20000000</i>
    <i name="KSPACING">      0.50000000</i>
    <i type="logical" name="KGAMMA"> T  </i>
    <i type="logical" name="KBLOWUP"> T  </i>
   </separator>
   <separator name="electronic projectors" >
    <i type="logical" name="LREAL"> F  </i>
    <v name="ROPT">      0.00000000</v>
    <i type="int" name="LMAXPAW">  -100</i>
    <i type="int" name="LMAXMIX">     2</i>
    <i type="logical" name="NLSPLINE"> F  </i>
   </separator>
   <separator name="electronic startup" >
    <i type="int" name="ISTART">     0</i>
    <i type="int" name="ICHARG">     2</i>
    <i type="int" name="INIWAV">     1</i>
   </separator>
   <separator name="electronic spin" >
    <i type="int" name="ISPIN">     2</i>
    <i type="logical" name="LNONCOLLINEAR"> F  </i>
    <v name="MAGMOM">      1.00000000      1.00000000      1.00000000      1.00000000      1.00000000      1.00000000      1.00000000      1.00000000      1.00000000      1.00000000      1.00000000      1.00000000      1.00000000      1.00000000      1.00000000      1.00000000</v>
    <i name="NUPDOWN">     -1.00000000</i>
    <i type="logical" name="LSORBIT"> F  </i>
    <v name="SAXIS">      0.00000000      0.00000000      1.00000000</v>
    <i type="logical" name="LSPIRAL"> F  </i>
    <v name="QSPIRAL">      0.00000000      0.00000000      0.00000000</v>
    <i type="logical" name="LZEROZ"> F  </i>
   </separator>
   <separator name="electronic exchange-correlation" >
    <i type="logical" name="LASPH"> F  </i>
    <i type="logical" name="LMETAGGA"> F  </i>
   </separator>
   <separator name="electronic convergence" >
    <i type="int" name="NELM">    60</i>
    <i type="int" name="NELMDL">     0</i>
    <i type="int" name="NELMIN">     2</i>
    <i name="ENINI">    400.00000000</i>
    <separator name="electronic convergence detail" >
     <i type="logical" name="LDIAG"> T  </i>
     <i type="logical" name="LSUBROT"> F  </i>
     <i name="WEIMIN">      0.00100000</i>
     <i name="EBREAK">      0.00000024</i>
     <i name="DEPER">      0.30000000</i>
     <i type="int" name="NRMM">     4</i>
     <i name="TIME">      0.40000000</i>
    </separator>
   </separator>
   <separator name="electronic mixer" >
    <i name="AMIX">      0.40000000</i>
    <i name="BMIX">      1.00000000</i>
    <i name="AMIN">      0.10000000</i>
    <i name="AMIX_MAG">      1.60000000</i>
    <i name="BMIX_MAG">      1.00000000</i>
    <separator name="electronic mixer details" >
     <i type="int" name="IMIX">     4</i>
     <i type="logical" name="MIXFIRST"> F  </i>
     <i type="int" name="MAXMIX">   -45</i>
     <i name="WC">    100.00000000</i>
     <i type="int" name="INIMIX">     1</i>
     <i type="int" name="MIXPRE">     1</i>
     <i type="int" name="MREMOVE">     5</i>
    </separator>
   </separator>
   <separator name="electronic dipolcorrection" >
    <i type="logical" name="LDIPOL"> F  </i>
    <i type="logical" name="LMONO"> F  </i>
    <i type="int" name="IDIPOL">     0</i>
    <i name="EPSILON">      1.00000000</i>
    <v name="DIPOL">   -100.00000000   -100.00000000   -100.00000000</v>
    <i name="EFIELD">      0.00000000</i>
   </separator>
  </separator>
  <separator name="grids" >
   <i type="int" name="NGX">   140</i>
   <i type="int" name="NGY">   120</i>
   <i type="int" name="NGZ">   140</i>
   <i type="int" name="NGXF">   280</i>
   <i type="int" name="NGYF">   240</i>
   <i type="int" name="NGZF">   280</i>
   <i type="logical" name="ADDGRID"> F  </i>
  </separator>
  <separator name="ionic" >
   <i type="int" name="NSW">  1000</i>
   <i type="int" name="IBRION">     2</i>
   <i type="int" name="MDALGO">     0</i>
   <i type="int" name="ISIF">     0</i>
   <i name="PSTRESS">      0.00000000</i>
   <i name="EDIFFG">      0.00100000</i>
   <i type="int" name="NFREE">     1</i>
   <i name="POTIM">      0.50000000</i>
   <i name="SMASS">     -3.00000000</i>
   <i name="SCALEE">      1.00000000</i>
  </separator>
  <separator name="ionic md" >
   <i name="TEBEG">      0.00010000</i>
   <i name="TEEND">      0.00010000</i>
   <i type="int" name="NBLOCK">     1</i>
   <i type="int" name="KBLOCK">  1000</i>
   <i type="int" name="NPACO">   256</i>
   <i name="APACO">     16.00000000</i>
  </separator>
  <separator name="symmetry" >
   <i type="int" name="ISYM">     0</i>
   <i name="SYMPREC">      0.00001000</i>
  </separator>
  <separator name="dos" >
   <i type="int" name="LORBIT">     0</i>
   <v name="RWIGS">     -1.00000000</v>
   <i type="int" name="NEDOS">   301</i>
   <i name="EMIN">     10.00000000</i>
   <i name="EMAX">    -10.00000000</i>
   <i name="EFERMI">      0.00000000</i>
  </separator>
  <separator name="writing" >
   <i type="int" name="NWRITE">     2</i>
   <i type="logical" name="LWAVE"> F  </i>
   <i type="logical" name="LDOWNSAMPLE"> F  </i>
   <i type="logical" name="LCHARG"> F  </i>
   <i type="logical" name="LPARD"> F  </i>
   <i type="logical" name="LVTOT"> F  </i>
   <i type="logical" name="LVHAR"> F  </i>
   <i type="logical" name="LELF"> F  </i>
   <i type="logical" name="LOPTICS"> F  </i>
   <v name="STM">      0.00000000      0.00000000      0.00000000      0.00000000      0.00000000      0.00000000      0.00000000</v>
  </separator>
  <separator name="performance" >
   <i type="int" name="NPAR">     2</i>
   <i type="int" name="NSIM">     4</i>
   <i type="int" name="NBLK">    -1</i>
   <i type="logical" name="LPLANE"> T  </i>
   <i type="logical" name="LSCALAPACK"> T  </i>
   <i type="logical" name="LSCAAWARE"> F  </i>
   <i type="logical" name="LSCALU"> F  </i>
   <i type="logical" name="LASYNC"> F  </i>
   <i type="logical" name="LORBITALREAL"> F  </i>
  </separator>
  <separator name="miscellaneous" >
   <i type="int" name="IDIOT">     3</i>
   <i type="int" name="PHON_NSTRUCT">    -1</i>
   <i type="logical" name="LMUSIC"> F  </i>
   <v name="POMASS">    106.42000000</v>
   <v name="DARWINR">      0.00000000</v>
   <v name="DARWINV">      1.00000000</v>
   <i type="logical" name="LCORR"> T  </i>
  </separator>
  <i type="logical" name="GGA_COMPAT"> T  </i>
  <i type="logical" name="LBERRY"> F  </i>
  <i type="int" name="ICORELEVEL">     0</i>
  <i type="logical" name="LDAU"> F  </i>
  <i type="int" name="I_CONSTRAINED_M">     0</i>
  <separator name="electronic exchange-correlation" >
   <i type="string" name="GGA">PE</i>
   <i type="int" name="VOSKOWN">     0</i>
   <i type="logical" name="LHFCALC"> F  </i>
   <i type="string" name="PRECFOCK"></i>
   <i type="logical" name="LSYMGRAD"> F  </i>
   <i type="logical" name="LHFONE"> F  </i>
   <i type="logical" name="LRHFCALC"> F  </i>
   <i type="logical" name="LTHOMAS"> F  </i>
   <i type="logical" name="LMODELHF"> F  </i>
   <i type="logical" name="LFOCKACE"> F  </i>
   <i name="ENCUT4O">     -1.00000000</i>
   <i type="int" name="EXXOEP">     0</i>
   <i type="int" name="FOURORBIT">     0</i>
   <i name="AEXX">      0.00000000</i>
   <i name="HFALPHA">      0.00000000</i>
   <i name="MCALPHA">      0.00000000</i>
   <i name="ALDAX">      1.00000000</i>
   <i name="AGGAX">      1.00000000</i>
   <i name="ALDAC">      1.00000000</i>
   <i name="AGGAC">      1.00000000</i>
   <i type="int" name="NKREDX">     1</i>
   <i type="int" name="NKREDY">     1</i>
   <i type="int" name="NKREDZ">     1</i>
   <i type="logical" name="SHIFTRED"> F  </i>
   <i type="logical" name="ODDONLY"> F  </i>
   <i type="logical" name="EVENONLY"> F  </i>
   <i type="int" name="LMAXFOCK">     0</i>
   <i type="int" name="NMAXFOCKAE">     0</i>
   <i type="logical" name="LFOCKAEDFT"> F  </i>
   <i name="HFSCREEN">      0.00000000</i>
   <i name="HFSCREENC">      0.00000000</i>
   <i type="int" name="NBANDSGWLOW">     0</i>
  </separator>
  <separator name="vdW DFT" >
   <i type="logical" name="LUSE_VDW"> F  </i>
   <i name="Zab_VDW">     -0.84910000</i>
   <i name="PARAM1">      0.12340000</i>
   <i name="PARAM2">      1.00000000</i>
   <i name="PARAM3">      0.00000000</i>
  </separator>
  <separator name="model GW" >
   <i type="int" name="MODEL_GW">     0</i>
   <i name="MODEL_EPS0">    665.47785915</i>
   <i name="MODEL_ALPHA">      1.00000000</i>
  </separator>
  <separator name="linear response parameters" >
   <i type="logical" name="LEPSILON"> F  </i>
   <i type="logical" name="LRPA"> F  </i>
   <i type="logical" name="LNABLA"> F  </i>
   <i type="logical" name="LVEL"> F  </i>
   <i type="int" name="KINTER">     0</i>
   <i name="CSHIFT">      0.10000000</i>
   <i name="OMEGAMAX">     -1.00000000</i>
   <i name="DEG_THRESHOLD">      0.00200000</i>
   <i name="RTIME">     -0.10000000</i>
   <i name="WPLASMAI">      0.00000000</i>
   <v name="DFIELD">      0.00000000      0.00000000      0.00000000</v>
   <v name="WPLASMA">      0.00000000      0.00000000      0.00000000      0.00000000      0.00000000      0.00000000      0.00000000      0.00000000      0.00000000</v>
  </separator>
  <separator name="orbital magnetization" >
   <i type="logical" name="NUCIND"> F  </i>
   <v name="MAGPOS">      0.00000000      0.00000000      0.00000000</v>
   <i type="logical" name="LNICSALL"> T  </i>
   <i type="logical" name="ORBITALMAG"> F  </i>
   <i type="logical" name="LMAGBLOCH"> F  </i>
   <i type="logical" name="LCHIMAG"> F  </i>
   <i type="logical" name="LGAUGE"> T  </i>
   <i type="int" name="MAGATOM">     0</i>
   <v name="MAGDIPOL">      0.00000000      0.00000000      0.00000000</v>
   <v name="AVECCONST">      0.00000000      0.00000000      0.00000000</v>
  </separator>
  <separator name="response functions" >
   <i type="logical" name="LFINITE_TEMPERATURE"> F  </i>
   <i type="logical" name="LADDER"> F  </i>
   <i type="logical" name="LRPAFORCE"> F  </i>
   <i type="logical" name="LFXC"> F  </i>
   <i type="logical" name="LHARTREE"> T  </i>
   <i type="int" name="IBSE">     0</i>
   <v type="int" name="KPOINT">    -1     0     0     0</v>
   <i type="logical" name="LTCTC"> F  </i>
   <i type="logical" name="LTCTE"> F  </i>
   <i type="logical" name="LTETE"> F  </i>
   <i type="logical" name="LTRIPLET"> F  </i>
   <i type="logical" name="LFXCEPS"> F  </i>
   <i type="logical" name="LFXHEG"> F  </i>
   <i type="int" name="NATURALO">     2</i>
   <i type="logical" name="LHOLEGF"> F  </i>
   <i type="logical" name="L2ORDER"> F  </i>
   <i type="logical" name="LDMP1"> F  </i>
   <i type="logical" name="LMP2LT"> F  </i>
   <i type="logical" name="LSMP2LT"> F  </i>
   <i type="logical" name="LGWLF"> F  </i>
   <i name="ENCUTGW">     -2.00000000</i>
   <i name="ENCUTGWSOFT">     -2.00000000</i>
   <i name="ENCUTLF">     -1.00000000</i>
   <i type="logical" name="LESF_SPLINES"> F  </i>
   <i type="int" name="LMAXMP2">    -1</i>
   <i name="SCISSOR">      0.00000000</i>
   <i type="int" name="NOMEGA">     0</i>
   <i type="int" name="NOMEGAR">     0</i>
   <i type="int" name="NBANDSGW">    -1</i>
   <i type="int" name="NBANDSO">    -1</i>
   <i type="int" name="NBANDSV">    -1</i>
   <i type="int" name="NELM">     1</i>
   <i type="int" name="NELMHF">     1</i>
   <i type="int" name="DIM">     3</i>
   <i type="int" name="IESPILON">     4</i>
   <i type="int" name="ANTIRES">     0</i>
   <i name="OMEGAMAX">    -30.00000000</i>
   <i name="OMEGAMIN">    -30.00000000</i>
   <i name="OMEGATL">   -200.00000000</i>
   <i type="int" name="OMEGAGRID">     0</i>
   <i name="CSHIFT">     -0.10000000</i>
   <i type="logical" name="LSELFENERGY"> F  </i>
   <i type="logical" name="LSPECTRAL"> F  </i>
   <i type="logical" name="LSPECTRALGW"> F  </i>
   <i type="logical" name="LSINGLES"> F  </i>
   <i type="logical" name="LFERMIGW"> F  </i>
   <i type="logical" name="ODDONLYGW"> F  </i>
   <i type="logical" name="EVENONLYGW"> F  </i>
   <i type="int" name="NKREDLFX">     1</i>
   <i type="int" name="NKREDLFY">     1</i>
   <i type="int" name="NKREDLFZ">     1</i>
   <i type="int" name="MAXMEM">  2800</i>
   <i type="int" name="TELESCOPE">     0</i>
   <i type="int" name="NTAUPAR">    -1</i>
   <i type="int" name="NOMEGAPAR">    -1</i>
   <i name="LAMBDA">      1.00000000</i>
  </separator>
  <separator name="External order field" >
   <i name="OFIELD_KAPPA">      0.00000000</i>
   <v name="OFIELD_K">      0.00000000      0.00000000      0.00000000</v>
   <i name="OFIELD_Q6_NEAR">      0.00000000</i>
   <i name="OFIELD_Q6_FAR">      0.00000000</i>
   <i name="OFIELD_A">      0.00000000</i>
  </separator>
 </parameters>
 <atominfo>
  <atoms>      16 </atoms>
  <types>       1 </types>
  <array name="atoms" >
   <dimension dim="1">ion</dimension>
   <field type="string">element</field>
   <field type="int">atomtype</field>
   <set>
    <rc><c>Pd</c><c>   1</c></rc>
    <rc><c>Pd</c><c>   1</c></rc>
    <rc><c>Pd</c><c>   1</c></rc>
    <rc><c>Pd</c><c>   1</c></rc>
    <rc><c>Pd</c><c>   1</c></rc>
    <rc><c>Pd</c><c>   1</c></rc>
    <rc><c>Pd</c><c>   1</c></rc>
    <rc><c>Pd</c><c>   1</c></rc>
    <rc><c>Pd</c><c>   1</c></rc>
    <rc><c>Pd</c><c>   1</c></rc>
    <rc><c>Pd</c><c>   1</c></rc>
    <rc><c>Pd</c><c>   1</c></rc>
    <rc><c>Pd</c><c>   1</c></rc>
    <rc><c>Pd</c><c>   1</c></rc>
    <rc><c>Pd</c><c>   1</c></rc>
    <rc><c>Pd</c><c>   1</c></rc>
   </set>
  </array>
  <array name="atomtypes" >
   <dimension dim="1">type</dimension>
   <field type="int">atomspertype</field>
   <field type="string">element</field>
   <field>mass</field>
   <field>valence</field>
   <field type="string">pseudopotential</field>
   <set>
    <rc><c>  16</c><c>Pd</c><c>    106.42000000</c><c>     10.00000000</c><c>  PAW_PBE Pd 04Jan2005                  </c></rc>
   </set>
  </array>
 </atominfo>
 <structure name="initialpos" >
  <crystal>
   <varray name="basis" >
    <v>      27.09995489       0.00000000       0.00000000 </v>
    <v>       0.00000000      23.57056892       0.00000000 </v>
    <v>       0.00000000       0.00000000      27.78201299 </v>
   </varray>
   <i name="volume">  17746.07624397 </i>
   <varray name="rec_basis" >
    <v>       0.03690043       0.00000000       0.00000000 </v>
    <v>       0.00000000       0.04242579       0.00000000 </v>
    <v>       0.00000000       0.00000000       0.03599451 </v>
   </varray>
  </crystal>
  <varray name="positions" >
   <v>       0.54234920       0.45598492       0.54675558 </v>
   <v>       0.55016944       0.44836407       0.45283459 </v>
   <v>       0.49580713       0.53615366       0.49205173 </v>
   <v>       0.57440023       0.56694491       0.54078222 </v>
   <v>       0.50744740       0.42440522       0.37172366 </v>
   <v>       0.62771843       0.48200128       0.50671709 </v>
   <v>       0.44699541       0.46094216       0.53980888 </v>
   <v>       0.56441318       0.47764434       0.63618429 </v>
   <v>       0.45369896       0.45066880       0.44665458 </v>
   <v>       0.64168835       0.52262924       0.59555286 </v>
   <v>       0.50216147       0.52875120       0.39742401 </v>
   <v>       0.49486399       0.53786043       0.59049699 </v>
   <v>       0.58319742       0.55314160       0.44668537 </v>
   <v>       0.62404025       0.41728817       0.58285007 </v>
   <v>       0.57117851       0.58532273       0.63224557 </v>
   <v>       0.58601882       0.48616079       0.37207113 </v>
  </varray>
 </structure>
 <calculation>
  <scstep>
   <time name="dav">   38.58   39.40</time>
   <time name="total">   44.04   45.32</time>
   <energy>
    <i name="alphaZ">      9.40199815 </i>
    <i name="ewald">  26916.59496209 </i>
    <i name="hartreedc"> -39204.43176428 </i>
    <i name="XCdc">   -479.79925420 </i>
    <i name="pawpsdc">  12906.36685261 </i>
    <i name="pawaedc"> -11910.91650437 </i>
    <i name="eentropy">     -0.04102714 </i>
    <i name="bandstr">    216.74955896 </i>
    <i name="atom">  12955.90228127 </i>
    <i name="e_fr_energy">   1409.82710310 </i>
    <i name="e_wo_entrp">   1409.86813023 </i>
    <i name="e_0_energy">   1409.84077881 </i>
   </energy>
  </scstep>
  <scstep>
   <time name="dav">   87.50   90.92</time>
   <time name="total">   87.51   90.92</time>
   <energy>
    <i name="e_fr_energy">    804.72681233 </i>
    <i name="e_wo_entrp">    804.79539147 </i>
    <i name="e_0_energy">    804.74967204 </i>
   </energy>
  </scstep>
  <scstep>
   <time name="dav">   82.34   84.14</time>
   <time name="total">   82.37   84.16</time>
   <energy>
    <i name="e_fr_energy">    182.24677438 </i>
    <i name="e_wo_entrp">    182.29617016 </i>
    <i name="e_0_energy">    182.26323964 </i>
   </energy>
  </scstep>
  <scstep>
   <time name="dav">   69.17   69.44</time>
   <time name="total">   69.17   69.44</time>
   <energy>
    <i name="e_fr_energy">    -30.11727771 </i>
    <i name="e_wo_entrp">    -30.11064539 </i>
    <i name="e_0_energy">    -30.11506694 </i>
   </energy>
  </scstep>
  <scstep>
   <time name="dav">   66.28   66.80</time>
   <time name="total">   69.47   69.99</time>
   <energy>
    <i name="e_fr_energy">    -61.43867399 </i>
    <i name="e_wo_entrp">    -61.48288376 </i>
    <i name="e_0_energy">    -61.45341058 </i>
   </energy>
  </scstep>
  <scstep>
   <time name="dav">   57.48   57.92</time>
   <time name="total">   66.72   67.28</time>
   <energy>
    <i name="e_fr_energy">    -53.49292701 </i>
    <i name="e_wo_entrp">    -53.49461613 </i>
    <i name="e_0_energy">    -53.49349005 </i>
   </energy>
  </scstep>
  <scstep>
   <time name="dav">   58.57   58.86</time>
   <time name="total">   67.84   68.30</time>
   <energy>
    <i name="e_fr_energy">    -57.41594780 </i>
    <i name="e_wo_entrp">    -57.36437649 </i>
    <i name="e_0_energy">    -57.39875736 </i>
   </energy>
  </scstep>
  <scstep>
   <time name="dav">   58.07   58.27</time>
   <time name="total">   67.77   68.01</time>
   <energy>
    <i name="e_fr_energy">    -51.36010873 </i>
    <i name="e_wo_entrp">    -51.32815679 </i>
    <i name="e_0_energy">    -51.34945808 </i>
   </energy>
  </scstep>
  <scstep>
   <time name="dav">   57.08   57.18</time>
   <time name="total">   65.97   66.09</time>
   <energy>
    <i name="e_fr_energy">    -46.52385358 </i>
    <i name="e_wo_entrp">    -46.45311842 </i>
    <i name="e_0_energy">    -46.50027519 </i>
   </energy>
  </scstep>
  <scstep>
   <time name="dav">   56.58   56.70</time>
   <time name="total">   65.52   65.66</time>
   <energy>
    <i name="e_fr_energy">    -46.99799581 </i>
    <i name="e_wo_entrp">    -46.96664232 </i>
    <i name="e_0_energy">    -46.98754465 </i>
   </energy>
  </scstep>
  <scstep>
   <time name="dav">   58.68   58.79</time>
   <time name="total">   67.36   67.50</time>
   <energy>
    <i name="e_fr_energy">    -48.05271145 </i>
    <i name="e_wo_entrp">    -48.05414193 </i>
    <i name="e_0_energy">    -48.05318828 </i>
   </energy>
  </scstep>
  <scstep>
   <time name="dav">   56.91   57.01</time>
   <time name="total">   65.75   65.86</time>
   <energy>
    <i name="e_fr_energy">    -49.48508232 </i>
    <i name="e_wo_entrp">    -49.45869579 </i>
    <i name="e_0_energy">    -49.47628681 </i>
   </energy>
  </scstep>
  <scstep>
   <time name="dav">   56.93   57.06</time>
   <time name="total">   65.97   66.12</time>
   <energy>
    <i name="e_fr_energy">    -51.26566860 </i>
    <i name="e_wo_entrp">    -51.25391971 </i>
    <i name="e_0_energy">    -51.26175230 </i>
   </energy>
  </scstep>
  <scstep>
   <time name="dav">   57.28   57.58</time>
   <time name="total">   65.65   65.97</time>
   <energy>
    <i name="e_fr_energy">    -52.94740379 </i>
    <i name="e_wo_entrp">    -52.93060511 </i>
    <i name="e_0_energy">    -52.94180423 </i>
   </energy>
  </scstep>
  <scstep>
   <time name="dav">   56.05   56.27</time>
   <time name="total">   64.77   65.04</time>
   <energy>
    <i name="e_fr_energy">    -55.14394537 </i>
    <i name="e_wo_entrp">    -55.12625267 </i>
    <i name="e_0_energy">    -55.13804781 </i>
   </energy>
  </scstep>
  <scstep>
   <time name="dav">   57.11   58.31</time>
   <time name="total">   72.97   74.21</time>
   <energy>
    <i name="e_fr_energy">    -56.11623838 </i>
    <i name="e_wo_entrp">    -56.08338045 </i>
    <i name="e_0_energy">    -56.10528574 </i>
   </energy>
  </scstep>
  <scstep>
   <time name="dav">   57.68   57.96</time>
   <time name="total">   68.41   68.71</time>
   <energy>
    <i name="e_fr_energy">    -56.66342543 </i>
    <i name="e_wo_entrp">    -56.63286702 </i>
    <i name="e_0_energy">    -56.65323929 </i>
   </energy>
  </scstep>
  <scstep>
   <time name="dav">   53.50   53.81</time>
   <time name="total">   62.52   62.87</time>
   <energy>
    <i name="e_fr_energy">    -57.06520725 </i>
    <i name="e_wo_entrp">    -57.03193486 </i>
    <i name="e_0_energy">    -57.05411645 </i>
   </energy>
  </scstep>
  <scstep>
   <time name="dav">   57.47   57.95</time>
   <time name="total">   66.46   66.97</time>
   <energy>
    <i name="e_fr_energy">    -57.60061373 </i>
    <i name="e_wo_entrp">    -57.57038421 </i>
    <i name="e_0_energy">    -57.59053722 </i>
   </energy>
  </scstep>
  <scstep>
   <time name="dav">   61.17   61.88</time>
   <time name="total">   71.00   72.33</time>
   <energy>
    <i name="e_fr_energy">    -57.97191569 </i>
    <i name="e_wo_entrp">    -57.94284144 </i>
    <i name="e_0_energy">    -57.96222427 </i>
   </energy>
  </scstep>
  <scstep>
   <time name="dav">   57.32   58.56</time>
   <time name="total">   66.44   67.71</time>
   <energy>
    <i name="e_fr_energy">    -58.40745632 </i>
    <i name="e_wo_entrp">    -58.37719004 </i>
    <i name="e_0_energy">    -58.39736756 </i>
   </energy>
  </scstep>
  <scstep>
   <time name="dav">   57.61   58.96</time>
   <time name="total">   67.54   68.96</time>
   <energy>
    <i name="e_fr_energy">    -59.02068916 </i>
    <i name="e_wo_entrp">    -58.99082730 </i>
    <i name="e_0_energy">    -59.01073520 </i>
   </energy>
  </scstep>
  <scstep>
   <time name="dav">   63.41   63.81</time>
   <time name="total">   73.59   74.69</time>
   <energy>
    <i name="e_fr_energy">    -59.29462623 </i>
    <i name="e_wo_entrp">    -59.26457601 </i>
    <i name="e_0_energy">    -59.28460949 </i>
   </energy>
  </scstep>
  <scstep>
   <time name="dav">   56.07   56.23</time>
   <time name="total">   65.38   65.60</time>
   <energy>
    <i name="e_fr_energy">    -59.80082987 </i>
    <i name="e_wo_entrp">    -59.77260151 </i>
    <i name="e_0_energy">    -59.79142042 </i>
   </energy>
  </scstep>
  <scstep>
   <time name="dav">   62.06   62.23</time>
   <time name="total">   71.60   71.81</time>
   <energy>
    <i name="e_fr_energy">    -60.01979535 </i>
    <i name="e_wo_entrp">    -59.99367183 </i>
    <i name="e_0_energy">    -60.01108751 </i>
   </energy>
  </scstep>
  <scstep>
   <time name="dav">   57.14   57.27</time>
   <time name="total">   66.63   66.80</time>
   <energy>
    <i name="e_fr_energy">    -60.33676461 </i>
    <i name="e_wo_entrp">    -60.31241076 </i>
    <i name="e_0_energy">    -60.32864666 </i>
   </energy>
  </scstep>
  <scstep>
   <time name="dav">   61.05   61.36</time>
   <time name="total">   70.27   70.65</time>
   <energy>
    <i name="e_fr_energy">    -60.74908222 </i>
    <i name="e_wo_entrp">    -60.72710878 </i>
    <i name="e_0_energy">    -60.74175774 </i>
   </energy>
  </scstep>
  <scstep>
   <time name="dav">   58.63   58.95</time>
   <time name="total">   67.97   68.35</time>
   <energy>
    <i name="e_fr_energy">    -60.92905760 </i>
    <i name="e_wo_entrp">    -60.90913745 </i>
    <i name="e_0_energy">    -60.92241755 </i>
   </energy>
  </scstep>
  <scstep>
   <time name="dav">   57.06   57.35</time>
   <time name="total">   66.48   67.06</time>
   <energy>
    <i name="e_fr_energy">    -61.00585504 </i>
    <i name="e_wo_entrp">    -60.98668654 </i>
    <i name="e_0_energy">    -60.99946554 </i>
   </energy>
  </scstep>
  <scstep>
   <time name="dav">   59.04   59.78</time>
   <time name="total">   68.69   69.46</time>
   <energy>
    <i name="e_fr_energy">    -61.06102263 </i>
    <i name="e_wo_entrp">    -61.04264578 </i>
    <i name="e_0_energy">    -61.05489701 </i>
   </energy>
  </scstep>
  <scstep>
   <time name="dav">   55.17   55.60</time>
   <time name="total">   64.67   65.15</time>
   <energy>
    <i name="e_fr_energy">    -61.09456138 </i>
    <i name="e_wo_entrp">    -61.07675779 </i>
    <i name="e_0_energy">    -61.08862685 </i>
   </energy>
  </scstep>
  <scstep>
   <time name="dav">   53.09   53.30</time>
   <time name="total">   62.77   63.00</time>
   <energy>
    <i name="e_fr_energy">    -61.12558717 </i>
    <i name="e_wo_entrp">    -61.10840960 </i>
    <i name="e_0_energy">    -61.11986131 </i>
   </energy>
  </scstep>
  <scstep>
   <time name="dav">   52.95   53.04</time>
   <time name="total">   62.85   62.97</time>
   <energy>
    <i name="e_fr_energy">    -61.15511525 </i>
    <i name="e_wo_entrp">    -61.13849714 </i>
    <i name="e_0_energy">    -61.14957588 </i>
   </energy>
  </scstep>
  <scstep>
   <time name="dav">   45.77   45.83</time>
   <time name="total">   55.64   55.72</time>
   <energy>
    <i name="e_fr_energy">    -61.17278008 </i>
    <i name="e_wo_entrp">    -61.15631493 </i>
    <i name="e_0_energy">    -61.16729170 </i>
   </energy>
  </scstep>
  <scstep>
   <time name="dav">   43.32   43.38</time>
   <time name="total">   52.80   52.88</time>
   <energy>
    <i name="e_fr_energy">    -61.18701182 </i>
    <i name="e_wo_entrp">    -61.17061819 </i>
    <i name="e_0_energy">    -61.18154727 </i>
   </energy>
  </scstep>
  <scstep>
   <time name="dav">   39.95   40.03</time>
   <time name="total">   49.57   49.67</time>
   <energy>
    <i name="e_fr_energy">    -61.19431358 </i>
    <i name="e_wo_entrp">    -61.17800493 </i>
    <i name="e_0_energy">    -61.18887736 </i>
   </energy>
  </scstep>
  <scstep>
   <time name="dav">   40.32   40.38</time>
   <time name="total">   50.01   50.09</time>
   <energy>
    <i name="e_fr_energy">    -61.19962760 </i>
    <i name="e_wo_entrp">    -61.18331192 </i>
    <i name="e_0_energy">    -61.19418904 </i>
   </energy>
  </scstep>
  <scstep>
   <time name="dav">   41.58   41.66</time>
   <time name="total">   51.67   51.78</time>
   <energy>
    <i name="e_fr_energy">    -61.20338549 </i>
    <i name="e_wo_entrp">    -61.18712528 </i>
    <i name="e_0_energy">    -61.19796542 </i>
   </energy>
  </scstep>
  <scstep>
   <time name="dav">   41.16   41.25</time>
   <time name="total">   51.25   51.36</time>
   <energy>
    <i name="e_fr_energy">    -61.20545460 </i>
    <i name="e_wo_entrp">    -61.18921894 </i>
    <i name="e_0_energy">    -61.20004271 </i>
   </energy>
  </scstep>
  <scstep>
   <time name="dav">   41.63   41.73</time>
   <time name="total">   51.57   51.74</time>
   <energy>
    <i name="e_fr_energy">    -61.20700998 </i>
    <i name="e_wo_entrp">    -61.19081086 </i>
    <i name="e_0_energy">    -61.20161027 </i>
   </energy>
  </scstep>
  <scstep>
   <time name="dav">   40.95   41.19</time>
   <time name="total">   50.93   51.20</time>
   <energy>
    <i name="e_fr_energy">    -61.20841043 </i>
    <i name="e_wo_entrp">    -61.19223366 </i>
    <i name="e_0_energy">    -61.20301817 </i>
   </energy>
  </scstep>
  <scstep>
   <time name="dav">   41.93   42.07</time>
   <time name="total">   52.12   52.28</time>
   <energy>
    <i name="e_fr_energy">    -61.20932212 </i>
    <i name="e_wo_entrp">    -61.19314786 </i>
    <i name="e_0_energy">    -61.20393070 </i>
   </energy>
  </scstep>
  <scstep>
   <time name="dav">   40.65   40.82</time>
   <time name="total">   50.97   51.16</time>
   <energy>
    <i name="e_fr_energy">    -61.20992576 </i>
    <i name="e_wo_entrp">    -61.19375410 </i>
    <i name="e_0_energy">    -61.20453520 </i>
   </energy>
  </scstep>
  <scstep>
   <time name="dav">   42.94   43.10</time>
   <time name="total">   53.57   53.84</time>
   <energy>
    <i name="e_fr_energy">    -61.21030323 </i>
    <i name="e_wo_entrp">    -61.19412276 </i>
    <i name="e_0_energy">    -61.20490974 </i>
   </energy>
  </scstep>
  <scstep>
   <time name="dav">   41.16   41.39</time>
   <time name="total">   52.06   52.58</time>
   <energy>
    <i name="e_fr_energy">    -61.21061155 </i>
    <i name="e_wo_entrp">    -61.19442704 </i>
    <i name="e_0_energy">    -61.20521672 </i>
   </energy>
  </scstep>
  <scstep>
   <time name="dav">   39.74   39.84</time>
   <time name="total">   50.21   50.34</time>
   <energy>
    <i name="e_fr_energy">    -61.21083758 </i>
    <i name="e_wo_entrp">    -61.19465304 </i>
    <i name="e_0_energy">    -61.20544273 </i>
   </energy>
  </scstep>
  <scstep>
   <time name="dav">   40.78   40.94</time>
   <time name="total">   51.31   51.53</time>
   <energy>
    <i name="e_fr_energy">    -61.21100156 </i>
    <i name="e_wo_entrp">    -61.19481520 </i>
    <i name="e_0_energy">    -61.20560610 </i>
   </energy>
  </scstep>
  <scstep>
   <time name="dav">   41.51   41.63</time>
   <time name="total">   47.21   47.35</time>
   <energy>
    <i name="alphaZ">      9.40199815 </i>
    <i name="ewald">  26916.59496209 </i>
    <i name="hartreedc"> -39442.98807781 </i>
    <i name="XCdc">   -479.93616792 </i>
    <i name="pawpsdc">  14913.98325456 </i>
    <i name="pawaedc"> -13940.18892359 </i>
    <i name="eentropy">     -0.01618818 </i>
    <i name="bandstr">   -993.96421862 </i>
    <i name="atom">  12955.90228127 </i>
    <i name="e_fr_energy">    -61.21108006 </i>
    <i name="e_wo_entrp">    -61.19489188 </i>
    <i name="e_0_energy">    -61.20568400 </i>
   </energy>
  </scstep>
  <structure>
   <crystal>
    <varray name="basis" >
     <v>      27.09995489       0.00000000       0.00000000 </v>
     <v>       0.00000000      23.57056892       0.00000000 </v>
     <v>       0.00000000       0.00000000      27.78201299 </v>
    </varray>
    <i name="volume">  17746.07624397 </i>
    <varray name="rec_basis" >
     <v>       0.03690043       0.00000000       0.00000000 </v>
     <v>       0.00000000       0.04242579       0.00000000 </v>
     <v>       0.00000000       0.00000000       0.03599451 </v>
    </varray>
   </crystal>
   <varray name="positions" >
    <v>       0.54234920       0.45598492       0.54675558 </v>
    <v>       0.55016944       0.44836407       0.45283459 </v>
    <v>       0.49580713       0.53615366       0.49205173 </v>
    <v>       0.57440023       0.56694491       0.54078222 </v>
    <v>       0.50744740       0.42440522       0.37172366 </v>
    <v>       0.62771843       0.48200128       0.50671709 </v>
    <v>       0.44699541       0.46094216       0.53980888 </v>
    <v>       0.56441318       0.47764434       0.63618429 </v>
    <v>       0.45369896       0.45066880       0.44665458 </v>
    <v>       0.64168835       0.52262924       0.59555286 </v>
    <v>       0.50216147       0.52875120       0.39742401 </v>
    <v>       0.49486399       0.53786043       0.59049699 </v>
    <v>       0.58319742       0.55314160       0.44668537 </v>
    <v>       0.62404025       0.41728817       0.58285007 </v>
    <v>       0.57117851       0.58532273       0.63224557 </v>
    <v>       0.58601882       0.48616079       0.37207113 </v>
   </varray>
  </structure>
  <varray name="forces" >
   <v>      -0.15280457      -0.62648507      -0.52553636 </v>
   <v>       0.39002821      -0.83085368       0.73319288 </v>
   <v>      -0.06786298       0.53427423       0.18790715 </v>
   <v>       0.13303008       0.49277411      -0.46945207 </v>
   <v>      -0.38490711      -0.76978731      -0.54689339 </v>
   <v>       0.31925368      -0.11737624      -0.45897866 </v>
   <v>      -0.36215489      -0.26428245       0.21510770 </v>
   <v>      -0.28540851      -0.48555916       0.64812330 </v>
   <v>      -0.31567549      -0.29973071       0.22529162 </v>
   <v>       0.80010634       0.33225374       0.06841487 </v>
   <v>      -0.60371028       0.97568130      -0.48152201 </v>
   <v>      -0.78855103       0.40759661       0.12671952 </v>
   <v>       0.34630877       0.62717143       0.25527723 </v>
   <v>       0.26598167      -0.75228220       0.04045155 </v>
   <v>      -0.04924496       0.69720505       0.42754929 </v>
   <v>       0.75561107       0.07940036      -0.44565262 </v>
  </varray>
  <energy>
   <i name="e_fr_energy">    -61.21108006 </i>
   <i name="e_wo_entrp">    -61.19489188 </i>
   <i name="e_0_energy">    -61.20568400 </i>
  </energy>
  <time name="totalsc"> 3032.82 3056.57</time>
 </calculation>
 <calculation>
  <scstep>
   <time name="dav">   55.78   56.16</time>
   <time name="total">   64.55   64.95</time>
   <energy>
    <i name="alphaZ">      9.40199815 </i>
    <i name="ewald">  26415.37709953 </i>
    <i name="hartreedc"> -38949.48666312 </i>
    <i name="XCdc">   -481.31398954 </i>
    <i name="pawpsdc">  14913.98205036 </i>
    <i name="pawaedc"> -13940.18772212 </i>
    <i name="eentropy">      0.00040437 </i>
    <i name="bandstr">   -985.01017059 </i>
    <i name="atom">  12955.90228127 </i>
    <i name="e_fr_energy">    -61.33471168 </i>
    <i name="e_wo_entrp">    -61.33511605 </i>
    <i name="e_0_energy">    -61.33484647 </i>
   </energy>
  </scstep>
  <scstep>
   <time name="dav">   58.39   58.58</time>
   <time name="total">   67.48   67.71</time>
   <energy>
    <i name="e_fr_energy">    -61.63887783 </i>
    <i name="e_wo_entrp">    -61.62995844 </i>
    <i name="e_0_energy">    -61.63590470 </i>
   </energy>
  </scstep>
  <scstep>
   <time name="dav">   56.95   57.28</time>
   <time name="total">   65.99   66.34</time>
   <energy>
    <i name="e_fr_energy">    -61.55609168 </i>
    <i name="e_wo_entrp">    -61.56590759 </i>
    <i name="e_0_energy">    -61.55936365 </i>
   </energy>
  </scstep>
  <scstep>
   <time name="dav">   56.62   56.92</time>
   <time name="total">   65.30   65.85</time>
   <energy>
    <i name="e_fr_energy">    -61.50638250 </i>
    <i name="e_wo_entrp">    -61.51537928 </i>
    <i name="e_0_energy">    -61.50938142 </i>
   </energy>
  </scstep>
  <scstep>
   <time name="dav">   55.19   55.56</time>
   <time name="total">   64.14   64.55</time>
   <energy>
    <i name="e_fr_energy">    -61.44177040 </i>
    <i name="e_wo_entrp">    -61.44181447 </i>
    <i name="e_0_energy">    -61.44178509 </i>
   </energy>
  </scstep>
  <scstep>
   <time name="dav">   58.58   58.97</time>
   <time name="total">   67.32   67.74</time>
   <energy>
    <i name="e_fr_energy">    -61.39852309 </i>
    <i name="e_wo_entrp">    -61.39979698 </i>
    <i name="e_0_energy">    -61.39894772 </i>
   </energy>
  </scstep>
  <scstep>
   <time name="dav">   55.43   56.66</time>
   <time name="total">   64.39   65.66</time>
   <energy>
    <i name="e_fr_energy">    -61.33948401 </i>
    <i name="e_wo_entrp">    -61.34480270 </i>
    <i name="e_0_energy">    -61.34125691 </i>
   </energy>
  </scstep>
  <scstep>
   <time name="dav">   58.36   58.55</time>
   <time name="total">   66.85   67.06</time>
   <energy>
    <i name="e_fr_energy">    -61.33221250 </i>
    <i name="e_wo_entrp">    -61.33854571 </i>
    <i name="e_0_energy">    -61.33432357 </i>
   </energy>
  </scstep>
  <scstep>
   <time name="dav">   56.41   56.54</time>
   <time name="total">   65.23   65.38</time>
   <energy>
    <i name="e_fr_energy">    -61.34342115 </i>
    <i name="e_wo_entrp">    -61.34972012 </i>
    <i name="e_0_energy">    -61.34552081 </i>
   </energy>
  </scstep>
  <scstep>
   <time name="dav">   57.04   57.29</time>
   <time name="total">   66.11   66.39</time>
   <energy>
    <i name="e_fr_energy">    -61.35684147 </i>
    <i name="e_wo_entrp">    -61.36401926 </i>
    <i name="e_0_energy">    -61.35923406 </i>
   </energy>
  </scstep>
  <scstep>
   <time name="dav">   55.56   55.70</time>
   <time name="total">   64.55   64.72</time>
   <energy>
    <i name="e_fr_energy">    -61.37280799 </i>
    <i name="e_wo_entrp">    -61.37943564 </i>
    <i name="e_0_energy">    -61.37501721 </i>
   </energy>
  </scstep>
  <scstep>
   <time name="dav">   55.22   55.36</time>
   <time name="total">   64.26   64.42</time>
   <energy>
    <i name="e_fr_energy">    -61.38322507 </i>
    <i name="e_wo_entrp">    -61.39074876 </i>
    <i name="e_0_energy">    -61.38573296 </i>
   </energy>
  </scstep>
  <scstep>
   <time name="dav">   45.49   45.61</time>
   <time name="total">   54.15   54.58</time>
   <energy>
    <i name="e_fr_energy">    -61.39370611 </i>
    <i name="e_wo_entrp">    -61.40138130 </i>
    <i name="e_0_energy">    -61.39626451 </i>
   </energy>
  </scstep>
  <scstep>
   <time name="dav">   45.37   45.95</time>
   <time name="total">   54.55   55.15</time>
   <energy>
    <i name="e_fr_energy">    -61.40698843 </i>
    <i name="e_wo_entrp">    -61.41525800 </i>
    <i name="e_0_energy">    -61.40974496 </i>
   </energy>
  </scstep>
  <scstep>
   <time name="dav">   46.19   46.46</time>
   <time name="total">   55.16   55.46</time>
   <energy>
    <i name="e_fr_energy">    -61.42019185 </i>
    <i name="e_wo_entrp">    -61.42918129 </i>
    <i name="e_0_energy">    -61.42318833 </i>
   </energy>
  </scstep>
  <scstep>
   <time name="dav">   46.75   47.06</time>
   <time name="total">   55.67   56.04</time>
   <energy>
    <i name="e_fr_energy">    -61.43747184 </i>
    <i name="e_wo_entrp">    -61.44709135 </i>
    <i name="e_0_energy">    -61.44067834 </i>
   </energy>
  </scstep>
  <scstep>
   <time name="dav">   50.45   50.72</time>
   <time name="total">   59.54   59.84</time>
   <energy>
    <i name="e_fr_energy">    -61.45685143 </i>
    <i name="e_wo_entrp">    -61.46752804 </i>
    <i name="e_0_energy">    -61.46041030 </i>
   </energy>
  </scstep>
  <scstep>
   <time name="dav">   48.96   49.62</time>
   <time name="total">   58.10   58.84</time>
   <energy>
    <i name="e_fr_energy">    -61.47091516 </i>
    <i name="e_wo_entrp">    -61.48257454 </i>
    <i name="e_0_energy">    -61.47480162 </i>
   </energy>
  </scstep>
  <scstep>
   <time name="dav">   45.32   47.78</time>
   <time name="total">   54.46   56.96</time>
   <energy>
    <i name="e_fr_energy">    -61.48264093 </i>
    <i name="e_wo_entrp">    -61.49509038 </i>
    <i name="e_0_energy">    -61.48679075 </i>
   </energy>
  </scstep>
  <scstep>
   <time name="dav">   44.21   45.21</time>
   <time name="total">   55.51   56.56</time>
   <energy>
    <i name="e_fr_energy">    -61.49089900 </i>
    <i name="e_wo_entrp">    -61.50396488 </i>
    <i name="e_0_energy">    -61.49525430 </i>
   </energy>
  </scstep>
  <scstep>
   <time name="dav">   42.13   42.31</time>
   <time name="total">   51.32   51.54</time>
   <energy>
    <i name="e_fr_energy">    -61.49659635 </i>
    <i name="e_wo_entrp">    -61.50993918 </i>
    <i name="e_0_energy">    -61.50104396 </i>
   </energy>
  </scstep>
  <scstep>
   <time name="dav">   38.07   38.27</time>
   <time name="total">   47.44   47.98</time>
   <energy>
    <i name="e_fr_energy">    -61.50065455 </i>
    <i name="e_wo_entrp">    -61.51414506 </i>
    <i name="e_0_energy">    -61.50515139 </i>
   </energy>
  </scstep>
  <scstep>
   <time name="dav">   39.33   39.48</time>
   <time name="total">   48.42   48.61</time>
   <energy>
    <i name="e_fr_energy">    -61.50509388 </i>
    <i name="e_wo_entrp">    -61.51873376 </i>
    <i name="e_0_energy">    -61.50964051 </i>
   </energy>
  </scstep>
  <scstep>
   <time name="dav">   38.89   39.08</time>
   <time name="total">   48.13   48.35</time>
   <energy>
    <i name="e_fr_energy">    -61.50898457 </i>
    <i name="e_wo_entrp">    -61.52272635 </i>
    <i name="e_0_energy">    -61.51356517 </i>
   </energy>
  </scstep>
  <scstep>
   <time name="dav">   39.43   39.92</time>
   <time name="total">   49.03   49.53</time>
   <energy>
    <i name="e_fr_energy">    -61.51155427 </i>
    <i name="e_wo_entrp">    -61.52534766 </i>
    <i name="e_0_energy">    -61.51615207 </i>
   </energy>
  </scstep>
  <scstep>
   <time name="dav">   38.09   39.90</time>
   <time name="total">   47.95   49.96</time>
   <energy>
    <i name="e_fr_energy">    -61.51417345 </i>
    <i name="e_wo_entrp">    -61.52799872 </i>
    <i name="e_0_energy">    -61.51878187 </i>
   </energy>
  </scstep>
  <scstep>
   <time name="dav">   40.87   41.60</time>
   <time name="total">   50.17   50.93</time>
   <energy>
    <i name="e_fr_energy">    -61.51650115 </i>
    <i name="e_wo_entrp">    -61.53033571 </i>
    <i name="e_0_energy">    -61.52111267 </i>
   </energy>
  </scstep>
  <scstep>
   <time name="dav">   39.76   40.02</time>
   <time name="total">   49.09   49.39</time>
   <energy>
    <i name="e_fr_energy">    -61.51721987 </i>
    <i name="e_wo_entrp">    -61.53106580 </i>
    <i name="e_0_energy">    -61.52183518 </i>
   </energy>
  </scstep>
  <scstep>
   <time name="dav">   39.53   39.90</time>
   <time name="total">   48.95   49.36</time>
   <energy>
    <i name="e_fr_energy">    -61.51778032 </i>
    <i name="e_wo_entrp">    -61.53163327 </i>
    <i name="e_0_energy">    -61.52239797 </i>
   </energy>
  </scstep>
  <scstep>
   <time name="dav">   39.42   39.58</time>
   <time name="total">   48.98   49.18</time>
   <energy>
    <i name="e_fr_energy">    -61.51804968 </i>
    <i name="e_wo_entrp">    -61.53191353 </i>
    <i name="e_0_energy">    -61.52267096 </i>
   </energy>
  </scstep>
  <scstep>
   <time name="dav">   37.07   37.25</time>
   <time name="total">   46.53   46.80</time>
   <energy>
    <i name="e_fr_energy">    -61.51830985 </i>
    <i name="e_wo_entrp">    -61.53218086 </i>
    <i name="e_0_energy">    -61.52293352 </i>
   </energy>
  </scstep>
  <scstep>
   <time name="dav">   36.90   37.05</time>
   <time name="total">   46.22   46.41</time>
   <energy>
    <i name="e_fr_energy">    -61.51849735 </i>
    <i name="e_wo_entrp">    -61.53237606 </i>
    <i name="e_0_energy">    -61.52312359 </i>
   </energy>
  </scstep>
  <scstep>
   <time name="dav">   36.80   37.00</time>
   <time name="total">   46.39   46.64</time>
   <energy>
    <i name="e_fr_energy">    -61.51873262 </i>
    <i name="e_wo_entrp">    -61.53261694 </i>
    <i name="e_0_energy">    -61.52336073 </i>
   </energy>
  </scstep>
  <scstep>
   <time name="dav">   38.73   38.87</time>
   <time name="total">   48.96   49.15</time>
   <energy>
    <i name="e_fr_energy">    -61.51891244 </i>
    <i name="e_wo_entrp">    -61.53279857 </i>
    <i name="e_0_energy">    -61.52354115 </i>
   </energy>
  </scstep>
  <scstep>
   <time name="dav">   36.93   37.45</time>
   <time name="total">   46.71   47.28</time>
   <energy>
    <i name="e_fr_energy">    -61.51902747 </i>
    <i name="e_wo_entrp">    -61.53291244 </i>
    <i name="e_0_energy">    -61.52365580 </i>
   </energy>
  </scstep>
  <scstep>
   <time name="dav">   36.82   37.13</time>
   <time name="total">   42.24   42.58</time>
   <energy>
    <i name="alphaZ">      9.40199815 </i>
    <i name="ewald">  26415.37709953 </i>
    <i name="hartreedc"> -38962.87348604 </i>
    <i name="XCdc">   -481.09633258 </i>
    <i name="pawpsdc">  14685.98720950 </i>
    <i name="pawaedc"> -13708.56219954 </i>
    <i name="eentropy">      0.01388353 </i>
    <i name="bandstr">   -975.66951232 </i>
    <i name="atom">  12955.90228127 </i>
    <i name="e_fr_energy">    -61.51905852 </i>
    <i name="e_wo_entrp">    -61.53294204 </i>
    <i name="e_0_energy">    -61.52368636 </i>
   </energy>
  </scstep>
  <structure>
   <crystal>
    <varray name="basis" >
     <v>      27.09995489       0.00000000       0.00000000 </v>
     <v>       0.00000000      23.57056892       0.00000000 </v>
     <v>       0.00000000       0.00000000      27.78201299 </v>
    </varray>
    <i name="volume">  17746.07624397 </i>
    <varray name="rec_basis" >
     <v>       0.03690043       0.00000000       0.00000000 </v>
     <v>       0.00000000       0.04242579       0.00000000 </v>
     <v>       0.00000000       0.00000000       0.03599451 </v>
    </varray>
   </crystal>
   <varray name="positions" >
    <v>       0.54207718       0.45470267       0.54584300 </v>
    <v>       0.55086376       0.44666354       0.45410776 </v>
    <v>       0.49568632       0.53724718       0.49237803 </v>
    <v>       0.57463704       0.56795348       0.53996703 </v>
    <v>       0.50676220       0.42282968       0.37077400 </v>
    <v>       0.62828676       0.48176104       0.50592008 </v>
    <v>       0.44635071       0.46040125       0.54018241 </v>
    <v>       0.56390510       0.47665053       0.63730973 </v>
    <v>       0.45313700       0.45005533       0.44704579 </v>
    <v>       0.64311268       0.52330927       0.59567166 </v>
    <v>       0.50108676       0.53074816       0.39658786 </v>
    <v>       0.49346023       0.53869467       0.59071703 </v>
    <v>       0.58381391       0.55442526       0.44712865 </v>
    <v>       0.62451374       0.41574845       0.58292031 </v>
    <v>       0.57109085       0.58674972       0.63298800 </v>
    <v>       0.58736394       0.48632330       0.37129727 </v>
   </varray>
  </structure>
  <varray name="forces" >
   <v>      -0.09878740      -0.25193765       0.03302089 </v>
   <v>       0.04522174      -0.28023115      -0.08203725 </v>
   <v>      -0.02521782       0.13448903       0.01293024 </v>
   <v>       0.10799730       0.17248708       0.05982177 </v>
   <v>      -0.08073475      -0.06433644      -0.00269512 </v>
   <v>       0.17486118      -0.08178056      -0.10906738 </v>
   <v>      -0.13095615      -0.10451542       0.13850407 </v>
   <v>      -0.11027945      -0.09343582       0.00205258 </v>
   <v>       0.16667489      -0.06669610       0.07410249 </v>
   <v>       0.20968251       0.06432110      -0.03566861 </v>
   <v>      -0.09786695       0.17357033      -0.15357453 </v>
   <v>      -0.25879778       0.19532523       0.02335864 </v>
   <v>       0.06127088       0.16931010      -0.08214429 </v>
   <v>       0.05028144      -0.14719865      -0.01773186 </v>
   <v>      -0.05739727       0.11827736       0.01936082 </v>
   <v>       0.04404762       0.06235158       0.11976754 </v>
  </varray>
  <energy>
   <i name="e_fr_energy">    -61.51905852 </i>
   <i name="e_wo_entrp">    -61.53294204 </i>
   <i name="e_0_energy">    -61.52368636 </i>
  </energy>
  <time name="totalsc"> 2026.47 2045.37</time>
 </calculation>
 <calculation>
  <scstep>
   <time name="dav">   51.52   51.79</time>
   <time name="total">   59.95   60.28</time>
   <energy>
    <i name="alphaZ">      9.40199815 </i>
    <i name="ewald">  26292.26466246 </i>
    <i name="hartreedc"> -38841.40067379 </i>
    <i name="XCdc">   -481.42385299 </i>
    <i name="pawpsdc">  14685.98634775 </i>
    <i name="pawaedc"> -13708.56136297 </i>
    <i name="eentropy">      0.01975504 </i>
    <i name="bandstr">   -973.70780013 </i>
    <i name="atom">  12955.90228127 </i>
    <i name="e_fr_energy">    -61.51864521 </i>
    <i name="e_wo_entrp">    -61.53840025 </i>
    <i name="e_0_energy">    -61.52523022 </i>
   </energy>
  </scstep>
  <scstep>
   <time name="dav">   53.98   54.27</time>
   <time name="total">   62.71   63.02</time>
   <energy>
    <i name="e_fr_energy">    -61.53762018 </i>
    <i name="e_wo_entrp">    -61.55515067 </i>
    <i name="e_0_energy">    -61.54346368 </i>
   </energy>
  </scstep>
  <scstep>
   <time name="dav">   53.49   54.61</time>
   <time name="total">   61.97   63.40</time>
   <energy>
    <i name="e_fr_energy">    -61.53094676 </i>
    <i name="e_wo_entrp">    -61.55261041 </i>
    <i name="e_0_energy">    -61.53816798 </i>
   </energy>
  </scstep>
  <scstep>
   <time name="dav">   53.29   53.89</time>
   <time name="total">   61.93   62.56</time>
   <energy>
    <i name="e_fr_energy">    -61.52676665 </i>
    <i name="e_wo_entrp">    -61.54810197 </i>
    <i name="e_0_energy">    -61.53387843 </i>
   </energy>
  </scstep>
  <scstep>
   <time name="dav">   55.62   56.37</time>
   <time name="total">   64.56   65.65</time>
   <energy>
    <i name="e_fr_energy">    -61.52495019 </i>
    <i name="e_wo_entrp">    -61.54431622 </i>
    <i name="e_0_energy">    -61.53140553 </i>
   </energy>
  </scstep>
  <scstep>
   <time name="dav">   57.75   57.90</time>
   <time name="total">   66.50   66.70</time>
   <energy>
    <i name="e_fr_energy">    -61.52237093 </i>
    <i name="e_wo_entrp">    -61.54240318 </i>
    <i name="e_0_energy">    -61.52904834 </i>
   </energy>
  </scstep>
  <scstep>
   <time name="dav">   57.16   57.24</time>
   <time name="total">   66.27   66.38</time>
   <energy>
    <i name="e_fr_energy">    -61.51872267 </i>
    <i name="e_wo_entrp">    -61.53871699 </i>
    <i name="e_0_energy">    -61.52538744 </i>
   </energy>
  </scstep>
  <scstep>
   <time name="dav">   56.36   56.51</time>
   <time name="total">   65.21   65.89</time>
   <energy>
    <i name="e_fr_energy">    -61.51776073 </i>
    <i name="e_wo_entrp">    -61.53825608 </i>
    <i name="e_0_energy">    -61.52459251 </i>
   </energy>
  </scstep>
  <scstep>
   <time name="dav">   39.52   39.57</time>
   <time name="total">   48.59   48.67</time>
   <energy>
    <i name="e_fr_energy">    -61.51804507 </i>
    <i name="e_wo_entrp">    -61.53838976 </i>
    <i name="e_0_energy">    -61.52482663 </i>
   </energy>
  </scstep>
  <scstep>
   <time name="dav">   38.88   38.93</time>
   <time name="total">   47.59   47.66</time>
   <energy>
    <i name="e_fr_energy">    -61.51836398 </i>
    <i name="e_wo_entrp">    -61.53910602 </i>
    <i name="e_0_energy">    -61.52527799 </i>
   </energy>
  </scstep>
  <scstep>
   <time name="dav">   38.40   38.45</time>
   <time name="total">   47.16   47.22</time>
   <energy>
    <i name="e_fr_energy">    -61.51881190 </i>
    <i name="e_wo_entrp">    -61.53951691 </i>
    <i name="e_0_energy">    -61.52571357 </i>
   </energy>
  </scstep>
  <scstep>
   <time name="dav">   39.47   39.60</time>
   <time name="total">   48.20   48.36</time>
   <energy>
    <i name="e_fr_energy">    -61.51925797 </i>
    <i name="e_wo_entrp">    -61.54007662 </i>
    <i name="e_0_energy">    -61.52619752 </i>
   </energy>
  </scstep>
  <scstep>
   <time name="dav">   36.28   38.14</time>
   <time name="total">   45.87   47.97</time>
   <energy>
    <i name="e_fr_energy">    -61.51963258 </i>
    <i name="e_wo_entrp">    -61.54051070 </i>
    <i name="e_0_energy">    -61.52659195 </i>
   </energy>
  </scstep>
  <scstep>
   <time name="dav">   36.67   37.18</time>
   <time name="total">   45.19   46.01</time>
   <energy>
    <i name="e_fr_energy">    -61.52031617 </i>
    <i name="e_wo_entrp">    -61.54132293 </i>
    <i name="e_0_energy">    -61.52731842 </i>
   </energy>
  </scstep>
  <scstep>
   <time name="dav">   38.96   39.56</time>
   <time name="total">   47.23   47.88</time>
   <energy>
    <i name="e_fr_energy">    -61.52111616 </i>
    <i name="e_wo_entrp">    -61.54231618 </i>
    <i name="e_0_energy">    -61.52818283 </i>
   </energy>
  </scstep>
  <scstep>
   <time name="dav">   37.27   37.90</time>
   <time name="total">   45.64   46.39</time>
   <energy>
    <i name="e_fr_energy">    -61.52254113 </i>
    <i name="e_wo_entrp">    -61.54400618 </i>
    <i name="e_0_energy">    -61.52969615 </i>
   </energy>
  </scstep>
  <scstep>
   <time name="dav">   37.34   37.93</time>
   <time name="total">   46.15   47.17</time>
   <energy>
    <i name="e_fr_energy">    -61.52361743 </i>
    <i name="e_wo_entrp">    -61.54528373 </i>
    <i name="e_0_energy">    -61.53083953 </i>
   </energy>
  </scstep>
  <scstep>
   <time name="dav">   36.30   36.47</time>
   <time name="total">   44.99   45.36</time>
   <energy>
    <i name="e_fr_energy">    -61.52469448 </i>
    <i name="e_wo_entrp">    -61.54658605 </i>
    <i name="e_0_energy">    -61.53199167 </i>
   </energy>
  </scstep>
  <scstep>
   <time name="dav">   36.13   36.48</time>
   <time name="total">   44.85   45.25</time>
   <energy>
    <i name="e_fr_energy">    -61.52570870 </i>
    <i name="e_wo_entrp">    -61.54777900 </i>
    <i name="e_0_energy">    -61.53306546 </i>
   </energy>
  </scstep>
  <scstep>
   <time name="dav">   35.05   36.05</time>
   <time name="total">   43.55   44.62</time>
   <energy>
    <i name="e_fr_energy">    -61.52650561 </i>
    <i name="e_wo_entrp">    -61.54870835 </i>
    <i name="e_0_energy">    -61.53390652 </i>
   </energy>
  </scstep>
  <scstep>
   <time name="dav">   39.50   39.84</time>
   <time name="total">   48.34   48.69</time>
   <energy>
    <i name="e_fr_energy">    -61.52718801 </i>
    <i name="e_wo_entrp">    -61.54944377 </i>
    <i name="e_0_energy">    -61.53460660 </i>
   </energy>
  </scstep>
  <scstep>
   <time name="dav">   37.22   37.51</time>
   <time name="total">   45.96   46.28</time>
   <energy>
    <i name="e_fr_energy">    -61.52789043 </i>
    <i name="e_wo_entrp">    -61.55018666 </i>
    <i name="e_0_energy">    -61.53532251 </i>
   </energy>
  </scstep>
  <scstep>
   <time name="dav">   38.94   39.27</time>
   <time name="total">   48.09   48.44</time>
   <energy>
    <i name="e_fr_energy">    -61.52868960 </i>
    <i name="e_wo_entrp">    -61.55102458 </i>
    <i name="e_0_energy">    -61.53613459 </i>
   </energy>
  </scstep>
  <scstep>
   <time name="dav">   38.06   38.25</time>
   <time name="total">   46.98   47.23</time>
   <energy>
    <i name="e_fr_energy">    -61.52928295 </i>
    <i name="e_wo_entrp">    -61.55164586 </i>
    <i name="e_0_energy">    -61.53673725 </i>
   </energy>
  </scstep>
  <scstep>
   <time name="dav">   37.93   38.12</time>
   <time name="total">   46.85   47.08</time>
   <energy>
    <i name="e_fr_energy">    -61.52961123 </i>
    <i name="e_wo_entrp">    -61.55199232 </i>
    <i name="e_0_energy">    -61.53707160 </i>
   </energy>
  </scstep>
  <scstep>
   <time name="dav">   36.41   36.51</time>
   <time name="total">   45.65   45.78</time>
   <energy>
    <i name="e_fr_energy">    -61.52986516 </i>
    <i name="e_wo_entrp">    -61.55225558 </i>
    <i name="e_0_energy">    -61.53732863 </i>
   </energy>
  </scstep>
  <scstep>
   <time name="dav">   34.33   34.85</time>
   <time name="total">   43.24   43.77</time>
   <energy>
    <i name="e_fr_energy">    -61.53003810 </i>
    <i name="e_wo_entrp">    -61.55243020 </i>
    <i name="e_0_energy">    -61.53750213 </i>
   </energy>
  </scstep>
  <scstep>
   <time name="dav">   36.15   36.43</time>
   <time name="total">   41.52   41.82</time>
   <energy>
    <i name="alphaZ">      9.40199815 </i>
    <i name="ewald">  26292.26466246 </i>
    <i name="hartreedc"> -38844.50517283 </i>
    <i name="XCdc">   -481.36580683 </i>
    <i name="pawpsdc">  14635.52907009 </i>
    <i name="pawaedc"> -13657.26460281 </i>
    <i name="eentropy">      0.02239268 </i>
    <i name="bandstr">   -971.51494343 </i>
    <i name="atom">  12955.90228127 </i>
    <i name="e_fr_energy">    -61.53012126 </i>
    <i name="e_wo_entrp">    -61.55251393 </i>
    <i name="e_0_energy">    -61.53758548 </i>
   </energy>
  </scstep>
  <structure>
   <crystal>
    <varray name="basis" >
     <v>      27.09995489       0.00000000       0.00000000 </v>
     <v>       0.00000000      23.57056892       0.00000000 </v>
     <v>       0.00000000       0.00000000      27.78201299 </v>
    </varray>
    <i name="volume">  17746.07624397 </i>
    <varray name="rec_basis" >
     <v>       0.03690043       0.00000000       0.00000000 </v>
     <v>       0.00000000       0.04242579       0.00000000 </v>
     <v>       0.00000000       0.00000000       0.03599451 </v>
    </varray>
   </crystal>
   <varray name="positions" >
    <v>       0.54200896       0.45438111       0.54561414 </v>
    <v>       0.55103788       0.44623707       0.45442705 </v>
    <v>       0.49565602       0.53752141       0.49245985 </v>
    <v>       0.57469643       0.56820642       0.53976260 </v>
    <v>       0.50659036       0.42243456       0.37053584 </v>
    <v>       0.62842928       0.48170079       0.50572021 </v>
    <v>       0.44618903       0.46026559       0.54027609 </v>
    <v>       0.56377769       0.47640130       0.63759197 </v>
    <v>       0.45299607       0.44990148       0.44714390 </v>
    <v>       0.64346988       0.52347981       0.59570146 </v>
    <v>       0.50081724       0.53124896       0.39637817 </v>
    <v>       0.49310819       0.53890388       0.59077222 </v>
    <v>       0.58396851       0.55474717       0.44723982 </v>
    <v>       0.62463249       0.41536231       0.58293793 </v>
    <v>       0.57106886       0.58710758       0.63317419 </v>
    <v>       0.58770127       0.48636405       0.37110320 </v>
   </varray>
  </structure>
  <varray name="forces" >
   <v>      -0.09100729      -0.16536831       0.17073309 </v>
   <v>      -0.02793412      -0.16868620      -0.26629186 </v>
   <v>      -0.01585047       0.04374622      -0.02636229 </v>
   <v>       0.10331573       0.10363226       0.18146675 </v>
   <v>      -0.02014595       0.07725299       0.11056843 </v>
   <v>       0.14396861      -0.07181565      -0.03254213 </v>
   <v>      -0.07888950      -0.06918782       0.12106534 </v>
   <v>      -0.07207468      -0.01133069      -0.13532177 </v>
   <v>       0.27144328      -0.01611595       0.04089258 </v>
   <v>       0.08239103       0.00740048      -0.06095589 </v>
   <v>       0.00308034       0.01406365      -0.07985766 </v>
   <v>      -0.14481790       0.14687930      -0.00057232 </v>
   <v>       0.00306385       0.07185796      -0.15933556 </v>
   <v>       0.00204873      -0.01625233      -0.03112882 </v>
   <v>      -0.05838741      -0.00611092      -0.06942789 </v>
   <v>      -0.10020425       0.06003502       0.23707001 </v>
  </varray>
  <energy>
   <i name="e_fr_energy">    -61.53012126 </i>
   <i name="e_wo_entrp">    -61.55251393 </i>
   <i name="e_0_energy">    -61.53758548 </i>
  </energy>
  <time name="totalsc"> 1457.32 1472.37</time>
 </calculation>
 <calculation>
  <scstep>
   <time name="dav">   50.21   50.66</time>
   <time name="total">   58.40   59.05</time>
   <energy>
    <i name="alphaZ">      9.40199815 </i>
    <i name="ewald">  26243.08599344 </i>
    <i name="hartreedc"> -38796.03953840 </i>
    <i name="XCdc">   -481.47815194 </i>
    <i name="pawpsdc">  14635.52352946 </i>
    <i name="pawaedc"> -13657.25909074 </i>
    <i name="eentropy">      0.02525777 </i>
    <i name="bandstr">   -970.70341416 </i>
    <i name="atom">  12955.90228127 </i>
    <i name="e_fr_energy">    -61.54113516 </i>
    <i name="e_wo_entrp">    -61.56639292 </i>
    <i name="e_0_energy">    -61.54955441 </i>
   </energy>
  </scstep>
  <scstep>
   <time name="dav">   54.25   54.64</time>
   <time name="total">   62.66   63.07</time>
   <energy>
    <i name="e_fr_energy">    -61.57383961 </i>
    <i name="e_wo_entrp">    -61.59557220 </i>
    <i name="e_0_energy">    -61.58108381 </i>
   </energy>
  </scstep>
  <scstep>
   <time name="dav">   51.23   51.29</time>
   <time name="total">   59.50   59.59</time>
   <energy>
    <i name="e_fr_energy">    -61.55058100 </i>
    <i name="e_wo_entrp">    -61.57638089 </i>
    <i name="e_0_energy">    -61.55918096 </i>
   </energy>
  </scstep>
  <scstep>
   <time name="dav">   50.29   50.35</time>
   <time name="total">   58.76   58.84</time>
   <energy>
    <i name="e_fr_energy">    -61.55325908 </i>
    <i name="e_wo_entrp">    -61.57606487 </i>
    <i name="e_0_energy">    -61.56086101 </i>
   </energy>
  </scstep>
  <scstep>
   <time name="dav">   51.70   51.75</time>
   <time name="total">   60.05   60.12</time>
   <energy>
    <i name="e_fr_energy">    -61.55090433 </i>
    <i name="e_wo_entrp">    -61.57592808 </i>
    <i name="e_0_energy">    -61.55924558 </i>
   </energy>
  </scstep>
  <scstep>
   <time name="dav">   53.98   54.05</time>
   <time name="total">   62.34   62.72</time>
   <energy>
    <i name="e_fr_energy">    -61.55016933 </i>
    <i name="e_wo_entrp">    -61.57502883 </i>
    <i name="e_0_energy">    -61.55845583 </i>
   </energy>
  </scstep>
  <scstep>
   <time name="dav">   55.51   56.08</time>
   <time name="total">   63.86   64.44</time>
   <energy>
    <i name="e_fr_energy">    -61.54942398 </i>
    <i name="e_wo_entrp">    -61.57393319 </i>
    <i name="e_0_energy">    -61.55759372 </i>
   </energy>
  </scstep>
  <scstep>
   <time name="dav">   51.69   51.75</time>
   <time name="total">   60.03   60.11</time>
   <energy>
    <i name="e_fr_energy">    -61.54878316 </i>
    <i name="e_wo_entrp">    -61.57377781 </i>
    <i name="e_0_energy">    -61.55711471 </i>
   </energy>
  </scstep>
  <scstep>
   <time name="dav">   40.39   40.62</time>
   <time name="total">   45.49   45.73</time>
   <energy>
    <i name="alphaZ">      9.40199815 </i>
    <i name="ewald">  26243.08599344 </i>
    <i name="hartreedc"> -38797.26065964 </i>
    <i name="XCdc">   -481.46139516 </i>
    <i name="pawpsdc">  14618.06993323 </i>
    <i name="pawaedc"> -13639.51840839 </i>
    <i name="eentropy">      0.02486645 </i>
    <i name="bandstr">   -969.79335585 </i>
    <i name="atom">  12955.90228127 </i>
    <i name="e_fr_energy">    -61.54874650 </i>
    <i name="e_wo_entrp">    -61.57361295 </i>
    <i name="e_0_energy">    -61.55703531 </i>
   </energy>
  </scstep>
  <structure>
   <crystal>
    <varray name="basis" >
     <v>      27.09995489       0.00000000       0.00000000 </v>
     <v>       0.00000000      23.57056892       0.00000000 </v>
     <v>       0.00000000       0.00000000      27.78201299 </v>
    </varray>
    <i name="volume">  17746.07624397 </i>
    <varray name="rec_basis" >
     <v>       0.03690043       0.00000000       0.00000000 </v>
     <v>       0.00000000       0.04242579       0.00000000 </v>
     <v>       0.00000000       0.00000000       0.03599451 </v>
    </varray>
   </crystal>
   <varray name="positions" >
    <v>       0.54182341       0.45395299       0.54587376 </v>
    <v>       0.55102502       0.44577811       0.45401361 </v>
    <v>       0.49561954       0.53767742       0.49243028 </v>
    <v>       0.57490300       0.56848633       0.54004731 </v>
    <v>       0.50651386       0.42251130       0.37068364 </v>
    <v>       0.62873064       0.48153282       0.50561569 </v>
    <v>       0.44600501       0.46008622       0.54051803 </v>
    <v>       0.56361415       0.47632061       0.63740900 </v>
    <v>       0.45347167       0.44983207       0.44724065 </v>
    <v>       0.64370463       0.52353426       0.59559703 </v>
    <v>       0.50076209       0.53139237       0.39618515 </v>
    <v>       0.49275789       0.53926687       0.59078365 </v>
    <v>       0.58400918       0.55497438       0.44697438 </v>
    <v>       0.62466316       0.41524011       0.58288514 </v>
    <v>       0.57095474       0.58717533       0.63308966 </v>
    <v>       0.58759018       0.48650230       0.37149165 </v>
   </varray>
  </structure>
  <varray name="forces" >
   <v>      -0.06668090      -0.08613210       0.03035816 </v>
   <v>       0.03380663      -0.09417168      -0.06193770 </v>
   <v>       0.05476515      -0.01107160       0.01665658 </v>
   <v>       0.05365465       0.00333581       0.06270322 </v>
   <v>      -0.03188063       0.04105001       0.04504915 </v>
   <v>       0.01009893      -0.03641530      -0.03273703 </v>
   <v>      -0.03176603      -0.02671991       0.08042953 </v>
   <v>      -0.06013966       0.02470781      -0.14728923 </v>
   <v>       0.20863234      -0.01208306       0.09007327 </v>
   <v>       0.05426310      -0.02023636      -0.05559323 </v>
   <v>      -0.00285859       0.02760649      -0.04201200 </v>
   <v>      -0.09047526       0.10495850      -0.04043180 </v>
   <v>      -0.02199568       0.03830067      -0.02876916 </v>
   <v>      -0.00674069       0.02157481      -0.03102555 </v>
   <v>      -0.05272173      -0.02553052      -0.04559866 </v>
   <v>      -0.04996164       0.05082644       0.16012445 </v>
  </varray>
  <energy>
   <i name="e_fr_energy">    -61.54874650 </i>
   <i name="e_wo_entrp">    -61.57361295 </i>
   <i name="e_0_energy">    -61.55703531 </i>
  </energy>
  <time name="totalsc">  556.18  559.25</time>
 </calculation>
 <calculation>
  <scstep>
   <time name="dav">   50.82   51.09</time>
   <time name="total">   59.00   59.33</time>
   <energy>
    <i name="alphaZ">      9.40199815 </i>
    <i name="ewald">  26192.65424699 </i>
    <i name="hartreedc"> -38747.51452240 </i>
    <i name="XCdc">   -481.57267307 </i>
    <i name="pawpsdc">  14618.02475658 </i>
    <i name="pawaedc"> -13639.47254735 </i>
    <i name="eentropy">      0.02768771 </i>
    <i name="bandstr">   -968.99631711 </i>
    <i name="atom">  12955.90228127 </i>
    <i name="e_fr_energy">    -61.54508923 </i>
    <i name="e_wo_entrp">    -61.57277694 </i>
    <i name="e_0_energy">    -61.55431847 </i>
   </energy>
  </scstep>
  <scstep>
   <time name="dav">   51.60   52.05</time>
   <time name="total">   59.71   60.19</time>
   <energy>
    <i name="e_fr_energy">    -61.58122732 </i>
    <i name="e_wo_entrp">    -61.60493547 </i>
    <i name="e_0_energy">    -61.58913003 </i>
   </energy>
  </scstep>
  <scstep>
   <time name="dav">   52.57   52.82</time>
   <time name="total">   60.79   61.15</time>
   <energy>
    <i name="e_fr_energy">    -61.55492096 </i>
    <i name="e_wo_entrp">    -61.58340197 </i>
    <i name="e_0_energy">    -61.56441463 </i>
   </energy>
  </scstep>
  <scstep>
   <time name="dav">   49.95   50.47</time>
   <time name="total">   58.45   58.98</time>
   <energy>
    <i name="e_fr_energy">    -61.55738229 </i>
    <i name="e_wo_entrp">    -61.58227524 </i>
    <i name="e_0_energy">    -61.56567994 </i>
   </energy>
  </scstep>
  <scstep>
   <time name="dav">   50.55   51.11</time>
   <time name="total">   58.92   59.50</time>
   <energy>
    <i name="e_fr_energy">    -61.55464034 </i>
    <i name="e_wo_entrp">    -61.58222152 </i>
    <i name="e_0_energy">    -61.56383406 </i>
   </energy>
  </scstep>
  <scstep>
   <time name="dav">   51.48   51.89</time>
   <time name="total">   59.79   60.35</time>
   <energy>
    <i name="e_fr_energy">    -61.55365960 </i>
    <i name="e_wo_entrp">    -61.58095101 </i>
    <i name="e_0_energy">    -61.56275674 </i>
   </energy>
  </scstep>
  <scstep>
   <time name="dav">   54.31   54.67</time>
   <time name="total">   63.08   63.77</time>
   <energy>
    <i name="e_fr_energy">    -61.55289648 </i>
    <i name="e_wo_entrp">    -61.58013685 </i>
    <i name="e_0_energy">    -61.56197660 </i>
   </energy>
  </scstep>
  <scstep>
   <time name="dav">   52.76   53.47</time>
   <time name="total">   61.23   61.98</time>
   <energy>
    <i name="e_fr_energy">    -61.55181920 </i>
    <i name="e_wo_entrp">    -61.57930526 </i>
    <i name="e_0_energy">    -61.56098122 </i>
   </energy>
  </scstep>
  <scstep>
   <time name="dav">   39.63   40.54</time>
   <time name="total">   44.87   45.81</time>
   <energy>
    <i name="alphaZ">      9.40199815 </i>
    <i name="ewald">  26192.65424699 </i>
    <i name="hartreedc"> -38748.84679433 </i>
    <i name="XCdc">   -481.55235165 </i>
    <i name="pawpsdc">  14601.26869728 </i>
    <i name="pawaedc"> -13622.43355593 </i>
    <i name="eentropy">      0.02747775 </i>
    <i name="bandstr">   -967.97382443 </i>
    <i name="atom">  12955.90228127 </i>
    <i name="e_fr_energy">    -61.55182489 </i>
    <i name="e_wo_entrp">    -61.57930265 </i>
    <i name="e_0_energy">    -61.56098415 </i>
   </energy>
  </scstep>
  <structure>
   <crystal>
    <varray name="basis" >
     <v>      27.09995489       0.00000000       0.00000000 </v>
     <v>       0.00000000      23.57056892       0.00000000 </v>
     <v>       0.00000000       0.00000000      27.78201299 </v>
    </varray>
    <i name="volume">  17746.07624397 </i>
    <varray name="rec_basis" >
     <v>       0.03690043       0.00000000       0.00000000 </v>
     <v>       0.00000000       0.04242579       0.00000000 </v>
     <v>       0.00000000       0.00000000       0.03599451 </v>
    </varray>
   </crystal>
   <varray name="positions" >
    <v>       0.54163143       0.45351004       0.54614237 </v>
    <v>       0.55101170       0.44530325       0.45358585 </v>
    <v>       0.49558180       0.53783884       0.49239967 </v>
    <v>       0.57511672       0.56877594       0.54034189 </v>
    <v>       0.50643471       0.42259070       0.37083657 </v>
    <v>       0.62904244       0.48135902       0.50550756 </v>
    <v>       0.44581461       0.45990064       0.54076835 </v>
    <v>       0.56344494       0.47623714       0.63721968 </v>
    <v>       0.45396375       0.44976025       0.44734074 </v>
    <v>       0.64394753       0.52359060       0.59548899 </v>
    <v>       0.50070502       0.53154076       0.39598544 </v>
    <v>       0.49239546       0.53964243       0.59079547 </v>
    <v>       0.58405126       0.55520946       0.44669975 </v>
    <v>       0.62469489       0.41511367       0.58283053 </v>
    <v>       0.57083667       0.58724542       0.63300221 </v>
    <v>       0.58747525       0.48664534       0.37189355 </v>
   </varray>
  </structure>
  <varray name="forces" >
   <v>      -0.04425865      -0.01178711      -0.10709653 </v>
   <v>       0.10267088      -0.01893462       0.14421594 </v>
   <v>       0.12320375      -0.06119250       0.05788296 </v>
   <v>       0.00500630      -0.09751862      -0.05721986 </v>
   <v>      -0.04069959       0.00489632      -0.02708404 </v>
   <v>      -0.12239052      -0.00076307      -0.03052249 </v>
   <v>       0.01641853       0.01584546       0.03944629 </v>
   <v>      -0.04525188       0.06010254      -0.15363034 </v>
   <v>       0.13471572      -0.00961261       0.14304459 </v>
   <v>       0.02162428      -0.05192090      -0.05331743 </v>
   <v>      -0.00912986       0.04410348      -0.00821605 </v>
   <v>      -0.03895610       0.06500634      -0.07683516 </v>
   <v>      -0.04630991       0.00542104       0.10443720 </v>
   <v>      -0.01358330       0.06205196      -0.03251572 </v>
   <v>      -0.04498692      -0.04413215      -0.01843938 </v>
   <v>       0.00192727       0.03843445       0.07585003 </v>
  </varray>
  <energy>
   <i name="e_fr_energy">    -61.55182489 </i>
   <i name="e_wo_entrp">    -61.57930265 </i>
   <i name="e_0_energy">    -61.56098415 </i>
  </energy>
  <time name="totalsc">  550.60  556.07</time>
 </calculation>
 <calculation>
  <scstep>
   <time name="dav">   47.81   47.86</time>
   <time name="total">   56.13   56.45</time>
   <energy>
    <i name="alphaZ">      9.40199815 </i>
    <i name="ewald">  26222.39968382 </i>
    <i name="hartreedc"> -38778.40009839 </i>
    <i name="XCdc">   -481.50660233 </i>
    <i name="pawpsdc">  14601.22479825 </i>
    <i name="pawaedc"> -13622.38908891 </i>
    <i name="eentropy">      0.02921652 </i>
    <i name="bandstr">   -968.21753661 </i>
    <i name="atom">  12955.90228127 </i>
    <i name="e_fr_energy">    -61.55534824 </i>
    <i name="e_wo_entrp">    -61.58456476 </i>
    <i name="e_0_energy">    -61.56508708 </i>
   </energy>
  </scstep>
  <scstep>
   <time name="dav">   50.82   51.57</time>
   <time name="total">   59.31   60.08</time>
   <energy>
    <i name="e_fr_energy">    -61.56744898 </i>
    <i name="e_wo_entrp">    -61.59809389 </i>
    <i name="e_0_energy">    -61.57766395 </i>
   </energy>
  </scstep>
  <scstep>
   <time name="dav">   50.50   50.93</time>
   <time name="total">   58.89   59.39</time>
   <energy>
    <i name="e_fr_energy">    -61.56267478 </i>
    <i name="e_wo_entrp">    -61.59318384 </i>
    <i name="e_0_energy">    -61.57284447 </i>
   </energy>
  </scstep>
  <scstep>
   <time name="dav">   50.85   51.90</time>
   <time name="total">   59.19   60.62</time>
   <energy>
    <i name="e_fr_energy">    -61.56198541 </i>
    <i name="e_wo_entrp">    -61.59228593 </i>
    <i name="e_0_energy">    -61.57208558 </i>
   </energy>
  </scstep>
  <scstep>
   <time name="dav">   49.69   49.94</time>
   <time name="total">   58.08   58.41</time>
   <energy>
    <i name="e_fr_energy">    -61.56028343 </i>
    <i name="e_wo_entrp">    -61.59163291 </i>
    <i name="e_0_energy">    -61.57073325 </i>
   </energy>
  </scstep>
  <scstep>
   <time name="dav">   43.95   44.03</time>
   <time name="total">   52.50   52.69</time>
   <energy>
    <i name="e_fr_energy">    -61.55923258 </i>
    <i name="e_wo_entrp">    -61.58962534 </i>
    <i name="e_0_energy">    -61.56936350 </i>
   </energy>
  </scstep>
  <scstep>
   <time name="dav">   54.89   55.20</time>
   <time name="total">   63.56   63.89</time>
   <energy>
    <i name="e_fr_energy">    -61.55581395 </i>
    <i name="e_wo_entrp">    -61.58695723 </i>
    <i name="e_0_energy">    -61.56619504 </i>
   </energy>
  </scstep>
  <scstep>
   <time name="dav">   46.10   46.32</time>
   <time name="total">   54.71   54.98</time>
   <energy>
    <i name="e_fr_energy">    -61.55380275 </i>
    <i name="e_wo_entrp">    -61.58504960 </i>
    <i name="e_0_energy">    -61.56421837 </i>
   </energy>
  </scstep>
  <scstep>
   <time name="dav">   40.06   40.25</time>
   <time name="total">   48.92   49.24</time>
   <energy>
    <i name="e_fr_energy">    -61.55336092 </i>
    <i name="e_wo_entrp">    -61.58462226 </i>
    <i name="e_0_energy">    -61.56378137 </i>
   </energy>
  </scstep>
  <scstep>
   <time name="dav">   38.38   38.56</time>
   <time name="total">   46.94   47.21</time>
   <energy>
    <i name="e_fr_energy">    -61.55346648 </i>
    <i name="e_wo_entrp">    -61.58479227 </i>
    <i name="e_0_energy">    -61.56390841 </i>
   </energy>
  </scstep>
  <scstep>
   <time name="dav">   36.36   37.08</time>
   <time name="total">   44.81   45.85</time>
   <energy>
    <i name="e_fr_energy">    -61.55371192 </i>
    <i name="e_wo_entrp">    -61.58522488 </i>
    <i name="e_0_energy">    -61.56421624 </i>
   </energy>
  </scstep>
  <scstep>
   <time name="dav">   36.97   37.15</time>
   <time name="total">   46.48   46.74</time>
   <energy>
    <i name="e_fr_energy">    -61.55433781 </i>
    <i name="e_wo_entrp">    -61.58595640 </i>
    <i name="e_0_energy">    -61.56487734 </i>
   </energy>
  </scstep>
  <scstep>
   <time name="dav">   37.22   37.42</time>
   <time name="total">   45.80   46.05</time>
   <energy>
    <i name="e_fr_energy">    -61.55507154 </i>
    <i name="e_wo_entrp">    -61.58686099 </i>
    <i name="e_0_energy">    -61.56566802 </i>
   </energy>
  </scstep>
  <scstep>
   <time name="dav">   38.32   38.63</time>
   <time name="total">   46.95   47.28</time>
   <energy>
    <i name="e_fr_energy">    -61.55645624 </i>
    <i name="e_wo_entrp">    -61.58843818 </i>
    <i name="e_0_energy">    -61.56711688 </i>
   </energy>
  </scstep>
  <scstep>
   <time name="dav">   38.74   39.50</time>
   <time name="total">   48.52   49.37</time>
   <energy>
    <i name="e_fr_energy">    -61.55807516 </i>
    <i name="e_wo_entrp">    -61.59030402 </i>
    <i name="e_0_energy">    -61.56881812 </i>
   </energy>
  </scstep>
  <scstep>
   <time name="dav">   38.47   38.58</time>
   <time name="total">   47.40   47.54</time>
   <energy>
    <i name="e_fr_energy">    -61.56027923 </i>
    <i name="e_wo_entrp">    -61.59277799 </i>
    <i name="e_0_energy">    -61.57111215 </i>
   </energy>
  </scstep>
  <scstep>
   <time name="dav">   41.14   41.45</time>
   <time name="total">   49.75   50.14</time>
   <energy>
[...]
    <i name="e_0_energy">    -61.60521925 </i>
   </energy>
  </scstep>
  <scstep>
   <time name="dav">   36.83   38.15</time>
   <time name="total">   46.18   47.56</time>
   <energy>
    <i name="e_fr_energy">    -61.59031026 </i>
    <i name="e_wo_entrp">    -61.63593019 </i>
    <i name="e_0_energy">    -61.60551690 </i>
   </energy>
  </scstep>
  <scstep>
   <time name="dav">   36.89   37.36</time>
   <time name="total">   46.19   46.72</time>
   <energy>
    <i name="e_fr_energy">    -61.59054011 </i>
    <i name="e_wo_entrp">    -61.63616349 </i>
    <i name="e_0_energy">    -61.60574790 </i>
   </energy>
  </scstep>
  <scstep>
   <time name="dav">   36.65   36.88</time>
   <time name="total">   46.53   46.79</time>
   <energy>
    <i name="e_fr_energy">    -61.59068159 </i>
    <i name="e_wo_entrp">    -61.63630279 </i>
    <i name="e_0_energy">    -61.60588866 </i>
   </energy>
  </scstep>
  <scstep>
   <time name="dav">   36.97   37.23</time>
   <time name="total">   46.19   46.51</time>
   <energy>
    <i name="e_fr_energy">    -61.59084145 </i>
    <i name="e_wo_entrp">    -61.63646186 </i>
    <i name="e_0_energy">    -61.60604825 </i>
   </energy>
  </scstep>
  <scstep>
   <time name="dav">   36.96   37.14</time>
   <time name="total">   46.26   46.50</time>
   <energy>
    <i name="e_fr_energy">    -61.59097391 </i>
    <i name="e_wo_entrp">    -61.63659389 </i>
    <i name="e_0_energy">    -61.60618057 </i>
   </energy>
  </scstep>
  <scstep>
   <time name="dav">   36.82   37.02</time>
   <time name="total">   42.18   42.46</time>
   <energy>
    <i name="alphaZ">      9.40199815 </i>
    <i name="ewald">  26311.35132577 </i>
    <i name="hartreedc"> -38866.33342846 </i>
    <i name="XCdc">   -481.43494927 </i>
    <i name="pawpsdc">  14629.02245074 </i>
    <i name="pawaedc"> -13650.50487355 </i>
    <i name="eentropy">      0.04562079 </i>
    <i name="bandstr">   -969.04146932 </i>
    <i name="atom">  12955.90228127 </i>
    <i name="e_fr_energy">    -61.59104389 </i>
    <i name="e_wo_entrp">    -61.63666468 </i>
    <i name="e_0_energy">    -61.60625082 </i>
   </energy>
  </scstep>
  <structure>
   <crystal>
    <varray name="basis" >
     <v>      27.09995489       0.00000000       0.00000000 </v>
     <v>       0.00000000      23.57056892       0.00000000 </v>
     <v>       0.00000000       0.00000000      27.78201299 </v>
    </varray>
    <i name="volume">  17746.07624397 </i>
    <varray name="rec_basis" >
     <v>       0.03690043       0.00000000       0.00000000 </v>
     <v>       0.00000000       0.04242579       0.00000000 </v>
     <v>       0.00000000       0.00000000       0.03599451 </v>
    </varray>
   </crystal>
   <varray name="positions" >
    <v>       0.54088820       0.45259452       0.54568054 </v>
    <v>       0.55191449       0.44425643       0.45408948 </v>
    <v>       0.49662615       0.53749291       0.49285445 </v>
    <v>       0.57554463       0.56828263       0.54036564 </v>
    <v>       0.50592565       0.42278370       0.37087197 </v>
    <v>       0.62849618       0.48103988       0.50504520 </v>
    <v>       0.44562184       0.45973273       0.54156389 </v>
    <v>       0.56273354       0.47671131       0.63552816 </v>
    <v>       0.45606077       0.44953191       0.44877930 </v>
    <v>       0.64457764       0.52315272       0.59482613 </v>
    <v>       0.50052043       0.53226412       0.39555549 </v>
    <v>       0.49139486       0.54098950       0.59014021 </v>
    <v>       0.58370866       0.55568668       0.44712740 </v>
    <v>       0.62462911       0.41553115       0.58244648 </v>
    <v>       0.57021921       0.58691300       0.63268327 </v>
    <v>       0.58728682       0.48730031       0.37328102 </v>
   </varray>
  </structure>
  <varray name="forces" >
   <v>      -0.01908860      -0.01125569      -0.01944789 </v>
   <v>       0.08018228      -0.01954753       0.00769823 </v>
   <v>       0.01010558      -0.03255285      -0.03480162 </v>
   <v>      -0.00344455      -0.05174399       0.02841241 </v>
   <v>       0.02103265       0.06221043       0.02268194 </v>
   <v>      -0.02564175       0.00426583      -0.00905583 </v>
   <v>      -0.00089662       0.04941193       0.03563667 </v>
   <v>      -0.06499667       0.03458656      -0.09369837 </v>
   <v>      -0.02444318      -0.05875921       0.03784773 </v>
   <v>       0.01523540       0.02645274      -0.01533337 </v>
   <v>      -0.00062633      -0.02376377       0.11999423 </v>
   <v>       0.01462378       0.01427739      -0.03097518 </v>
   <v>      -0.02014860       0.04463743       0.05273621 </v>
   <v>      -0.01695752      -0.04960140      -0.04673579 </v>
   <v>       0.00649070       0.02735621      -0.01704575 </v>
   <v>       0.02857344      -0.01597408      -0.03791360 </v>
  </varray>
  <energy>
   <i name="e_fr_energy">    -61.59104389 </i>
   <i name="e_wo_entrp">    -61.63666468 </i>
   <i name="e_0_energy">    -61.60625082 </i>
  </energy>
  <time name="totalsc"> 1689.33 1703.15</time>
 </calculation>
 <calculation>
  <scstep>
   <time name="dav">   50.99   51.27</time>
   <time name="total">   59.41   59.77</time>
   <energy>
    <i name="alphaZ">      9.40199815 </i>
    <i name="ewald">  26338.26107401 </i>
    <i name="hartreedc"> -38893.01556204 </i>
    <i name="XCdc">   -481.39194912 </i>
    <i name="pawpsdc">  14629.02451931 </i>
    <i name="pawaedc"> -13650.50692659 </i>
    <i name="eentropy">      0.04687418 </i>
    <i name="bandstr">   -969.30738929 </i>
    <i name="atom">  12955.90228127 </i>
    <i name="e_fr_energy">    -61.58508012 </i>
    <i name="e_wo_entrp">    -61.63195430 </i>
    <i name="e_0_energy">    -61.60070485 </i>
   </energy>
  </scstep>
  <scstep>
   <time name="dav">   50.45   51.05</time>
   <time name="total">   58.76   59.40</time>
   <energy>
    <i name="e_fr_energy">    -61.59497295 </i>
    <i name="e_wo_entrp">    -61.64291043 </i>
    <i name="e_0_energy">    -61.61095211 </i>
   </energy>
  </scstep>
  <scstep>
   <time name="dav">   51.99   52.32</time>
   <time name="total">   60.37   60.75</time>
   <energy>
    <i name="e_fr_energy">    -61.59190477 </i>
    <i name="e_wo_entrp">    -61.63922947 </i>
    <i name="e_0_energy">    -61.60767967 </i>
   </energy>
  </scstep>
  <scstep>
   <time name="dav">   51.88   52.09</time>
   <time name="total">   60.18   60.47</time>
   <energy>
    <i name="e_fr_energy">    -61.59190520 </i>
    <i name="e_wo_entrp">    -61.63942202 </i>
    <i name="e_0_energy">    -61.60774414 </i>
   </energy>
  </scstep>
  <scstep>
   <time name="dav">   49.31   49.78</time>
   <time name="total">   57.62   58.16</time>
   <energy>
    <i name="e_fr_energy">    -61.59119875 </i>
    <i name="e_wo_entrp">    -61.63913670 </i>
    <i name="e_0_energy">    -61.60717807 </i>
   </energy>
  </scstep>
  <scstep>
   <time name="dav">   45.72   46.95</time>
   <time name="total">   54.05   55.38</time>
   <energy>
    <i name="e_fr_energy">    -61.59095570 </i>
    <i name="e_wo_entrp">    -61.63807247 </i>
    <i name="e_0_energy">    -61.60666129 </i>
   </energy>
  </scstep>
  <scstep>
   <time name="dav">   55.66   56.04</time>
   <time name="total">   63.88   64.27</time>
   <energy>
    <i name="e_fr_energy">    -61.58942564 </i>
    <i name="e_wo_entrp">    -61.63722888 </i>
    <i name="e_0_energy">    -61.60536005 </i>
   </energy>
  </scstep>
  <scstep>
   <time name="dav">   41.99   42.29</time>
   <time name="total">   50.22   50.57</time>
   <energy>
    <i name="e_fr_energy">    -61.58866830 </i>
    <i name="e_wo_entrp">    -61.63624358 </i>
    <i name="e_0_energy">    -61.60452673 </i>
   </energy>
  </scstep>
  <scstep>
   <time name="dav">   35.00   35.30</time>
   <time name="total">   43.41   43.79</time>
   <energy>
    <i name="e_fr_energy">    -61.58850133 </i>
    <i name="e_wo_entrp">    -61.63618914 </i>
    <i name="e_0_energy">    -61.60439727 </i>
   </energy>
  </scstep>
  <scstep>
   <time name="dav">   37.84   38.02</time>
   <time name="total">   43.15   43.39</time>
   <energy>
    <i name="alphaZ">      9.40199815 </i>
    <i name="ewald">  26338.26107401 </i>
    <i name="hartreedc"> -38892.74873693 </i>
    <i name="XCdc">   -481.40099655 </i>
    <i name="pawpsdc">  14635.82559111 </i>
    <i name="pawaedc"> -13657.40384766 </i>
    <i name="eentropy">      0.04767601 </i>
    <i name="bandstr">   -969.47351557 </i>
    <i name="atom">  12955.90228127 </i>
    <i name="e_fr_energy">    -61.58847616 </i>
    <i name="e_wo_entrp">    -61.63615217 </i>
    <i name="e_0_energy">    -61.60436816 </i>
   </energy>
  </scstep>
  <structure>
   <crystal>
    <varray name="basis" >
     <v>      27.09995489       0.00000000       0.00000000 </v>
     <v>       0.00000000      23.57056892       0.00000000 </v>
     <v>       0.00000000       0.00000000      27.78201299 </v>
    </varray>
    <i name="volume">  17746.07624397 </i>
    <varray name="rec_basis" >
     <v>       0.03690043       0.00000000       0.00000000 </v>
     <v>       0.00000000       0.04242579       0.00000000 </v>
     <v>       0.00000000       0.00000000       0.03599451 </v>
    </varray>
   </crystal>
   <varray name="positions" >
    <v>       0.54071903       0.45238614       0.54557542 </v>
    <v>       0.55211998       0.44401816       0.45420411 </v>
    <v>       0.49686386       0.53741417       0.49295796 </v>
    <v>       0.57564202       0.56817035       0.54037105 </v>
    <v>       0.50580978       0.42282763       0.37088003 </v>
    <v>       0.62837184       0.48096724       0.50493996 </v>
    <v>       0.44557797       0.45969451       0.54174496 </v>
    <v>       0.56257161       0.47681924       0.63514314 </v>
    <v>       0.45653808       0.44947993       0.44910674 </v>
    <v>       0.64472106       0.52305306       0.59467526 </v>
    <v>       0.50047841       0.53242877       0.39545763 </v>
    <v>       0.49116710       0.54129611       0.58999107 </v>
    <v>       0.58363067       0.55579530       0.44722473 </v>
    <v>       0.62461414       0.41562617       0.58235906 </v>
    <v>       0.57007867       0.58683734       0.63261067 </v>
    <v>       0.58724394       0.48744939       0.37359682 </v>
   </varray>
  </structure>
  <varray name="forces" >
   <v>      -0.01102751      -0.01061056       0.00175526 </v>
   <v>       0.07807856      -0.02636559      -0.02835215 </v>
   <v>      -0.01675039      -0.02431903      -0.05731974 </v>
   <v>      -0.00283692      -0.03932130       0.05056772 </v>
   <v>       0.03488678       0.07588831       0.03538969 </v>
   <v>      -0.00214438       0.00756121      -0.00287279 </v>
   <v>      -0.00866778       0.05438476       0.03562511 </v>
   <v>      -0.06842059       0.03028718      -0.07903140 </v>
   <v>      -0.06383461      -0.06965505       0.01102893 </v>
   <v>       0.01168679       0.04288476      -0.00623406 </v>
   <v>       0.00130200      -0.03982501       0.14872300 </v>
   <v>       0.02886052       0.00350738      -0.02043132 </v>
   <v>      -0.01404358       0.05574775       0.04096920 </v>
   <v>      -0.01772366      -0.07654697      -0.04966686 </v>
   <v>       0.01657456       0.04560446      -0.01550197 </v>
   <v>       0.03406018      -0.02922231      -0.06464861 </v>
  </varray>
  <energy>
   <i name="e_fr_energy">    -61.58847616 </i>
   <i name="e_wo_entrp">    -61.63615217 </i>
   <i name="e_0_energy">    -61.60436816 </i>
  </energy>
  <time name="totalsc">  575.80  581.14</time>
 </calculation>
 <calculation>
  <scstep>
   <time name="dav">   50.58   50.79</time>
   <time name="total">   59.15   59.39</time>
   <energy>
    <i name="alphaZ">      9.40199815 </i>
    <i name="ewald">  26368.19256822 </i>
    <i name="hartreedc"> -38922.51380408 </i>
    <i name="XCdc">   -481.36200790 </i>
    <i name="pawpsdc">  14635.86089819 </i>
    <i name="pawaedc"> -13657.43908341 </i>
    <i name="eentropy">      0.04920877 </i>
    <i name="bandstr">   -969.67516921 </i>
    <i name="atom">  12955.90228127 </i>
    <i name="e_fr_energy">    -61.58311001 </i>
    <i name="e_wo_entrp">    -61.63231878 </i>
    <i name="e_0_energy">    -61.59951294 </i>
   </energy>
  </scstep>
  <scstep>
   <time name="dav">   51.28   51.75</time>
   <time name="total">   59.78   60.49</time>
   <energy>
    <i name="e_fr_energy">    -61.60599020 </i>
    <i name="e_wo_entrp">    -61.65304070 </i>
    <i name="e_0_energy">    -61.62167370 </i>
   </energy>
  </scstep>
  <scstep>
   <time name="dav">   51.72   52.03</time>
   <time name="total">   60.24   60.77</time>
   <energy>
    <i name="e_fr_energy">    -61.59648422 </i>
    <i name="e_wo_entrp">    -61.64546678 </i>
    <i name="e_0_energy">    -61.61281174 </i>
   </energy>
  </scstep>
  <scstep>
   <time name="dav">   50.35   50.72</time>
   <time name="total">   59.34   59.82</time>
   <energy>
    <i name="e_fr_energy">    -61.59728677 </i>
    <i name="e_wo_entrp">    -61.64484924 </i>
    <i name="e_0_energy">    -61.61314093 </i>
   </energy>
  </scstep>
  <scstep>
   <time name="dav">   49.72   49.83</time>
   <time name="total">   57.84   58.13</time>
   <energy>
    <i name="e_fr_energy">    -61.59600939 </i>
    <i name="e_wo_entrp">    -61.64542576 </i>
    <i name="e_0_energy">    -61.61248152 </i>
   </energy>
  </scstep>
  <scstep>
   <time name="dav">   51.36   51.68</time>
   <time name="total">   60.49   61.18</time>
   <energy>
    <i name="e_fr_energy">    -61.59573227 </i>
    <i name="e_wo_entrp">    -61.64435853 </i>
    <i name="e_0_energy">    -61.61194102 </i>
   </energy>
  </scstep>
  <scstep>
   <time name="dav">   50.31   51.40</time>
   <time name="total">   58.63   59.82</time>
   <energy>
    <i name="e_fr_energy">    -61.59545517 </i>
    <i name="e_wo_entrp">    -61.64383383 </i>
    <i name="e_0_energy">    -61.61158139 </i>
   </energy>
  </scstep>
  <scstep>
   <time name="dav">   49.92   49.98</time>
   <time name="total">   58.86   59.04</time>
   <energy>
    <i name="e_fr_energy">    -61.59476635 </i>
    <i name="e_wo_entrp">    -61.64388430 </i>
    <i name="e_0_energy">    -61.61113900 </i>
   </energy>
  </scstep>
  <scstep>
   <time name="dav">   35.86   36.19</time>
   <time name="total">   41.35   41.69</time>
   <energy>
    <i name="alphaZ">      9.40199815 </i>
    <i name="ewald">  26368.19256822 </i>
    <i name="hartreedc"> -38922.30174654 </i>
    <i name="XCdc">   -481.36928067 </i>
    <i name="pawpsdc">  14641.42955527 </i>
    <i name="pawaedc"> -13663.08671798 </i>
    <i name="eentropy">      0.04890816 </i>
    <i name="bandstr">   -969.81236608 </i>
    <i name="atom">  12955.90228127 </i>
    <i name="e_fr_energy">    -61.59480021 </i>
    <i name="e_wo_entrp">    -61.64370837 </i>
    <i name="e_0_energy">    -61.61110293 </i>
   </energy>
  </scstep>
  <structure>
   <crystal>
    <varray name="basis" >
     <v>      27.09995489       0.00000000       0.00000000 </v>
     <v>       0.00000000      23.57056892       0.00000000 </v>
     <v>       0.00000000       0.00000000      27.78201299 </v>
    </varray>
    <i name="volume">  17746.07624397 </i>
    <varray name="rec_basis" >
     <v>       0.03690043       0.00000000       0.00000000 </v>
     <v>       0.00000000       0.04242579       0.00000000 </v>
     <v>       0.00000000       0.00000000       0.03599451 </v>
    </varray>
   </crystal>
   <varray name="positions" >
    <v>       0.54052900       0.45215764       0.54549178 </v>
    <v>       0.55261088       0.44369109       0.45419162 </v>
    <v>       0.49700122       0.53723394       0.49282229 </v>
    <v>       0.57571449       0.56789188       0.54057405 </v>
    <v>       0.50585028       0.42321629       0.37102577 </v>
    <v>       0.62825615       0.48093964       0.50483807 </v>
    <v>       0.44550533       0.45991302       0.54204062 </v>
    <v>       0.56215705       0.47705220       0.63450161 </v>
    <v>       0.45669244       0.44911315       0.44943197 </v>
    <v>       0.64489157       0.52316548       0.59452088 </v>
    <v>       0.50044747       0.53238644       0.39595668 </v>
    <v>       0.49108702       0.54157637       0.58978250 </v>
    <v>       0.58350705       0.55614656       0.44746925 </v>
    <v>       0.62452999       0.41535412       0.58208898 </v>
    <v>       0.57002428       0.58698301       0.63248736 </v>
    <v>       0.58734396       0.48744267       0.37361522 </v>
   </varray>
  </structure>
  <varray name="forces" >
   <v>      -0.00954750      -0.02895022      -0.03858397 </v>
   <v>       0.02847288      -0.01854526      -0.04783083 </v>
   <v>      -0.01751260      -0.02073540      -0.00239992 </v>
   <v>      -0.02157352      -0.02304982       0.02016490 </v>
   <v>       0.03486294       0.04324714       0.02126172 </v>
   <v>       0.02773565       0.00535608       0.01660881 </v>
   <v>      -0.02230280       0.04869599       0.02244145 </v>
   <v>      -0.02523670       0.01409016      -0.04142629 </v>
   <v>      -0.04655735      -0.07893111       0.01431089 </v>
   <v>       0.00492131      -0.01136613       0.00491219 </v>
   <v>       0.00354826      -0.02970123       0.10253445 </v>
   <v>       0.01555228       0.02327452      -0.00820948 </v>
   <v>       0.00929225       0.02710141      -0.00643778 </v>
   <v>      -0.02430141      -0.02141776      -0.03752987 </v>
   <v>       0.01989836       0.06076712       0.00786602 </v>
   <v>       0.02274792       0.01016450      -0.02768232 </v>
  </varray>
  <energy>
   <i name="e_fr_energy">    -61.59480021 </i>
   <i name="e_wo_entrp">    -61.64370837 </i>
   <i name="e_0_energy">    -61.61110293 </i>
  </energy>
  <time name="totalsc">  540.56  545.35</time>
 </calculation>
 <calculation>
  <scstep>
   <time name="dav">   49.72   50.21</time>
   <time name="total">   58.00   58.52</time>
   <energy>
    <i name="alphaZ">      9.40199815 </i>
    <i name="ewald">  26407.03349460 </i>
    <i name="hartreedc"> -38960.89367837 </i>
    <i name="XCdc">   -481.31744518 </i>
    <i name="pawpsdc">  14641.47163206 </i>
    <i name="pawaedc"> -13663.12911571 </i>
    <i name="eentropy">      0.05053756 </i>
    <i name="bandstr">   -970.09467658 </i>
    <i name="atom">  12955.90228127 </i>
    <i name="e_fr_energy">    -61.57497221 </i>
    <i name="e_wo_entrp">    -61.62550976 </i>
    <i name="e_0_energy">    -61.59181806 </i>
   </energy>
  </scstep>
  <scstep>
   <time name="dav">   50.85   51.13</time>
   <time name="total">   59.67   59.97</time>
   <energy>
    <i name="e_fr_energy">    -61.61482594 </i>
    <i name="e_wo_entrp">    -61.66198911 </i>
    <i name="e_0_energy">    -61.63054699 </i>
   </energy>
  </scstep>
  <scstep>
   <time name="dav">   51.79   52.18</time>
   <time name="total">   60.25   60.66</time>
   <energy>
    <i name="e_fr_energy">    -61.59862923 </i>
    <i name="e_wo_entrp">    -61.64894594 </i>
    <i name="e_0_energy">    -61.61540147 </i>
   </energy>
  </scstep>
  <scstep>
   <time name="dav">   51.21   51.51</time>
   <time name="total">   59.57   59.91</time>
   <energy>
    <i name="e_fr_energy">    -61.59991008 </i>
    <i name="e_wo_entrp">    -61.64798830 </i>
    <i name="e_0_energy">    -61.61593615 </i>
   </energy>
  </scstep>
  <scstep>
   <time name="dav">   49.09   49.45</time>
   <time name="total">   58.86   59.27</time>
   <energy>
    <i name="e_fr_energy">    -61.59791879 </i>
    <i name="e_wo_entrp">    -61.64879384 </i>
    <i name="e_0_energy">    -61.61487714 </i>
   </energy>
  </scstep>
  <scstep>
   <time name="dav">   50.64   51.05</time>
   <time name="total">   59.18   59.64</time>
   <energy>
    <i name="e_fr_energy">    -61.59747246 </i>
    <i name="e_wo_entrp">    -61.64721548 </i>
    <i name="e_0_energy">    -61.61405346 </i>
   </energy>
  </scstep>
  <scstep>
   <time name="dav">   51.77   52.08</time>
   <time name="total">   60.27   60.60</time>
   <energy