unknown system                          
            1
    27.099955    0.000000    0.000000
     0.000000   23.570569    0.000000
     0.000000    0.000000   27.782013
   Pd
    16
Direct configuration=     1
   0.54234920  0.45598492  0.54675558
   0.55016944  0.44836407  0.45283459
   0.49580713  0.53615366  0.49205173
   0.57440023  0.56694491  0.54078222
   0.50744740  0.42440522  0.37172366
   0.62771843  0.48200128  0.50671709
   0.44699541  0.46094216  0.53980888
   0.56441318  0.47764434  0.63618429
   0.45369896  0.45066880  0.44665458
   0.64168835  0.52262924  0.59555286
   0.50216147  0.52875120  0.39742401
   0.49486399  0.53786043  0.59049699
   0.58319742  0.55314160  0.44668537
   0.62404025  0.41728817  0.58285007
   0.57117851  0.58532273  0.63224557
   0.58601882  0.48616079  0.37207113
Direct configuration=     2
   0.54207718  0.45470267  0.54584300
   0.55086376  0.44666354  0.45410776
   0.49568632  0.53724718  0.49237803
   0.57463704  0.56795348  0.53996703
   0.50676220  0.42282968  0.37077400
   0.62828676  0.48176104  0.50592008
   0.44635071  0.46040125  0.54018241
   0.56390510  0.47665053  0.63730973
   0.45313700  0.45005533  0.44704579
   0.64311268  0.52330927  0.59567166
   0.50108676  0.53074816  0.39658786
   0.49346023  0.53869467  0.59071703
   0.58381391  0.55442526  0.44712865
   0.62451374  0.41574845  0.58292031
   0.57109085  0.58674972  0.63298800
   0.58736394  0.48632330  0.37129727
Direct configuration=     3
   0.54200896  0.45438111  0.54561414
   0.55103788  0.44623707  0.45442705
   0.49565602  0.53752141  0.49245985
   0.57469643  0.56820642  0.53976260
   0.50659036  0.42243456  0.37053584
   0.62842928  0.48170079  0.50572021
   0.44618903  0.46026559  0.54027609
   0.56377769  0.47640130  0.63759197
   0.45299607  0.44990148  0.44714390
   0.64346988  0.52347981  0.59570146
   0.50081724  0.53124896  0.39637817
   0.49310819  0.53890388  0.59077222
   0.58396851  0.55474717  0.44723982
   0.62463249  0.41536231  0.58293793
   0.57106886  0.58710758  0.63317419
   0.58770127  0.48636405  0.37110320
Direct configuration=     4
   0.54182341  0.45395299  0.54587376
   0.55102502  0.44577811  0.45401361
   0.49561954  0.53767742  0.49243028
   0.57490300  0.56848633  0.54004731
   0.50651386  0.42251130  0.37068364
   0.62873064  0.48153282  0.50561569
   0.44600501  0.46008622  0.54051803
   0.56361415  0.47632061  0.63740900
   0.45347167  0.44983207  0.44724065
   0.64370463  0.52353426  0.59559703
   0.50076209  0.53139237  0.39618515
   0.49275789  0.53926687  0.59078365
   0.58400918  0.55497438  0.44697438
   0.62466316  0.41524011  0.58288514
   0.57095474  0.58717533  0.63308966
   0.58759018  0.48650230  0.37149165
Direct configuration=     5
   0.54163143  0.45351004  0.54614237
   0.55101170  0.44530325  0.45358585
   0.49558180  0.53783884  0.49239967
   0.57511672  0.56877594  0.54034189
   0.50643471  0.42259070  0.37083657
   0.62904244  0.48135902  0.50550756
   0.44581461  0.45990064  0.54076835
   0.56344494  0.47623714  0.63721968
   0.45396375  0.44976025  0.44734074
   0.64394753  0.52359060  0.59548899
   0.50070502  0.53154076  0.39598544
   0.49239546  0.53964243  0.59079547
   0.58405126  0.55520946  0.44669975
   0.62469489  0.41511367  0.58283053
   0.57083667  0.58724542  0.63300221
   0.58747525  0.48664534  0.37189355
Direct configuration=     6
   0.54144562  0.45328116  0.54602691
   0.55123740  0.44504155  0.45371176
   0.49584289  0.53775235  0.49251337
   0.57522370  0.56865261  0.54034783
   0.50630745  0.42263895  0.37084542
   0.62890587  0.48127924  0.50539197
   0.44576642  0.45985866  0.54096723
   0.56326709  0.47635568  0.63679680
   0.45448801  0.44970317  0.44770038
   0.64410505  0.52348113  0.59532328
   0.50065887  0.53172160  0.39587796
   0.49214531  0.53997919  0.59063166
   0.58396561  0.55532877  0.44680666
   0.62467844  0.41521804  0.58273452
   0.57068230  0.58716232  0.63292247
   0.58742814  0.48680908  0.37224042
Direct configuration=     7
   0.54088820  0.45259452  0.54568054
   0.55191449  0.44425643  0.45408948
   0.49662615  0.53749291  0.49285445
   0.57554463  0.56828263  0.54036564
   0.50592565  0.42278370  0.37087197
   0.62849618  0.48103988  0.50504520
   0.44562184  0.45973273  0.54156389
   0.56273354  0.47671131  0.63552816
   0.45606077  0.44953191  0.44877930
   0.64457764  0.52315272  0.59482613
   0.50052043  0.53226412  0.39555549
   0.49139486  0.54098950  0.59014021
   0.58370866  0.55568668  0.44712740
   0.62462911  0.41553115  0.58244648
   0.57021921  0.58691300  0.63268327
   0.58728682  0.48730031  0.37328102
Direct configuration=     8
   0.54071903  0.45238614  0.54557542
   0.55211998  0.44401816  0.45420411
   0.49686386  0.53741417  0.49295796
   0.57564202  0.56817035  0.54037105
   0.50580978  0.42282763  0.37088003
   0.62837184  0.48096724  0.50493996
   0.44557797  0.45969451  0.54174496
   0.56257161  0.47681924  0.63514314
   0.45653808  0.44947993  0.44910674
   0.64472106  0.52305306  0.59467526
   0.50047841  0.53242877  0.39545763
   0.49116710  0.54129611  0.58999107
   0.58363067  0.55579530  0.44722473
   0.62461414  0.41562617  0.58235906
   0.57007867  0.58683734  0.63261067
   0.58724394  0.48744939  0.37359682
Direct configuration=     9
   0.54052900  0.45215764  0.54549178
   0.55261088  0.44369109  0.45419162
   0.49700122  0.53723394  0.49282229
   0.57571449  0.56789188  0.54057405
   0.50585028  0.42321629  0.37102577
   0.62825615  0.48093964  0.50483807
   0.44550533  0.45991302  0.54204062
   0.56215705  0.47705220  0.63450161
   0.45669244  0.44911315  0.44943197
   0.64489157  0.52316548  0.59452088
   0.50044747  0.53238644  0.39595668
   0.49108702  0.54157637  0.58978250
   0.58350705  0.55614656  0.44746925
   0.62452999  0.41535412  0.58208898
   0.57002428  0.58698301  0.63248736
   0.58734396  0.48744267  0.37361522
