  10  10   0   0
  0.1231970E+04  0.2292112E-08  0.2372708E-08  0.2265269E-08  0.5000000E-15
   1.0000000000000000E-004
  CAR 
 unknown system                          
      1.80053255    -11.96386580  301     -4.13785569      1.00000000
    -11.964  0.0000E+00  0.0000E+00  0.0000E+00  0.0000E+00
    -11.918  0.0000E+00  0.0000E+00  0.0000E+00  0.0000E+00
    -11.872  0.0000E+00  0.0000E+00  0.0000E+00  0.0000E+00
    -11.826  0.0000E+00  0.0000E+00  0.0000E+00  0.0000E+00
    -11.780  0.0000E+00  0.0000E+00  0.0000E+00  0.0000E+00
    -11.734  0.0000E+00  0.0000E+00  0.0000E+00  0.0000E+00
    -11.689  0.0000E+00  0.0000E+00  0.0000E+00  0.0000E+00
    -11.643  0.0000E+00  0.0000E+00  0.0000E+00  0.0000E+00
    -11.597 -0.5614E-30  0.0000E+00 -0.2576E-31  0.0000E+00
    -11.551 -0.2136E-28 -0.4114E-30 -0.1006E-29 -0.1888E-31
    -11.505 -0.7482E-27 -0.1580E-28 -0.3533E-28 -0.7438E-30
    -11.459 -0.2356E-25 -0.5583E-27 -0.1116E-26 -0.2636E-28
    -11.413 -0.6666E-24 -0.1773E-25 -0.3170E-25 -0.8400E-27
    -11.367 -0.1696E-22 -0.5063E-24 -0.8097E-24 -0.2407E-25
    -11.322 -0.3876E-21 -0.1299E-22 -0.1859E-22 -0.6203E-24
    -11.276 -0.7962E-20 -0.2997E-21 -0.3839E-21 -0.1437E-22
    -11.230 -0.1469E-18 -0.6212E-20 -0.7126E-20 -0.2994E-21
    -11.184 -0.2436E-17 -0.1157E-18 -0.1189E-18 -0.5607E-20
    -11.138 -0.3506E-16 -0.1935E-17 -0.1728E-17 -0.9438E-19
    -11.092 -0.4704E-15 -0.2786E-16 -0.2331E-16 -0.1373E-17
    -11.046 -0.5623E-14 -0.3801E-15 -0.2813E-15 -0.1881E-16
    -11.000 -0.6038E-13 -0.4589E-14 -0.3051E-14 -0.2294E-15
    -10.954 -0.5813E-12 -0.4973E-13 -0.2972E-13 -0.2511E-14
    -10.909 -0.5017E-11 -0.4832E-12 -0.2599E-12 -0.2468E-13
    -10.863 -0.3879E-10 -0.4209E-11 -0.2040E-11 -0.2178E-12
    -10.817 -0.2685E-09 -0.3284E-10 -0.1436E-10 -0.1724E-11
    -10.771 -0.1662E-08 -0.2294E-09 -0.9062E-10 -0.1225E-10
    -10.725 -0.9196E-08 -0.1434E-08 -0.5125E-09 -0.7803E-10
    -10.679 -0.4540E-07 -0.8006E-08 -0.2596E-08 -0.4454E-09
    -10.633 -0.1997E-06 -0.3991E-07 -0.1176E-07 -0.2276E-08
    -10.587 -0.7814E-06 -0.1773E-06 -0.4761E-07 -0.1041E-07
    -10.542 -0.2710E-05 -0.7004E-06 -0.1719E-06 -0.4255E-07
    -10.496 -0.8300E-05 -0.2454E-05 -0.5528E-06 -0.1551E-06
    -10.450 -0.2232E-04 -0.7597E-05 -0.1577E-05 -0.5037E-06
    -10.404 -0.5223E-04 -0.2066E-04 -0.3973E-05 -0.1452E-05
    -10.358 -0.1047E-03 -0.4892E-04 -0.8776E-05 -0.3696E-05
    -10.312 -0.1745E-03 -0.9943E-04 -0.1678E-04 -0.8258E-05
    -10.266 -0.2252E-03 -0.1686E-03 -0.2712E-04 -0.1599E-04
    -10.220 -0.1715E-03 -0.2234E-03 -0.3498E-04 -0.2625E-04
    -10.174  0.1130E-03 -0.1829E-03 -0.2980E-04 -0.3464E-04
    -10.129  0.7394E-03  0.7723E-04  0.4127E-05 -0.3109E-04
    -10.083  0.1709E-02  0.6729E-03  0.8255E-04 -0.2205E-06
    -10.037  0.2839E-02  0.1618E-02  0.2128E-03  0.7403E-04
     -9.991  0.3786E-02  0.2746E-02  0.3865E-03  0.2000E-03
     -9.945  0.4198E-02  0.3723E-02  0.5791E-03  0.3708E-03
     -9.899  0.3908E-02  0.4190E-02  0.7584E-03  0.5631E-03
     -9.853  0.3035E-02  0.3958E-02  0.8977E-03  0.7447E-03
     -9.807  0.1911E-02  0.3123E-02  0.9853E-03  0.8880E-03
     -9.762  0.8926E-03  0.2005E-02  0.1026E-02  0.9800E-03
     -9.716  0.1991E-03  0.9669E-03  0.1035E-02  0.1024E-02
     -9.670 -0.1409E-03  0.2428E-03  0.1029E-02  0.1035E-02
     -9.624 -0.2265E-03 -0.1241E-03  0.1019E-02  0.1030E-02
     -9.578 -0.1869E-03 -0.2258E-03  0.1010E-02  0.1019E-02
     -9.532 -0.1166E-03 -0.1923E-03  0.1005E-02  0.1011E-02
     -9.486 -0.5997E-04 -0.1223E-03  0.1002E-02  0.1005E-02
     -9.440 -0.2632E-04 -0.6380E-04  0.1001E-02  0.1002E-02
     -9.395 -0.1003E-04 -0.2835E-04  0.1000E-02  0.1001E-02
     -9.349 -0.3352E-05 -0.1093E-04  0.1000E-02  0.1000E-02
     -9.303 -0.9905E-06 -0.3691E-05  0.1000E-02  0.1000E-02
     -9.257 -0.2714E-06 -0.1099E-05  0.1000E-02  0.1000E-02
     -9.211 -0.1243E-06 -0.2900E-06  0.1000E-02  0.1000E-02
     -9.165 -0.2898E-06 -0.6799E-07  0.1000E-02  0.1000E-02
     -9.119 -0.1067E-05 -0.1421E-07  0.9999E-03  0.1000E-02
     -9.073 -0.3627E-05 -0.2750E-08  0.9998E-03  0.1000E-02
     -9.027 -0.1094E-04 -0.1132E-08  0.9993E-03  0.1000E-02
     -8.982 -0.2907E-04 -0.4113E-08  0.9979E-03  0.1000E-02
     -8.936 -0.6757E-04 -0.2116E-07  0.9948E-03  0.1000E-02
     -8.890 -0.1357E-03 -0.9862E-07  0.9886E-03  0.1000E-02
     -8.844 -0.2299E-03 -0.4095E-06  0.9781E-03  0.1000E-02
     -8.798 -0.3118E-03 -0.1511E-05  0.9638E-03  0.9999E-03
     -8.752 -0.2855E-03 -0.4944E-05  0.9507E-03  0.9997E-03
     -8.706  0.3066E-05 -0.1427E-04  0.9508E-03  0.9990E-03
     -8.660  0.7185E-03 -0.3617E-04  0.9838E-03  0.9974E-03
     -8.615  0.1942E-02 -0.7969E-04  0.1073E-02  0.9937E-03
     -8.569  0.3573E-02 -0.1502E-03  0.1237E-02  0.9868E-03
     -8.523  0.5296E-02 -0.2349E-03  0.1480E-02  0.9760E-03
     -8.477  0.6655E-02 -0.2813E-03  0.1785E-02  0.9631E-03
     -8.431  0.7229E-02 -0.1846E-03  0.2117E-02  0.9547E-03
     -8.385  0.6806E-02  0.1951E-03  0.2429E-02  0.9636E-03
     -8.339  0.5481E-02  0.9728E-03  0.2681E-02  0.1008E-02
     -8.293  0.3633E-02  0.2158E-02  0.2847E-02  0.1107E-02
     -8.247  0.1802E-02  0.3604E-02  0.2930E-02  0.1273E-02
     -8.202  0.5438E-03  0.5033E-02  0.2955E-02  0.1504E-02
     -8.156  0.3037E-03  0.6124E-02  0.2969E-02  0.1785E-02
     -8.110  0.1309E-02  0.6624E-02  0.3029E-02  0.2088E-02
     -8.064  0.3470E-02  0.6415E-02  0.3188E-02  0.2383E-02
     -8.018  0.6329E-02  0.5542E-02  0.3478E-02  0.2637E-02
     -7.972  0.9146E-02  0.4201E-02  0.3898E-02  0.2830E-02
     -7.926  0.1115E-01  0.2684E-02  0.4410E-02  0.2953E-02
     -7.880  0.1184E-01  0.1281E-02  0.4953E-02  0.3012E-02
     -7.835  0.1120E-01  0.1890E-03  0.5467E-02  0.3020E-02
     -7.789  0.9696E-02 -0.5208E-03  0.5912E-02  0.2997E-02
     -7.743  0.8106E-02 -0.8375E-03  0.6284E-02  0.2958E-02
     -7.697  0.7301E-02 -0.7039E-03  0.6619E-02  0.2926E-02
     -7.651  0.7924E-02  0.3709E-04  0.6982E-02  0.2927E-02
     -7.605  0.1005E-01  0.1571E-02  0.7443E-02  0.3000E-02
     -7.559  0.1296E-01  0.3945E-02  0.8037E-02  0.3181E-02
     -7.513  0.1537E-01  0.6914E-02  0.8743E-02  0.3498E-02
     -7.467  0.1607E-01  0.9932E-02  0.9480E-02  0.3953E-02
     -7.422  0.1462E-01  0.1230E-01  0.1015E-01  0.4518E-02
     -7.376  0.1160E-01  0.1342E-01  0.1068E-01  0.5134E-02
     -7.330  0.8200E-02  0.1300E-01  0.1106E-01  0.5730E-02
     -7.284  0.5488E-02  0.1116E-01  0.1131E-01  0.6242E-02
     -7.238  0.3867E-02  0.8477E-02  0.1149E-01  0.6631E-02
     -7.192  0.3173E-02  0.5740E-02  0.1163E-01  0.6895E-02
     -7.146  0.3091E-02  0.3694E-02  0.1178E-01  0.7064E-02
     -7.100  0.3489E-02  0.2714E-02  0.1194E-01  0.7189E-02
     -7.055  0.4390E-02  0.2688E-02  0.1214E-01  0.7312E-02
     -7.009  0.5735E-02  0.3174E-02  0.1240E-01  0.7458E-02
     -6.963  0.7259E-02  0.3729E-02  0.1273E-01  0.7629E-02
     -6.917  0.8638E-02  0.4168E-02  0.1313E-01  0.7820E-02
     -6.871  0.9758E-02  0.4588E-02  0.1358E-01  0.8030E-02
     -6.825  0.1081E-01  0.5188E-02  0.1407E-01  0.8268E-02
     -6.779  0.1210E-01  0.6080E-02  0.1463E-01  0.8547E-02
     -6.733  0.1375E-01  0.7252E-02  0.1526E-01  0.8880E-02
     -6.688  0.1554E-01  0.8637E-02  0.1597E-01  0.9276E-02
     -6.642  0.1699E-01  0.1016E-01  0.1675E-01  0.9742E-02
     -6.596  0.1760E-01  0.1163E-01  0.1756E-01  0.1028E-01
     -6.550  0.1716E-01  0.1270E-01  0.1835E-01  0.1086E-01
     -6.504  0.1580E-01  0.1292E-01  0.1907E-01  0.1145E-01
     -6.458  0.1400E-01  0.1209E-01  0.1971E-01  0.1201E-01
     -6.412  0.1237E-01  0.1044E-01  0.2028E-01  0.1249E-01
     -6.366  0.1136E-01  0.8659E-02  0.2080E-01  0.1288E-01
     -6.320  0.1110E-01  0.7398E-02  0.2131E-01  0.1322E-01
     -6.275  0.1132E-01  0.6893E-02  0.2183E-01  0.1354E-01
     -6.229  0.1152E-01  0.6904E-02  0.2236E-01  0.1386E-01
     -6.183  0.1127E-01  0.7118E-02  0.2288E-01  0.1418E-01
     -6.137  0.1040E-01  0.7621E-02  0.2335E-01  0.1453E-01
     -6.091  0.9075E-02  0.8940E-02  0.2377E-01  0.1494E-01
     -6.045  0.7631E-02  0.1156E-01  0.2412E-01  0.1547E-01
     -5.999  0.6474E-02  0.1531E-01  0.2442E-01  0.1617E-01
     -5.953  0.5977E-02  0.1917E-01  0.2469E-01  0.1705E-01
     -5.908  0.6444E-02  0.2173E-01  0.2499E-01  0.1805E-01
     -5.862  0.8049E-02  0.2203E-01  0.2536E-01  0.1906E-01
     -5.816  0.1077E-01  0.2012E-01  0.2585E-01  0.1999E-01
     -5.770  0.1436E-01  0.1696E-01  0.2651E-01  0.2076E-01
     -5.724  0.1841E-01  0.1394E-01  0.2735E-01  0.2140E-01
     -5.678  0.2246E-01  0.1216E-01  0.2839E-01  0.2196E-01
     -5.632  0.2602E-01  0.1212E-01  0.2958E-01  0.2252E-01
     -5.586  0.2864E-01  0.1372E-01  0.3089E-01  0.2315E-01
     -5.540  0.2987E-01  0.1639E-01  0.3226E-01  0.2390E-01
     -5.495  0.2940E-01  0.1935E-01  0.3361E-01  0.2479E-01
     -5.449  0.2733E-01  0.2168E-01  0.3487E-01  0.2578E-01
     -5.403  0.2435E-01  0.2259E-01  0.3598E-01  0.2682E-01
     -5.357  0.2163E-01  0.2165E-01  0.3698E-01  0.2781E-01
     -5.311  0.2033E-01  0.1905E-01  0.3791E-01  0.2868E-01
     -5.265  0.2100E-01  0.1545E-01  0.3887E-01  0.2939E-01
     -5.219  0.2324E-01  0.1180E-01  0.3994E-01  0.2993E-01
     -5.173  0.2598E-01  0.9012E-02  0.4113E-01  0.3035E-01
     -5.128  0.2811E-01  0.7761E-02  0.4242E-01  0.3070E-01
     -5.082  0.2907E-01  0.8426E-02  0.4375E-01  0.3109E-01
     -5.036  0.2906E-01  0.1103E-01  0.4509E-01  0.3160E-01
     -4.990  0.2853E-01  0.1518E-01  0.4640E-01  0.3229E-01
     -4.944  0.2769E-01  0.2000E-01  0.4767E-01  0.3321E-01
     -4.898  0.2628E-01  0.2431E-01  0.4887E-01  0.3433E-01
     -4.852  0.2385E-01  0.2692E-01  0.4997E-01  0.3556E-01
     -4.806  0.2032E-01  0.2702E-01  0.5090E-01  0.3680E-01
     -4.760  0.1611E-01  0.2455E-01  0.5164E-01  0.3793E-01
     -4.715  0.1191E-01  0.2034E-01  0.5218E-01  0.3886E-01
     -4.669  0.8281E-02  0.1579E-01  0.5256E-01  0.3959E-01
     -4.623  0.5404E-02  0.1229E-01  0.5281E-01  0.4015E-01
     -4.577  0.3206E-02  0.1065E-01  0.5296E-01  0.4064E-01
     -4.531  0.1553E-02  0.1079E-01  0.5303E-01  0.4113E-01
     -4.485  0.3823E-03  0.1194E-01  0.5305E-01  0.4168E-01
     -4.439 -0.2981E-03  0.1321E-01  0.5303E-01  0.4229E-01
     -4.393 -0.4595E-03  0.1399E-01  0.5301E-01  0.4293E-01
     -4.348 -0.9194E-04  0.1418E-01  0.5301E-01  0.4358E-01
     -4.302  0.7577E-03  0.1397E-01  0.5304E-01  0.4422E-01
     -4.256  0.1931E-02  0.1364E-01  0.5313E-01  0.4485E-01
     -4.210  0.3127E-02  0.1338E-01  0.5328E-01  0.4546E-01
     -4.164  0.3967E-02  0.1338E-01  0.5346E-01  0.4607E-01
     -4.118  0.4154E-02  0.1387E-01  0.5365E-01  0.4671E-01
     -4.072  0.3634E-02  0.1500E-01  0.5381E-01  0.4740E-01
     -4.026  0.2624E-02  0.1667E-01  0.5394E-01  0.4816E-01
     -3.981  0.1492E-02  0.1835E-01  0.5400E-01  0.4901E-01
     -3.935  0.5528E-03  0.1932E-01  0.5403E-01  0.4989E-01
     -3.889 -0.5317E-04  0.1901E-01  0.5403E-01  0.5076E-01
     -3.843 -0.3554E-03  0.1731E-01  0.5401E-01  0.5156E-01
     -3.797 -0.4514E-03  0.1466E-01  0.5399E-01  0.5223E-01
     -3.751 -0.3965E-03  0.1169E-01  0.5397E-01  0.5277E-01
     -3.705 -0.1556E-03  0.8957E-02  0.5396E-01  0.5318E-01
     -3.659  0.3625E-03  0.6712E-02  0.5398E-01  0.5349E-01
     -3.613  0.1211E-02  0.4897E-02  0.5404E-01  0.5371E-01
     -3.568  0.2322E-02  0.3345E-02  0.5414E-01  0.5386E-01
     -3.522  0.3498E-02  0.1974E-02  0.5430E-01  0.5395E-01
     -3.476  0.4503E-02  0.8705E-03  0.5451E-01  0.5399E-01
     -3.430  0.5185E-02  0.2360E-03  0.5475E-01  0.5401E-01
     -3.384  0.5512E-02  0.2500E-03  0.5500E-01  0.5402E-01
     -3.338  0.5511E-02  0.9559E-03  0.5525E-01  0.5406E-01
     -3.292  0.5181E-02  0.2214E-02  0.5549E-01  0.5416E-01
     -3.246  0.4496E-02  0.3730E-02  0.5570E-01  0.5433E-01
     -3.201  0.3490E-02  0.5146E-02  0.5586E-01  0.5457E-01
     -3.155  0.2319E-02  0.6142E-02  0.5596E-01  0.5485E-01
     -3.109  0.1222E-02  0.6512E-02  0.5602E-01  0.5515E-01
     -3.063  0.4020E-03  0.6192E-02  0.5604E-01  0.5543E-01
     -3.017 -0.6496E-04  0.5263E-02  0.5604E-01  0.5568E-01
     -2.971 -0.2357E-03  0.3933E-02  0.5603E-01  0.5586E-01
     -2.925 -0.2306E-03  0.2498E-02  0.5601E-01  0.5597E-01
     -2.879 -0.1606E-03  0.1247E-02  0.5601E-01  0.5603E-01
     -2.833 -0.9193E-04  0.3659E-03  0.5600E-01  0.5604E-01
     -2.788 -0.4930E-04 -0.1097E-03  0.5600E-01  0.5604E-01
     -2.742 -0.3607E-04 -0.2699E-03  0.5600E-01  0.5603E-01
     -2.696 -0.5158E-04 -0.2525E-03  0.5600E-01  0.5602E-01
     -2.650 -0.9759E-04 -0.1755E-03  0.5599E-01  0.5601E-01
     -2.604 -0.1719E-03 -0.1078E-03  0.5598E-01  0.5600E-01
     -2.558 -0.2505E-03 -0.7696E-04  0.5597E-01  0.5600E-01
     -2.512 -0.2663E-03 -0.8893E-04  0.5596E-01  0.5599E-01
     -2.466 -0.1030E-03 -0.1390E-03  0.5596E-01  0.5599E-01
     -2.421  0.3753E-03 -0.2059E-03  0.5597E-01  0.5598E-01
     -2.375  0.1255E-02 -0.2332E-03  0.5603E-01  0.5597E-01
     -2.329  0.2497E-02 -0.1194E-03  0.5615E-01  0.5596E-01
     -2.283  0.3915E-02  0.2585E-03  0.5632E-01  0.5597E-01
     -2.237  0.5224E-02  0.9746E-03  0.5656E-01  0.5602E-01
     -2.191  0.6143E-02  0.1970E-02  0.5685E-01  0.5611E-01
     -2.145  0.6475E-02  0.3032E-02  0.5714E-01  0.5625E-01
     -2.099  0.6147E-02  0.3882E-02  0.5743E-01  0.5643E-01
     -2.053  0.5211E-02  0.4351E-02  0.5766E-01  0.5663E-01
     -2.008  0.3838E-02  0.4479E-02  0.5784E-01  0.5683E-01
     -1.962  0.2284E-02  0.4457E-02  0.5795E-01  0.5704E-01
     -1.916  0.8313E-03  0.4425E-02  0.5798E-01  0.5724E-01
     -1.870 -0.2671E-03  0.4326E-02  0.5797E-01  0.5744E-01
     -1.824 -0.7800E-03  0.3946E-02  0.5794E-01  0.5762E-01
     -1.778 -0.4586E-03  0.3139E-02  0.5791E-01  0.5776E-01
     -1.732  0.9510E-03  0.2031E-02  0.5796E-01  0.5786E-01
     -1.686  0.3561E-02  0.1067E-02  0.5812E-01  0.5791E-01
     -1.641  0.7119E-02  0.8482E-03  0.5845E-01  0.5794E-01
     -1.595  0.1089E-01  0.1850E-02  0.5895E-01  0.5803E-01
     -1.549  0.1382E-01  0.4136E-02  0.5958E-01  0.5822E-01
     -1.503  0.1501E-01  0.7203E-02  0.6027E-01  0.5855E-01
     -1.457  0.1407E-01  0.1009E-01  0.6092E-01  0.5901E-01
     -1.411  0.1139E-01  0.1181E-01  0.6144E-01  0.5955E-01
     -1.365  0.7857E-02  0.1182E-01  0.6180E-01  0.6010E-01
     -1.319  0.4442E-02  0.1035E-01  0.6200E-01  0.6057E-01
     -1.274  0.1827E-02  0.8217E-02  0.6209E-01  0.6095E-01
     -1.228  0.2385E-03  0.6270E-02  0.6210E-01  0.6124E-01
     -1.182 -0.4667E-03  0.4932E-02  0.6208E-01  0.6146E-01
     -1.136 -0.6058E-03  0.4093E-02  0.6205E-01  0.6165E-01
     -1.090 -0.4871E-03  0.3387E-02  0.6203E-01  0.6181E-01
     -1.044 -0.3171E-03  0.2556E-02  0.6201E-01  0.6192E-01
     -0.998 -0.1949E-03  0.1608E-02  0.6200E-01  0.6200E-01
     -0.952 -0.1481E-03  0.7282E-03  0.6200E-01  0.6203E-01
     -0.906 -0.1683E-03  0.8493E-04  0.6199E-01  0.6203E-01
     -0.861 -0.2234E-03 -0.2801E-03  0.6198E-01  0.6202E-01
     -0.815 -0.2490E-03 -0.4306E-03  0.6197E-01  0.6200E-01
     -0.769 -0.1422E-03 -0.4413E-03  0.6196E-01  0.6198E-01
     -0.723  0.2138E-03 -0.3181E-03  0.6197E-01  0.6197E-01
     -0.677  0.8859E-03  0.1006E-04  0.6201E-01  0.6197E-01
     -0.631  0.1826E-02  0.6246E-03  0.6209E-01  0.6200E-01
     -0.585  0.2875E-02  0.1521E-02  0.6223E-01  0.6207E-01
     -0.539  0.3873E-02  0.2565E-02  0.6240E-01  0.6218E-01
     -0.494  0.4791E-02  0.3557E-02  0.6262E-01  0.6235E-01
     -0.448  0.5748E-02  0.4385E-02  0.6289E-01  0.6255E-01
     -0.402  0.6844E-02  0.5127E-02  0.6320E-01  0.6278E-01
     -0.356  0.7933E-02  0.5964E-02  0.6357E-01  0.6306E-01
     -0.310  0.8585E-02  0.6953E-02  0.6396E-01  0.6338E-01
     -0.264  0.8332E-02  0.7855E-02  0.6434E-01  0.6374E-01
     -0.218  0.7021E-02  0.8209E-02  0.6466E-01  0.6411E-01
     -0.172  0.4970E-02  0.7637E-02  0.6489E-01  0.6446E-01
     -0.126  0.2794E-02  0.6139E-02  0.6502E-01  0.6474E-01
     -0.081  0.1055E-02  0.4121E-02  0.6507E-01  0.6493E-01
     -0.035  0.8297E-05  0.2162E-02  0.6507E-01  0.6503E-01
      0.011 -0.4128E-03  0.7048E-03  0.6505E-01  0.6507E-01
      0.057 -0.4443E-03 -0.1099E-03  0.6503E-01  0.6506E-01
      0.103 -0.3198E-03 -0.3990E-03  0.6501E-01  0.6504E-01
      0.149 -0.1831E-03 -0.3861E-03  0.6501E-01  0.6502E-01
      0.195 -0.8805E-04 -0.2658E-03  0.6500E-01  0.6501E-01
      0.241 -0.3646E-04 -0.1484E-03  0.6500E-01  0.6501E-01
      0.286 -0.1317E-04 -0.7024E-04  0.6500E-01  0.6500E-01
      0.332 -0.4185E-05 -0.2881E-04  0.6500E-01  0.6500E-01
      0.378 -0.1176E-05 -0.1036E-04  0.6500E-01  0.6500E-01
      0.424 -0.2930E-06 -0.3286E-05  0.6500E-01  0.6500E-01
      0.470 -0.6498E-07 -0.9246E-06  0.6500E-01  0.6500E-01
      0.516 -0.1285E-07 -0.2314E-06  0.6500E-01  0.6500E-01
      0.562 -0.2267E-08 -0.5165E-07  0.6500E-01  0.6500E-01
      0.608 -0.3576E-09 -0.1030E-07  0.6500E-01  0.6500E-01
      0.653 -0.5048E-10 -0.1835E-08  0.6500E-01  0.6500E-01
      0.699 -0.6380E-11 -0.2929E-09  0.6500E-01  0.6500E-01
      0.745 -0.7225E-12 -0.4187E-10  0.6500E-01  0.6500E-01
      0.791 -0.7334E-13 -0.5365E-11  0.6500E-01  0.6500E-01
      0.837 -0.6674E-14 -0.6165E-12  0.6500E-01  0.6500E-01
      0.883 -0.5469E-15 -0.6357E-13  0.6500E-01  0.6500E-01
      0.929 -0.4356E-16 -0.5885E-14  0.6500E-01  0.6500E-01
      0.975  0.0000E+00 -0.4888E-15  0.6500E-01  0.6500E-01
      1.021  0.0000E+00 -0.3388E-16  0.6500E-01  0.6500E-01
      1.066  0.0000E+00 -0.4840E-17  0.6500E-01  0.6500E-01
      1.112  0.0000E+00  0.0000E+00  0.6500E-01  0.6500E-01
      1.158  0.0000E+00  0.0000E+00  0.6500E-01  0.6500E-01
      1.204  0.0000E+00  0.0000E+00  0.6500E-01  0.6500E-01
      1.250  0.0000E+00  0.0000E+00  0.6500E-01  0.6500E-01
      1.296  0.0000E+00  0.0000E+00  0.6500E-01  0.6500E-01
      1.342  0.0000E+00  0.0000E+00  0.6500E-01  0.6500E-01
      1.388  0.0000E+00  0.0000E+00  0.6500E-01  0.6500E-01
      1.433  0.0000E+00  0.0000E+00  0.6500E-01  0.6500E-01
      1.479  0.0000E+00  0.0000E+00  0.6500E-01  0.6500E-01
      1.525  0.0000E+00  0.0000E+00  0.6500E-01  0.6500E-01
      1.571  0.0000E+00  0.0000E+00  0.6500E-01  0.6500E-01
      1.617  0.0000E+00  0.0000E+00  0.6500E-01  0.6500E-01
      1.663  0.0000E+00  0.0000E+00  0.6500E-01  0.6500E-01
      1.709  0.0000E+00  0.0000E+00  0.6500E-01  0.6500E-01
      1.755  0.0000E+00  0.0000E+00  0.6500E-01  0.6500E-01
      1.801  0.0000E+00  0.0000E+00  0.6500E-01  0.6500E-01
