   10   10 1000    2
  0.1231970E+04  0.2292112E-08  0.2372708E-08  0.2265269E-08  0.5000000E-15
   1.0000000000000000E-004
  CAR 
 unknown system                          
    100      1     65
 
  0.1262379E-14  0.1262379E-14  0.1262379E-14  0.1000000E+01
    1       -9.963866     -9.914154   1.000000   1.000000
    2       -8.505707     -8.197933   1.000000   1.000000
    3       -8.389360     -8.048306   1.000000   1.000000
    4       -7.956535     -7.465940   1.000000   1.000000
    5       -7.954574     -7.448321   1.000000   1.000000
    6       -7.850070     -7.318240   1.000000   1.000000
    7       -7.735555     -7.313355   1.000000   1.000000
    8       -7.526060     -6.998128   1.000000   1.000000
    9       -7.497404     -6.779800   1.000000   1.000000
   10       -7.487803     -6.668775   1.000000   1.000000
   11       -7.472912     -6.548829   1.000000   1.000000
   12       -7.216706     -6.488346   1.000000   1.000000
   13       -6.956955     -6.471603   1.000000   1.000000
   14       -6.921204     -6.228515   1.000000   1.000000
   15       -6.759086     -6.204824   1.000000   1.000000
   16       -6.727476     -5.971926   1.000000   1.000000
   17       -6.632631     -5.963150   1.000000   1.000000
   18       -6.602873     -5.935999   1.000000   1.000000
   19       -6.562477     -5.902497   1.000000   1.000000
   20       -6.484642     -5.849751   1.000000   1.000000
   21       -6.399218     -5.839343   1.000000   1.000000
   22       -6.262169     -5.716273   1.000000   1.000000
   23       -6.238834     -5.601708   1.000000   1.000000
   24       -6.134166     -5.580859   1.000000   1.000000
   25       -6.000085     -5.457037   1.000000   1.000000
   26       -5.828406     -5.446821   1.000000   1.000000
   27       -5.769121     -5.436914   1.000000   1.000000
   28       -5.690642     -5.382677   1.000000   1.000000
   29       -5.670922     -5.347028   1.000000   1.000000
   30       -5.651410     -5.277065   1.000000   1.000000
   31       -5.590100     -5.165048   1.000000   1.000000
   32       -5.558356     -5.017551   1.000000   1.000000
   33       -5.514161     -4.947196   1.000000   1.000000
   34       -5.511074     -4.917878   1.000000   1.000000
   35       -5.475813     -4.892413   1.000000   1.000001
   36       -5.438743     -4.844546   1.000000   1.000003
   37       -5.424602     -4.821584   1.000000   1.000007
   38       -5.327055     -4.784770   1.000000   1.000024
   39       -5.262883     -4.763677   1.000000   1.000045
   40       -5.193172     -4.724403   1.000000   1.000135
   41       -5.186568     -4.533119   1.000000   1.008624
   42       -5.169221     -4.512406   1.000000   1.011796
   43       -5.113254     -4.405186   1.000000   1.033808
   44       -5.107673     -4.384015   1.000000   1.035452
   45       -5.086486     -4.272336   1.000000   0.949866
   46       -5.034787     -4.186810   1.000000   0.700420
   47       -4.943487     -4.176174   1.000000   0.658887
   48       -4.927492     -4.031955   1.000000   0.114129
   49       -4.900570     -3.973819   1.000000   0.004968
   50       -4.883582     -3.962471   1.000001  -0.007195
   51       -4.879596     -3.929038   1.000001  -0.029118
   52       -4.779380     -3.842067   1.000028  -0.028580
   53       -4.662584     -3.803046   1.000655  -0.019692
   54       -4.153725     -3.638124   0.566917  -0.001165
   55       -3.482794     -3.208857  -0.000018  -0.000000
   56       -3.285722     -3.054363  -0.000000  -0.000000
   57       -2.245972     -2.090512  -0.000000  -0.000000
   58       -2.088956     -1.850029  -0.000000  -0.000000
   59       -1.566230     -1.450910  -0.000000  -0.000000
   60       -1.565082     -1.419070  -0.000000  -0.000000
   61       -1.510928     -1.384174  -0.000000  -0.000000
   62       -1.436003     -1.150003  -0.000000  -0.000000
   63       -0.533415     -0.472291  -0.000000  -0.000000
   64       -0.304285     -0.255967  -0.000000  -0.000000
   65       -0.298259     -0.199467  -0.000000  -0.000000
