       N       E                     dE             d eps       ncg     rms          rms(c)
DAV:   1     0.735905673222E+03    0.73591E+03   -0.15571E+04   260   0.695E+02
DAV:   2     0.259027666430E+03   -0.47688E+03   -0.44385E+03   471   0.116E+02
DAV:   3     0.249307045498E+02   -0.23410E+03   -0.22007E+03   392   0.128E+02
DAV:   4    -0.355018962510E+02   -0.60433E+02   -0.52866E+02   440   0.560E+01
DAV:   5    -0.434604721954E+02   -0.79586E+01   -0.72312E+01   319   0.257E+01    0.257E+01
DAV:   6    -0.530247839331E+02   -0.95643E+01   -0.79492E+01   294   0.127E+02    0.487E+01
DAV:   7    -0.367782516933E+02    0.16247E+02   -0.36484E+01   310   0.735E+01    0.933E+00
DAV:   8    -0.390463967702E+02   -0.22681E+01   -0.18974E+01   408   0.606E+01    0.432E+01
DAV:   9    -0.336502773217E+02    0.53961E+01   -0.14780E+01   368   0.456E+01    0.164E+01
DAV:  10    -0.339402382889E+02   -0.28996E+00   -0.74115E+00   375   0.334E+01    0.176E+01
DAV:  11    -0.350796258179E+02   -0.11394E+01   -0.81156E+00   334   0.271E+01    0.240E+01
DAV:  12    -0.344036153119E+02    0.67601E+00   -0.15478E+00   293   0.203E+01    0.573E+00
DAV:  13    -0.346609132341E+02   -0.25730E+00   -0.87113E-01   359   0.124E+01    0.624E+00
DAV:  14    -0.349821001902E+02   -0.32119E+00   -0.39655E-01   342   0.987E+00    0.368E+00
DAV:  15    -0.351795860214E+02   -0.19749E+00   -0.17782E-01   336   0.712E+00    0.377E+00
DAV:  16    -0.355899885207E+02   -0.41040E+00   -0.15386E-01   318   0.579E+00    0.414E+00
DAV:  17    -0.360366058908E+02   -0.44662E+00   -0.23008E-01   326   0.660E+00    0.194E+00
DAV:  18    -0.362463383098E+02   -0.20973E+00   -0.61183E-02   341   0.256E+00    0.233E+00
DAV:  19    -0.364092328365E+02   -0.16289E+00   -0.29825E-02   285   0.269E+00    0.933E-01
DAV:  20    -0.366651141032E+02   -0.25588E+00   -0.19260E-02   309   0.108E+00    0.414E-01
DAV:  21    -0.368994906422E+02   -0.23438E+00   -0.10396E-02   285   0.587E-01    0.273E-01
DAV:  22    -0.370802871643E+02   -0.18080E+00   -0.58351E-03   277   0.435E-01    0.213E-01
DAV:  23    -0.372732353944E+02   -0.19295E+00   -0.74104E-03   284   0.323E-01    0.192E-01
DAV:  24    -0.374476731294E+02   -0.17444E+00   -0.78056E-03   286   0.318E-01    0.143E-01
DAV:  25    -0.375722207012E+02   -0.12455E+00   -0.49613E-03   270   0.248E-01    0.109E-01
DAV:  26    -0.376587696737E+02   -0.86549E-01   -0.28881E-03   276   0.200E-01    0.977E-02
DAV:  27    -0.377253049027E+02   -0.66535E-01   -0.20971E-03   270   0.143E-01    0.781E-02
DAV:  28    -0.377628260910E+02   -0.37521E-01   -0.79973E-04   270   0.118E-01    0.460E-02
DAV:  29    -0.377952349516E+02   -0.32409E-01   -0.89026E-04   245   0.823E-02    0.301E-02
DAV:  30    -0.378130701525E+02   -0.17835E-01   -0.51636E-04   221   0.640E-02    0.199E-02
DAV:  31    -0.378216169137E+02   -0.85468E-02   -0.19907E-04   223   0.447E-02    0.203E-02
DAV:  32    -0.378281848414E+02   -0.65679E-02   -0.15757E-04   213   0.414E-02    0.178E-02
DAV:  33    -0.378319507284E+02   -0.37659E-02   -0.94387E-05   215   0.407E-02    0.115E-02
DAV:  34    -0.378337434407E+02   -0.17927E-02   -0.69546E-05   190   0.282E-02    0.153E-02
DAV:  35    -0.378344800571E+02   -0.73662E-03   -0.35745E-05   183   0.272E-02    0.840E-03
DAV:  36    -0.378349454141E+02   -0.46536E-03   -0.29983E-05   191   0.169E-02    0.773E-03
DAV:  37    -0.378352387566E+02   -0.29334E-03   -0.15004E-05   166   0.170E-02    0.431E-03
DAV:  38    -0.378354115492E+02   -0.17279E-03   -0.12894E-05   173   0.111E-02    0.382E-03
DAV:  39    -0.378355301062E+02   -0.11856E-03   -0.61445E-06   166   0.101E-02    0.376E-03
DAV:  40    -0.378356217170E+02   -0.91611E-04   -0.33236E-06   166   0.944E-03
   1 F= -.37835622E+02 E0= -.37832139E+02  d E =-.378356E+02  mag=     7.1255
       N       E                     dE             d eps       ncg     rms          rms(c)
DAV:   1    -0.378358707285E+02   -0.34062E-03   -0.10669E-01   269   0.118E+00    0.103E-01
DAV:   2    -0.378361291246E+02   -0.25840E-03   -0.23861E-03   398   0.672E-01    0.344E-01
DAV:   3    -0.378358254119E+02    0.30371E-03   -0.12327E-03   302   0.714E-01    0.157E-01
DAV:   4    -0.378360187728E+02   -0.19336E-03   -0.50458E-04   246   0.412E-01    0.173E-01
DAV:   5    -0.378359813488E+02    0.37424E-04   -0.25565E-04   158   0.321E-01
   2 F= -.37835981E+02 E0= -.37832477E+02  d E =-.359632E-03  mag=     7.1251
       N       E                     dE             d eps       ncg     rms          rms(c)
DAV:   1    -0.378355729625E+02    0.44581E-03   -0.42706E-01   260   0.237E+00    0.215E-01
DAV:   2    -0.378372551228E+02   -0.16822E-02   -0.10113E-02   390   0.143E+00    0.750E-01
DAV:   3    -0.378356783978E+02    0.15767E-02   -0.50180E-03   310   0.148E+00    0.341E-01
DAV:   4    -0.378362090080E+02   -0.53061E-03   -0.20023E-03   334   0.829E-01    0.330E-01
DAV:   5    -0.378361474955E+02    0.61513E-04   -0.93424E-04   278   0.631E-01
   3 F= -.37836147E+02 E0= -.37832578E+02  d E =-.525778E-03  mag=     7.1244
