<?xml version="1.0" encoding="ISO-8859-1"?>
<modeling>
 <generator>
  <i name="program" type="string">vasp </i>
  <i name="version" type="string">6.1.2  </i>
  <i name="subversion" type="string">22Jul20 (build Aug  2 2021 21:04:21) gamma-only                       parallel </i>
  <i name="platform" type="string">LinuxPGI </i>
  <i name="date" type="string">2021 12 24 </i>
  <i name="time" type="string">14:57:24 </i>
 </generator>
 <incar>
  <i type="int" name="ISPIN">     2</i>
  <i type="int" name="IBRION">     2</i>
  <i type="int" name="NSW">  1000</i>
  <i type="int" name="ISIF">     0</i>
  <i type="int" name="ISYM">     0</i>
  <i name="ENCUT">    400.00000000</i>
  <i type="logical" name="LREAL"> F  </i>
  <i type="int" name="ISMEAR">     1</i>
  <i name="SIGMA">      0.20000000</i>
  <i type="logical" name="LWAVE"> F  </i>
  <i type="logical" name="LCHARG"> F  </i>
  <i type="int" name="KPAR">     1</i>
  <i type="int" name="NCORE">    16</i>
  <i type="string" name="GGA"> PE</i>
  <i type="int" name="ISPIN">     2</i>
 </incar>
 <structure name="primitive_cell" >
  <crystal>
   <varray name="basis" >
    <v>      22.92112448       0.00000000       0.00000000 </v>
    <v>       0.00000000      23.72708119       0.00000000 </v>
    <v>       0.00000000       0.00000000      22.65269160 </v>
   </varray>
   <i name="volume">  12319.69761934 </i>
   <varray name="rec_basis" >
    <v>       0.04362788       0.00000000       0.00000000 </v>
    <v>       0.00000000       0.04214593       0.00000000 </v>
    <v>       0.00000000       0.00000000       0.04414486 </v>
   </varray>
  </crystal>
  <varray name="positions" >
   <v>       0.46719401       0.46997636       0.54682993 </v>
   <v>       0.56055962       0.46815838       0.49932103 </v>
   <v>       0.44500597       0.54923111       0.48528322 </v>
   <v>       0.52770224       0.55241945       0.54287374 </v>
   <v>       0.47785627       0.46494995       0.44167979 </v>
   <v>       0.53845253       0.54748503       0.43773935 </v>
   <v>       0.43266349       0.55764087       0.59247653 </v>
   <v>       0.50134214       0.38195426       0.50177445 </v>
   <v>       0.50429243       0.63540494       0.48293825 </v>
   <v>       0.57301938       0.45995341       0.39205911 </v>
  </varray>
 </structure>
 <varray name="primitive_index" >
  <v type="int" >        1 </v>
  <v type="int" >        2 </v>
  <v type="int" >        3 </v>
  <v type="int" >        4 </v>
  <v type="int" >        5 </v>
  <v type="int" >        6 </v>
  <v type="int" >        7 </v>
  <v type="int" >        8 </v>
  <v type="int" >        9 </v>
  <v type="int" >       10 </v>
 </varray>
 <kpoints>
  <generation param="Gamma">
   <v type="int" name="divisions">       1        1        1 </v>
   <v name="usershift">      0.00000000       0.00000000       0.00000000 </v>
   <v name="genvec1">      1.00000000       0.00000000       0.00000000 </v>
   <v name="genvec2">      0.00000000       1.00000000       0.00000000 </v>
   <v name="genvec3">      0.00000000       0.00000000       1.00000000 </v>
   <v name="shift">      0.00000000       0.00000000       0.00000000 </v>
  </generation>
  <varray name="kpointlist" >
   <v>       0.00000000       0.00000000       0.00000000 </v>
  </varray>
  <varray name="weights" >
   <v>       1.00000000 </v>
  </varray>
 </kpoints>
 <parameters>
  <separator name="general" >
   <i type="string" name="SYSTEM">unknown system</i>
   <i type="logical" name="LCOMPAT"> F  </i>
  </separator>
  <separator name="electronic" >
   <i type="string" name="PREC">normal</i>
   <i name="ENMAX">    400.00000000</i>
   <i name="ENAUG">    544.56500000</i>
   <i name="EDIFF">      0.00010000</i>
   <i type="int" name="IALGO">    38</i>
   <i type="int" name="IWAVPR">    11</i>
   <i type="int" name="NBANDS">    65</i>
   <i type="int" name="NBANDSLOW">    -1</i>
   <i type="int" name="NBANDSHIGH">    -1</i>
   <i name="NELECT">    100.00000000</i>
   <i type="int" name="TURBO">     0</i>
   <i type="int" name="IRESTART">     0</i>
   <i type="int" name="NREBOOT">     0</i>
   <i type="int" name="NMIN">     0</i>
   <i name="EREF">      0.00000000</i>
   <separator name="electronic smearing" >
    <i type="int" name="ISMEAR">     1</i>
    <i name="SIGMA">      0.20000000</i>
    <i name="KSPACING">      0.50000000</i>
    <i type="logical" name="KGAMMA"> T  </i>
    <i type="logical" name="KBLOWUP"> T  </i>
   </separator>
   <separator name="electronic projectors" >
    <i type="logical" name="LREAL"> F  </i>
    <v name="ROPT">      0.00000000      0.00000000</v>
    <i type="int" name="LMAXPAW">  -100</i>
    <i type="int" name="LMAXMIX">     2</i>
    <i type="logical" name="NLSPLINE"> F  </i>
   </separator>
   <separator name="electronic startup" >
    <i type="int" name="ISTART">     0</i>
    <i type="int" name="ICHARG">     2</i>
    <i type="int" name="INIWAV">     1</i>
   </separator>
   <separator name="electronic spin" >
    <i type="int" name="ISPIN">     2</i>
    <i type="logical" name="LNONCOLLINEAR"> F  </i>
    <v name="MAGMOM">      1.00000000      1.00000000      1.00000000      1.00000000      1.00000000      1.00000000      1.00000000      1.00000000      1.00000000      1.00000000</v>
    <i name="NUPDOWN">     -1.00000000</i>
    <i type="logical" name="LSORBIT"> F  </i>
    <v name="SAXIS">      0.00000000      0.00000000      1.00000000</v>
    <i type="logical" name="LSPIRAL"> F  </i>
    <v name="QSPIRAL">      0.00000000      0.00000000      0.00000000</v>
    <i type="logical" name="LZEROZ"> F  </i>
   </separator>
   <separator name="electronic exchange-correlation" >
    <i type="logical" name="LASPH"> F  </i>
    <i type="logical" name="LMETAGGA"> F  </i>
   </separator>
   <separator name="electronic convergence" >
    <i type="int" name="NELM">    60</i>
    <i type="int" name="NELMDL">     0</i>
    <i type="int" name="NELMIN">     2</i>
    <i name="ENINI">    400.00000000</i>
    <separator name="electronic convergence detail" >
     <i type="logical" name="LDIAG"> T  </i>
     <i type="logical" name="LSUBROT"> F  </i>
     <i name="WEIMIN">      0.00100000</i>
     <i name="EBREAK">      0.00000038</i>
     <i name="DEPER">      0.30000000</i>
     <i type="int" name="NRMM">     4</i>
     <i name="TIME">      0.40000000</i>
    </separator>
   </separator>
   <separator name="electronic mixer" >
    <i name="AMIX">      0.40000000</i>
    <i name="BMIX">      1.00000000</i>
    <i name="AMIN">      0.10000000</i>
    <i name="AMIX_MAG">      1.60000000</i>
    <i name="BMIX_MAG">      1.00000000</i>
    <separator name="electronic mixer details" >
     <i type="int" name="IMIX">     4</i>
     <i type="logical" name="MIXFIRST"> F  </i>
     <i type="int" name="MAXMIX">   -45</i>
     <i name="WC">    100.00000000</i>
     <i type="int" name="INIMIX">     1</i>
     <i type="int" name="MIXPRE">     1</i>
     <i type="int" name="MREMOVE">     5</i>
    </separator>
   </separator>
   <separator name="electronic dipolcorrection" >
    <i type="logical" name="LDIPOL"> F  </i>
    <i type="logical" name="LMONO"> F  </i>
    <i type="int" name="IDIPOL">     0</i>
    <i name="EPSILON">      1.00000000</i>
    <v name="DIPOL">   -100.00000000   -100.00000000   -100.00000000</v>
    <i name="EFIELD">      0.00000000</i>
   </separator>
  </separator>
  <separator name="grids" >
   <i type="int" name="NGX">   112</i>
   <i type="int" name="NGY">   120</i>
   <i type="int" name="NGZ">   112</i>
   <i type="int" name="NGXF">   224</i>
   <i type="int" name="NGYF">   240</i>
   <i type="int" name="NGZF">   224</i>
   <i type="logical" name="ADDGRID"> F  </i>
  </separator>
  <separator name="ionic" >
   <i type="int" name="NSW">  1000</i>
   <i type="int" name="IBRION">     2</i>
   <i type="int" name="MDALGO">     0</i>
   <i type="int" name="ISIF">     0</i>
   <i name="PSTRESS">      0.00000000</i>
   <i name="EDIFFG">      0.00100000</i>
   <i type="int" name="NFREE">     1</i>
   <i name="POTIM">      0.50000000</i>
   <i name="SMASS">     -3.00000000</i>
   <i name="SCALEE">      1.00000000</i>
  </separator>
  <separator name="ionic md" >
   <i name="TEBEG">      0.00010000</i>
   <i name="TEEND">      0.00010000</i>
   <i type="int" name="NBLOCK">     1</i>
   <i type="int" name="KBLOCK">  1000</i>
   <i type="int" name="NPACO">   256</i>
   <i name="APACO">     16.00000000</i>
  </separator>
  <separator name="symmetry" >
   <i type="int" name="ISYM">     0</i>
   <i name="SYMPREC">      0.00001000</i>
  </separator>
  <separator name="dos" >
   <i type="int" name="LORBIT">     0</i>
   <v name="RWIGS">     -1.00000000     -1.00000000</v>
   <i type="int" name="NEDOS">   301</i>
   <i name="EMIN">     10.00000000</i>
   <i name="EMAX">    -10.00000000</i>
   <i name="EFERMI">      0.00000000</i>
  </separator>
  <separator name="writing" >
   <i type="int" name="NWRITE">     2</i>
   <i type="logical" name="LWAVE"> F  </i>
   <i type="logical" name="LDOWNSAMPLE"> F  </i>
   <i type="logical" name="LCHARG"> F  </i>
   <i type="logical" name="LPARD"> F  </i>
   <i type="logical" name="LVTOT"> F  </i>
   <i type="logical" name="LVHAR"> F  </i>
   <i type="logical" name="LELF"> F  </i>
   <i type="logical" name="LOPTICS"> F  </i>
   <v name="STM">      0.00000000      0.00000000      0.00000000      0.00000000      0.00000000      0.00000000      0.00000000</v>
  </separator>
  <separator name="performance" >
   <i type="int" name="NPAR">     1</i>
   <i type="int" name="NSIM">     4</i>
   <i type="int" name="NBLK">    -1</i>
   <i type="logical" name="LPLANE"> T  </i>
   <i type="logical" name="LSCALAPACK"> T  </i>
   <i type="logical" name="LSCAAWARE"> F  </i>
   <i type="logical" name="LSCALU"> F  </i>
   <i type="logical" name="LASYNC"> F  </i>
   <i type="logical" name="LORBITALREAL"> F  </i>
  </separator>
  <separator name="miscellaneous" >
   <i type="int" name="IDIOT">     3</i>
   <i type="int" name="PHON_NSTRUCT">    -1</i>
   <i type="logical" name="LMUSIC"> F  </i>
   <v name="POMASS">     58.69000000    106.42000000</v>
   <v name="DARWINR">      0.00000000      0.00000000</v>
   <v name="DARWINV">      1.00000000      1.00000000</v>
   <i type="logical" name="LCORR"> T  </i>
  </separator>
  <i type="logical" name="GGA_COMPAT"> T  </i>
  <i type="logical" name="LBERRY"> F  </i>
  <i type="int" name="ICORELEVEL">     0</i>
  <i type="logical" name="LDAU"> F  </i>
  <i type="int" name="I_CONSTRAINED_M">     0</i>
  <separator name="electronic exchange-correlation" >
   <i type="string" name="GGA">PE</i>
   <i type="int" name="VOSKOWN">     0</i>
   <i type="logical" name="LHFCALC"> F  </i>
   <i type="string" name="PRECFOCK"></i>
   <i type="logical" name="LSYMGRAD"> F  </i>
   <i type="logical" name="LHFONE"> F  </i>
   <i type="logical" name="LRHFCALC"> F  </i>
   <i type="logical" name="LTHOMAS"> F  </i>
   <i type="logical" name="LMODELHF"> F  </i>
   <i type="logical" name="LFOCKACE"> F  </i>
   <i name="ENCUT4O">     -1.00000000</i>
   <i type="int" name="EXXOEP">     0</i>
   <i type="int" name="FOURORBIT">     0</i>
   <i name="AEXX">      0.00000000</i>
   <i name="HFALPHA">      0.00000000</i>
   <i name="MCALPHA">      0.00000000</i>
   <i name="ALDAX">      1.00000000</i>
   <i name="AGGAX">      1.00000000</i>
   <i name="ALDAC">      1.00000000</i>
   <i name="AGGAC">      1.00000000</i>
   <i type="int" name="NKREDX">     1</i>
   <i type="int" name="NKREDY">     1</i>
   <i type="int" name="NKREDZ">     1</i>
   <i type="logical" name="SHIFTRED"> F  </i>
   <i type="logical" name="ODDONLY"> F  </i>
   <i type="logical" name="EVENONLY"> F  </i>
   <i type="int" name="LMAXFOCK">     0</i>
   <i type="int" name="NMAXFOCKAE">     0</i>
   <i type="logical" name="LFOCKAEDFT"> F  </i>
   <i name="HFSCREEN">      0.00000000</i>
   <i name="HFSCREENC">      0.00000000</i>
   <i type="int" name="NBANDSGWLOW">     0</i>
  </separator>
  <separator name="vdW DFT" >
   <i type="logical" name="LUSE_VDW"> F  </i>
   <i name="Zab_VDW">     -0.84910000</i>
   <i name="PARAM1">      0.12340000</i>
   <i name="PARAM2">      1.00000000</i>
   <i name="PARAM3">      0.00000000</i>
  </separator>
  <separator name="model GW" >
   <i type="int" name="MODEL_GW">     0</i>
   <i name="MODEL_EPS0">    739.18185716</i>
   <i name="MODEL_ALPHA">      1.00000000</i>
  </separator>
  <separator name="linear response parameters" >
   <i type="logical" name="LEPSILON"> F  </i>
   <i type="logical" name="LRPA"> F  </i>
   <i type="logical" name="LNABLA"> F  </i>
   <i type="logical" name="LVEL"> F  </i>
   <i type="int" name="KINTER">     0</i>
   <i name="CSHIFT">      0.10000000</i>
   <i name="OMEGAMAX">     -1.00000000</i>
   <i name="DEG_THRESHOLD">      0.00200000</i>
   <i name="RTIME">     -0.10000000</i>
   <i name="WPLASMAI">      0.00000000</i>
   <v name="DFIELD">      0.00000000      0.00000000      0.00000000</v>
   <v name="WPLASMA">      0.00000000      0.00000000      0.00000000      0.00000000      0.00000000      0.00000000      0.00000000      0.00000000      0.00000000</v>
  </separator>
  <separator name="orbital magnetization" >
   <i type="logical" name="NUCIND"> F  </i>
   <v name="MAGPOS">      0.00000000      0.00000000      0.00000000</v>
   <i type="logical" name="LNICSALL"> T  </i>
   <i type="logical" name="ORBITALMAG"> F  </i>
   <i type="logical" name="LMAGBLOCH"> F  </i>
   <i type="logical" name="LCHIMAG"> F  </i>
   <i type="logical" name="LGAUGE"> T  </i>
   <i type="int" name="MAGATOM">     0</i>
   <v name="MAGDIPOL">      0.00000000      0.00000000      0.00000000</v>
   <v name="AVECCONST">      0.00000000      0.00000000      0.00000000</v>
  </separator>
  <separator name="response functions" >
   <i type="logical" name="LFINITE_TEMPERATURE"> F  </i>
   <i type="logical" name="LADDER"> F  </i>
   <i type="logical" name="LRPAFORCE"> F  </i>
   <i type="logical" name="LFXC"> F  </i>
   <i type="logical" name="LHARTREE"> T  </i>
   <i type="int" name="IBSE">     0</i>
   <v type="int" name="KPOINT">    -1     0     0     0</v>
   <i type="logical" name="LTCTC"> F  </i>
   <i type="logical" name="LTCTE"> F  </i>
   <i type="logical" name="LTETE"> F  </i>
   <i type="logical" name="LTRIPLET"> F  </i>
   <i type="logical" name="LFXCEPS"> F  </i>
   <i type="logical" name="LFXHEG"> F  </i>
   <i type="int" name="NATURALO">     2</i>
   <i type="logical" name="LHOLEGF"> F  </i>
   <i type="logical" name="L2ORDER"> F  </i>
   <i type="logical" name="LDMP1"> F  </i>
   <i type="logical" name="LMP2LT"> F  </i>
   <i type="logical" name="LSMP2LT"> F  </i>
   <i type="logical" name="LGWLF"> F  </i>
   <i name="ENCUTGW">     -2.00000000</i>
   <i name="ENCUTGWSOFT">     -2.00000000</i>
   <i name="ENCUTLF">     -1.00000000</i>
   <i type="logical" name="LESF_SPLINES"> F  </i>
   <i type="int" name="LMAXMP2">    -1</i>
   <i name="SCISSOR">      0.00000000</i>
   <i type="int" name="NOMEGA">     0</i>
   <i type="int" name="NOMEGAR">     0</i>
   <i type="int" name="NBANDSGW">    -1</i>
   <i type="int" name="NBANDSO">    -1</i>
   <i type="int" name="NBANDSV">    -1</i>
   <i type="int" name="NELM">     1</i>
   <i type="int" name="NELMHF">     1</i>
   <i type="int" name="DIM">     3</i>
   <i type="int" name="IESPILON">     4</i>
   <i type="int" name="ANTIRES">     0</i>
   <i name="OMEGAMAX">    -30.00000000</i>
   <i name="OMEGAMIN">    -30.00000000</i>
   <i name="OMEGATL">   -200.00000000</i>
   <i type="int" name="OMEGAGRID">     0</i>
   <i name="CSHIFT">     -0.10000000</i>
   <i type="logical" name="LSELFENERGY"> F  </i>
   <i type="logical" name="LSPECTRAL"> F  </i>
   <i type="logical" name="LSPECTRALGW"> F  </i>
   <i type="logical" name="LSINGLES"> F  </i>
   <i type="logical" name="LFERMIGW"> F  </i>
   <i type="logical" name="ODDONLYGW"> F  </i>
   <i type="logical" name="EVENONLYGW"> F  </i>
   <i type="int" name="NKREDLFX">     1</i>
   <i type="int" name="NKREDLFY">     1</i>
   <i type="int" name="NKREDLFZ">     1</i>
   <i type="int" name="MAXMEM">  2800</i>
   <i type="int" name="TELESCOPE">     0</i>
   <i type="int" name="NTAUPAR">    -1</i>
   <i type="int" name="NOMEGAPAR">    -1</i>
   <i name="LAMBDA">      1.00000000</i>
  </separator>
  <separator name="External order field" >
   <i name="OFIELD_KAPPA">      0.00000000</i>
   <v name="OFIELD_K">      0.00000000      0.00000000      0.00000000</v>
   <i name="OFIELD_Q6_NEAR">      0.00000000</i>
   <i name="OFIELD_Q6_FAR">      0.00000000</i>
   <i name="OFIELD_A">      0.00000000</i>
  </separator>
 </parameters>
 <atominfo>
  <atoms>      10 </atoms>
  <types>       2 </types>
  <array name="atoms" >
   <dimension dim="1">ion</dimension>
   <field type="string">element</field>
   <field type="int">atomtype</field>
   <set>
    <rc><c>Ni</c><c>   1</c></rc>
    <rc><c>Ni</c><c>   1</c></rc>
    <rc><c>Ni</c><c>   1</c></rc>
    <rc><c>Ni</c><c>   1</c></rc>
    <rc><c>Ni</c><c>   1</c></rc>
    <rc><c>Ni</c><c>   1</c></rc>
    <rc><c>Pd</c><c>   2</c></rc>
    <rc><c>Pd</c><c>   2</c></rc>
    <rc><c>Pd</c><c>   2</c></rc>
    <rc><c>Pd</c><c>   2</c></rc>
   </set>
  </array>
  <array name="atomtypes" >
   <dimension dim="1">type</dimension>
   <field type="int">atomspertype</field>
   <field type="string">element</field>
   <field>mass</field>
   <field>valence</field>
   <field type="string">pseudopotential</field>
   <set>
    <rc><c>   6</c><c>Ni</c><c>     58.69000000</c><c>     10.00000000</c><c>  PAW_PBE Ni 02Aug2007                  </c></rc>
    <rc><c>   4</c><c>Pd</c><c>    106.42000000</c><c>     10.00000000</c><c>  PAW_PBE Pd 04Jan2005                  </c></rc>
   </set>
  </array>
 </atominfo>
 <structure name="initialpos" >
  <crystal>
   <varray name="basis" >
    <v>      22.92112448       0.00000000       0.00000000 </v>
    <v>       0.00000000      23.72708119       0.00000000 </v>
    <v>       0.00000000       0.00000000      22.65269160 </v>
   </varray>
   <i name="volume">  12319.69761934 </i>
   <varray name="rec_basis" >
    <v>       0.04362788       0.00000000       0.00000000 </v>
    <v>       0.00000000       0.04214593       0.00000000 </v>
    <v>       0.00000000       0.00000000       0.04414486 </v>
   </varray>
  </crystal>
  <varray name="positions" >
   <v>       0.46719401       0.46997636       0.54682993 </v>
   <v>       0.56055962       0.46815838       0.49932103 </v>
   <v>       0.44500597       0.54923111       0.48528322 </v>
   <v>       0.52770224       0.55241945       0.54287374 </v>
   <v>       0.47785627       0.46494995       0.44167979 </v>
   <v>       0.53845253       0.54748503       0.43773935 </v>
   <v>       0.43266349       0.55764087       0.59247653 </v>
   <v>       0.50134214       0.38195426       0.50177445 </v>
   <v>       0.50429243       0.63540494       0.48293825 </v>
   <v>       0.57301938       0.45995341       0.39205911 </v>
  </varray>
 </structure>
 <calculation>
  <scstep>
   <time name="dav">    5.20    5.28</time>
   <time name="total">    7.36    7.46</time>
   <energy>
    <i name="alphaZ">      4.59992870 </i>
    <i name="ewald">  12879.96548739 </i>
    <i name="hartreedc"> -21848.91435019 </i>
    <i name="XCdc">     63.08797030 </i>
    <i name="pawpsdc">   9003.59075477 </i>
    <i name="pawaedc">  -9155.75339974 </i>
    <i name="eentropy">     -0.00116738 </i>
    <i name="bandstr">     84.37185628 </i>
    <i name="atom">   9704.95859309 </i>
    <i name="e_fr_energy">    735.90567322 </i>
    <i name="e_wo_entrp">    735.90684060 </i>
    <i name="e_0_energy">    735.90606235 </i>
   </energy>
  </scstep>
  <scstep>
   <time name="dav">   10.38   10.49</time>
   <time name="total">   10.38   10.49</time>
   <energy>
    <i name="e_fr_energy">    259.02766643 </i>
    <i name="e_wo_entrp">    258.99763839 </i>
    <i name="e_0_energy">    259.01765708 </i>
   </energy>
  </scstep>
  <scstep>
   <time name="dav">    6.84    6.88</time>
   <time name="total">    6.84    6.88</time>
   <energy>
    <i name="e_fr_energy">     24.93070455 </i>
    <i name="e_wo_entrp">     24.97395772 </i>
    <i name="e_0_energy">     24.94512227 </i>
   </energy>
  </scstep>
  <scstep>
   <time name="dav">    7.53    7.57</time>
   <time name="total">    7.53    7.57</time>
   <energy>
    <i name="e_fr_energy">    -35.50189625 </i>
    <i name="e_wo_entrp">    -35.51682036 </i>
    <i name="e_0_energy">    -35.50687095 </i>
   </energy>
  </scstep>
  <scstep>
   <time name="dav">    5.89    6.01</time>
   <time name="total">    6.58    6.72</time>
   <energy>
    <i name="e_fr_energy">    -43.46047220 </i>
    <i name="e_wo_entrp">    -43.44651145 </i>
    <i name="e_0_energy">    -43.45581861 </i>
   </energy>
  </scstep>
  <scstep>
   <time name="dav">    5.54    5.62</time>
   <time name="total">    8.41    8.51</time>
   <energy>
    <i name="e_fr_energy">    -53.02478393 </i>
    <i name="e_wo_entrp">    -52.95476848 </i>
    <i name="e_0_energy">    -53.00144545 </i>
   </energy>
  </scstep>
  <scstep>
   <time name="dav">    5.79    5.90</time>
   <time name="total">    8.73    8.85</time>
   <energy>
    <i name="e_fr_energy">    -36.77825169 </i>
    <i name="e_wo_entrp">    -36.65681731 </i>
    <i name="e_0_energy">    -36.73777357 </i>
   </energy>
  </scstep>
  <scstep>
   <time name="dav">    7.09    7.10</time>
   <time name="total">   10.43   10.52</time>
   <energy>
    <i name="e_fr_energy">    -39.04639677 </i>
    <i name="e_wo_entrp">    -38.96520939 </i>
    <i name="e_0_energy">    -39.01933431 </i>
   </energy>
  </scstep>
  <scstep>
   <time name="dav">    6.56    6.57</time>
   <time name="total">    9.58    9.59</time>
   <energy>
    <i name="e_fr_energy">    -33.65027732 </i>
    <i name="e_wo_entrp">    -33.59740296 </i>
    <i name="e_0_energy">    -33.63265254 </i>
   </energy>
  </scstep>
  <scstep>
   <time name="dav">    6.64    6.65</time>
   <time name="total">    9.52    9.54</time>
   <energy>
    <i name="e_fr_energy">    -33.94023829 </i>
    <i name="e_wo_entrp">    -33.87449232 </i>
    <i name="e_0_energy">    -33.91832296 </i>
   </energy>
  </scstep>
  <scstep>
   <time name="dav">    6.05    6.11</time>
   <time name="total">    9.45    9.70</time>
   <energy>
    <i name="e_fr_energy">    -35.07962582 </i>
    <i name="e_wo_entrp">    -35.04581250 </i>
    <i name="e_0_energy">    -35.06835471 </i>
   </energy>
  </scstep>
  <scstep>
   <time name="dav">    5.49    5.50</time>
   <time name="total">    8.37    8.38</time>
   <energy>
    <i name="e_fr_energy">    -34.40361531 </i>
    <i name="e_wo_entrp">    -34.30067224 </i>
    <i name="e_0_energy">    -34.36930095 </i>
   </energy>
  </scstep>
  <scstep>
   <time name="dav">    6.48    6.57</time>
   <time name="total">    9.45    9.53</time>
   <energy>
    <i name="e_fr_energy">    -34.66091323 </i>
    <i name="e_wo_entrp">    -34.60243703 </i>
    <i name="e_0_energy">    -34.64142117 </i>
   </energy>
  </scstep>
  <scstep>
   <time name="dav">    6.38    6.43</time>
   <time name="total">    9.28    9.34</time>
   <energy>
    <i name="e_fr_energy">    -34.98210019 </i>
    <i name="e_wo_entrp">    -34.94737299 </i>
    <i name="e_0_energy">    -34.97052446 </i>
   </energy>
  </scstep>
  <scstep>
   <time name="dav">    6.37    6.44</time>
   <time name="total">    9.25    9.37</time>
   <energy>
    <i name="e_fr_energy">    -35.17958602 </i>
    <i name="e_wo_entrp">    -35.15343022 </i>
    <i name="e_0_energy">    -35.17086742 </i>
   </energy>
  </scstep>
  <scstep>
   <time name="dav">    6.62    6.63</time>
   <time name="total">    9.84    9.86</time>
   <energy>
    <i name="e_fr_energy">    -35.58998852 </i>
    <i name="e_wo_entrp">    -35.57515987 </i>
    <i name="e_0_energy">    -35.58504564 </i>
   </energy>
  </scstep>
  <scstep>
   <time name="dav">    6.06    6.18</time>
   <time name="total">    8.96    9.12</time>
   <energy>
    <i name="e_fr_energy">    -36.03660589 </i>
    <i name="e_wo_entrp">    -36.01088869 </i>
    <i name="e_0_energy">    -36.02803349 </i>
   </energy>
  </scstep>
  <scstep>
   <time name="dav">    6.11    6.16</time>
   <time name="total">    9.13    9.20</time>
   <energy>
    <i name="e_fr_energy">    -36.24633831 </i>
    <i name="e_wo_entrp">    -36.21985247 </i>
    <i name="e_0_energy">    -36.23750970 </i>
   </energy>
  </scstep>
  <scstep>
   <time name="dav">    5.45    5.51</time>
   <time name="total">    8.36    8.46</time>
   <energy>
    <i name="e_fr_energy">    -36.40923284 </i>
    <i name="e_wo_entrp">    -36.38816436 </i>
    <i name="e_0_energy">    -36.40221001 </i>
   </energy>
  </scstep>
  <scstep>
   <time name="dav">    5.65    5.71</time>
   <time name="total">    8.57    8.69</time>
   <energy>
    <i name="e_fr_energy">    -36.66511410 </i>
    <i name="e_wo_entrp">    -36.64787204 </i>
    <i name="e_0_energy">    -36.65936675 </i>
   </energy>
  </scstep>
  <scstep>
   <time name="dav">    5.82    5.88</time>
   <time name="total">    8.94    9.03</time>
   <energy>
    <i name="e_fr_energy">    -36.89949064 </i>
    <i name="e_wo_entrp">    -36.88354487 </i>
    <i name="e_0_energy">    -36.89417538 </i>
   </energy>
  </scstep>
  <scstep>
   <time name="dav">    5.20    5.23</time>
   <time name="total">    8.17    8.23</time>
   <energy>
    <i name="e_fr_energy">    -37.08028716 </i>
    <i name="e_wo_entrp">    -37.06479184 </i>
    <i name="e_0_energy">    -37.07512206 </i>
   </energy>
  </scstep>
  <scstep>
   <time name="dav">    5.44    5.52</time>
   <time name="total">    8.43    8.54</time>
   <energy>
    <i name="e_fr_energy">    -37.27323539 </i>
    <i name="e_wo_entrp">    -37.25980028 </i>
    <i name="e_0_energy">    -37.26875702 </i>
   </energy>
  </scstep>
  <scstep>
   <time name="dav">    7.06    7.20</time>
   <time name="total">   10.02   10.21</time>
   <energy>
    <i name="e_fr_energy">    -37.44767313 </i>
    <i name="e_wo_entrp">    -37.43613564 </i>
    <i name="e_0_energy">    -37.44382730 </i>
   </energy>
  </scstep>
  <scstep>
   <time name="dav">    5.62    5.69</time>
   <time name="total">    8.71    8.88</time>
   <energy>
    <i name="e_fr_energy">    -37.57222070 </i>
    <i name="e_wo_entrp">    -37.56090659 </i>
    <i name="e_0_energy">    -37.56844933 </i>
   </energy>
  </scstep>
  <scstep>
   <time name="dav">    5.20    5.27</time>
   <time name="total">    9.34    9.44</time>
   <energy>
    <i name="e_fr_energy">    -37.65876967 </i>
    <i name="e_wo_entrp">    -37.64756705 </i>
    <i name="e_0_energy">    -37.65503547 </i>
   </energy>
  </scstep>
  <scstep>
   <time name="dav">    5.15    5.19</time>
   <time name="total">    8.19    8.25</time>
   <energy>
    <i name="e_fr_energy">    -37.72530490 </i>
    <i name="e_wo_entrp">    -37.71460256 </i>
    <i name="e_0_energy">    -37.72173746 </i>
   </energy>
  </scstep>
  <scstep>
   <time name="dav">    5.15    5.22</time>
   <time name="total">    8.77    8.87</time>
   <energy>
    <i name="e_fr_energy">    -37.76282609 </i>
    <i name="e_wo_entrp">    -37.75227635 </i>
    <i name="e_0_energy">    -37.75930951 </i>
   </energy>
  </scstep>
  <scstep>
   <time name="dav">    4.79    4.86</time>
   <time name="total">    7.86    7.98</time>
   <energy>
    <i name="e_fr_energy">    -37.79523495 </i>
    <i name="e_wo_entrp">    -37.78461179 </i>
    <i name="e_0_energy">    -37.79169390 </i>
   </energy>
  </scstep>
  <scstep>
   <time name="dav">    5.79    5.84</time>
   <time name="total">    8.85    8.95</time>
   <energy>
    <i name="e_fr_energy">    -37.81307015 </i>
    <i name="e_wo_entrp">    -37.80250544 </i>
    <i name="e_0_energy">    -37.80954858 </i>
   </energy>
  </scstep>
  <scstep>
   <time name="dav">    4.53    4.54</time>
   <time name="total">    7.78    7.83</time>
   <energy>
    <i name="e_fr_energy">    -37.82161691 </i>
    <i name="e_wo_entrp">    -37.81098066 </i>
    <i name="e_0_energy">    -37.81807150 </i>
   </energy>
  </scstep>
  <scstep>
   <time name="dav">    4.35    4.42</time>
   <time name="total">    7.47    7.56</time>
   <energy>
    <i name="e_fr_energy">    -37.82818484 </i>
    <i name="e_wo_entrp">    -37.81753919 </i>
    <i name="e_0_energy">    -37.82463629 </i>
   </energy>
  </scstep>
  <scstep>
   <time name="dav">    4.38    4.43</time>
   <time name="total">    7.69    8.03</time>
   <energy>
    <i name="e_fr_energy">    -37.83195073 </i>
    <i name="e_wo_entrp">    -37.82135297 </i>
    <i name="e_0_energy">    -37.82841814 </i>
   </energy>
  </scstep>
  <scstep>
   <time name="dav">    4.05    4.09</time>
   <time name="total">    7.15    7.24</time>
   <energy>
    <i name="e_fr_energy">    -37.83374344 </i>
    <i name="e_wo_entrp">    -37.82322337 </i>
    <i name="e_0_energy">    -37.83023675 </i>
   </energy>
  </scstep>
  <scstep>
   <time name="dav">    3.95    3.98</time>
   <time name="total">    7.08    7.14</time>
   <energy>
    <i name="e_fr_energy">    -37.83448006 </i>
    <i name="e_wo_entrp">    -37.82400417 </i>
    <i name="e_0_energy">    -37.83098809 </i>
   </energy>
  </scstep>
  <scstep>
   <time name="dav">    4.11    4.16</time>
   <time name="total">    7.40    7.49</time>
   <energy>
    <i name="e_fr_energy">    -37.83494541 </i>
    <i name="e_wo_entrp">    -37.82448364 </i>
    <i name="e_0_energy">    -37.83145816 </i>
   </energy>
  </scstep>
  <scstep>
   <time name="dav">    3.77    3.82</time>
   <time name="total">    6.96    7.03</time>
   <energy>
    <i name="e_fr_energy">    -37.83523876 </i>
    <i name="e_wo_entrp">    -37.82477974 </i>
    <i name="e_0_energy">    -37.83175242 </i>
   </energy>
  </scstep>
  <scstep>
   <time name="dav">    3.80    3.83</time>
   <time name="total">    7.05    7.09</time>
   <energy>
    <i name="e_fr_energy">    -37.83541155 </i>
    <i name="e_wo_entrp">    -37.82495125 </i>
    <i name="e_0_energy">    -37.83192478 </i>
   </energy>
  </scstep>
  <scstep>
   <time name="dav">    4.24    4.26</time>
   <time name="total">    7.46    7.51</time>
   <energy>
    <i name="e_fr_energy">    -37.83553011 </i>
    <i name="e_wo_entrp">    -37.82508517 </i>
    <i name="e_0_energy">    -37.83204846 </i>
   </energy>
  </scstep>
  <scstep>
   <time name="dav">    3.73    3.74</time>
   <time name="total">    5.87    5.88</time>
   <energy>
    <i name="alphaZ">      4.59992870 </i>
    <i name="ewald">  12879.96548739 </i>
    <i name="hartreedc"> -21923.27958202 </i>
    <i name="XCdc">     60.10498279 </i>
    <i name="pawpsdc">  10155.19078677 </i>
    <i name="pawaedc"> -10319.31777170 </i>
    <i name="eentropy">     -0.01044853 </i>
    <i name="bandstr">   -600.04759821 </i>
    <i name="atom">   9704.95859309 </i>
    <i name="e_fr_energy">    -37.83562172 </i>
    <i name="e_wo_entrp">    -37.82517319 </i>
    <i name="e_0_energy">    -37.83213887 </i>
   </energy>
  </scstep>
  <structure>
   <crystal>
    <varray name="basis" >
     <v>      22.92112448       0.00000000       0.00000000 </v>
     <v>       0.00000000      23.72708119       0.00000000 </v>
     <v>       0.00000000       0.00000000      22.65269160 </v>
    </varray>
    <i name="volume">  12319.69761934 </i>
    <varray name="rec_basis" >
     <v>       0.04362788       0.00000000       0.00000000 </v>
     <v>       0.00000000       0.04214593       0.00000000 </v>
     <v>       0.00000000       0.00000000       0.04414486 </v>
    </varray>
   </crystal>
   <varray name="positions" >
    <v>       0.46719401       0.46997636       0.54682993 </v>
    <v>       0.56055962       0.46815838       0.49932103 </v>
    <v>       0.44500597       0.54923111       0.48528322 </v>
    <v>       0.52770224       0.55241945       0.54287374 </v>
    <v>       0.47785627       0.46494995       0.44167979 </v>
    <v>       0.53845253       0.54748503       0.43773935 </v>
    <v>       0.43266349       0.55764087       0.59247653 </v>
    <v>       0.50134214       0.38195426       0.50177445 </v>
    <v>       0.50429243       0.63540494       0.48293825 </v>
    <v>       0.57301938       0.45995341       0.39205911 </v>
   </varray>
  </structure>
  <varray name="forces" >
   <v>       0.01580169       0.02162240      -0.01935785 </v>
   <v>      -0.00126207      -0.01801379      -0.01361409 </v>
   <v>      -0.00078257       0.01737746      -0.01051376 </v>
   <v>      -0.00586206      -0.00181652       0.01031004 </v>
   <v>       0.02977406      -0.00419795      -0.00611587 </v>
   <v>      -0.02806800      -0.02893840       0.02947294 </v>
   <v>      -0.01616468      -0.00762323       0.03000024 </v>
   <v>      -0.00540811      -0.01519222       0.01798979 </v>
   <v>       0.00305564       0.03200945      -0.01968586 </v>
   <v>       0.00891612       0.00477279      -0.01848557 </v>
  </varray>
  <energy>
   <i name="e_fr_energy">    -37.83562172 </i>
   <i name="e_wo_entrp">    -37.82517319 </i>
   <i name="e_0_energy">    -37.83213887 </i>
  </energy>
  <time name="totalsc">  342.40  346.29</time>
 </calculation>
 <calculation>
  <scstep>
   <time name="dav">    5.11    5.15</time>
   <time name="total">    7.94    8.00</time>
   <energy>
    <i name="alphaZ">      4.59992870 </i>
    <i name="ewald">  12878.92792940 </i>
    <i name="hartreedc"> -21922.21855088 </i>
    <i name="XCdc">     60.10205708 </i>
    <i name="pawpsdc">  10155.20451640 </i>
    <i name="pawaedc"> -10319.33156438 </i>
    <i name="eentropy">     -0.01004322 </i>
    <i name="bandstr">   -600.06873692 </i>
    <i name="atom">   9704.95859309 </i>
    <i name="e_fr_energy">    -37.83587073 </i>
    <i name="e_wo_entrp">    -37.82582751 </i>
    <i name="e_0_energy">    -37.83252299 </i>
   </energy>
  </scstep>
  <scstep>
   <time name="dav">    6.90    6.97</time>
   <time name="total">    9.73    9.83</time>
   <energy>
    <i name="e_fr_energy">    -37.83612912 </i>
    <i name="e_wo_entrp">    -37.82430738 </i>
    <i name="e_0_energy">    -37.83218854 </i>
   </energy>
  </scstep>
  <scstep>
   <time name="dav">    5.58    5.63</time>
   <time name="total">    8.55    8.68</time>
   <energy>
    <i name="e_fr_energy">    -37.83582541 </i>
    <i name="e_wo_entrp">    -37.82569019 </i>
    <i name="e_0_energy">    -37.83244700 </i>
   </energy>
  </scstep>
  <scstep>
   <time name="dav">    5.38    5.45</time>
   <time name="total">    8.21    8.30</time>
   <energy>
    <i name="e_fr_energy">    -37.83601877 </i>
    <i name="e_wo_entrp">    -37.82597170 </i>
    <i name="e_0_energy">    -37.83266975 </i>
   </energy>
  </scstep>
  <scstep>
   <time name="dav">    3.60    3.62</time>
   <time name="total">    5.90    6.01</time>
   <energy>
    <i name="alphaZ">      4.59992870 </i>
    <i name="ewald">  12878.92792940 </i>
    <i name="hartreedc"> -21922.26196167 </i>
    <i name="XCdc">     60.10455682 </i>
    <i name="pawpsdc">  10155.23197495 </i>
    <i name="pawaedc"> -10319.36678554 </i>
    <i name="eentropy">     -0.01051283 </i>
    <i name="bandstr">   -600.01970425 </i>
    <i name="atom">   9704.95859309 </i>
    <i name="e_fr_energy">    -37.83598135 </i>
    <i name="e_wo_entrp">    -37.82546852 </i>
    <i name="e_0_energy">    -37.83247707 </i>
   </energy>
  </scstep>
  <structure>
   <crystal>
    <varray name="basis" >
     <v>      22.92112448       0.00000000       0.00000000 </v>
     <v>       0.00000000      23.72708119       0.00000000 </v>
     <v>       0.00000000       0.00000000      22.65269160 </v>
    </varray>
    <i name="volume">  12319.69761934 </i>
    <varray name="rec_basis" >
     <v>       0.04362788       0.00000000       0.00000000 </v>
     <v>       0.00000000       0.04214593       0.00000000 </v>
     <v>       0.00000000       0.00000000       0.04414486 </v>
    </varray>
   </crystal>
   <varray name="positions" >
    <v>       0.46722726       0.47002032       0.54678870 </v>
    <v>       0.56055696       0.46812175       0.49929203 </v>
    <v>       0.44500433       0.54926645       0.48526083 </v>
    <v>       0.52768991       0.55241576       0.54289570 </v>
    <v>       0.47791893       0.46494142       0.44166676 </v>
    <v>       0.53839345       0.54742619       0.43780212 </v>
    <v>       0.43262946       0.55762537       0.59254042 </v>
    <v>       0.50133076       0.38192337       0.50181276 </v>
    <v>       0.50429886       0.63547002       0.48289633 </v>
    <v>       0.57303814       0.45996311       0.39201975 </v>
   </varray>
  </structure>
  <varray name="forces" >
   <v>       0.00918555       0.01622538      -0.01327633 </v>
   <v>       0.00550584      -0.01623244      -0.00791281 </v>
   <v>       0.00090042       0.01654264      -0.00010700 </v>
   <v>      -0.01010276       0.00448777       0.00651541 </v>
   <v>       0.01716532      -0.00687776      -0.00544238 </v>
   <v>      -0.02086373      -0.01639118       0.02190861 </v>
   <v>      -0.00995767      -0.00797727       0.01538835 </v>
   <v>      -0.00629991      -0.01011558       0.01469264 </v>
   <v>       0.00429051       0.01480137      -0.01479861 </v>
   <v>       0.01017644       0.00553706      -0.01696789 </v>
  </varray>
  <energy>
   <i name="e_fr_energy">    -37.83598135 </i>
   <i name="e_wo_entrp">    -37.82546852 </i>
   <i name="e_0_energy">    -37.83247707 </i>
  </energy>
  <time name="totalsc">   47.10   47.72</time>
 </calculation>
 <calculation>
  <scstep>
   <time name="dav">    5.16    5.26</time>
   <time name="total">    8.02    8.14</time>
   <energy>
    <i name="alphaZ">      4.59992870 </i>
    <i name="ewald">  12876.85521677 </i>
    <i name="hartreedc"> -21920.10542868 </i>
    <i name="XCdc">     60.09770775 </i>
    <i name="pawpsdc">  10155.12213400 </i>
    <i name="pawaedc"> -10319.23994757 </i>
    <i name="eentropy">     -0.00964056 </i>
    <i name="bandstr">   -600.11413646 </i>
    <i name="atom">   9704.95859309 </i>
    <i name="e_fr_energy">    -37.83557296 </i>
    <i name="e_wo_entrp">    -37.82593241 </i>
    <i name="e_0_energy">    -37.83235944 </i>
   </energy>
  </scstep>
  <scstep>
   <time name="dav">    7.14    7.23</time>
   <time name="total">    9.97   10.09</time>
   <energy>
    <i name="e_fr_energy">    -37.83725512 </i>
    <i name="e_wo_entrp">    -37.82400021 </i>
    <i name="e_0_energy">    -37.83283682 </i>
   </energy>
  </scstep>
  <scstep>
   <time name="dav">    5.70    5.72</time>
   <time name="total">    8.53    8.60</time>
   <energy>
    <i name="e_fr_energy">    -37.83567840 </i>
    <i name="e_wo_entrp">    -37.82561351 </i>
    <i name="e_0_energy">    -37.83232343 </i>
   </energy>
  </scstep>
  <scstep>
   <time name="dav">    6.36    6.52</time>
   <time name="total">    9.21    9.39</time>
   <energy>
    <i name="e_fr_energy">    -37.83620901 </i>
    <i name="e_wo_entrp">    -37.82655224 </i>
    <i name="e_0_energy">    -37.83299009 </i>
   </energy>
  </scstep>
  <scstep>
   <time name="dav">    5.29    5.30</time>
   <time name="total">    7.43    7.44</time>
   <energy>
    <i name="alphaZ">      4.59992870 </i>
    <i name="ewald">  12876.85521677 </i>
    <i name="hartreedc"> -21920.23006879 </i>
    <i name="XCdc">     60.10251118 </i>
    <i name="pawpsdc">  10155.14011638 </i>
    <i name="pawaedc"> -10319.26831673 </i>
    <i name="eentropy">     -0.01070728 </i>
    <i name="bandstr">   -599.98342082 </i>
    <i name="atom">   9704.95859309 </i>
    <i name="e_fr_energy">    -37.83614750 </i>
    <i name="e_wo_entrp">    -37.82544022 </i>
    <i name="e_0_energy">    -37.83257840 </i>
   </energy>
  </scstep>
  <structure>
   <crystal>
    <varray name="basis" >
     <v>      22.92112448       0.00000000       0.00000000 </v>
     <v>       0.00000000      23.72708119       0.00000000 </v>
     <v>       0.00000000       0.00000000      22.65269160 </v>
    </varray>
    <i name="volume">  12319.69761934 </i>
    <varray name="rec_basis" >
     <v>       0.04362788       0.00000000       0.00000000 </v>
     <v>       0.00000000       0.04214593       0.00000000 </v>
     <v>       0.00000000       0.00000000       0.04414486 </v>
    </varray>
   </crystal>
   <varray name="positions" >
    <v>       0.46729376       0.47010823       0.54670628 </v>
    <v>       0.56055165       0.46804852       0.49923406 </v>
    <v>       0.44500103       0.54933709       0.48521606 </v>
    <v>       0.52766524       0.55240837       0.54293960 </v>
    <v>       0.47804423       0.46492435       0.44164072 </v>
    <v>       0.53827533       0.54730855       0.43792762 </v>
    <v>       0.43256144       0.55759438       0.59266816 </v>
    <v>       0.50130800       0.38186161       0.50188936 </v>
    <v>       0.50431172       0.63560015       0.48281250 </v>
    <v>       0.57307566       0.45998251       0.39194103 </v>
   </varray>
  </structure>
  <varray name="forces" >
   <v>      -0.00600339       0.00080352       0.00501165 </v>
   <v>       0.01893079      -0.01304309       0.00341284 </v>
   <v>       0.00085372       0.01648708       0.02030245 </v>
   <v>      -0.01843949       0.01749427      -0.00125589 </v>
   <v>      -0.01186201      -0.01608776      -0.00836676 </v>
   <v>      -0.00169036       0.01149539       0.00551874 </v>
   <v>       0.00026902      -0.01422482      -0.00518187 </v>
   <v>      -0.01023528      -0.00307396       0.01515725 </v>
   <v>       0.01015350      -0.00843690      -0.01230066 </v>
   <v>       0.01802350       0.00858626      -0.02229776 </v>
  </varray>
  <energy>
   <i name="e_fr_energy">    -37.83614750 </i>
   <i name="e_wo_entrp">    -37.82544022 </i>
   <i name="e_0_energy">    -37.83257840 </i>
  </energy>
  <time name="totalsc">   49.93   50.49</time>
  <eigenvalues>
   <array>
    <dimension dim="1">band</dimension>
    <dimension dim="2">kpoint</dimension>
    <dimension dim="3">spin</dimension>
    <field>eigene</field>
    <field>occ</field>
    <set>
     <set comment="spin 1">
      <set comment="kpoint 1">
       <r>   -9.9639    1.0000 </r>
       <r>   -8.5057    1.0000 </r>
       <r>   -8.3894    1.0000 </r>
       <r>   -7.9565    1.0000 </r>
       <r>   -7.9546    1.0000 </r>
       <r>   -7.8501    1.0000 </r>
       <r>   -7.7356    1.0000 </r>
       <r>   -7.5261    1.0000 </r>
       <r>   -7.4974    1.0000 </r>
       <r>   -7.4878    1.0000 </r>
       <r>   -7.4729    1.0000 </r>
       <r>   -7.2167    1.0000 </r>
       <r>   -6.9570    1.0000 </r>
       <r>   -6.9212    1.0000 </r>
       <r>   -6.7591    1.0000 </r>
       <r>   -6.7275    1.0000 </r>
       <r>   -6.6326    1.0000 </r>
       <r>   -6.6029    1.0000 </r>
       <r>   -6.5625    1.0000 </r>
       <r>   -6.4846    1.0000 </r>
       <r>   -6.3992    1.0000 </r>
       <r>   -6.2622    1.0000 </r>
       <r>   -6.2388    1.0000 </r>
       <r>   -6.1342    1.0000 </r>
       <r>   -6.0001    1.0000 </r>
       <r>   -5.8284    1.0000 </r>
       <r>   -5.7691    1.0000 </r>
       <r>   -5.6906    1.0000 </r>
       <r>   -5.6709    1.0000 </r>
       <r>   -5.6514    1.0000 </r>
       <r>   -5.5901    1.0000 </r>
       <r>   -5.5584    1.0000 </r>
       <r>   -5.5142    1.0000 </r>
       <r>   -5.5111    1.0000 </r>
       <r>   -5.4758    1.0000 </r>
       <r>   -5.4387    1.0000 </r>
       <r>   -5.4246    1.0000 </r>
       <r>   -5.3271    1.0000 </r>
       <r>   -5.2629    1.0000 </r>
       <r>   -5.1932    1.0000 </r>
       <r>   -5.1866    1.0000 </r>
       <r>   -5.1692    1.0000 </r>
       <r>   -5.1133    1.0000 </r>
       <r>   -5.1077    1.0000 </r>
       <r>   -5.0865    1.0000 </r>
       <r>   -5.0348    1.0000 </r>
       <r>   -4.9435    1.0000 </r>
       <r>   -4.9275    1.0000 </r>
       <r>   -4.9006    1.0000 </r>
       <r>   -4.8836    1.0000 </r>
       <r>   -4.8796    1.0000 </r>
       <r>   -4.7794    1.0000 </r>
       <r>   -4.6626    1.0007 </r>
       <r>   -4.1537    0.5669 </r>
       <r>   -3.4828   -0.0000 </r>
       <r>   -3.2857   -0.0000 </r>
       <r>   -2.2460   -0.0000 </r>
       <r>   -2.0890   -0.0000 </r>
       <r>   -1.5662   -0.0000 </r>
       <r>   -1.5651   -0.0000 </r>
       <r>   -1.5109   -0.0000 </r>
       <r>   -1.4360   -0.0000 </r>
       <r>   -0.5334   -0.0000 </r>
       <r>   -0.3043   -0.0000 </r>
       <r>   -0.2983   -0.0000 </r>
      </set>
     </set>
     <set comment="spin 2">
      <set comment="kpoint 1">
       <r>   -9.9142    1.0000 </r>
       <r>   -8.1979    1.0000 </r>
       <r>   -8.0483    1.0000 </r>
       <r>   -7.4659    1.0000 </r>
       <r>   -7.4483    1.0000 </r>
       <r>   -7.3182    1.0000 </r>
       <r>   -7.3134    1.0000 </r>
       <r>   -6.9981    1.0000 </r>
       <r>   -6.7798    1.0000 </r>
       <r>   -6.6688    1.0000 </r>
       <r>   -6.5488    1.0000 </r>
       <r>   -6.4883    1.0000 </r>
       <r>   -6.4716    1.0000 </r>
       <r>   -6.2285    1.0000 </r>
       <r>   -6.2048    1.0000 </r>
       <r>   -5.9719    1.0000 </r>
       <r>   -5.9632    1.0000 </r>
       <r>   -5.9360    1.0000 </r>
       <r>   -5.9025    1.0000 </r>
       <r>   -5.8498    1.0000 </r>
       <r>   -5.8393    1.0000 </r>
       <r>   -5.7163    1.0000 </r>
       <r>   -5.6017    1.0000 </r>
       <r>   -5.5809    1.0000 </r>
       <r>   -5.4570    1.0000 </r>
       <r>   -5.4468    1.0000 </r>
       <r>   -5.4369    1.0000 </r>
       <r>   -5.3827    1.0000 </r>
       <r>   -5.3470    1.0000 </r>
       <r>   -5.2771    1.0000 </r>
       <r>   -5.1650    1.0000 </r>
       <r>   -5.0176    1.0000 </r>
       <r>   -4.9472    1.0000 </r>
       <r>   -4.9179    1.0000 </r>
       <r>   -4.8924    1.0000 </r>
       <r>   -4.8445    1.0000 </r>
       <r>   -4.8216    1.0000 </r>
       <r>   -4.7848    1.0000 </r>
       <r>   -4.7637    1.0000 </r>
       <r>   -4.7244    1.0001 </r>
       <r>   -4.5331    1.0086 </r>
       <r>   -4.5124    1.0118 </r>
       <r>   -4.4052    1.0338 </r>
       <r>   -4.3840    1.0355 </r>
       <r>   -4.2723    0.9499 </r>
       <r>   -4.1868    0.7004 </r>
       <r>   -4.1762    0.6589 </r>
       <r>   -4.0320    0.1141 </r>
       <r>   -3.9738    0.0050 </r>
       <r>   -3.9625   -0.0072 </r>
       <r>   -3.9290   -0.0291 </r>
       <r>   -3.8421   -0.0286 </r>
       <r>   -3.8030   -0.0197 </r>
       <r>   -3.6381   -0.0012 </r>
       <r>   -3.2089   -0.0000 </r>
       <r>   -3.0544   -0.0000 </r>
       <r>   -2.0905   -0.0000 </r>
       <r>   -1.8500   -0.0000 </r>
       <r>   -1.4509   -0.0000 </r>
       <r>   -1.4191   -0.0000 </r>
       <r>   -1.3842   -0.0000 </r>
       <r>   -1.1500   -0.0000 </r>
       <r>   -0.4723   -0.0000 </r>
       <r>   -0.2560   -0.0000 </r>
       <r>   -0.1995   -0.0000 </r>
      </set>
     </set>
    </set>
   </array>
  </eigenvalues>
  <separator name="orbital magnetization" >
   <v name="MAGDIPOLOUT">      0.00000000      0.00000000      0.00000000</v>
  </separator>
  <dos>
   <i name="efermi">     -4.13785569 </i>
   <total>
    <array>
     <dimension dim="1">gridpoints</dimension>
     <dimension dim="2">spin</dimension>
     <field>energy</field>
     <field>total</field>
     <field>integrated</field>
     <set>
      <set comment="spin 1">
       <r>   -11.9639     0.0000     0.0000 </r>
       <r>   -11.9180     0.0000     0.0000 </r>
       <r>   -11.8721     0.0000     0.0000 </r>
       <r>   -11.8262     0.0000     0.0000 </r>
       <r>   -11.7803     0.0000     0.0000 </r>
       <r>   -11.7345     0.0000     0.0000 </r>
       <r>   -11.6886     0.0000     0.0000 </r>
       <r>   -11.6427     0.0000     0.0000 </r>
       <r>   -11.5968    -0.0000    -0.0000 </r>
       <r>   -11.5509    -0.0000    -0.0000 </r>
       <r>   -11.5051    -0.0000    -0.0000 </r>
       <r>   -11.4592    -0.0000    -0.0000 </r>
       <r>   -11.4133    -0.0000    -0.0000 </r>
       <r>   -11.3674    -0.0000    -0.0000 </r>
       <r>   -11.3215    -0.0000    -0.0000 </r>
       <r>   -11.2756    -0.0000    -0.0000 </r>
       <r>   -11.2298    -0.0000    -0.0000 </r>
       <r>   -11.1839    -0.0000    -0.0000 </r>
       <r>   -11.1380    -0.0000    -0.0000 </r>
       <r>   -11.0921    -0.0000    -0.0000 </r>
       <r>   -11.0462    -0.0000    -0.0000 </r>
       <r>   -11.0004    -0.0000    -0.0000 </r>
       <r>   -10.9545    -0.0000    -0.0000 </r>
       <r>   -10.9086    -0.0000    -0.0000 </r>
       <r>   -10.8627    -0.0000    -0.0000 </r>
       <r>   -10.8168    -0.0000    -0.0000 </r>
       <r>   -10.7710    -0.0000    -0.0000 </r>
       <r>   -10.7251    -0.0000    -0.0000 </r>
       <r>   -10.6792    -0.0000    -0.0000 </r>
       <r>   -10.6333    -0.0002    -0.0000 </r>
       <r>   -10.5874    -0.0008    -0.0000 </r>
       <r>   -10.5415    -0.0027    -0.0002 </r>
       <r>   -10.4957    -0.0083    -0.0006 </r>
       <r>   -10.4498    -0.0223    -0.0016 </r>
       <r>   -10.4039    -0.0522    -0.0040 </r>
       <r>   -10.3580    -0.1047    -0.0088 </r>
       <r>   -10.3121    -0.1745    -0.0168 </r>
       <r>   -10.2663    -0.2252    -0.0271 </r>
       <r>   -10.2204    -0.1715    -0.0350 </r>
       <r>   -10.1745     0.1130    -0.0298 </r>
       <r>   -10.1286     0.7394     0.0041 </r>
       <r>   -10.0827     1.7092     0.0825 </r>
       <r>   -10.0369     2.8388     0.2128 </r>
       <r>    -9.9910     3.7855     0.3865 </r>
       <r>    -9.9451     4.1977     0.5791 </r>
       <r>    -9.8992     3.9083     0.7584 </r>
       <r>    -9.8533     3.0354     0.8977 </r>
       <r>    -9.8074     1.9107     0.9853 </r>
       <r>    -9.7616     0.8926     1.0263 </r>
       <r>    -9.7157     0.1991     1.0354 </r>
       <r>    -9.6698    -0.1409     1.0290 </r>
       <r>    -9.6239    -0.2265     1.0186 </r>
       <r>    -9.5780    -0.1869     1.0100 </r>
       <r>    -9.5322    -0.1166     1.0046 </r>
       <r>    -9.4863    -0.0600     1.0019 </r>
       <r>    -9.4404    -0.0263     1.0007 </r>
       <r>    -9.3945    -0.0100     1.0002 </r>
       <r>    -9.3486    -0.0034     1.0001 </r>
       <r>    -9.3027    -0.0010     1.0000 </r>
       <r>    -9.2569    -0.0003     1.0000 </r>
       <r>    -9.2110    -0.0001     1.0000 </r>
       <r>    -9.1651    -0.0003     1.0000 </r>
       <r>    -9.1192    -0.0011     0.9999 </r>
       <r>    -9.0733    -0.0036     0.9998 </r>
       <r>    -9.0275    -0.0109     0.9993 </r>
       <r>    -8.9816    -0.0291     0.9979 </r>
       <r>    -8.9357    -0.0676     0.9948 </r>
       <r>    -8.8898    -0.1357     0.9886 </r>
       <r>    -8.8439    -0.2299     0.9781 </r>
       <r>    -8.7981    -0.3118     0.9638 </r>
       <r>    -8.7522    -0.2855     0.9507 </r>
       <r>    -8.7063     0.0031     0.9508 </r>
       <r>    -8.6604     0.7185     0.9838 </r>
       <r>    -8.6145     1.9422     1.0729 </r>
       <r>    -8.5686     3.5735     1.2368 </r>
       <r>    -8.5228     5.2959     1.4798 </r>
       <r>    -8.4769     6.6552     1.7852 </r>
       <r>    -8.4310     7.2290     2.1168 </r>
       <r>    -8.3851     6.8055     2.4291 </r>
       <r>    -8.3392     5.4809     2.6805 </r>
       <r>    -8.2934     3.6330     2.8472 </r>
       <r>    -8.2475     1.8020     2.9299 </r>
       <r>    -8.2016     0.5438     2.9549 </r>
       <r>    -8.1557     0.3037     2.9688 </r>
       <r>    -8.1098     1.3091     3.0289 </r>
       <r>    -8.0640     3.4699     3.1881 </r>
       <r>    -8.0181     6.3286     3.4784 </r>
       <r>    -7.9722     9.1457     3.8981 </r>
       <r>    -7.9263    11.1484     4.4096 </r>
       <r>    -7.8804    11.8403     4.9528 </r>
       <r>    -7.8345    11.2027     5.4668 </r>
       <r>    -7.7887     9.6962     5.9117 </r>
       <r>    -7.7428     8.1059     6.2836 </r>
       <r>    -7.6969     7.3010     6.6186 </r>
       <r>    -7.6510     7.9245     6.9821 </r>
       <r>    -7.6051    10.0453     7.4430 </r>
       <r>    -7.5593    12.9561     8.0375 </r>
       <r>    -7.5134    15.3727     8.7428 </r>
       <r>    -7.4675    16.0748     9.4803 </r>
       <r>    -7.4216    14.6196    10.1511 </r>
       <r>    -7.3757    11.5954    10.6831 </r>
       <r>    -7.3299     8.2004    11.0594 </r>
       <r>    -7.2840     5.4875    11.3111 </r>
       <r>    -7.2381     3.8668    11.4886 </r>
       <r>    -7.1922     3.1727    11.6341 </r>
       <r>    -7.1463     3.0911    11.7759 </r>
       <r>    -7.1004     3.4889    11.9360 </r>
       <r>    -7.0546     4.3900    12.1374 </r>
       <r>    -7.0087     5.7354    12.4006 </r>
       <r>    -6.9628     7.2591    12.7336 </r>
       <r>    -6.9169     8.6381    13.1300 </r>
       <r>    -6.8710     9.7582    13.5777 </r>
       <r>    -6.8252    10.8088    14.0736 </r>
       <r>    -6.7793    12.0974    14.6287 </r>
       <r>    -6.7334    13.7484    15.2595 </r>
       <r>    -6.6875    15.5387    15.9724 </r>
       <r>    -6.6416    16.9861    16.7517 </r>
       <r>    -6.5958    17.6043    17.5594 </r>
       <r>    -6.5499    17.1599    18.3468 </r>
       <r>    -6.5040    15.7999    19.0717 </r>
       <r>    -6.4581    14.0009    19.7141 </r>
       <r>    -6.4122    12.3671    20.2815 </r>
       <r>    -6.3663    11.3626    20.8028 </r>
       <r>    -6.3205    11.1030    21.3122 </r>
       <r>    -6.2746    11.3179    21.8315 </r>
       <r>    -6.2287    11.5174    22.3599 </r>
       <r>    -6.1828    11.2666    22.8769 </r>
       <r>    -6.1369    10.4029    23.3542 </r>
       <r>    -6.0911     9.0752    23.7706 </r>
       <r>    -6.0452     7.6310    24.1207 </r>
       <r>    -5.9993     6.4736    24.4177 </r>
       <r>    -5.9534     5.9770    24.6919 </r>
       <r>    -5.9075     6.4436    24.9876 </r>
       <r>    -5.8616     8.0485    25.3568 </r>
       <r>    -5.8158    10.7694    25.8510 </r>
       <r>    -5.7699    14.3612    26.5099 </r>
       <r>    -5.7240    18.4146    27.3548 </r>
       <r>    -5.6781    22.4583    28.3852 </r>
       <r>    -5.6322    26.0235    29.5792 </r>
       <r>    -5.5864    28.6444    30.8934 </r>
       <r>    -5.5405    29.8700    32.2639 </r>
       <r>    -5.4946    29.3975    33.6127 </r>
       <r>    -5.4487    27.3261    34.8664 </r>
       <r>    -5.4028    24.3470    35.9835 </r>
       <r>    -5.3570    21.6281    36.9758 </r>
       <r>    -5.3111    20.3292    37.9086 </r>
       <r>    -5.2652    20.9952    38.8719 </r>
       <r>    -5.2193    23.2408    39.9382 </r>
       <r>    -5.1734    25.9849    41.1304 </r>
       <r>    -5.1275    28.1085    42.4200 </r>
       <r>    -5.0817    29.0734    43.7540 </r>
       <r>    -5.0358    29.0558    45.0871 </r>
       <r>    -4.9899    28.5285    46.3960 </r>
       <r>    -4.9440    27.6927    47.6666 </r>
       <r>    -4.8981    26.2760    48.8722 </r>
       <r>    -4.8523    23.8491    49.9664 </r>
       <r>    -4.8064    20.3170    50.8986 </r>
       <r>    -4.7605    16.1066    51.6376 </r>
       <r>    -4.7146    11.9120    52.1841 </r>
       <r>    -4.6687     8.2808    52.5640 </r>
       <r>    -4.6229     5.4040    52.8120 </r>
       <r>    -4.5770     3.2057    52.9591 </r>
       <r>    -4.5311     1.5528    53.0303 </r>
       <r>    -4.4852     0.3823    53.0478 </r>
       <r>    -4.4393    -0.2981    53.0342 </r>
       <r>    -4.3934    -0.4595    53.0131 </r>
       <r>    -4.3476    -0.0919    53.0089 </r>
       <r>    -4.3017     0.7577    53.0436 </r>
       <r>    -4.2558     1.9306    53.1322 </r>
       <r>    -4.2099     3.1267    53.2757 </r>
       <r>    -4.1640     3.9669    53.4577 </r>
       <r>    -4.1182     4.1543    53.6483 </r>
       <r>    -4.0723     3.6336    53.8150 </r>
       <r>    -4.0264     2.6243    53.9354 </r>
       <r>    -3.9805     1.4920    54.0039 </r>
       <r>    -3.9346     0.5528    54.0292 </r>
       <r>    -3.8888    -0.0532    54.0268 </r>
       <r>    -3.8429    -0.3554    54.0105 </r>
       <r>    -3.7970    -0.4514    53.9898 </r>
       <r>    -3.7511    -0.3965    53.9716 </r>
       <r>    -3.7052    -0.1556    53.9644 </r>
       <r>    -3.6593     0.3625    53.9811 </r>
       <r>    -3.6135     1.2114    54.0366 </r>
       <r>    -3.5676     2.3223    54.1432 </r>
       <r>    -3.5217     3.4979    54.3037 </r>
       <r>    -3.4758     4.5034    54.5103 </r>
       <r>    -3.4299     5.1852    54.7482 </r>
       <r>    -3.3841     5.5123    55.0011 </r>
       <r>    -3.3382     5.5109    55.2540 </r>
       <r>    -3.2923     5.1810    55.4917 </r>
       <r>    -3.2464     4.4964    55.6980 </r>
       <r>    -3.2005     3.4902    55.8581 </r>
       <r>    -3.1547     2.3189    55.9645 </r>
       <r>    -3.1088     1.2216    56.0206 </r>
       <r>    -3.0629     0.4020    56.0390 </r>
       <r>    -3.0170    -0.0650    56.0360 </r>
       <r>    -2.9711    -0.2357    56.0252 </r>
       <r>    -2.9252    -0.2306    56.0146 </r>
       <r>    -2.8794    -0.1606    56.0073 </r>
       <r>    -2.8335    -0.0919    56.0030 </r>
       <r>    -2.7876    -0.0493    56.0008 </r>
       <r>    -2.7417    -0.0361    55.9991 </r>
       <r>    -2.6958    -0.0516    55.9968 </r>
       <r>    -2.6500    -0.0976    55.9923 </r>
       <r>    -2.6041    -0.1719    55.9844 </r>
       <r>    -2.5582    -0.2505    55.9729 </r>
       <r>    -2.5123    -0.2663    55.9607 </r>
       <r>    -2.4664    -0.1030    55.9559 </r>
       <r>    -2.4205     0.3753    55.9732 </r>
       <r>    -2.3747     1.2549    56.0307 </r>
       <r>    -2.3288     2.4972    56.1453 </r>
       <r>    -2.2829     3.9148    56.3249 </r>
       <r>    -2.2370     5.2241    56.5646 </r>
       <r>    -2.1911     6.1431    56.8465 </r>
       <r>    -2.1453     6.4754    57.1436 </r>
       <r>    -2.0994     6.1472    57.4256 </r>
       <r>    -2.0535     5.2112    57.6647 </r>
       <r>    -2.0076     3.8382    57.8408 </r>
       <r>    -1.9617     2.2845    57.9456 </r>
       <r>    -1.9159     0.8313    57.9838 </r>
       <r>    -1.8700    -0.2671    57.9715 </r>
       <r>    -1.8241    -0.7800    57.9357 </r>
       <r>    -1.7782    -0.4586    57.9147 </r>
       <r>    -1.7323     0.9510    57.9583 </r>
       <r>    -1.6864     3.5614    58.1217 </r>
       <r>    -1.6406     7.1185    58.4483 </r>
       <r>    -1.5947    10.8878    58.9479 </r>
       <r>    -1.5488    13.8247    59.5822 </r>
       <r>    -1.5029    15.0059    60.2707 </r>
       <r>    -1.4570    14.0720    60.9163 </r>
       <r>    -1.4112    11.3928    61.4390 </r>
       <r>    -1.3653     7.8571    61.7995 </r>
       <r>    -1.3194     4.4418    62.0033 </r>
       <r>    -1.2735     1.8265    62.0871 </r>
       <r>    -1.2276     0.2385    62.0981 </r>
       <r>    -1.1818    -0.4667    62.0766 </r>
       <r>    -1.1359    -0.6058    62.0488 </r>
       <r>    -1.0900    -0.4871    62.0265 </r>
       <r>    -1.0441    -0.3171    62.0119 </r>
       <r>    -0.9982    -0.1949    62.0030 </r>
       <r>    -0.9523    -0.1481    61.9962 </r>
       <r>    -0.9065    -0.1683    61.9885 </r>
       <r>    -0.8606    -0.2234    61.9782 </r>
       <r>    -0.8147    -0.2490    61.9668 </r>
       <r>    -0.7688    -0.1422    61.9603 </r>
       <r>    -0.7229     0.2138    61.9701 </r>
       <r>    -0.6771     0.8859    62.0107 </r>
       <r>    -0.6312     1.8259    62.0945 </r>
       <r>    -0.5853     2.8755    62.2264 </r>
       <r>    -0.5394     3.8734    62.4042 </r>
       <r>    -0.4935     4.7910    62.6240 </r>
       <r>    -0.4477     5.7481    62.8877 </r>
       <r>    -0.4018     6.8441    63.2017 </r>
       <r>    -0.3559     7.9328    63.5657 </r>
       <r>    -0.3100     8.5846    63.9596 </r>
       <r>    -0.2641     8.3316    64.3418 </r>
       <r>    -0.2182     7.0209    64.6640 </r>
       <r>    -0.1724     4.9702    64.8920 </r>
       <r>    -0.1265     2.7941    65.0202 </r>
       <r>    -0.0806     1.0548    65.0686 </r>
       <r>    -0.0347     0.0083    65.0690 </r>
       <r>     0.0112    -0.4128    65.0500 </r>
       <r>     0.0570    -0.4443    65.0297 </r>
       <r>     0.1029    -0.3198    65.0150 </r>
       <r>     0.1488    -0.1831    65.0066 </r>
       <r>     0.1947    -0.0880    65.0025 </r>
       <r>     0.2406    -0.0365    65.0009 </r>
       <r>     0.2864    -0.0132    65.0003 </r>
       <r>     0.3323    -0.0042    65.0001 </r>
       <r>     0.3782    -0.0012    65.0000 </r>
       <r>     0.4241    -0.0003    65.0000 </r>
       <r>     0.4700    -0.0001    65.0000 </r>
       <r>     0.5159    -0.0000    65.0000 </r>
       <r>     0.5617    -0.0000    65.0000 </r>
       <r>     0.6076    -0.0000    65.0000 </r>
       <r>     0.6535    -0.0000    65.0000 </r>
       <r>     0.6994    -0.0000    65.0000 </r>
       <r>     0.7453    -0.0000    65.0000 </r>
       <r>     0.7911    -0.0000    65.0000 </r>
       <r>     0.8370    -0.0000    65.0000 </r>
       <r>     0.8829    -0.0000    65.0000 </r>
       <r>     0.9288    -0.0000    65.0000 </r>
       <r>     0.9747     0.0000    65.0000 </r>
       <r>     1.0205     0.0000    65.0000 </r>
       <r>     1.0664     0.0000    65.0000 </r>
       <r>     1.1123     0.0000    65.0000 </r>
       <r>     1.1582     0.0000    65.0000 </r>
       <r>     1.2041     0.0000    65.0000 </r>
       <r>     1.2500     0.0000    65.0000 </r>
       <r>     1.2958     0.0000    65.0000 </r>
       <r>     1.3417     0.0000    65.0000 </r>
       <r>     1.3876     0.0000    65.0000 </r>
       <r>     1.4335     0.0000    65.0000 </r>
       <r>     1.4794     0.0000    65.0000 </r>
       <r>     1.5252     0.0000    65.0000 </r>
       <r>     1.5711     0.0000    65.0000 </r>
       <r>     1.6170     0.0000    65.0000 </r>
       <r>     1.6629     0.0000    65.0000 </r>
       <r>     1.7088     0.0000    65.0000 </r>
       <r>     1.7547     0.0000    65.0000 </r>
       <r>     1.8005     0.0000    65.0000 </r>
      </set>
      <set comment="spin 2">
       <r>   -11.9639     0.0000     0.0000 </r>
       <r>   -11.9180     0.0000     0.0000 </r>
       <r>   -11.8721     0.0000     0.0000 </r>
       <r>   -11.8262     0.0000     0.0000 </r>
       <r>   -11.7803     0.0000     0.0000 </r>
       <r>   -11.7345     0.0000     0.0000 </r>
       <r>   -11.6886     0.0000     0.0000 </r>
       <r>   -11.6427     0.0000     0.0000 </r>
       <r>   -11.5968     0.0000     0.0000 </r>
       <r>   -11.5509    -0.0000    -0.0000 </r>
       <r>   -11.5051    -0.0000    -0.0000 </r>
       <r>   -11.4592    -0.0000    -0.0000 </r>
       <r>   -11.4133    -0.0000    -0.0000 </r>
       <r>   -11.3674    -0.0000    -0.0000 </r>
       <r>   -11.3215    -0.0000    -0.0000 </r>
       <r>   -11.2756    -0.0000    -0.0000 </r>
       <r>   -11.2298    -0.0000    -0.0000 </r>
       <r>   -11.1839    -0.0000    -0.0000 </r>
       <r>   -11.1380    -0.0000    -0.0000 </r>
       <r>   -11.0921    -0.0000    -0.0000 </r>
       <r>   -11.0462    -0.0000    -0.0000 </r>
       <r>   -11.0004    -0.0000    -0.0000 </r>
       <r>   -10.9545    -0.0000    -0.0000 </r>
       <r>   -10.9086    -0.0000    -0.0000 </r>
       <r>   -10.8627    -0.0000    -0.0000 </r>
       <r>   -10.8168    -0.0000    -0.0000 </r>
       <r>   -10.7710    -0.0000    -0.0000 </r>
       <r>   -10.7251    -0.0000    -0.0000 </r>
       <r>   -10.6792    -0.0000    -0.0000 </r>
       <r>   -10.6333    -0.0000    -0.0000 </r>
       <r>   -10.5874    -0.0002    -0.0000 </r>
       <r>   -10.5415    -0.0007    -0.0000 </r>
       <r>   -10.4957    -0.0025    -0.0002 </r>
       <r>   -10.4498    -0.0076    -0.0005 </r>
       <r>   -10.4039    -0.0207    -0.0015 </r>
       <r>   -10.3580    -0.0489    -0.0037 </r>
       <r>   -10.3121    -0.0994    -0.0083 </r>
       <r>   -10.2663    -0.1686    -0.0160 </r>
       <r>   -10.2204    -0.2234    -0.0262 </r>
       <r>   -10.1745    -0.1829    -0.0346 </r>
       <r>   -10.1286     0.0772    -0.0311 </r>
       <r>   -10.0827     0.6729    -0.0002 </r>
       <r>   -10.0369     1.6183     0.0740 </r>
       <r>    -9.9910     2.7461     0.2000 </r>
       <r>    -9.9451     3.7228     0.3708 </r>
       <r>    -9.8992     4.1896     0.5631 </r>
       <r>    -9.8533     3.9583     0.7447 </r>
       <r>    -9.8074     3.1233     0.8880 </r>
       <r>    -9.7616     2.0049     0.9800 </r>
       <r>    -9.7157     0.9669     1.0243 </r>
       <r>    -9.6698     0.2428     1.0355 </r>
       <r>    -9.6239    -0.1241     1.0298 </r>
       <r>    -9.5780    -0.2258     1.0194 </r>
       <r>    -9.5322    -0.1923     1.0106 </r>
       <r>    -9.4863    -0.1223     1.0050 </r>
       <r>    -9.4404    -0.0638     1.0020 </r>
       <r>    -9.3945    -0.0284     1.0007 </r>
       <r>    -9.3486    -0.0109     1.0002 </r>
       <r>    -9.3027    -0.0037     1.0001 </r>
       <r>    -9.2569    -0.0011     1.0000 </r>
       <r>    -9.2110    -0.0003     1.0000 </r>
       <r>    -9.1651    -0.0001     1.0000 </r>
       <r>    -9.1192    -0.0000     1.0000 </r>
       <r>    -9.0733    -0.0000     1.0000 </r>
       <r>    -9.0275    -0.0000     1.0000 </r>
       <r>    -8.9816    -0.0000     1.0000 </r>
       <r>    -8.9357    -0.0000     1.0000 </r>
       <r>    -8.8898    -0.0001     1.0000 </r>
       <r>    -8.8439    -0.0004     1.0000 </r>
       <r>    -8.7981    -0.0015     0.9999 </r>
       <r>    -8.7522    -0.0049     0.9997 </r>
       <r>    -8.7063    -0.0143     0.9990 </r>
       <r>    -8.6604    -0.0362     0.9974 </r>
       <r>    -8.6145    -0.0797     0.9937 </r>
       <r>    -8.5686    -0.1502     0.9868 </r>
       <r>    -8.5228    -0.2349     0.9760 </r>
       <r>    -8.4769    -0.2813     0.9631 </r>
       <r>    -8.4310    -0.1846     0.9547 </r>
       <r>    -8.3851     0.1951     0.9636 </r>
       <r>    -8.3392     0.9728     1.0082 </r>
       <r>    -8.2934     2.1581     1.1073 </r>
       <r>    -8.2475     3.6042     1.2726 </r>
       <r>    -8.2016     5.0328     1.5035 </r>
       <r>    -8.1557     6.1243     1.7845 </r>
       <r>    -8.1098     6.6242     2.0885 </r>
       <r>    -8.0640     6.4149     2.3828 </r>
       <r>    -8.0181     5.5419     2.6370 </r>
       <r>    -7.9722     4.2012     2.8298 </r>
       <r>    -7.9263     2.6839     2.9529 </r>
       <r>    -7.8804     1.2811     3.0117 </r>
       <r>    -7.8345     0.1890     3.0204 </r>
       <r>    -7.7887    -0.5208     2.9965 </r>
       <r>    -7.7428    -0.8375     2.9581 </r>
       <r>    -7.6969    -0.7039     2.9258 </r>
       <r>    -7.6510     0.0371     2.9275 </r>
       <r>    -7.6051     1.5711     2.9996 </r>
       <r>    -7.5593     3.9445     3.1805 </r>
       <r>    -7.5134     6.9137     3.4978 </r>
       <r>    -7.4675     9.9320     3.9534 </r>
       <r>    -7.4216    12.3032     4.5179 </r>
       <r>    -7.3757    13.4226     5.1338 </r>
       <r>    -7.3299    12.9965     5.7301 </r>
       <r>    -7.2840    11.1626     6.2422 </r>
       <r>    -7.2381     8.4769     6.6312 </r>
       <r>    -7.1922     5.7403     6.8945 </r>
       <r>    -7.1463     3.6940     7.0640 </r>
       <r>    -7.1004     2.7137     7.1885 </r>
       <r>    -7.0546     2.6879     7.3119 </r>
       <r>    -7.0087     3.1744     7.4575 </r>
       <r>    -6.9628     3.7292     7.6286 </r>
       <r>    -6.9169     4.1680     7.8198 </r>
       <r>    -6.8710     4.5883     8.0304 </r>
       <r>    -6.8252     5.1883     8.2684 </r>
       <r>    -6.7793     6.0805     8.5474 </r>
       <r>    -6.7334     7.2515     8.8801 </r>
       <r>    -6.6875     8.6372     9.2764 </r>
       <r>    -6.6416    10.1560     9.7423 </r>
       <r>    -6.5958    11.6291    10.2759 </r>
       <r>    -6.5499    12.6983    10.8585 </r>
       <r>    -6.5040    12.9250    11.4515 </r>
       <r>    -6.4581    12.0883    12.0062 </r>
       <r>    -6.4122    10.4443    12.4854 </r>
       <r>    -6.3663     8.6595    12.8827 </r>
       <r>    -6.3205     7.3981    13.2221 </r>
       <r>    -6.2746     6.8932    13.5384 </r>
       <r>    -6.2287     6.9038    13.8551 </r>
       <r>    -6.1828     7.1180    14.1817 </r>
       <r>    -6.1369     7.6205    14.5314 </r>
       <r>    -6.0911     8.9403    14.9415 </r>
       <r>    -6.0452    11.5633    15.4721 </r>
       <r>    -5.9993    15.3137    16.1747 </r>
       <r>    -5.9534    19.1683    17.0542 </r>
       <r>    -5.9075    21.7296    18.0511 </r>
       <r>    -5.8616    22.0343    19.0621 </r>
       <r>    -5.8158    20.1171    19.9851 </r>
       <r>    -5.7699    16.9605    20.7633 </r>
       <r>    -5.7240    13.9359    21.4027 </r>
       <r>    -5.6781    12.1575    21.9605 </r>
       <r>    -5.6322    12.1235    22.5167 </r>
       <r>    -5.5864    13.7181    23.1461 </r>
       <r>    -5.5405    16.3946    23.8983 </r>
       <r>    -5.4946    19.3508    24.7862 </r>
       <r>    -5.4487    21.6802    25.7809 </r>
       <r>    -5.4028    22.5853    26.8171 </r>
       <r>    -5.3570    21.6534    27.8106 </r>
       <r>    -5.3111    19.0452    28.6844 </r>
       <r>    -5.2652    15.4458    29.3931 </r>
       <r>    -5.2193    11.7999    29.9345 </r>
       <r>    -5.1734     9.0119    30.3480 </r>
       <r>    -5.1275     7.7606    30.7041 </r>
       <r>    -5.0817     8.4259    31.0906 </r>
       <r>    -5.0358    11.0333    31.5969 </r>
       <r>    -4.9899    15.1781    32.2933 </r>
       <r>    -4.9440    20.0005    33.2109 </r>
       <r>    -4.8981    24.3147    34.3265 </r>
       <r>    -4.8523    26.9201    35.5616 </r>
       <r>    -4.8064    27.0154    36.8011 </r>
       <r>    -4.7605    24.5528    37.9276 </r>
       <r>    -4.7146    20.3438    38.8610 </r>
       <r>    -4.6687    15.7884    39.5854 </r>
       <r>    -4.6229    12.2911    40.1494 </r>
       <r>    -4.5770    10.6522    40.6381 </r>
       <r>    -4.5311    10.7891    41.1331 </r>
       <r>    -4.4852    11.9447    41.6812 </r>
       <r>    -4.4393    13.2089    42.2872 </r>
       <r>    -4.3934    13.9912    42.9292 </r>
       <r>    -4.3476    14.1771    43.5796 </r>
       <r>    -4.3017    13.9698    44.2206 </r>
       <r>    -4.2558    13.6355    44.8462 </r>
       <r>    -4.2099    13.3775    45.4600 </r>
       <r>    -4.1640    13.3805    46.0739 </r>
       <r>    -4.1182    13.8677    46.7101 </r>
       <r>    -4.0723    15.0024    47.3985 </r>
       <r>    -4.0264    16.6676    48.1632 </r>
       <r>    -3.9805    18.3510    49.0052 </r>
       <r>    -3.9346    19.3200    49.8916 </r>
       <r>    -3.8888    19.0052    50.7636 </r>
       <r>    -3.8429    17.3148    51.5580 </r>
       <r>    -3.7970    14.6578    52.2305 </r>
       <r>    -3.7511    11.6870    52.7667 </r>
       <r>    -3.7052     8.9570    53.1777 </r>
       <r>    -3.6593     6.7117    53.4856 </r>
       <r>    -3.6135     4.8973    53.7103 </r>
       <r>    -3.5676     3.3455    53.8638 </r>
       <r>    -3.5217     1.9738    53.9544 </r>
       <r>    -3.4758     0.8705    53.9943 </r>
       <r>    -3.4299     0.2360    54.0052 </r>
       <r>    -3.3841     0.2500    54.0166 </r>
       <r>    -3.3382     0.9559    54.0605 </r>
       <r>    -3.2923     2.2137    54.1621 </r>
       <r>    -3.2464     3.7298    54.3332 </r>
       <r>    -3.2005     5.1458    54.5693 </r>
       <r>    -3.1547     6.1421    54.8511 </r>
       <r>    -3.1088     6.5124    55.1499 </r>
       <r>    -3.0629     6.1925    55.4340 </r>
       <r>    -3.0170     5.2627    55.6755 </r>
       <r>    -2.9711     3.9330    55.8559 </r>
       <r>    -2.9252     2.4978    55.9705 </r>
       <r>    -2.8794     1.2465    56.0277 </r>
       <r>    -2.8335     0.3659    56.0445 </r>
       <r>    -2.7876    -0.1097    56.0395 </r>
       <r>    -2.7417    -0.2699    56.0271 </r>
       <r>    -2.6958    -0.2525    56.0155 </r>
       <r>    -2.6500    -0.1755    56.0074 </r>
       <r>    -2.6041    -0.1078    56.0025 </r>
       <r>    -2.5582    -0.0770    55.9990 </r>
       <r>    -2.5123    -0.0889    55.9949 </r>
       <r>    -2.4664    -0.1390    55.9885 </r>
       <r>    -2.4205    -0.2059    55.9791 </r>
       <r>    -2.3747    -0.2332    55.9684 </r>
       <r>    -2.3288    -0.1194    55.9629 </r>
       <r>    -2.2829     0.2585    55.9747 </r>
       <r>    -2.2370     0.9746    56.0195 </r>
       <r>    -2.1911     1.9704    56.1099 </r>
       <r>    -2.1453     3.0318    56.2490 </r>
       <r>    -2.0994     3.8823    56.4271 </r>
       <r>    -2.0535     4.3507    56.6267 </r>
       <r>    -2.0076     4.4788    56.8322 </r>
       <r>    -1.9617     4.4568    57.0367 </r>
       <r>    -1.9159     4.4255    57.2397 </r>
       <r>    -1.8700     4.3259    57.4382 </r>
       <r>    -1.8241     3.9462    57.6193 </r>
       <r>    -1.7782     3.1388    57.7633 </r>
       <r>    -1.7323     2.0311    57.8565 </r>
       <r>    -1.6864     1.0672    57.9054 </r>
       <r>    -1.6406     0.8482    57.9444 </r>
       <r>    -1.5947     1.8500    58.0292 </r>
       <r>    -1.5488     4.1360    58.2190 </r>
       <r>    -1.5029     7.2033    58.5495 </r>
       <r>    -1.4570    10.0949    59.0127 </r>
       <r>    -1.4112    11.8090    59.5545 </r>
       <r>    -1.3653    11.8178    60.0967 </r>
       <r>    -1.3194    10.3515    60.5716 </r>
       <r>    -1.2735     8.2173    60.9487 </r>
       <r>    -1.2276     6.2702    61.2363 </r>
       <r>    -1.1818     4.9322    61.4626 </r>
       <r>    -1.1359     4.0929    61.6504 </r>
       <r>    -1.0900     3.3868    61.8058 </r>
       <r>    -1.0441     2.5555    61.9231 </r>
       <r>    -0.9982     1.6080    61.9968 </r>
       <r>    -0.9523     0.7282    62.0303 </r>
       <r>    -0.9065     0.0849    62.0341 </r>
       <r>    -0.8606    -0.2801    62.0213 </r>
       <r>    -0.8147    -0.4306    62.0015 </r>
       <r>    -0.7688    -0.4413    61.9813 </r>
       <r>    -0.7229    -0.3181    61.9667 </r>
       <r>    -0.6771     0.0101    61.9672 </r>
       <r>    -0.6312     0.6246    61.9958 </r>
       <r>    -0.5853     1.5214    62.0656 </r>
       <r>    -0.5394     2.5650    62.1833 </r>
       <r>    -0.4935     3.5567    62.3465 </r>
       <r>    -0.4477     4.3854    62.5477 </r>
       <r>    -0.4018     5.1270    62.7829 </r>
       <r>    -0.3559     5.9635    63.0566 </r>
       <r>    -0.3100     6.9530    63.3756 </r>
       <r>    -0.2641     7.8550    63.7360 </r>
       <r>    -0.2182     8.2086    64.1126 </r>
       <r>    -0.1724     7.6372    64.4630 </r>
       <r>    -0.1265     6.1391    64.7447 </r>
       <r>    -0.0806     4.1212    64.9338 </r>
       <r>    -0.0347     2.1624    65.0330 </r>
       <r>     0.0112     0.7048    65.0653 </r>
       <r>     0.0570    -0.1099    65.0603 </r>
       <r>     0.1029    -0.3990    65.0419 </r>
       <r>     0.1488    -0.3861    65.0242 </r>
       <r>     0.1947    -0.2658    65.0120 </r>
       <r>     0.2406    -0.1484    65.0052 </r>
       <r>     0.2864    -0.0702    65.0020 </r>
       <r>     0.3323    -0.0288    65.0007 </r>
       <r>     0.3782    -0.0104    65.0002 </r>
       <r>     0.4241    -0.0033    65.0001 </r>
       <r>     0.4700    -0.0009    65.0000 </r>
       <r>     0.5159    -0.0002    65.0000 </r>
       <r>     0.5617    -0.0001    65.0000 </r>
       <r>     0.6076    -0.0000    65.0000 </r>
       <r>     0.6535    -0.0000    65.0000 </r>
       <r>     0.6994    -0.0000    65.0000 </r>
       <r>     0.7453    -0.0000    65.0000 </r>
       <r>     0.7911    -0.0000    65.0000 </r>
       <r>     0.8370    -0.0000    65.0000 </r>
       <r>     0.8829    -0.0000    65.0000 </r>
       <r>     0.9288    -0.0000    65.0000 </r>
       <r>     0.9747    -0.0000    65.0000 </r>
       <r>     1.0205    -0.0000    65.0000 </r>
       <r>     1.0664    -0.0000    65.0000 </r>
       <r>     1.1123     0.0000    65.0000 </r>
       <r>     1.1582     0.0000    65.0000 </r>
       <r>     1.2041     0.0000    65.0000 </r>
       <r>     1.2500     0.0000    65.0000 </r>
       <r>     1.2958     0.0000    65.0000 </r>
       <r>     1.3417     0.0000    65.0000 </r>
       <r>     1.3876     0.0000    65.0000 </r>
       <r>     1.4335     0.0000    65.0000 </r>
       <r>     1.4794     0.0000    65.0000 </r>
       <r>     1.5252     0.0000    65.0000 </r>
       <r>     1.5711     0.0000    65.0000 </r>
       <r>     1.6170     0.0000    65.0000 </r>
       <r>     1.6629     0.0000    65.0000 </r>
       <r>     1.7088     0.0000    65.0000 </r>
       <r>     1.7547     0.0000    65.0000 </r>
       <r>     1.8005     0.0000    65.0000 </r>
      </set>
     </set>
    </array>
   </total>
  </dos>
 </calculation>
 <structure name="finalpos" >
  <crystal>
   <varray name="basis" >
    <v>      22.92112448       0.00000000       0.00000000 </v>
    <v>       0.00000000      23.72708119       0.00000000 </v>
    <v>       0.00000000       0.00000000      22.65269160 </v>
   </varray>
   <i name="volume">  12319.69761934 </i>
   <varray name="rec_basis" >
    <v>       0.04362788       0.00000000       0.00000000 </v>
    <v>       0.00000000       0.04214593       0.00000000 </v>
    <v>       0.00000000       0.00000000       0.04414486 </v>
   </varray>
  </crystal>
  <varray name="positions" >
   <v>       0.46729376       0.47010823       0.54670628 </v>
   <v>       0.56055165       0.46804852       0.49923406 </v>
   <v>       0.44500103       0.54933709       0.48521606 </v>
   <v>       0.52766524       0.55240837       0.54293960 </v>
   <v>       0.47804423       0.46492435       0.44164072 </v>
   <v>       0.53827533       0.54730855       0.43792762 </v>
   <v>       0.43256144       0.55759438       0.59266816 </v>
   <v>       0.50130800       0.38186161       0.50188936 </v>
   <v>       0.50431172       0.63560015       0.48281250 </v>
   <v>       0.57307566       0.45998251       0.39194103 </v>
  </varray>
 </structure>
</modeling>
