unknown system                          
            1
    22.921124    0.000000    0.000000
     0.000000   23.727081    0.000000
     0.000000    0.000000   22.652692
   Ni   Pd
     6     4
Direct configuration=     1
   0.46719401  0.46997636  0.54682993
   0.56055962  0.46815838  0.49932103
   0.44500597  0.54923111  0.48528322
   0.52770224  0.55241945  0.54287374
   0.47785627  0.46494995  0.44167979
   0.53845253  0.54748503  0.43773935
   0.43266349  0.55764087  0.59247653
   0.50134214  0.38195426  0.50177445
   0.50429243  0.63540494  0.48293825
   0.57301938  0.45995341  0.39205911
Direct configuration=     2
   0.46722726  0.47002032  0.54678870
   0.56055696  0.46812175  0.49929203
   0.44500433  0.54926645  0.48526083
   0.52768991  0.55241576  0.54289570
   0.47791893  0.46494142  0.44166676
   0.53839345  0.54742619  0.43780212
   0.43262946  0.55762537  0.59254042
   0.50133076  0.38192337  0.50181276
   0.50429886  0.63547002  0.48289633
   0.57303814  0.45996311  0.39201975
Direct configuration=     3
   0.46729376  0.47010823  0.54670628
   0.56055165  0.46804852  0.49923406
   0.44500103  0.54933709  0.48521606
   0.52766524  0.55240837  0.54293960
   0.47804423  0.46492435  0.44164072
   0.53827533  0.54730855  0.43792762
   0.43256144  0.55759438  0.59266816
   0.50130800  0.38186161  0.50188936
   0.50431172  0.63560015  0.48281250
   0.57307566  0.45998251  0.39194103
