  13  13   0   0
  0.9017622E+03  0.2310270E-08  0.2071228E-08  0.2449880E-08  0.5000000E-15
   1.0000000000000000E-004
  CAR 
 unknown system                          
      2.36055326    -12.36736473  301     -3.84779874      1.00000000
    -12.367  0.0000E+00  0.0000E+00  0.0000E+00  0.0000E+00
    -12.318  0.0000E+00  0.0000E+00  0.0000E+00  0.0000E+00
    -12.269  0.0000E+00  0.0000E+00  0.0000E+00  0.0000E+00
    -12.220  0.0000E+00  0.0000E+00  0.0000E+00  0.0000E+00
    -12.171  0.0000E+00  0.0000E+00  0.0000E+00  0.0000E+00
    -12.122  0.0000E+00  0.0000E+00  0.0000E+00  0.0000E+00
    -12.073  0.0000E+00  0.0000E+00  0.0000E+00  0.0000E+00
    -12.024  0.0000E+00  0.0000E+00  0.0000E+00  0.0000E+00
    -11.975 -0.4139E-29 -0.4101E-29 -0.2032E-30 -0.2013E-30
    -11.926 -0.1912E-27 -0.1894E-27 -0.9588E-29 -0.9502E-29
    -11.876 -0.7965E-26 -0.7895E-26 -0.4006E-27 -0.3971E-27
    -11.827 -0.2938E-24 -0.2913E-24 -0.1482E-25 -0.1470E-25
    -11.778 -0.9590E-23 -0.9512E-23 -0.4856E-24 -0.4817E-24
    -11.729 -0.2770E-21 -0.2749E-21 -0.1409E-22 -0.1398E-22
    -11.680 -0.7082E-20 -0.7028E-20 -0.3617E-21 -0.3590E-21
    -11.631 -0.1601E-18 -0.1590E-18 -0.8224E-20 -0.8164E-20
    -11.582 -0.3203E-17 -0.3181E-17 -0.1655E-18 -0.1643E-18
    -11.533 -0.5440E-16 -0.5402E-16 -0.2836E-17 -0.2816E-17
    -11.484 -0.8588E-15 -0.8532E-15 -0.4500E-16 -0.4470E-16
    -11.435 -0.1182E-13 -0.1175E-13 -0.6252E-15 -0.6214E-15
    -11.386 -0.1438E-12 -0.1430E-12 -0.7684E-14 -0.7639E-14
    -11.336 -0.1544E-11 -0.1535E-11 -0.8348E-13 -0.8302E-13
    -11.287 -0.1462E-10 -0.1455E-10 -0.8014E-12 -0.7972E-12
    -11.238 -0.1221E-09 -0.1215E-09 -0.6795E-11 -0.6762E-11
    -11.189 -0.8975E-09 -0.8934E-09 -0.5086E-10 -0.5062E-10
    -11.140 -0.5804E-08 -0.5779E-08 -0.3358E-09 -0.3344E-09
    -11.091 -0.3297E-07 -0.3284E-07 -0.1954E-08 -0.1946E-08
    -11.042 -0.1642E-06 -0.1636E-06 -0.1001E-07 -0.9977E-08
    -10.993 -0.7151E-06 -0.7127E-06 -0.4512E-07 -0.4497E-07
    -10.944 -0.2715E-05 -0.2706E-05 -0.1784E-06 -0.1778E-06
    -10.895 -0.8939E-05 -0.8915E-05 -0.6172E-06 -0.6155E-06
    -10.845 -0.2535E-04 -0.2529E-04 -0.1862E-05 -0.1857E-05
    -10.796 -0.6118E-04 -0.6107E-04 -0.4865E-05 -0.4855E-05
    -10.747 -0.1230E-03 -0.1229E-03 -0.1091E-04 -0.1089E-04
    -10.698 -0.1971E-03 -0.1970E-03 -0.2058E-04 -0.2056E-04
    -10.649 -0.2213E-03 -0.2214E-03 -0.3145E-04 -0.3143E-04
    -10.600 -0.6876E-04 -0.6947E-04 -0.3482E-04 -0.3484E-04
    -10.551  0.4169E-03  0.4153E-03 -0.1436E-04 -0.1445E-04
    -10.502  0.1314E-02  0.1312E-02  0.5016E-04  0.4995E-04
    -10.453  0.2496E-02  0.2493E-02  0.1727E-03  0.1723E-03
    -10.404  0.3597E-02  0.3595E-02  0.3493E-03  0.3488E-03
    -10.355  0.4173E-02  0.4172E-02  0.5541E-03  0.5536E-03
    -10.305  0.3961E-02  0.3962E-02  0.7486E-03  0.7481E-03
    -10.256  0.3060E-02  0.3063E-02  0.8988E-03  0.8985E-03
    -10.207  0.1861E-02  0.1864E-02  0.9902E-03  0.9900E-03
    -10.158  0.7963E-03  0.7984E-03  0.1029E-02  0.1029E-02
    -10.109  0.1135E-03  0.1146E-03  0.1035E-02  0.1035E-02
    -10.060 -0.1803E-03 -0.1800E-03  0.1026E-02  0.1026E-02
    -10.011 -0.2213E-03 -0.2213E-03  0.1015E-02  0.1015E-02
     -9.962 -0.1593E-03 -0.1595E-03  0.1007E-02  0.1007E-02
     -9.913 -0.8762E-04 -0.8777E-04  0.1003E-02  0.1003E-02
     -9.864 -0.3971E-04 -0.3979E-04  0.1001E-02  0.1001E-02
     -9.815 -0.1608E-04 -0.1611E-04  0.1000E-02  0.1000E-02
     -9.765 -0.8816E-05 -0.8818E-05  0.9998E-03  0.9998E-03
     -9.716 -0.1377E-04 -0.1374E-04  0.9992E-03  0.9992E-03
     -9.667 -0.3388E-04 -0.3380E-04  0.9975E-03  0.9975E-03
     -9.618 -0.7696E-04 -0.7682E-04  0.9937E-03  0.9937E-03
     -9.569 -0.1455E-03 -0.1453E-03  0.9866E-03  0.9866E-03
     -9.520 -0.2141E-03 -0.2140E-03  0.9761E-03  0.9761E-03
     -9.471 -0.2015E-03 -0.2018E-03  0.9662E-03  0.9662E-03
     -9.422  0.3477E-04  0.3372E-04  0.9679E-03  0.9678E-03
     -9.373  0.6421E-03  0.6399E-03  0.9994E-03  0.9993E-03
     -9.324  0.1649E-02  0.1646E-02  0.1080E-02  0.1080E-02
     -9.275  0.2853E-02  0.2850E-02  0.1220E-02  0.1220E-02
     -9.225  0.3841E-02  0.3839E-02  0.1409E-02  0.1408E-02
     -9.176  0.4195E-02  0.4195E-02  0.1615E-02  0.1614E-02
     -9.127  0.3751E-02  0.3753E-02  0.1799E-02  0.1799E-02
     -9.078  0.2713E-02  0.2716E-02  0.1932E-02  0.1932E-02
     -9.029  0.1514E-02  0.1517E-02  0.2007E-02  0.2006E-02
     -8.980  0.5485E-03  0.5505E-03  0.2033E-02  0.2033E-02
     -8.931 -0.1013E-04 -0.9198E-05  0.2033E-02  0.2033E-02
     -8.882 -0.2120E-03 -0.2118E-03  0.2023E-02  0.2023E-02
     -8.833 -0.2100E-03 -0.2101E-03  0.2012E-02  0.2012E-02
     -8.784 -0.1432E-03 -0.1434E-03  0.2005E-02  0.2005E-02
     -8.734 -0.9030E-04 -0.9041E-04  0.2001E-02  0.2001E-02
     -8.685 -0.8021E-04 -0.8022E-04  0.1997E-02  0.1997E-02
     -8.636 -0.1169E-03 -0.1168E-03  0.1991E-02  0.1991E-02
     -8.587 -0.1850E-03 -0.1849E-03  0.1982E-02  0.1982E-02
     -8.538 -0.2323E-03 -0.2323E-03  0.1971E-02  0.1971E-02
     -8.489 -0.1488E-03 -0.1491E-03  0.1963E-02  0.1963E-02
     -8.440  0.2136E-03  0.2128E-03  0.1974E-02  0.1974E-02
     -8.391  0.9528E-03  0.9513E-03  0.2021E-02  0.2020E-02
     -8.342  0.1994E-02  0.1992E-02  0.2118E-02  0.2118E-02
     -8.293  0.3050E-02  0.3048E-02  0.2268E-02  0.2268E-02
     -8.244  0.3763E-02  0.3762E-02  0.2453E-02  0.2453E-02
     -8.194  0.3978E-02  0.3978E-02  0.2648E-02  0.2648E-02
     -8.145  0.3911E-02  0.3910E-02  0.2840E-02  0.2840E-02
     -8.096  0.4020E-02  0.4018E-02  0.3038E-02  0.3037E-02
     -8.047  0.4656E-02  0.4653E-02  0.3266E-02  0.3266E-02
     -7.998  0.5769E-02  0.5766E-02  0.3549E-02  0.3549E-02
     -7.949  0.6946E-02  0.6944E-02  0.3890E-02  0.3890E-02
     -7.900  0.7715E-02  0.7715E-02  0.4269E-02  0.4268E-02
     -7.851  0.7836E-02  0.7838E-02  0.4654E-02  0.4653E-02
     -7.802  0.7377E-02  0.7380E-02  0.5016E-02  0.5015E-02
     -7.753  0.6580E-02  0.6583E-02  0.5339E-02  0.5339E-02
     -7.704  0.5705E-02  0.5707E-02  0.5619E-02  0.5619E-02
     -7.654  0.4951E-02  0.4952E-02  0.5862E-02  0.5862E-02
     -7.605  0.4438E-02  0.4438E-02  0.6080E-02  0.6080E-02
     -7.556  0.4219E-02  0.4218E-02  0.6287E-02  0.6287E-02
     -7.507  0.4348E-02  0.4347E-02  0.6501E-02  0.6500E-02
     -7.458  0.4983E-02  0.4982E-02  0.6745E-02  0.6745E-02
     -7.409  0.6397E-02  0.6394E-02  0.7059E-02  0.7059E-02
     -7.360  0.8780E-02  0.8775E-02  0.7490E-02  0.7489E-02
     -7.311  0.1197E-01  0.1197E-01  0.8078E-02  0.8077E-02
     -7.262  0.1538E-01  0.1538E-01  0.8833E-02  0.8832E-02
     -7.213  0.1820E-01  0.1819E-01  0.9727E-02  0.9725E-02
     -7.164  0.1981E-01  0.1981E-01  0.1070E-01  0.1070E-01
     -7.114  0.2014E-01  0.2014E-01  0.1169E-01  0.1169E-01
     -7.065  0.1955E-01  0.1955E-01  0.1265E-01  0.1265E-01
     -7.016  0.1860E-01  0.1860E-01  0.1356E-01  0.1356E-01
     -6.967  0.1770E-01  0.1771E-01  0.1443E-01  0.1443E-01
     -6.918  0.1704E-01  0.1704E-01  0.1527E-01  0.1527E-01
     -6.869  0.1668E-01  0.1668E-01  0.1609E-01  0.1608E-01
     -6.820  0.1673E-01  0.1673E-01  0.1691E-01  0.1691E-01
     -6.771  0.1736E-01  0.1736E-01  0.1776E-01  0.1776E-01
     -6.722  0.1852E-01  0.1852E-01  0.1867E-01  0.1867E-01
     -6.673  0.1978E-01  0.1978E-01  0.1964E-01  0.1964E-01
     -6.623  0.2044E-01  0.2044E-01  0.2064E-01  0.2064E-01
     -6.574  0.2001E-01  0.2001E-01  0.2163E-01  0.2162E-01
     -6.525  0.1865E-01  0.1865E-01  0.2254E-01  0.2254E-01
     -6.476  0.1713E-01  0.1713E-01  0.2338E-01  0.2338E-01
     -6.427  0.1631E-01  0.1631E-01  0.2418E-01  0.2418E-01
     -6.378  0.1656E-01  0.1656E-01  0.2500E-01  0.2499E-01
     -6.329  0.1759E-01  0.1759E-01  0.2586E-01  0.2586E-01
     -6.280  0.1870E-01  0.1870E-01  0.2678E-01  0.2678E-01
     -6.231  0.1935E-01  0.1935E-01  0.2773E-01  0.2773E-01
     -6.182  0.1946E-01  0.1946E-01  0.2868E-01  0.2868E-01
     -6.133  0.1943E-01  0.1944E-01  0.2964E-01  0.2963E-01
     -6.083  0.1978E-01  0.1978E-01  0.3061E-01  0.3061E-01
     -6.034  0.2078E-01  0.2078E-01  0.3163E-01  0.3163E-01
     -5.985  0.2240E-01  0.2239E-01  0.3273E-01  0.3273E-01
     -5.936  0.2443E-01  0.2443E-01  0.3393E-01  0.3392E-01
     -5.887  0.2674E-01  0.2673E-01  0.3524E-01  0.3524E-01
     -5.838  0.2928E-01  0.2928E-01  0.3668E-01  0.3667E-01
     -5.789  0.3207E-01  0.3207E-01  0.3825E-01  0.3825E-01
     -5.740  0.3504E-01  0.3504E-01  0.3997E-01  0.3997E-01
     -5.691  0.3805E-01  0.3804E-01  0.4184E-01  0.4184E-01
     -5.642  0.4084E-01  0.4084E-01  0.4384E-01  0.4384E-01
     -5.593  0.4304E-01  0.4303E-01  0.4596E-01  0.4595E-01
     -5.543  0.4422E-01  0.4422E-01  0.4813E-01  0.4812E-01
     -5.494  0.4420E-01  0.4420E-01  0.5030E-01  0.5029E-01
     -5.445  0.4326E-01  0.4327E-01  0.5242E-01  0.5242E-01
     -5.396  0.4224E-01  0.4224E-01  0.5450E-01  0.5449E-01
     -5.347  0.4198E-01  0.4197E-01  0.5656E-01  0.5655E-01
     -5.298  0.4265E-01  0.4265E-01  0.5865E-01  0.5865E-01
     -5.249  0.4333E-01  0.4333E-01  0.6078E-01  0.6077E-01
     -5.200  0.4237E-01  0.4237E-01  0.6286E-01  0.6285E-01
     -5.151  0.3843E-01  0.3844E-01  0.6474E-01  0.6474E-01
     -5.102  0.3146E-01  0.3147E-01  0.6629E-01  0.6629E-01
     -5.052  0.2288E-01  0.2289E-01  0.6741E-01  0.6741E-01
     -5.003  0.1480E-01  0.1480E-01  0.6814E-01  0.6814E-01
     -4.954  0.8906E-02  0.8909E-02  0.6857E-01  0.6857E-01
     -4.905  0.5763E-02  0.5763E-02  0.6886E-01  0.6886E-01
     -4.856  0.4859E-02  0.4859E-02  0.6910E-01  0.6910E-01
     -4.807  0.5211E-02  0.5211E-02  0.6935E-01  0.6935E-01
     -4.758  0.5923E-02  0.5923E-02  0.6964E-01  0.6964E-01
     -4.709  0.6418E-02  0.6419E-02  0.6996E-01  0.6996E-01
     -4.660  0.6400E-02  0.6401E-02  0.7027E-01  0.7027E-01
     -4.611  0.5765E-02  0.5768E-02  0.7056E-01  0.7055E-01
     -4.562  0.4586E-02  0.4591E-02  0.7078E-01  0.7078E-01
     -4.512  0.3109E-02  0.3115E-02  0.7093E-01  0.7093E-01
     -4.463  0.1680E-02  0.1685E-02  0.7102E-01  0.7102E-01
     -4.414  0.5903E-03  0.5939E-03  0.7104E-01  0.7104E-01
     -4.365 -0.4478E-04 -0.4289E-04  0.7104E-01  0.7104E-01
     -4.316 -0.2979E-03 -0.2971E-03  0.7103E-01  0.7103E-01
     -4.267 -0.3382E-03 -0.3377E-03  0.7101E-01  0.7101E-01
     -4.218 -0.3193E-03 -0.3188E-03  0.7100E-01  0.7100E-01
     -4.169 -0.3066E-03 -0.3062E-03  0.7098E-01  0.7098E-01
     -4.120 -0.2524E-03 -0.2536E-03  0.7097E-01  0.7097E-01
     -4.071 -0.1533E-04 -0.1993E-04  0.7097E-01  0.7097E-01
     -4.022  0.5667E-03  0.5571E-03  0.7100E-01  0.7099E-01
     -3.972  0.1546E-02  0.1532E-02  0.7107E-01  0.7107E-01
     -3.923  0.2747E-02  0.2732E-02  0.7121E-01  0.7120E-01
     -3.874  0.3768E-02  0.3758E-02  0.7139E-01  0.7139E-01
     -3.825  0.4174E-02  0.4174E-02  0.7160E-01  0.7159E-01
     -3.776  0.3765E-02  0.3774E-02  0.7178E-01  0.7178E-01
     -3.727  0.2705E-02  0.2720E-02  0.7191E-01  0.7191E-01
     -3.678  0.1427E-02  0.1442E-02  0.7198E-01  0.7198E-01
     -3.629  0.3919E-03  0.4018E-03  0.7200E-01  0.7200E-01
     -3.580 -0.8826E-04 -0.8473E-04  0.7200E-01  0.7200E-01
     -3.531  0.1088E-03  0.1065E-03  0.7200E-01  0.7200E-01
     -3.482  0.9323E-03  0.9262E-03  0.7205E-01  0.7205E-01
     -3.432  0.2147E-02  0.2139E-02  0.7215E-01  0.7215E-01
     -3.383  0.3332E-02  0.3327E-02  0.7232E-01  0.7232E-01
     -3.334  0.4004E-02  0.4002E-02  0.7251E-01  0.7251E-01
     -3.285  0.3854E-02  0.3857E-02  0.7270E-01  0.7270E-01
     -3.236  0.2960E-02  0.2966E-02  0.7285E-01  0.7285E-01
     -3.187  0.1772E-02  0.1778E-02  0.7294E-01  0.7294E-01
     -3.138  0.8922E-03  0.8947E-03  0.7298E-01  0.7298E-01
     -3.089  0.7752E-03  0.7722E-03  0.7302E-01  0.7302E-01
     -3.040  0.1543E-02  0.1534E-02  0.7309E-01  0.7309E-01
     -2.991  0.2961E-02  0.2950E-02  0.7324E-01  0.7324E-01
     -2.941  0.4570E-02  0.4559E-02  0.7346E-01  0.7346E-01
     -2.892  0.5889E-02  0.5881E-02  0.7375E-01  0.7375E-01
     -2.843  0.6617E-02  0.6614E-02  0.7408E-01  0.7408E-01
     -2.794  0.6728E-02  0.6729E-02  0.7441E-01  0.7441E-01
     -2.745  0.6417E-02  0.6421E-02  0.7472E-01  0.7472E-01
     -2.696  0.5931E-02  0.5937E-02  0.7501E-01  0.7501E-01
     -2.647  0.5403E-02  0.5408E-02  0.7528E-01  0.7528E-01
     -2.598  0.4825E-02  0.4830E-02  0.7552E-01  0.7551E-01
     -2.549  0.4188E-02  0.4190E-02  0.7572E-01  0.7572E-01
     -2.500  0.3615E-02  0.3613E-02  0.7590E-01  0.7590E-01
     -2.451  0.3318E-02  0.3311E-02  0.7606E-01  0.7606E-01
     -2.401  0.3375E-02  0.3365E-02  0.7623E-01  0.7623E-01
     -2.352  0.3581E-02  0.3575E-02  0.7640E-01  0.7640E-01
     -2.303  0.3600E-02  0.3601E-02  0.7658E-01  0.7658E-01
     -2.254  0.3312E-02  0.3319E-02  0.7674E-01  0.7674E-01
     -2.205  0.3019E-02  0.3024E-02  0.7689E-01  0.7689E-01
     -2.156  0.3259E-02  0.3256E-02  0.7705E-01  0.7705E-01
     -2.107  0.4336E-02  0.4322E-02  0.7726E-01  0.7726E-01
     -2.058  0.5968E-02  0.5949E-02  0.7756E-01  0.7755E-01
     -2.009  0.7367E-02  0.7354E-02  0.7792E-01  0.7791E-01
     -1.960  0.7727E-02  0.7728E-02  0.7830E-01  0.7829E-01
     -1.911  0.6739E-02  0.6756E-02  0.7863E-01  0.7863E-01
     -1.861  0.4757E-02  0.4783E-02  0.7886E-01  0.7886E-01
     -1.812  0.2537E-02  0.2562E-02  0.7899E-01  0.7899E-01
     -1.763  0.8005E-03  0.8173E-03  0.7903E-01  0.7903E-01
     -1.714 -0.4220E-04 -0.3758E-04  0.7902E-01  0.7902E-01
     -1.665  0.7042E-04  0.6331E-04  0.7903E-01  0.7903E-01
     -1.616  0.9397E-03  0.9246E-03  0.7907E-01  0.7907E-01
     -1.567  0.2181E-02  0.2164E-02  0.7918E-01  0.7918E-01
     -1.518  0.3308E-02  0.3295E-02  0.7934E-01  0.7934E-01
     -1.469  0.3912E-02  0.3908E-02  0.7954E-01  0.7953E-01
     -1.420  0.3895E-02  0.3894E-02  0.7973E-01  0.7972E-01
     -1.371  0.3534E-02  0.3531E-02  0.7990E-01  0.7990E-01
     -1.321  0.3270E-02  0.3259E-02  0.8006E-01  0.8006E-01
     -1.272  0.3338E-02  0.3323E-02  0.8022E-01  0.8022E-01
     -1.223  0.3589E-02  0.3579E-02  0.8040E-01  0.8040E-01
     -1.174  0.3675E-02  0.3676E-02  0.8058E-01  0.8058E-01
     -1.125  0.3437E-02  0.3446E-02  0.8075E-01  0.8075E-01
     -1.076  0.3122E-02  0.3124E-02  0.8090E-01  0.8090E-01
     -1.027  0.3201E-02  0.3181E-02  0.8106E-01  0.8106E-01
     -0.978  0.3964E-02  0.3920E-02  0.8125E-01  0.8125E-01
     -0.929  0.5250E-02  0.5193E-02  0.8151E-01  0.8150E-01
     -0.880  0.6537E-02  0.6486E-02  0.8183E-01  0.8182E-01
     -0.830  0.7305E-02  0.7272E-02  0.8219E-01  0.8218E-01
     -0.781  0.7353E-02  0.7339E-02  0.8255E-01  0.8254E-01
     -0.732  0.6834E-02  0.6835E-02  0.8289E-01  0.8287E-01
     -0.683  0.6056E-02  0.6068E-02  0.8319E-01  0.8317E-01
     -0.634  0.5265E-02  0.5285E-02  0.8344E-01  0.8343E-01
     -0.585  0.4617E-02  0.4638E-02  0.8367E-01  0.8366E-01
     -0.536  0.4272E-02  0.4274E-02  0.8388E-01  0.8387E-01
     -0.487  0.4403E-02  0.4366E-02  0.8410E-01  0.8408E-01
     -0.438  0.5058E-02  0.4976E-02  0.8435E-01  0.8433E-01
     -0.389  0.6026E-02  0.5917E-02  0.8464E-01  0.8462E-01
     -0.340  0.6907E-02  0.6808E-02  0.8498E-01  0.8495E-01
     -0.290  0.7349E-02  0.7292E-02  0.8534E-01  0.8531E-01
     -0.241  0.7239E-02  0.7241E-02  0.8570E-01  0.8567E-01
     -0.192  0.6696E-02  0.6753E-02  0.8603E-01  0.8600E-01
     -0.143  0.5915E-02  0.6005E-02  0.8632E-01  0.8629E-01
     -0.094  0.5057E-02  0.5149E-02  0.8656E-01  0.8654E-01
     -0.045  0.4284E-02  0.4325E-02  0.8677E-01  0.8676E-01
      0.004  0.3835E-02  0.3738E-02  0.8696E-01  0.8694E-01
      0.053  0.4040E-02  0.3671E-02  0.8716E-01  0.8712E-01
      0.102  0.5238E-02  0.4433E-02  0.8742E-01  0.8734E-01
      0.151  0.7599E-02  0.6260E-02  0.8779E-01  0.8765E-01
      0.200  0.1089E-01  0.9139E-02  0.8833E-01  0.8809E-01
      0.250  0.1427E-01  0.1257E-01  0.8903E-01  0.8871E-01
      0.299  0.1649E-01  0.1547E-01  0.8984E-01  0.8947E-01
      0.348  0.1642E-01  0.1659E-01  0.9064E-01  0.9029E-01
      0.397  0.1384E-01  0.1518E-01  0.9132E-01  0.9103E-01
      0.446  0.9591E-02  0.1160E-01  0.9179E-01  0.9160E-01
      0.495  0.5150E-02  0.7115E-02  0.9204E-01  0.9195E-01
      0.544  0.1746E-02  0.3151E-02  0.9213E-01  0.9210E-01
      0.593 -0.1561E-03  0.5586E-03  0.9212E-01  0.9213E-01
      0.642 -0.8091E-03 -0.6135E-03  0.9208E-01  0.9210E-01
      0.691 -0.7648E-03 -0.8280E-03  0.9205E-01  0.9206E-01
      0.740 -0.4976E-03 -0.6239E-03  0.9202E-01  0.9203E-01
      0.790 -0.2572E-03 -0.3567E-03  0.9201E-01  0.9201E-01
      0.839 -0.1108E-03 -0.1670E-03  0.9200E-01  0.9200E-01
      0.888 -0.4068E-04 -0.6609E-04  0.9200E-01  0.9200E-01
      0.937 -0.1288E-04 -0.2244E-04  0.9200E-01  0.9200E-01
      0.986 -0.3544E-05 -0.6602E-05  0.9200E-01  0.9200E-01
      1.035 -0.8512E-06 -0.1692E-05  0.9200E-01  0.9200E-01
      1.084 -0.1791E-06 -0.3794E-06  0.9200E-01  0.9200E-01
      1.133 -0.3309E-07 -0.7461E-07  0.9200E-01  0.9200E-01
      1.182 -0.5378E-08 -0.1290E-07  0.9200E-01  0.9200E-01
      1.231 -0.7697E-09 -0.1962E-08  0.9200E-01  0.9200E-01
      1.281 -0.9714E-10 -0.2630E-09  0.9200E-01  0.9200E-01
      1.330 -0.1082E-10 -0.3109E-10  0.9200E-01  0.9200E-01
      1.379 -0.1064E-11 -0.3244E-11  0.9200E-01  0.9200E-01
      1.428 -0.9238E-13 -0.2989E-12  0.9200E-01  0.9200E-01
      1.477 -0.7092E-14 -0.2433E-13  0.9200E-01  0.9200E-01
      1.526 -0.4885E-15 -0.1755E-14  0.9200E-01  0.9200E-01
      1.575 -0.2714E-16 -0.1086E-15  0.9200E-01  0.9200E-01
      1.624  0.0000E+00 -0.9046E-17  0.9200E-01  0.9200E-01
      1.673  0.0000E+00  0.0000E+00  0.9200E-01  0.9200E-01
      1.722  0.0000E+00  0.0000E+00  0.9200E-01  0.9200E-01
      1.771  0.0000E+00  0.0000E+00  0.9200E-01  0.9200E-01
      1.821  0.0000E+00  0.0000E+00  0.9200E-01  0.9200E-01
      1.870  0.0000E+00  0.0000E+00  0.9200E-01  0.9200E-01
      1.919  0.0000E+00  0.0000E+00  0.9200E-01  0.9200E-01
      1.968  0.0000E+00  0.0000E+00  0.9200E-01  0.9200E-01
      2.017  0.0000E+00  0.0000E+00  0.9200E-01  0.9200E-01
      2.066  0.0000E+00  0.0000E+00  0.9200E-01  0.9200E-01
      2.115  0.0000E+00  0.0000E+00  0.9200E-01  0.9200E-01
      2.164  0.0000E+00  0.0000E+00  0.9200E-01  0.9200E-01
      2.213  0.0000E+00  0.0000E+00  0.9200E-01  0.9200E-01
      2.262  0.0000E+00  0.0000E+00  0.9200E-01  0.9200E-01
      2.311  0.0000E+00  0.0000E+00  0.9200E-01  0.9200E-01
      2.361  0.0000E+00  0.0000E+00  0.9200E-01  0.9200E-01
