   13   13 1000    2
  0.9017622E+03  0.2310270E-08  0.2071228E-08  0.2449880E-08  0.5000000E-15
   1.0000000000000000E-004
  CAR 
 unknown system                          
    143      1     92
 
  0.1262379E-14  0.1262379E-14  0.1262379E-14  0.1000000E+01
    1      -10.367365    -10.367248   1.000000   1.000000
    2       -9.203754     -9.203626   1.000000   1.000000
    3       -8.244295     -8.244213   1.000000   1.000000
    4       -7.988219     -7.988101   1.000000   1.000000
    5       -7.882938     -7.882845   1.000000   1.000000
    6       -7.729753     -7.729685   1.000000   1.000000
    7       -7.521711     -7.521619   1.000000   1.000000
    8       -7.339242     -7.339179   1.000000   1.000000
    9       -7.259332     -7.259252   1.000000   1.000000
   10       -7.225231     -7.225151   1.000000   1.000000
   11       -7.182012     -7.181936   1.000000   1.000000
   12       -7.130848     -7.130762   1.000000   1.000000
   13       -7.088719     -7.088639   1.000000   1.000000
   14       -7.014500     -7.014412   1.000000   1.000000
   15       -6.959911     -6.959838   1.000000   1.000000
   16       -6.908686     -6.908639   1.000000   1.000000
   17       -6.850512     -6.850418   1.000000   1.000000
   18       -6.786281     -6.786162   1.000000   1.000000
   19       -6.717256     -6.717185   1.000000   1.000000
   20       -6.660491     -6.660398   1.000000   1.000000
   21       -6.612804     -6.612725   1.000000   1.000000
   22       -6.590632     -6.590544   1.000000   1.000000
   23       -6.582136     -6.582085   1.000000   1.000000
   24       -6.456788     -6.456705   1.000000   1.000000
   25       -6.401357     -6.401287   1.000000   1.000000
   26       -6.331681     -6.331612   1.000000   1.000000
   27       -6.296854     -6.296781   1.000000   1.000000
   28       -6.237128     -6.237030   1.000000   1.000000
   29       -6.213379     -6.213325   1.000000   1.000000
   30       -6.148289     -6.148231   1.000000   1.000000
   31       -6.084582     -6.084513   1.000000   1.000000
   32       -6.027077     -6.027012   1.000000   1.000000
   33       -5.980119     -5.980052   1.000000   1.000000
   34       -5.969259     -5.969178   1.000000   1.000000
   35       -5.933914     -5.933861   1.000000   1.000000
   36       -5.853566     -5.853500   1.000000   1.000000
   37       -5.833330     -5.833262   1.000000   1.000000
   38       -5.825771     -5.825697   1.000000   1.000000
   39       -5.774176     -5.774110   1.000000   1.000000
   40       -5.757786     -5.757712   1.000000   1.000000
   41       -5.725727     -5.725639   1.000000   1.000000
   42       -5.703133     -5.703057   1.000000   1.000000
   43       -5.659982     -5.659896   1.000000   1.000000
   44       -5.645216     -5.645139   1.000000   1.000000
   45       -5.625058     -5.624995   1.000000   1.000000
   46       -5.602821     -5.602756   1.000000   1.000000
   47       -5.574491     -5.574417   1.000000   1.000000
   48       -5.566170     -5.566103   1.000000   1.000000
   49       -5.537700     -5.537645   1.000000   1.000000
   50       -5.499010     -5.498933   1.000000   1.000000
   51       -5.486310     -5.486223   1.000000   1.000000
   52       -5.475312     -5.475249   1.000000   1.000000
   53       -5.451175     -5.451119   1.000000   1.000000
   54       -5.446298     -5.446238   1.000000   1.000000
   55       -5.409569     -5.409514   1.000000   1.000000
   56       -5.376662     -5.376577   1.000000   1.000000
   57       -5.321749     -5.321656   1.000000   1.000000
   58       -5.305391     -5.305307   1.000000   1.000000
   59       -5.286871     -5.286795   1.000000   1.000000
   60       -5.269954     -5.269859   1.000000   1.000000
   61       -5.247663     -5.247594   1.000000   1.000000
   62       -5.223558     -5.223494   1.000000   1.000000
   63       -5.205552     -5.205484   1.000000   1.000000
   64       -5.178124     -5.178033   1.000000   1.000000
   65       -5.174102     -5.174019   1.000000   1.000000
   66       -5.130048     -5.129959   1.000000   1.000000
   67       -5.120101     -5.120039   1.000000   1.000000
   68       -5.114321     -5.114248   1.000000   1.000000
   69       -4.922259     -4.922007   1.000000   1.000000
   70       -4.767532     -4.767381   1.000000   1.000000
   71       -4.620325     -4.620123   1.000000   1.000000
   72       -3.848328     -3.847721   0.502238   0.499673
   73       -3.339437     -3.339169  -0.000959  -0.000953
   74       -2.930465     -2.930129  -0.000000  -0.000000
   75       -2.789152     -2.788781  -0.000000  -0.000000
   76       -2.600158     -2.599839  -0.000000  -0.000000
   77       -2.327526     -2.326845  -0.000000  -0.000000
   78       -2.029485     -2.029034  -0.000000  -0.000000
   79       -1.962168     -1.961476  -0.000000  -0.000000
   80       -1.484754     -1.484053  -0.000000  -0.000000
   81       -1.198847     -1.197565  -0.000000  -0.000000
   82       -0.913166     -0.911624  -0.000000  -0.000000
   83       -0.804960     -0.802887  -0.000000  -0.000000
   84       -0.624998     -0.622083  -0.000000  -0.000000
   85       -0.394666     -0.391873  -0.000000  -0.000000
   86       -0.280263     -0.275126  -0.000000  -0.000000
   87       -0.112822     -0.107832  -0.000000  -0.000000
   88        0.110052      0.122205  -0.000000  -0.000000
   89        0.269571      0.291533  -0.000000  -0.000000
   90        0.299846      0.318251  -0.000000  -0.000000
   91        0.330257      0.359162  -0.000000  -0.000000
   92        0.340824      0.360553  -0.000000  -0.000000
