       N       E                     dE             d eps       ncg     rms          rms(c)
DAV:   1     0.973355192053E+03    0.97336E+03   -0.25963E+04   368   0.756E+02
DAV:   2     0.229899132437E+03   -0.74346E+03   -0.67317E+03   376   0.225E+02
DAV:   3     0.659255534916E+01   -0.22331E+03   -0.21380E+03   464   0.131E+02
DAV:   4    -0.349328736022E+02   -0.41525E+02   -0.38238E+02   440   0.107E+02
DAV:   5    -0.368667266199E+02   -0.19339E+01   -0.19183E+01   496   0.217E+01    0.285E+01
DAV:   6    -0.138759796973E+02    0.22991E+02   -0.13805E+02   396   0.886E+01    0.121E+01
DAV:   7    -0.812518885603E+01    0.57508E+01   -0.30941E+01   448   0.617E+01    0.513E+00
DAV:   8    -0.894458800043E+01   -0.81940E+00   -0.57218E+00   448   0.511E+01    0.453E+00
DAV:   9    -0.108318369793E+02   -0.18872E+01   -0.13746E+00   484   0.287E+01    0.293E+00
DAV:  10    -0.150776789896E+02   -0.42458E+01   -0.23715E+00   524   0.147E+01    0.246E+00
DAV:  11    -0.176891958174E+02   -0.26115E+01   -0.10710E+00   464   0.134E+01    0.190E+00
DAV:  12    -0.226310006898E+02   -0.49418E+01   -0.28802E+00   488   0.951E+00    0.141E+00
DAV:  13    -0.262426950439E+02   -0.36117E+01   -0.17913E+00   504   0.769E+00    0.109E+00
DAV:  14    -0.282212148800E+02   -0.19785E+01   -0.59156E-01   496   0.771E+00    0.964E-01
DAV:  15    -0.299543857853E+02   -0.17332E+01   -0.43300E-01   504   0.502E+00    0.714E-01
DAV:  16    -0.311865886236E+02   -0.12322E+01   -0.31255E-01   500   0.472E+00    0.569E-01
DAV:  17    -0.315841230143E+02   -0.39753E+00   -0.66480E-02   552   0.304E+00    0.437E-01
DAV:  18    -0.319222564900E+02   -0.33813E+00   -0.30068E-02   528   0.246E+00    0.255E-01
DAV:  19    -0.323496301730E+02   -0.42737E+00   -0.22870E-02   516   0.132E+00    0.197E-01
DAV:  20    -0.326337715112E+02   -0.28414E+00   -0.12830E-02   536   0.149E+00    0.119E-01
DAV:  21    -0.327390992332E+02   -0.10533E+00   -0.52439E-03   516   0.851E-01    0.817E-02
DAV:  22    -0.327975513218E+02   -0.58452E-01   -0.29353E-03   520   0.528E-01    0.579E-02
DAV:  23    -0.328255463042E+02   -0.27995E-01   -0.12415E-03   432   0.419E-01    0.429E-02
DAV:  24    -0.328515150867E+02   -0.25969E-01   -0.10152E-03   404   0.330E-01    0.320E-02
DAV:  25    -0.328657355704E+02   -0.14220E-01   -0.34001E-04   280   0.211E-01    0.249E-02
DAV:  26    -0.328725330786E+02   -0.67975E-02   -0.25445E-04   288   0.202E-01    0.195E-02
DAV:  27    -0.328765987970E+02   -0.40657E-02   -0.23010E-04   288   0.161E-01    0.128E-02
DAV:  28    -0.328791105193E+02   -0.25117E-02   -0.15860E-04   280   0.114E-01    0.106E-02
DAV:  29    -0.328810231706E+02   -0.19127E-02   -0.93843E-05   252   0.104E-01    0.885E-03
DAV:  30    -0.328820798741E+02   -0.10567E-02   -0.55424E-05   264   0.787E-02    0.569E-03
DAV:  31    -0.328827584461E+02   -0.67857E-03   -0.42324E-05   256   0.495E-02    0.499E-03
DAV:  32    -0.328831590578E+02   -0.40061E-03   -0.28445E-05   240   0.458E-02    0.434E-03
DAV:  33    -0.328833419558E+02   -0.18290E-03   -0.16645E-05   248   0.295E-02    0.355E-03
DAV:  34    -0.328834145323E+02   -0.72576E-04   -0.88992E-06   232   0.226E-02
   1 F= -.32883415E+02 E0= -.32865437E+02  d E =-.328834E+02  mag=     0.0123
       N       E                     dE             d eps       ncg     rms          rms(c)
DAV:   1    -0.328958584813E+02   -0.12517E-01   -0.10697E+01   396   0.112E+01    0.275E-01
DAV:   2    -0.329144819686E+02   -0.18623E-01   -0.20190E-01   544   0.341E+00    0.264E-01
DAV:   3    -0.329141703509E+02    0.31162E-03   -0.10757E-02   424   0.226E+00    0.157E-01
DAV:   4    -0.329141310778E+02    0.39273E-04   -0.19293E-03   376   0.780E-01    0.128E-01
DAV:   5    -0.329141529416E+02   -0.21864E-04   -0.87002E-04   480   0.272E-01
   2 F= -.32914153E+02 E0= -.32896000E+02  d E =-.307384E-01  mag=     0.0107
       N       E                     dE             d eps       ncg     rms          rms(c)
DAV:   1    -0.328888828926E+02    0.25248E-01   -0.22849E+01   396   0.165E+01    0.437E-01
DAV:   2    -0.329293192505E+02   -0.40436E-01   -0.44697E-01   540   0.525E+00    0.410E-01
DAV:   3    -0.329280786097E+02    0.12406E-02   -0.24124E-02   412   0.354E+00    0.232E-01
DAV:   4    -0.329279627450E+02    0.11586E-03   -0.50807E-03   456   0.120E+00    0.187E-01
DAV:   5    -0.329277588068E+02    0.20394E-03   -0.16591E-03   484   0.371E-01    0.971E-02
DAV:   6    -0.329278697776E+02   -0.11097E-03   -0.96039E-04   432   0.808E-01    0.558E-02
DAV:   7    -0.329278462769E+02    0.23501E-04   -0.36664E-04   392   0.560E-01
   3 F= -.32927846E+02 E0= -.32909498E+02  d E =-.444317E-01  mag=     0.0085
       N       E                     dE             d eps       ncg     rms          rms(c)
DAV:   1    -0.329278885611E+02   -0.18783E-04   -0.30284E+00   396   0.597E+00    0.116E-01
DAV:   2    -0.329332489951E+02   -0.53604E-02   -0.55376E-02   544   0.157E+00    0.124E-01
DAV:   3    -0.329331280477E+02    0.12095E-03   -0.16298E-03   416   0.768E-01    0.808E-02
DAV:   4    -0.329331050708E+02    0.22977E-04   -0.31067E-04   280   0.327E-01
   4 F= -.32933105E+02 E0= -.32914702E+02  d E =-.525879E-02  mag=     0.0076
       N       E                     dE             d eps       ncg     rms          rms(c)
DAV:   1    -0.329310143707E+02    0.21137E-02   -0.28171E+00   396   0.576E+00    0.107E-01
DAV:   2    -0.329358888287E+02   -0.48745E-02   -0.50309E-02   544   0.140E+00    0.121E-01
DAV:   3    -0.329357547854E+02    0.13404E-03   -0.77298E-04   392   0.381E-01    0.948E-02
DAV:   4    -0.329357077370E+02    0.47048E-04   -0.18933E-04   220   0.320E-01
   5 F= -.32935708E+02 E0= -.32917251E+02  d E =-.786146E-02  mag=     0.0066
       N       E                     dE             d eps       ncg     rms          rms(c)
DAV:   1    -0.329352182336E+02    0.53655E-03   -0.23668E+00   400   0.527E+00    0.108E-01
DAV:   2    -0.329392991560E+02   -0.40809E-02   -0.43138E-02   540   0.155E+00    0.131E-01
DAV:   3    -0.329391610726E+02    0.13808E-03   -0.17938E-03   400   0.903E-01    0.795E-02
DAV:   4    -0.329391550273E+02    0.60453E-05   -0.33660E-04   312   0.259E-01
   6 F= -.32939155E+02 E0= -.32920691E+02  d E =-.344729E-02  mag=     0.0059
       N       E                     dE             d eps       ncg     rms          rms(c)
DAV:   1    -0.329389317770E+02    0.22930E-03   -0.49083E-01   388   0.240E+00    0.603E-02
DAV:   2    -0.329397575735E+02   -0.82580E-03   -0.89770E-03   544   0.588E-01    0.598E-02
DAV:   3    -0.329397273313E+02    0.30242E-04   -0.16719E-04   272   0.286E-01
   7 F= -.32939727E+02 E0= -.32921262E+02  d E =-.401959E-02  mag=     0.0054
       N       E                     dE             d eps       ncg     rms          rms(c)
DAV:   1    -0.329396953946E+02    0.62179E-04   -0.71532E-01   400   0.289E+00    0.570E-02
DAV:   2    -0.329408833985E+02   -0.11880E-02   -0.12204E-02   536   0.716E-01    0.626E-02
DAV:   3    -0.329408515321E+02    0.31866E-04   -0.27647E-04   304   0.325E-01
   8 F= -.32940852E+02 E0= -.32922395E+02  d E =-.112420E-02  mag=     0.0050
       N       E                     dE             d eps       ncg     rms          rms(c)
DAV:   1    -0.329392909177E+02    0.15925E-02   -0.17074E+00   392   0.446E+00    0.850E-02
DAV:   2    -0.329420974796E+02   -0.28066E-02   -0.29271E-02   536   0.119E+00    0.107E-01
DAV:   3    -0.329420035468E+02    0.93933E-04   -0.85425E-04   368   0.555E-01
   9 F= -.32942004E+02 E0= -.32923563E+02  d E =-.227622E-02  mag=     0.0047
       N       E                     dE             d eps       ncg     rms          rms(c)
DAV:   1    -0.329417223338E+02    0.37515E-03   -0.54523E-01   400   0.251E+00    0.756E-02
DAV:   2    -0.329425170055E+02   -0.79467E-03   -0.89416E-03   548   0.626E-01    0.700E-02
DAV:   3    -0.329424840385E+02    0.32967E-04   -0.33152E-04   304   0.315E-01
  10 F= -.32942484E+02 E0= -.32924031E+02  d E =-.480492E-03  mag=     0.0042
       N       E                     dE             d eps       ncg     rms          rms(c)
DAV:   1    -0.329425221629E+02   -0.51575E-05   -0.21315E-02   540   0.625E-01    0.348E-02
DAV:   2    -0.329425262499E+02   -0.40870E-05   -0.19604E-04   236   0.445E-01
  11 F= -.32942526E+02 E0= -.32924070E+02  d E =-.522703E-03  mag=     0.0040
