<?xml version="1.0" encoding="ISO-8859-1"?>
<modeling>
 <generator>
  <i name="program" type="string">vasp </i>
  <i name="version" type="string">6.1.2  </i>
  <i name="subversion" type="string">22Jul20 (build Jan 14 2022 17:24:41) gamma-only                       parallel </i>
  <i name="platform" type="string">LinuxPGI </i>
  <i name="date" type="string">2022 01 31 </i>
  <i name="time" type="string">15:26:20 </i>
 </generator>
 <incar>
  <i type="int" name="ISPIN">     2</i>
  <i type="int" name="IBRION">     2</i>
  <i type="int" name="NSW">  1000</i>
  <i type="int" name="ISIF">     0</i>
  <i type="int" name="ISYM">     0</i>
  <i name="ENCUT">    400.00000000</i>
  <i type="logical" name="LREAL"> F  </i>
  <i type="int" name="ISMEAR">     1</i>
  <i name="SIGMA">      0.20000000</i>
  <i type="logical" name="LWAVE"> F  </i>
  <i type="logical" name="LCHARG"> F  </i>
  <i type="int" name="KPAR">     1</i>
  <i type="int" name="NCORE">     8</i>
  <i type="string" name="GGA"> PE</i>
  <i type="int" name="ISPIN">     2</i>
 </incar>
 <structure name="primitive_cell" >
  <crystal>
   <varray name="basis" >
    <v>      23.10269786       0.00000000       0.00000000 </v>
    <v>       0.00000000      20.71228071       0.00000000 </v>
    <v>       0.00000000       0.00000000      24.49879789 </v>
   </varray>
   <i name="volume">  11722.90907885 </i>
   <varray name="rec_basis" >
    <v>       0.04328499       0.00000000       0.00000000 </v>
    <v>       0.00000000       0.04828054       0.00000000 </v>
    <v>       0.00000000       0.00000000       0.04081833 </v>
   </varray>
  </crystal>
  <varray name="positions" >
   <v>       0.45865355       0.44430329       0.52213775 </v>
   <v>       0.54237000       0.44185273       0.46114527 </v>
   <v>       0.55941035       0.55474976       0.48590073 </v>
   <v>       0.45122764       0.54810546       0.47600643 </v>
   <v>       0.55635125       0.47005707       0.55916230 </v>
   <v>       0.49419362       0.56755466       0.56624886 </v>
   <v>       0.44766053       0.45026756       0.41833002 </v>
   <v>       0.51284045       0.54136831       0.39484472 </v>
   <v>       0.39601302       0.52567732       0.56179838 </v>
   <v>       0.46846030       0.47093459       0.61980256 </v>
   <v>       0.61093190       0.50272570       0.40673264 </v>
   <v>       0.53672764       0.43451958       0.36225703 </v>
   <v>       0.55370414       0.53330465       0.64211911 </v>
  </varray>
 </structure>
 <varray name="primitive_index" >
  <v type="int" >        1 </v>
  <v type="int" >        2 </v>
  <v type="int" >        3 </v>
  <v type="int" >        4 </v>
  <v type="int" >        5 </v>
  <v type="int" >        6 </v>
  <v type="int" >        7 </v>
  <v type="int" >        8 </v>
  <v type="int" >        9 </v>
  <v type="int" >       10 </v>
  <v type="int" >       11 </v>
  <v type="int" >       12 </v>
  <v type="int" >       13 </v>
 </varray>
 <kpoints>
  <generation param="Gamma">
   <v type="int" name="divisions">       1        1        1 </v>
   <v name="usershift">      0.00000000       0.00000000       0.00000000 </v>
   <v name="genvec1">      1.00000000       0.00000000       0.00000000 </v>
   <v name="genvec2">      0.00000000       1.00000000       0.00000000 </v>
   <v name="genvec3">      0.00000000       0.00000000       1.00000000 </v>
   <v name="shift">      0.00000000       0.00000000       0.00000000 </v>
  </generation>
  <varray name="kpointlist" >
   <v>       0.00000000       0.00000000       0.00000000 </v>
  </varray>
  <varray name="weights" >
   <v>       1.00000000 </v>
  </varray>
 </kpoints>
 <parameters>
  <separator name="general" >
   <i type="string" name="SYSTEM">unknown system</i>
   <i type="logical" name="LCOMPAT"> F  </i>
  </separator>
  <separator name="electronic" >
   <i type="string" name="PREC">normal</i>
   <i name="ENMAX">    400.00000000</i>
   <i name="ENAUG">    586.98000000</i>
   <i name="EDIFF">      0.00010000</i>
   <i type="int" name="IALGO">    38</i>
   <i type="int" name="IWAVPR">    11</i>
   <i type="int" name="NBANDS">    92</i>
   <i type="int" name="NBANDSLOW">    -1</i>
   <i type="int" name="NBANDSHIGH">    -1</i>
   <i name="NELECT">    143.00000000</i>
   <i type="int" name="TURBO">     0</i>
   <i type="int" name="IRESTART">     0</i>
   <i type="int" name="NREBOOT">     0</i>
   <i type="int" name="NMIN">     0</i>
   <i name="EREF">      0.00000000</i>
   <separator name="electronic smearing" >
    <i type="int" name="ISMEAR">     1</i>
    <i name="SIGMA">      0.20000000</i>
    <i name="KSPACING">      0.50000000</i>
    <i type="logical" name="KGAMMA"> T  </i>
    <i type="logical" name="KBLOWUP"> T  </i>
   </separator>
   <separator name="electronic projectors" >
    <i type="logical" name="LREAL"> F  </i>
    <v name="ROPT">      0.00000000</v>
    <i type="int" name="LMAXPAW">  -100</i>
    <i type="int" name="LMAXMIX">     2</i>
    <i type="logical" name="NLSPLINE"> F  </i>
   </separator>
   <separator name="electronic startup" >
    <i type="int" name="ISTART">     0</i>
    <i type="int" name="ICHARG">     2</i>
    <i type="int" name="INIWAV">     1</i>
   </separator>
   <separator name="electronic spin" >
    <i type="int" name="ISPIN">     2</i>
    <i type="logical" name="LNONCOLLINEAR"> F  </i>
    <v name="MAGMOM">      1.00000000      1.00000000      1.00000000      1.00000000      1.00000000      1.00000000      1.00000000      1.00000000      1.00000000      1.00000000      1.00000000      1.00000000      1.00000000</v>
    <i name="NUPDOWN">     -1.00000000</i>
    <i type="logical" name="LSORBIT"> F  </i>
    <v name="SAXIS">      0.00000000      0.00000000      1.00000000</v>
    <i type="logical" name="LSPIRAL"> F  </i>
    <v name="QSPIRAL">      0.00000000      0.00000000      0.00000000</v>
    <i type="logical" name="LZEROZ"> F  </i>
   </separator>
   <separator name="electronic exchange-correlation" >
    <i type="logical" name="LASPH"> F  </i>
    <i type="logical" name="LMETAGGA"> F  </i>
   </separator>
   <separator name="electronic convergence" >
    <i type="int" name="NELM">    60</i>
    <i type="int" name="NELMDL">     0</i>
    <i type="int" name="NELMIN">     2</i>
    <i name="ENINI">    400.00000000</i>
    <separator name="electronic convergence detail" >
     <i type="logical" name="LDIAG"> T  </i>
     <i type="logical" name="LSUBROT"> F  </i>
     <i name="WEIMIN">      0.00100000</i>
     <i name="EBREAK">      0.00000027</i>
     <i name="DEPER">      0.30000000</i>
     <i type="int" name="NRMM">     4</i>
     <i name="TIME">      0.40000000</i>
    </separator>
   </separator>
   <separator name="electronic mixer" >
    <i name="AMIX">      0.40000000</i>
    <i name="BMIX">      1.00000000</i>
    <i name="AMIN">      0.10000000</i>
    <i name="AMIX_MAG">      1.60000000</i>
    <i name="BMIX_MAG">      1.00000000</i>
    <separator name="electronic mixer details" >
     <i type="int" name="IMIX">     4</i>
     <i type="logical" name="MIXFIRST"> F  </i>
     <i type="int" name="MAXMIX">   -45</i>
     <i name="WC">    100.00000000</i>
     <i type="int" name="INIMIX">     1</i>
     <i type="int" name="MIXPRE">     1</i>
     <i type="int" name="MREMOVE">     5</i>
    </separator>
   </separator>
   <separator name="electronic dipolcorrection" >
    <i type="logical" name="LDIPOL"> F  </i>
    <i type="logical" name="LMONO"> F  </i>
    <i type="int" name="IDIPOL">     0</i>
    <i name="EPSILON">      1.00000000</i>
    <v name="DIPOL">   -100.00000000   -100.00000000   -100.00000000</v>
    <i name="EFIELD">      0.00000000</i>
   </separator>
  </separator>
  <separator name="grids" >
   <i type="int" name="NGX">   120</i>
   <i type="int" name="NGY">   108</i>
   <i type="int" name="NGZ">   120</i>
   <i type="int" name="NGXF">   240</i>
   <i type="int" name="NGYF">   216</i>
   <i type="int" name="NGZF">   240</i>
   <i type="logical" name="ADDGRID"> F  </i>
  </separator>
  <separator name="ionic" >
   <i type="int" name="NSW">  1000</i>
   <i type="int" name="IBRION">     2</i>
   <i type="int" name="MDALGO">     0</i>
   <i type="int" name="ISIF">     0</i>
   <i name="PSTRESS">      0.00000000</i>
   <i name="EDIFFG">      0.00100000</i>
   <i type="int" name="NFREE">     1</i>
   <i name="POTIM">      0.50000000</i>
   <i name="SMASS">     -3.00000000</i>
   <i name="SCALEE">      1.00000000</i>
  </separator>
  <separator name="ionic md" >
   <i name="TEBEG">      0.00010000</i>
   <i name="TEEND">      0.00010000</i>
   <i type="int" name="NBLOCK">     1</i>
   <i type="int" name="KBLOCK">  1000</i>
   <i type="int" name="NPACO">   256</i>
   <i name="APACO">     16.00000000</i>
  </separator>
  <separator name="symmetry" >
   <i type="int" name="ISYM">     0</i>
   <i name="SYMPREC">      0.00001000</i>
  </separator>
  <separator name="dos" >
   <i type="int" name="LORBIT">     0</i>
   <v name="RWIGS">     -1.00000000</v>
   <i type="int" name="NEDOS">   301</i>
   <i name="EMIN">     10.00000000</i>
   <i name="EMAX">    -10.00000000</i>
   <i name="EFERMI">      0.00000000</i>
  </separator>
  <separator name="writing" >
   <i type="int" name="NWRITE">     2</i>
   <i type="logical" name="LWAVE"> F  </i>
   <i type="logical" name="LDOWNSAMPLE"> F  </i>
   <i type="logical" name="LCHARG"> F  </i>
   <i type="logical" name="LPARD"> F  </i>
   <i type="logical" name="LVTOT"> F  </i>
   <i type="logical" name="LVHAR"> F  </i>
   <i type="logical" name="LELF"> F  </i>
   <i type="logical" name="LOPTICS"> F  </i>
   <v name="STM">      0.00000000      0.00000000      0.00000000      0.00000000      0.00000000      0.00000000      0.00000000</v>
  </separator>
  <separator name="performance" >
   <i type="int" name="NPAR">     1</i>
   <i type="int" name="NSIM">     4</i>
   <i type="int" name="NBLK">    -1</i>
   <i type="logical" name="LPLANE"> T  </i>
   <i type="logical" name="LSCALAPACK"> T  </i>
   <i type="logical" name="LSCAAWARE"> F  </i>
   <i type="logical" name="LSCALU"> F  </i>
   <i type="logical" name="LASYNC"> F  </i>
   <i type="logical" name="LORBITALREAL"> F  </i>
  </separator>
  <separator name="miscellaneous" >
   <i type="int" name="IDIOT">     3</i>
   <i type="int" name="PHON_NSTRUCT">    -1</i>
   <i type="logical" name="LMUSIC"> F  </i>
   <v name="POMASS">     63.54600000</v>
   <v name="DARWINR">      0.00000000</v>
   <v name="DARWINV">      1.00000000</v>
   <i type="logical" name="LCORR"> T  </i>
  </separator>
  <i type="logical" name="GGA_COMPAT"> T  </i>
  <i type="logical" name="LBERRY"> F  </i>
  <i type="int" name="ICORELEVEL">     0</i>
  <i type="logical" name="LDAU"> F  </i>
  <i type="int" name="I_CONSTRAINED_M">     0</i>
  <separator name="electronic exchange-correlation" >
   <i type="string" name="GGA">PE</i>
   <i type="int" name="VOSKOWN">     0</i>
   <i type="logical" name="LHFCALC"> F  </i>
   <i type="string" name="PRECFOCK"></i>
   <i type="logical" name="LSYMGRAD"> F  </i>
   <i type="logical" name="LHFONE"> F  </i>
   <i type="logical" name="LRHFCALC"> F  </i>
   <i type="logical" name="LTHOMAS"> F  </i>
   <i type="logical" name="LMODELHF"> F  </i>
   <i type="logical" name="LFOCKACE"> F  </i>
   <i name="ENCUT4O">     -1.00000000</i>
   <i type="int" name="EXXOEP">     0</i>
   <i type="int" name="FOURORBIT">     0</i>
   <i name="AEXX">      0.00000000</i>
   <i name="HFALPHA">      0.00000000</i>
   <i name="MCALPHA">      0.00000000</i>
   <i name="ALDAX">      1.00000000</i>
   <i name="AGGAX">      1.00000000</i>
   <i name="ALDAC">      1.00000000</i>
   <i name="AGGAC">      1.00000000</i>
   <i type="int" name="NKREDX">     1</i>
   <i type="int" name="NKREDY">     1</i>
   <i type="int" name="NKREDZ">     1</i>
   <i type="logical" name="SHIFTRED"> F  </i>
   <i type="logical" name="ODDONLY"> F  </i>
   <i type="logical" name="EVENONLY"> F  </i>
   <i type="int" name="LMAXFOCK">     0</i>
   <i type="int" name="NMAXFOCKAE">     0</i>
   <i type="logical" name="LFOCKAEDFT"> F  </i>
   <i name="HFSCREEN">      0.00000000</i>
   <i name="HFSCREENC">      0.00000000</i>
   <i type="int" name="NBANDSGWLOW">     0</i>
  </separator>
  <separator name="vdW DFT" >
   <i type="logical" name="LUSE_VDW"> F  </i>
   <i name="Zab_VDW">     -0.84910000</i>
   <i name="PARAM1">      0.12340000</i>
   <i name="PARAM2">      1.00000000</i>
   <i name="PARAM3">      0.00000000</i>
  </separator>
  <separator name="model GW" >
   <i type="int" name="MODEL_GW">     0</i>
   <i name="MODEL_EPS0">    541.05734210</i>
   <i name="MODEL_ALPHA">      1.00000000</i>
  </separator>
  <separator name="linear response parameters" >
   <i type="logical" name="LEPSILON"> F  </i>
   <i type="logical" name="LRPA"> F  </i>
   <i type="logical" name="LNABLA"> F  </i>
   <i type="logical" name="LVEL"> F  </i>
   <i type="int" name="KINTER">     0</i>
   <i name="CSHIFT">      0.10000000</i>
   <i name="OMEGAMAX">     -1.00000000</i>
   <i name="DEG_THRESHOLD">      0.00200000</i>
   <i name="RTIME">     -0.10000000</i>
   <i name="WPLASMAI">      0.00000000</i>
   <v name="DFIELD">      0.00000000      0.00000000      0.00000000</v>
   <v name="WPLASMA">      0.00000000      0.00000000      0.00000000      0.00000000      0.00000000      0.00000000      0.00000000      0.00000000      0.00000000</v>
  </separator>
  <separator name="orbital magnetization" >
   <i type="logical" name="NUCIND"> F  </i>
   <v name="MAGPOS">      0.00000000      0.00000000      0.00000000</v>
   <i type="logical" name="LNICSALL"> T  </i>
   <i type="logical" name="ORBITALMAG"> F  </i>
   <i type="logical" name="LMAGBLOCH"> F  </i>
   <i type="logical" name="LCHIMAG"> F  </i>
   <i type="logical" name="LGAUGE"> T  </i>
   <i type="int" name="MAGATOM">     0</i>
   <v name="MAGDIPOL">      0.00000000      0.00000000      0.00000000</v>
   <v name="AVECCONST">      0.00000000      0.00000000      0.00000000</v>
  </separator>
  <separator name="response functions" >
   <i type="logical" name="LFINITE_TEMPERATURE"> F  </i>
   <i type="logical" name="LADDER"> F  </i>
   <i type="logical" name="LRPAFORCE"> F  </i>
   <i type="logical" name="LFXC"> F  </i>
   <i type="logical" name="LHARTREE"> T  </i>
   <i type="int" name="IBSE">     0</i>
   <v type="int" name="KPOINT">    -1     0     0     0</v>
   <i type="logical" name="LTCTC"> F  </i>
   <i type="logical" name="LTCTE"> F  </i>
   <i type="logical" name="LTETE"> F  </i>
   <i type="logical" name="LTRIPLET"> F  </i>
   <i type="logical" name="LFXCEPS"> F  </i>
   <i type="logical" name="LFXHEG"> F  </i>
   <i type="int" name="NATURALO">     2</i>
   <i type="logical" name="LHOLEGF"> F  </i>
   <i type="logical" name="L2ORDER"> F  </i>
   <i type="logical" name="LDMP1"> F  </i>
   <i type="logical" name="LMP2LT"> F  </i>
   <i type="logical" name="LSMP2LT"> F  </i>
   <i type="logical" name="LGWLF"> F  </i>
   <i name="ENCUTGW">     -2.00000000</i>
   <i name="ENCUTGWSOFT">     -2.00000000</i>
   <i name="ENCUTLF">     -1.00000000</i>
   <i type="logical" name="LESF_SPLINES"> F  </i>
   <i type="int" name="LMAXMP2">    -1</i>
   <i name="SCISSOR">      0.00000000</i>
   <i type="int" name="NOMEGA">     0</i>
   <i type="int" name="NOMEGAR">     0</i>
   <i type="int" name="NBANDSGW">    -1</i>
   <i type="int" name="NBANDSO">    -1</i>
   <i type="int" name="NBANDSV">    -1</i>
   <i type="int" name="NELM">     1</i>
   <i type="int" name="NELMHF">     1</i>
   <i type="int" name="DIM">     3</i>
   <i type="int" name="IESPILON">     4</i>
   <i type="int" name="ANTIRES">     0</i>
   <i name="OMEGAMAX">    -30.00000000</i>
   <i name="OMEGAMIN">    -30.00000000</i>
   <i name="OMEGATL">   -200.00000000</i>
   <i type="int" name="OMEGAGRID">     0</i>
   <i name="CSHIFT">     -0.10000000</i>
   <i type="logical" name="LSELFENERGY"> F  </i>
   <i type="logical" name="LSPECTRAL"> F  </i>
   <i type="logical" name="LSPECTRALGW"> F  </i>
   <i type="logical" name="LSINGLES"> F  </i>
   <i type="logical" name="LFERMIGW"> F  </i>
   <i type="logical" name="ODDONLYGW"> F  </i>
   <i type="logical" name="EVENONLYGW"> F  </i>
   <i type="int" name="NKREDLFX">     1</i>
   <i type="int" name="NKREDLFY">     1</i>
   <i type="int" name="NKREDLFZ">     1</i>
   <i type="int" name="MAXMEM">  2800</i>
   <i type="int" name="TELESCOPE">     0</i>
   <i type="int" name="NTAUPAR">    -1</i>
   <i type="int" name="NOMEGAPAR">    -1</i>
   <i name="LAMBDA">      1.00000000</i>
  </separator>
  <separator name="External order field" >
   <i name="OFIELD_KAPPA">      0.00000000</i>
   <v name="OFIELD_K">      0.00000000      0.00000000      0.00000000</v>
   <i name="OFIELD_Q6_NEAR">      0.00000000</i>
   <i name="OFIELD_Q6_FAR">      0.00000000</i>
   <i name="OFIELD_A">      0.00000000</i>
  </separator>
 </parameters>
 <atominfo>
  <atoms>      13 </atoms>
  <types>       1 </types>
  <array name="atoms" >
   <dimension dim="1">ion</dimension>
   <field type="string">element</field>
   <field type="int">atomtype</field>
   <set>
    <rc><c>Cu</c><c>   1</c></rc>
    <rc><c>Cu</c><c>   1</c></rc>
    <rc><c>Cu</c><c>   1</c></rc>
    <rc><c>Cu</c><c>   1</c></rc>
    <rc><c>Cu</c><c>   1</c></rc>
    <rc><c>Cu</c><c>   1</c></rc>
    <rc><c>Cu</c><c>   1</c></rc>
    <rc><c>Cu</c><c>   1</c></rc>
    <rc><c>Cu</c><c>   1</c></rc>
    <rc><c>Cu</c><c>   1</c></rc>
    <rc><c>Cu</c><c>   1</c></rc>
    <rc><c>Cu</c><c>   1</c></rc>
    <rc><c>Cu</c><c>   1</c></rc>
   </set>
  </array>
  <array name="atomtypes" >
   <dimension dim="1">type</dimension>
   <field type="int">atomspertype</field>
   <field type="string">element</field>
   <field>mass</field>
   <field>valence</field>
   <field type="string">pseudopotential</field>
   <set>
    <rc><c>  13</c><c>Cu</c><c>     63.54600000</c><c>     11.00000000</c><c>  PAW_PBE Cu 22Jun2005                  </c></rc>
   </set>
  </array>
 </atominfo>
 <structure name="initialpos" >
  <crystal>
   <varray name="basis" >
    <v>      23.10269786       0.00000000       0.00000000 </v>
    <v>       0.00000000      20.71228071       0.00000000 </v>
    <v>       0.00000000       0.00000000      24.49879789 </v>
   </varray>
   <i name="volume">  11722.90907885 </i>
   <varray name="rec_basis" >
    <v>       0.04328499       0.00000000       0.00000000 </v>
    <v>       0.00000000       0.04828054       0.00000000 </v>
    <v>       0.00000000       0.00000000       0.04081833 </v>
   </varray>
  </crystal>
  <varray name="positions" >
   <v>       0.45865355       0.44430329       0.52213775 </v>
   <v>       0.54237000       0.44185273       0.46114527 </v>
   <v>       0.55941035       0.55474976       0.48590073 </v>
   <v>       0.45122764       0.54810546       0.47600643 </v>
   <v>       0.55635125       0.47005707       0.55916230 </v>
   <v>       0.49419362       0.56755466       0.56624886 </v>
   <v>       0.44766053       0.45026756       0.41833002 </v>
   <v>       0.51284045       0.54136831       0.39484472 </v>
   <v>       0.39601302       0.52567732       0.56179838 </v>
   <v>       0.46846030       0.47093459       0.61980256 </v>
   <v>       0.61093190       0.50272570       0.40673264 </v>
   <v>       0.53672764       0.43451958       0.36225703 </v>
   <v>       0.55370414       0.53330465       0.64211911 </v>
  </varray>
 </structure>
 <calculation>
  <scstep>
   <time name="dav">   13.17   13.19</time>
   <time name="total">   17.46   17.49</time>
   <energy>
    <i name="alphaZ">     10.54298361 </i>
    <i name="ewald">  23285.27656856 </i>
    <i name="hartreedc"> -39755.94536260 </i>
    <i name="XCdc">    584.09401789 </i>
    <i name="pawpsdc">  15965.26744864 </i>
    <i name="pawaedc"> -17340.97210982 </i>
    <i name="eentropy">     -0.00239599 </i>
    <i name="bandstr">    142.64471917 </i>
    <i name="atom">  18082.44932260 </i>
    <i name="e_fr_energy">    973.35519205 </i>
    <i name="e_wo_entrp">    973.35758804 </i>
    <i name="e_0_energy">    973.35599072 </i>
   </energy>
  </scstep>
  <scstep>
   <time name="dav">   13.37   13.38</time>
   <time name="total">   13.37   13.39</time>
   <energy>
    <i name="e_fr_energy">    229.89913244 </i>
    <i name="e_wo_entrp">    229.92507260 </i>
    <i name="e_0_energy">    229.90777916 </i>
   </energy>
  </scstep>
  <scstep>
   <time name="dav">   15.52   15.53</time>
   <time name="total">   15.52   15.53</time>
   <energy>
    <i name="e_fr_energy">      6.59255535 </i>
    <i name="e_wo_entrp">      6.61225795 </i>
    <i name="e_0_energy">      6.59912288 </i>
   </energy>
  </scstep>
  <scstep>
   <time name="dav">   14.97   14.98</time>
   <time name="total">   14.97   14.98</time>
   <energy>
    <i name="e_fr_energy">    -34.93287360 </i>
    <i name="e_wo_entrp">    -35.02481466 </i>
    <i name="e_0_energy">    -34.96352062 </i>
   </energy>
  </scstep>
  <scstep>
   <time name="dav">   16.30   16.31</time>
   <time name="total">   17.71   17.73</time>
   <energy>
    <i name="e_fr_energy">    -36.86672662 </i>
    <i name="e_wo_entrp">    -36.96107538 </i>
    <i name="e_0_energy">    -36.89817621 </i>
   </energy>
  </scstep>
  <scstep>
   <time name="dav">   13.78   13.79</time>
   <time name="total">   19.55   19.65</time>
   <energy>
    <i name="e_fr_energy">    -13.87597970 </i>
    <i name="e_wo_entrp">    -13.83126670 </i>
    <i name="e_0_energy">    -13.86107537 </i>
   </energy>
  </scstep>
  <scstep>
   <time name="dav">   15.04   15.06</time>
   <time name="total">   20.75   20.77</time>
   <energy>
    <i name="e_fr_energy">     -8.12518886 </i>
    <i name="e_wo_entrp">     -8.09488034 </i>
    <i name="e_0_energy">     -8.11508602 </i>
   </energy>
  </scstep>
  <scstep>
   <time name="dav">   15.14   15.16</time>
   <time name="total">   20.85   20.87</time>
   <energy>
    <i name="e_fr_energy">     -8.94458800 </i>
    <i name="e_wo_entrp">     -8.92796945 </i>
    <i name="e_0_energy">     -8.93904848 </i>
   </energy>
  </scstep>
  <scstep>
   <time name="dav">   15.95   15.97</time>
   <time name="total">   21.65   21.68</time>
   <energy>
    <i name="e_fr_energy">    -10.83183698 </i>
    <i name="e_wo_entrp">    -10.79174069 </i>
    <i name="e_0_energy">    -10.81847155 </i>
   </energy>
  </scstep>
  <scstep>
   <time name="dav">   17.01   17.02</time>
   <time name="total">   22.70   22.72</time>
   <energy>
    <i name="e_fr_energy">    -15.07767899 </i>
    <i name="e_wo_entrp">    -15.07722522 </i>
    <i name="e_0_energy">    -15.07752773 </i>
   </energy>
  </scstep>
  <scstep>
   <time name="dav">   15.48   15.50</time>
   <time name="total">   21.21   21.25</time>
   <energy>
    <i name="e_fr_energy">    -17.68919582 </i>
    <i name="e_wo_entrp">    -17.72222802 </i>
    <i name="e_0_energy">    -17.70020655 </i>
   </energy>
  </scstep>
  <scstep>
   <time name="dav">   16.15   16.16</time>
   <time name="total">   21.86   21.89</time>
   <energy>
    <i name="e_fr_energy">    -22.63100069 </i>
    <i name="e_wo_entrp">    -22.65197734 </i>
    <i name="e_0_energy">    -22.63799291 </i>
   </energy>
  </scstep>
  <scstep>
   <time name="dav">   16.47   16.49</time>
   <time name="total">   22.20   22.23</time>
   <energy>
    <i name="e_fr_energy">    -26.24269504 </i>
    <i name="e_wo_entrp">    -26.26448900 </i>
    <i name="e_0_energy">    -26.24995970 </i>
   </energy>
  </scstep>
  <scstep>
   <time name="dav">   16.33   16.34</time>
   <time name="total">   22.10   22.11</time>
   <energy>
    <i name="e_fr_energy">    -28.22121488 </i>
    <i name="e_wo_entrp">    -28.25066221 </i>
    <i name="e_0_energy">    -28.23103066 </i>
   </energy>
  </scstep>
  <scstep>
   <time name="dav">   16.49   16.52</time>
   <time name="total">   22.21   23.32</time>
   <energy>
    <i name="e_fr_energy">    -29.95438579 </i>
    <i name="e_wo_entrp">    -29.97738922 </i>
    <i name="e_0_energy">    -29.96205360 </i>
   </energy>
  </scstep>
  <scstep>
   <time name="dav">   16.40   16.42</time>
   <time name="total">   22.15   22.17</time>
   <energy>
    <i name="e_fr_energy">    -31.18658862 </i>
    <i name="e_wo_entrp">    -31.18692374 </i>
    <i name="e_0_energy">    -31.18670033 </i>
   </energy>
  </scstep>
  <scstep>
   <time name="dav">   17.81   17.82</time>
   <time name="total">   23.63   23.66</time>
   <energy>
    <i name="e_fr_energy">    -31.58412301 </i>
    <i name="e_wo_entrp">    -31.56894697 </i>
    <i name="e_0_energy">    -31.57906433 </i>
   </energy>
  </scstep>
  <scstep>
   <time name="dav">   17.06   17.07</time>
   <time name="total">   22.91   22.95</time>
   <energy>
    <i name="e_fr_energy">    -31.92225649 </i>
    <i name="e_wo_entrp">    -31.89545937 </i>
    <i name="e_0_energy">    -31.91332412 </i>
   </energy>
  </scstep>
  <scstep>
   <time name="dav">   16.88   16.90</time>
   <time name="total">   22.73   22.78</time>
   <energy>
    <i name="e_fr_energy">    -32.34963017 </i>
    <i name="e_wo_entrp">    -32.31185816 </i>
    <i name="e_0_energy">    -32.33703950 </i>
   </energy>
  </scstep>
  <scstep>
   <time name="dav">   17.35   17.37</time>
   <time name="total">   23.17   23.21</time>
   <energy>
    <i name="e_fr_energy">    -32.63377151 </i>
    <i name="e_wo_entrp">    -32.58876548 </i>
    <i name="e_0_energy">    -32.61876950 </i>
   </energy>
  </scstep>
  <scstep>
   <time name="dav">   16.82   16.84</time>
   <time name="total">   22.64   22.66</time>
   <energy>
    <i name="e_fr_energy">    -32.73909923 </i>
    <i name="e_wo_entrp">    -32.69053650 </i>
    <i name="e_0_energy">    -32.72291166 </i>
   </energy>
  </scstep>
  <scstep>
   <time name="dav">   16.89   16.90</time>
   <time name="total">   22.73   22.74</time>
   <energy>
    <i name="e_fr_energy">    -32.79755132 </i>
    <i name="e_wo_entrp">    -32.74654395 </i>
    <i name="e_0_energy">    -32.78054886 </i>
   </energy>
  </scstep>
  <scstep>
   <time name="dav">   14.69   14.70</time>
   <time name="total">   20.57   20.60</time>
   <energy>
    <i name="e_fr_energy">    -32.82554630 </i>
    <i name="e_wo_entrp">    -32.77335157 </i>
    <i name="e_0_energy">    -32.80814806 </i>
   </energy>
  </scstep>
  <scstep>
   <time name="dav">   14.07   14.09</time>
   <time name="total">   19.90   19.92</time>
   <energy>
    <i name="e_fr_energy">    -32.85151509 </i>
    <i name="e_wo_entrp">    -32.79843879 </i>
    <i name="e_0_energy">    -32.83382299 </i>
   </energy>
  </scstep>
  <scstep>
   <time name="dav">   10.83   10.84</time>
   <time name="total">   16.67   16.69</time>
   <energy>
    <i name="e_fr_energy">    -32.86573557 </i>
    <i name="e_wo_entrp">    -32.81226479 </i>
    <i name="e_0_energy">    -32.84791198 </i>
   </energy>
  </scstep>
  <scstep>
   <time name="dav">   11.00   11.02</time>
   <time name="total">   16.82   16.84</time>
   <energy>
    <i name="e_fr_energy">    -32.87253308 </i>
    <i name="e_wo_entrp">    -32.81886358 </i>
    <i name="e_0_energy">    -32.85464325 </i>
   </energy>
  </scstep>
  <scstep>
   <time name="dav">   11.03   11.04</time>
   <time name="total">   16.86   16.88</time>
   <energy>
    <i name="e_fr_energy">    -32.87659880 </i>
    <i name="e_wo_entrp">    -32.82280307 </i>
    <i name="e_0_energy">    -32.85866689 </i>
   </energy>
  </scstep>
  <scstep>
   <time name="dav">   10.79   10.80</time>
   <time name="total">   16.69   16.71</time>
   <energy>
    <i name="e_fr_energy">    -32.87911052 </i>
    <i name="e_wo_entrp">    -32.82525044 </i>
    <i name="e_0_energy">    -32.86115716 </i>
   </energy>
  </scstep>
  <scstep>
   <time name="dav">   10.14   10.15</time>
   <time name="total">   16.05   16.07</time>
   <energy>
    <i name="e_fr_energy">    -32.88102317 </i>
    <i name="e_wo_entrp">    -32.82713320 </i>
    <i name="e_0_energy">    -32.86305985 </i>
   </energy>
  </scstep>
  <scstep>
   <time name="dav">   10.44   10.45</time>
   <time name="total">   16.39   16.41</time>
   <energy>
    <i name="e_fr_energy">    -32.88207987 </i>
    <i name="e_wo_entrp">    -32.82817333 </i>
    <i name="e_0_energy">    -32.86411103 </i>
   </energy>
  </scstep>
  <scstep>
   <time name="dav">   10.23   10.25</time>
   <time name="total">   16.19   16.21</time>
   <energy>
    <i name="e_fr_energy">    -32.88275845 </i>
    <i name="e_wo_entrp">    -32.82883823 </i>
    <i name="e_0_energy">    -32.86478504 </i>
   </energy>
  </scstep>
  <scstep>
   <time name="dav">    9.81    9.82</time>
   <time name="total">   15.82   15.85</time>
   <energy>
    <i name="e_fr_energy">    -32.88315906 </i>
    <i name="e_wo_entrp">    -32.82923075 </i>
    <i name="e_0_energy">    -32.86518296 </i>
   </energy>
  </scstep>
  <scstep>
   <time name="dav">   10.03   10.04</time>
   <time name="total">   16.06   16.09</time>
   <energy>
    <i name="e_fr_energy">    -32.88334196 </i>
    <i name="e_wo_entrp">    -32.82940959 </i>
    <i name="e_0_energy">    -32.86536450 </i>
   </energy>
  </scstep>
  <scstep>
   <time name="dav">    9.63    9.64</time>
   <time name="total">   13.90   13.91</time>
   <energy>
    <i name="alphaZ">     10.54298361 </i>
    <i name="ewald">  23285.27656856 </i>
    <i name="hartreedc"> -39718.34189586 </i>
    <i name="XCdc">    574.32022836 </i>
    <i name="pawpsdc">  16681.84516710 </i>
    <i name="pawaedc"> -18075.08605302 </i>
    <i name="eentropy">     -0.05393389 </i>
    <i name="bandstr">   -873.83580199 </i>
    <i name="atom">  18082.44932260 </i>
    <i name="e_fr_energy">    -32.88341453 </i>
    <i name="e_wo_entrp">    -32.82948064 </i>
    <i name="e_0_energy">    -32.86543657 </i>
   </energy>
  </scstep>
  <structure>
   <crystal>
    <varray name="basis" >
     <v>      23.10269786       0.00000000       0.00000000 </v>
     <v>       0.00000000      20.71228071       0.00000000 </v>
     <v>       0.00000000       0.00000000      24.49879789 </v>
    </varray>
    <i name="volume">  11722.90907885 </i>
    <varray name="rec_basis" >
     <v>       0.04328499       0.00000000       0.00000000 </v>
     <v>       0.00000000       0.04828054       0.00000000 </v>
     <v>       0.00000000       0.00000000       0.04081833 </v>
    </varray>
   </crystal>
   <varray name="positions" >
    <v>       0.45865355       0.44430329       0.52213775 </v>
    <v>       0.54237000       0.44185273       0.46114527 </v>
    <v>       0.55941035       0.55474976       0.48590073 </v>
    <v>       0.45122764       0.54810546       0.47600643 </v>
    <v>       0.55635125       0.47005707       0.55916230 </v>
    <v>       0.49419362       0.56755466       0.56624886 </v>
    <v>       0.44766053       0.45026756       0.41833002 </v>
    <v>       0.51284045       0.54136831       0.39484472 </v>
    <v>       0.39601302       0.52567732       0.56179838 </v>
    <v>       0.46846030       0.47093459       0.61980256 </v>
    <v>       0.61093190       0.50272570       0.40673264 </v>
    <v>       0.53672764       0.43451958       0.36225703 </v>
    <v>       0.55370414       0.53330465       0.64211911 </v>
   </varray>
  </structure>
  <varray name="forces" >
   <v>       0.13936873       0.02002965       0.03374101 </v>
   <v>      -0.08339724       0.11512875       0.02897548 </v>
   <v>      -0.09595904      -0.06710014      -0.04721477 </v>
   <v>       0.16448394       0.08901509      -0.03583672 </v>
   <v>      -0.22054025       0.09291333      -0.19409667 </v>
   <v>      -0.01396161      -0.21879537      -0.12644724 </v>
   <v>       0.27666822       0.10022947       0.00400968 </v>
   <v>      -0.04070635      -0.17109888       0.37073942 </v>
   <v>       0.22676692      -0.01856045       0.07596860 </v>
   <v>       0.04477510       0.09525299      -0.22399231 </v>
   <v>      -0.23296803      -0.00493167       0.04661946 </v>
   <v>      -0.02824677       0.02774047       0.23687032 </v>
   <v>      -0.13628362      -0.05982324      -0.16933627 </v>
  </varray>
  <energy>
   <i name="e_fr_energy">    -32.88341453 </i>
   <i name="e_wo_entrp">    -32.82948064 </i>
   <i name="e_0_energy">    -32.86543657 </i>
  </energy>
  <time name="totalsc">  678.24  680.23</time>
 </calculation>
 <calculation>
  <scstep>
   <time name="dav">   13.75   13.78</time>
   <time name="total">   19.44   19.48</time>
   <energy>
    <i name="alphaZ">     10.54298361 </i>
    <i name="ewald">  23450.59222665 </i>
    <i name="hartreedc"> -39882.24278542 </i>
    <i name="XCdc">    574.58791769 </i>
    <i name="pawpsdc">  16681.85939259 </i>
    <i name="pawaedc"> -18075.10099373 </i>
    <i name="eentropy">     -0.05448841 </i>
    <i name="bandstr">   -875.52943405 </i>
    <i name="atom">  18082.44932260 </i>
    <i name="e_fr_energy">    -32.89585848 </i>
    <i name="e_wo_entrp">    -32.84137007 </i>
    <i name="e_0_energy">    -32.87769568 </i>
   </energy>
  </scstep>
  <scstep>
   <time name="dav">   17.48   17.50</time>
   <time name="total">   23.17   23.20</time>
   <energy>
    <i name="e_fr_energy">    -32.91448197 </i>
    <i name="e_wo_entrp">    -32.86001314 </i>
    <i name="e_0_energy">    -32.89632569 </i>
   </energy>
  </scstep>
  <scstep>
   <time name="dav">   14.55   14.56</time>
   <time name="total">   20.22   20.24</time>
   <energy>
    <i name="e_fr_energy">    -32.91417035 </i>
    <i name="e_wo_entrp">    -32.85972235 </i>
    <i name="e_0_energy">    -32.89602102 </i>
   </energy>
  </scstep>
  <scstep>
   <time name="dav">   13.21   13.23</time>
   <time name="total">   18.94   18.97</time>
   <energy>
    <i name="e_fr_energy">    -32.91413108 </i>
    <i name="e_wo_entrp">    -32.85968612 </i>
    <i name="e_0_energy">    -32.89598276 </i>
   </energy>
  </scstep>
  <scstep>
   <time name="dav">   15.89   15.90</time>
   <time name="total">   20.17   20.18</time>
   <energy>
    <i name="alphaZ">     10.54298361 </i>
    <i name="ewald">  23450.59222665 </i>
    <i name="hartreedc"> -39880.25141164 </i>
    <i name="XCdc">    574.49164625 </i>
    <i name="pawpsdc">  16708.12454009 </i>
    <i name="pawaedc"> -18101.78773978 </i>
    <i name="eentropy">     -0.05445859 </i>
    <i name="bandstr">   -877.02126213 </i>
    <i name="atom">  18082.44932260 </i>
    <i name="e_fr_energy">    -32.91415294 </i>
    <i name="e_wo_entrp">    -32.85969435 </i>
    <i name="e_0_energy">    -32.89600008 </i>
   </energy>
  </scstep>
  <structure>
   <crystal>
    <varray name="basis" >
     <v>      23.10269786       0.00000000       0.00000000 </v>
     <v>       0.00000000      20.71228071       0.00000000 </v>
     <v>       0.00000000       0.00000000      24.49879789 </v>
    </varray>
    <i name="volume">  11722.90907885 </i>
    <varray name="rec_basis" >
     <v>       0.04328499       0.00000000       0.00000000 </v>
     <v>       0.00000000       0.04828054       0.00000000 </v>
     <v>       0.00000000       0.00000000       0.04081833 </v>
    </varray>
   </crystal>
   <varray name="positions" >
    <v>       0.45894457       0.44434995       0.52220419 </v>
    <v>       0.54219585       0.44212089       0.46120233 </v>
    <v>       0.55920997       0.55459348       0.48580776 </v>
    <v>       0.45157112       0.54831279       0.47593586 </v>
    <v>       0.55589072       0.47027348       0.55878009 </v>
    <v>       0.49416446       0.56704505       0.56599986 </v>
    <v>       0.44823826       0.45050101       0.41833792 </v>
    <v>       0.51275545       0.54096979       0.39557477 </v>
    <v>       0.39648655       0.52563409       0.56194798 </v>
    <v>       0.46855380       0.47115645       0.61936148 </v>
    <v>       0.61044542       0.50271421       0.40682445 </v>
    <v>       0.53666866       0.43458419       0.36272348 </v>
    <v>       0.55341955       0.53316531       0.64178566 </v>
   </varray>
  </structure>
  <varray name="forces" >
   <v>       0.07924056      -0.00088251      -0.00678620 </v>
   <v>      -0.03935641       0.04244687       0.05976500 </v>
   <v>      -0.03690246      -0.00329865      -0.01391554 </v>
   <v>       0.08023240       0.08813862       0.00140804 </v>
   <v>      -0.11415350       0.04424284      -0.15232618 </v>
   <v>       0.00115949      -0.10774463      -0.11974318 </v>
   <v>       0.14143528       0.05429830       0.00954886 </v>
   <v>      -0.04208415      -0.09034727       0.25264518 </v>
   <v>       0.14385679      -0.00244762       0.04727190 </v>
   <v>       0.01603152       0.02774895      -0.13653540 </v>
   <v>      -0.12366885       0.01081127       0.03521080 </v>
   <v>      -0.01280179      -0.02233374       0.14649478 </v>
   <v>      -0.09298889      -0.04063243      -0.12303805 </v>
  </varray>
  <energy>
   <i name="e_fr_energy">    -32.91415294 </i>
   <i name="e_wo_entrp">    -32.85969435 </i>
   <i name="e_0_energy">    -32.89600008 </i>
  </energy>
  <time name="totalsc">  123.75  125.62</time>
 </calculation>
 <calculation>
  <scstep>
   <time name="dav">   13.82   13.83</time>
   <time name="total">   19.53   19.56</time>
   <energy>
    <i name="alphaZ">     10.54298361 </i>
    <i name="ewald">  23694.74164929 </i>
    <i name="hartreedc"> -40122.08452613 </i>
    <i name="XCdc">    574.89065548 </i>
    <i name="pawpsdc">  16713.48343660 </i>
    <i name="pawaedc"> -18107.35148977 </i>
    <i name="eentropy">     -0.05508738 </i>
    <i name="bandstr">   -879.50582717 </i>
    <i name="atom">  18082.44932260 </i>
    <i name="e_fr_energy">    -32.88888289 </i>
    <i name="e_wo_entrp">    -32.83379551 </i>
    <i name="e_0_energy">    -32.87052043 </i>
   </energy>
  </scstep>
  <scstep>
   <time name="dav">   17.37   17.39</time>
   <time name="total">   23.08   23.11</time>
   <energy>
    <i name="e_fr_energy">    -32.92931925 </i>
    <i name="e_wo_entrp">    -32.87424906 </i>
    <i name="e_0_energy">    -32.91096252 </i>
   </energy>
  </scstep>
  <scstep>
   <time name="dav">   14.14   14.15</time>
   <time name="total">   19.88   19.90</time>
   <energy>
    <i name="e_fr_energy">    -32.92807861 </i>
    <i name="e_wo_entrp">    -32.87303205 </i>
    <i name="e_0_energy">    -32.90972975 </i>
   </energy>
  </scstep>
  <scstep>
   <time name="dav">   15.40   15.42</time>
   <time name="total">   21.06   21.08</time>
   <energy>
    <i name="e_fr_energy">    -32.92796274 </i>
    <i name="e_wo_entrp">    -32.87292519 </i>
    <i name="e_0_energy">    -32.90961689 </i>
   </energy>
  </scstep>
  <scstep>
   <time name="dav">   16.15   16.16</time>
   <time name="total">   21.93   21.95</time>
   <energy>
    <i name="e_fr_energy">    -32.92775881 </i>
    <i name="e_wo_entrp">    -32.87271192 </i>
    <i name="e_0_energy">    -32.90940984 </i>
   </energy>
  </scstep>
  <scstep>
   <time name="dav">   14.71   14.72</time>
   <time name="total">   20.44   20.47</time>
   <energy>
    <i name="e_fr_energy">    -32.92786978 </i>
    <i name="e_wo_entrp">    -32.87282130 </i>
    <i name="e_0_energy">    -32.90952029 </i>
   </energy>
  </scstep>
  <scstep>
   <time name="dav">   13.86   13.88</time>
   <time name="total">   18.17   18.19</time>
   <energy>
    <i name="alphaZ">     10.54298361 </i>
    <i name="ewald">  23694.74164929 </i>
    <i name="hartreedc"> -40118.95949047 </i>
    <i name="XCdc">    574.73837891 </i>
    <i name="pawpsdc">  16763.44819354 </i>
    <i name="pawaedc"> -18158.28935745 </i>
    <i name="eentropy">     -0.05504461 </i>
    <i name="bandstr">   -881.54448170 </i>
    <i name="atom">  18082.44932260 </i>
    <i name="e_fr_energy">    -32.92784628 </i>
    <i name="e_wo_entrp">    -32.87280167 </i>
    <i name="e_0_energy">    -32.90949807 </i>
   </energy>
  </scstep>
  <structure>
   <crystal>
    <varray name="basis" >
     <v>      23.10269786       0.00000000       0.00000000 </v>
     <v>       0.00000000      20.71228071       0.00000000 </v>
     <v>       0.00000000       0.00000000      24.49879789 </v>
    </varray>
    <i name="volume">  11722.90907885 </i>
    <varray name="rec_basis" >
     <v>       0.04328499       0.00000000       0.00000000 </v>
     <v>       0.00000000       0.04828054       0.00000000 </v>
     <v>       0.00000000       0.00000000       0.04081833 </v>
    </varray>
   </crystal>
   <varray name="positions" >
    <v>       0.45936961       0.44441808       0.52230123 </v>
    <v>       0.54194151       0.44251252       0.46128566 </v>
    <v>       0.55891732       0.55436522       0.48567197 </v>
    <v>       0.45207275       0.54861560       0.47583279 </v>
    <v>       0.55521813       0.47058955       0.55822188 </v>
    <v>       0.49412188       0.56630076       0.56563620 </v>
    <v>       0.44908203       0.45084197       0.41834945 </v>
    <v>       0.51263130       0.54038776       0.39664100 </v>
    <v>       0.39717813       0.52557095       0.56216646 </v>
    <v>       0.46869035       0.47148048       0.61871728 </v>
    <v>       0.60973493       0.50269744       0.40695852 </v>
    <v>       0.53658251       0.43467856       0.36340471 </v>
    <v>       0.55300392       0.53296181       0.64129866 </v>
   </varray>
  </structure>
  <varray name="forces" >
   <v>      -0.02640250      -0.04168193      -0.07082221 </v>
   <v>       0.03290158      -0.07502632       0.10808874 </v>
   <v>       0.06306666       0.10184441       0.04397011 </v>
   <v>      -0.06293722       0.08779943       0.06179486 </v>
   <v>       0.05818487      -0.03609934      -0.07472002 </v>
   <v>       0.02589087       0.07802389      -0.10817054 </v>
   <v>      -0.07308518      -0.02710222       0.01625415 </v>
   <v>      -0.03838376       0.05859545       0.03512263 </v>
   <v>      -0.00084730       0.02088361      -0.00058476 </v>
   <v>      -0.03092193      -0.08315157       0.01012479 </v>
   <v>       0.05164191       0.03036106       0.02059385 </v>
   <v>       0.01570528      -0.10229260       0.00247856 </v>
   <v>      -0.01481327      -0.01215387      -0.04413015 </v>
  </varray>
  <energy>
   <i name="e_fr_energy">    -32.92784628 </i>
   <i name="e_wo_entrp">    -32.87280167 </i>
   <i name="e_0_energy">    -32.90949807 </i>
  </energy>
  <time name="totalsc">  165.99  166.95</time>
 </calculation>
 <calculation>
  <scstep>
   <time name="dav">   13.88   13.90</time>
   <time name="total">   19.60   19.63</time>
   <energy>
    <i name="alphaZ">     10.54298361 </i>
    <i name="ewald">  23707.43601534 </i>
    <i name="hartreedc"> -40131.89090245 </i>
    <i name="XCdc">    574.74197929 </i>
    <i name="pawpsdc">  16763.18776003 </i>
    <i name="pawaedc"> -18158.02099925 </i>
    <i name="eentropy">     -0.05520953 </i>
    <i name="bandstr">   -881.31883820 </i>
    <i name="atom">  18082.44932260 </i>
    <i name="e_fr_energy">    -32.92788856 </i>
    <i name="e_wo_entrp">    -32.87267903 </i>
    <i name="e_0_energy">    -32.90948538 </i>
   </energy>
  </scstep>
  <scstep>
   <time name="dav">   17.72   17.74</time>
   <time name="total">   23.44   23.46</time>
   <energy>
    <i name="e_fr_energy">    -32.93324900 </i>
    <i name="e_wo_entrp">    -32.87804003 </i>
    <i name="e_0_energy">    -32.91484601 </i>
   </energy>
  </scstep>
  <scstep>
   <time name="dav">   14.41   14.42</time>
   <time name="total">   20.14   20.16</time>
   <energy>
    <i name="e_fr_energy">    -32.93312805 </i>
    <i name="e_wo_entrp">    -32.87792022 </i>
    <i name="e_0_energy">    -32.91472544 </i>
   </energy>
  </scstep>
  <scstep>
   <time name="dav">   10.95   10.96</time>
   <time name="total">   15.21   15.23</time>
   <energy>
    <i name="alphaZ">     10.54298361 </i>
    <i name="ewald">  23707.43601534 </i>
    <i name="hartreedc"> -40131.75218000 </i>
    <i name="XCdc">    574.73310656 </i>
    <i name="pawpsdc">  16763.14671591 </i>
    <i name="pawaedc"> -18157.90278882 </i>
    <i name="eentropy">     -0.05521006 </i>
    <i name="bandstr">   -881.53107021 </i>
    <i name="atom">  18082.44932260 </i>
    <i name="e_fr_energy">    -32.93310507 </i>
    <i name="e_wo_entrp">    -32.87789501 </i>
    <i name="e_0_energy">    -32.91470172 </i>
   </energy>
  </scstep>
  <structure>
   <crystal>
    <varray name="basis" >
     <v>      23.10269786       0.00000000       0.00000000 </v>
     <v>       0.00000000      20.71228071       0.00000000 </v>
     <v>       0.00000000       0.00000000      24.49879789 </v>
    </varray>
    <i name="volume">  11722.90907885 </i>
    <varray name="rec_basis" >
     <v>       0.04328499       0.00000000       0.00000000 </v>
     <v>       0.00000000       0.04828054       0.00000000 </v>
     <v>       0.00000000       0.00000000       0.04081833 </v>
    </varray>
   </crystal>
   <varray name="positions" >
    <v>       0.45939277       0.44430777       0.52214258 </v>
    <v>       0.54197380       0.44237370       0.46157919 </v>
    <v>       0.55902249       0.55462103       0.48575369 </v>
    <v>       0.45201434       0.54894708       0.47596713 </v>
    <v>       0.55522576       0.47055109       0.55790780 </v>
    <v>       0.49418229       0.56637029       0.56528022 </v>
    <v>       0.44907221       0.45083612       0.41839337 </v>
    <v>       0.51250017       0.54043485       0.39696715 </v>
    <v>       0.39732943       0.52561978       0.56221349 </v>
    <v>       0.46863724       0.47130219       0.61859999 </v>
    <v>       0.60971648       0.50278509       0.40704070 </v>
    <v>       0.53660576       0.43439166       0.36356229 </v>
    <v>       0.55287165       0.53288004       0.64107822 </v>
   </varray>
  </structure>
  <varray name="forces" >
   <v>      -0.05849657      -0.02525855      -0.05297550 </v>
   <v>       0.04963110      -0.05340421       0.02446943 </v>
   <v>       0.06892719       0.08186183       0.02009111 </v>
   <v>      -0.07827601       0.05046444       0.03374970 </v>
   <v>       0.06324315      -0.02742403      -0.00314997 </v>
   <v>       0.03028186       0.06917167      -0.03399114 </v>
   <v>      -0.06567532      -0.01803131       0.02300249 </v>
   <v>      -0.00982412       0.02683296      -0.00964285 </v>
   <v>      -0.02503872       0.01313054      -0.00555041 </v>
   <v>      -0.01053261      -0.06395310       0.00031456 </v>
   <v>       0.02850946       0.01489838       0.01980651 </v>
   <v>       0.01580936      -0.05748522       0.02201647 </v>
   <v>      -0.00855877      -0.01080340      -0.03814040 </v>
  </varray>
  <energy>
   <i name="e_fr_energy">    -32.93310507 </i>
   <i name="e_wo_entrp">    -32.87789501 </i>
   <i name="e_0_energy">    -32.91470172 </i>
  </energy>
  <time name="totalsc">  100.28  100.41</time>
 </calculation>
 <calculation>
  <scstep>
   <time name="dav">   13.91   13.92</time>
   <time name="total">   19.63   19.65</time>
   <energy>
    <i name="alphaZ">     10.54298361 </i>
    <i name="ewald">  23719.73372868 </i>
    <i name="hartreedc"> -40144.05408730 </i>
    <i name="XCdc">    574.73300467 </i>
    <i name="pawpsdc">  16762.99710689 </i>
    <i name="pawaedc"> -18157.74157659 </i>
    <i name="eentropy">     -0.05536404 </i>
    <i name="bandstr">   -881.53613290 </i>
    <i name="atom">  18082.44932260 </i>
    <i name="e_fr_energy">    -32.93101437 </i>
    <i name="e_wo_entrp">    -32.87565033 </i>
    <i name="e_0_energy">    -32.91255969 </i>
   </energy>
  </scstep>
  <scstep>
   <time name="dav">   17.65   17.66</time>
   <time name="total">   23.31   23.34</time>
   <energy>
    <i name="e_fr_energy">    -32.93588883 </i>
    <i name="e_wo_entrp">    -32.88052175 </i>
    <i name="e_0_energy">    -32.91743314 </i>
   </energy>
  </scstep>
  <scstep>
   <time name="dav">   13.85   13.87</time>
   <time name="total">   19.63   19.65</time>
   <energy>
    <i name="e_fr_energy">    -32.93575479 </i>
    <i name="e_wo_entrp">    -32.88038884 </i>
    <i name="e_0_energy">    -32.91729947 </i>
   </energy>
  </scstep>
  <scstep>
   <time name="dav">    9.36    9.37</time>
   <time name="total">   13.64   13.66</time>
   <energy>
    <i name="alphaZ">     10.54298361 </i>
    <i name="ewald">  23719.73372868 </i>
    <i name="hartreedc"> -40143.98301503 </i>
    <i name="XCdc">    574.73048566 </i>
    <i name="pawpsdc">  16763.18988113 </i>
    <i name="pawaedc"> -18157.91849103 </i>
    <i name="eentropy">     -0.05537087 </i>
    <i name="bandstr">   -881.62523249 </i>
    <i name="atom">  18082.44932260 </i>
    <i name="e_fr_energy">    -32.93570774 </i>
    <i name="e_wo_entrp">    -32.88033686 </i>
    <i name="e_0_energy">    -32.91725078 </i>
   </energy>
  </scstep>
  <structure>
   <crystal>
    <varray name="basis" >
     <v>      23.10269786       0.00000000       0.00000000 </v>
     <v>       0.00000000      20.71228071       0.00000000 </v>
     <v>       0.00000000       0.00000000      24.49879789 </v>
    </varray>
    <i name="volume">  11722.90907885 </i>
    <varray name="rec_basis" >
     <v>       0.04328499       0.00000000       0.00000000 </v>
     <v>       0.00000000       0.04828054       0.00000000 </v>
     <v>       0.00000000       0.00000000       0.04081833 </v>
    </varray>
   </crystal>
   <varray name="positions" >
    <v>       0.45941505       0.44420160       0.52198989 </v>
    <v>       0.54200488       0.44224009       0.46186168 </v>
    <v>       0.55912371       0.55486724       0.48583234 </v>
    <v>       0.45195812       0.54926610       0.47609643 </v>
    <v>       0.55523310       0.47051408       0.55760552 </v>
    <v>       0.49424042       0.56643721       0.56493761 </v>
    <v>       0.44906277       0.45083049       0.41843563 </v>
    <v>       0.51237396       0.54048017       0.39728104 </v>
    <v>       0.39747504       0.52566678       0.56225875 </v>
    <v>       0.46858613       0.47113060       0.61848710 </v>
    <v>       0.60969873       0.50286944       0.40711978 </v>
    <v>       0.53662813       0.43411555       0.36371396 </v>
    <v>       0.55274436       0.53280134       0.64086607 </v>
   </varray>
  </structure>
  <varray name="forces" >
   <v>      -0.08424038      -0.01419996      -0.04256184 </v>
   <v>       0.06414124      -0.03758285      -0.04503299 </v>
   <v>       0.07620146       0.07258551       0.00000604 </v>
   <v>      -0.09144767       0.02831041       0.01299827 </v>
   <v>       0.06515723      -0.01944615       0.04653410 </v>
   <v>       0.03590314       0.06058024       0.01567433 </v>
   <v>      -0.05729676      -0.01069550       0.03061384 </v>
   <v>       0.01042569      -0.00082982      -0.02563361 </v>
   <v>      -0.03876042       0.00959300      -0.00858259 </v>
   <v>       0.00414998      -0.05339098      -0.01538343 </v>
   <v>       0.00725911       0.00585650       0.02522511 </v>
   <v>       0.01550480      -0.02936327       0.04930152 </v>
   <v>      -0.00699743      -0.01141713      -0.04315874 </v>
  </varray>
  <energy>
   <i name="e_fr_energy">    -32.93570774 </i>
   <i name="e_wo_entrp">    -32.88033686 </i>
   <i name="e_0_energy">    -32.91725078 </i>
  </energy>
  <time name="totalsc">   98.05   98.59</time>
 </calculation>
 <calculation>
  <scstep>
   <time name="dav">   14.11   14.12</time>
   <time name="total">   19.85   19.87</time>
   <energy>
    <i name="alphaZ">     10.54298361 </i>
    <i name="ewald">  23679.61309069 </i>
    <i name="hartreedc"> -40104.21595057 </i>
    <i name="XCdc">    574.65789584 </i>
    <i name="pawpsdc">  16763.17534226 </i>
    <i name="pawaedc"> -18157.91066763 </i>
    <i name="eentropy">     -0.05538373 </i>
    <i name="bandstr">   -881.19185130 </i>
    <i name="atom">  18082.44932260 </i>
    <i name="e_fr_energy">    -32.93521823 </i>
    <i name="e_wo_entrp">    -32.87983451 </i>
    <i name="e_0_energy">    -32.91675699 </i>
   </energy>
  </scstep>
  <scstep>
   <time name="dav">   17.62   17.63</time>
   <time name="total">   23.32   23.35</time>
   <energy>
    <i name="e_fr_energy">    -32.93929916 </i>
    <i name="e_wo_entrp">    -32.88390668 </i>
    <i name="e_0_energy">    -32.92083500 </i>
   </energy>
  </scstep>
  <scstep>
   <time name="dav">   13.97   13.98</time>
   <time name="total">   19.67   19.69</time>
   <energy>
    <i name="e_fr_energy">    -32.93916107 </i>
    <i name="e_wo_entrp">    -32.88376787 </i>
    <i name="e_0_energy">    -32.92069667 </i>
   </energy>
  </scstep>
  <scstep>
   <time name="dav">   11.82   11.83</time>
   <time name="total">   16.10   16.11</time>
   <energy>
    <i name="alphaZ">     10.54298361 </i>
    <i name="ewald">  23679.61309069 </i>
    <i name="hartreedc"> -40104.69968177 </i>
    <i name="XCdc">    574.68266104 </i>
    <i name="pawpsdc">  16758.67922865 </i>
    <i name="pawaedc"> -18153.39093997 </i>
    <i name="eentropy">     -0.05539215 </i>
    <i name="bandstr">   -880.76042772 </i>
    <i name="atom">  18082.44932260 </i>
    <i name="e_fr_energy">    -32.93915503 </i>
    <i name="e_wo_entrp">    -32.88376288 </i>
    <i name="e_0_energy">    -32.92069098 </i>
   </energy>
  </scstep>
  <structure>
   <crystal>
    <varray name="basis" >
     <v>      23.10269786       0.00000000       0.00000000 </v>
     <v>       0.00000000      20.71228071       0.00000000 </v>
     <v>       0.00000000       0.00000000      24.49879789 </v>
    </varray>
    <i name="volume">  11722.90907885 </i>
    <varray name="rec_basis" >
     <v>       0.04328499       0.00000000       0.00000000 </v>
     <v>       0.00000000       0.04828054       0.00000000 </v>
     <v>       0.00000000       0.00000000       0.04081833 </v>
    </varray>
   </crystal>
   <varray name="positions" >
    <v>       0.45914812       0.44413104       0.52183256 </v>
    <v>       0.54221699       0.44208055       0.46177720 </v>
    <v>       0.55938758       0.55517319       0.48584688 </v>
    <v>       0.45165351       0.54942660       0.47615974 </v>
    <v>       0.55544409       0.47043746       0.55769090 </v>
    <v>       0.49436667       0.56666698       0.56492192 </v>
    <v>       0.44887667       0.45079106       0.41853632 </v>
    <v>       0.51238421       0.54048556       0.39726121 </v>
    <v>       0.39737721       0.52570988       0.56224107 </v>
    <v>       0.46859005       0.47090731       0.61841958 </v>
    <v>       0.60971881       0.50290603       0.40721092 </v>
    <v>       0.53668214       0.43395919       0.36389155 </v>
    <v>       0.55269834       0.53274584       0.64069595 </v>
   </varray>
  </structure>
  <varray name="forces" >
   <v>      -0.01965243       0.00557887      -0.03167988 </v>
   <v>       0.01732052       0.00399214       0.01461592 </v>
   <v>       0.01925398       0.02478269      -0.00134577 </v>
   <v>      -0.02490442       0.01357551       0.00073908 </v>
   <v>       0.00520771      -0.00806422      -0.01760672 </v>
   <v>       0.00773494       0.01139134      -0.00600733 </v>
   <v>      -0.01548950       0.00653576       0.03003039 </v>
   <v>      -0.00549389      -0.01853816       0.01566725 </v>
   <v>      -0.00148461       0.00989426       0.00433881 </v>
   <v>       0.00315252      -0.02957018      -0.04674405 </v>
   <v>       0.01270777       0.01175406       0.01865451 </v>
   <v>       0.00352053      -0.02636122       0.03599463 </v>
   <v>      -0.00187313      -0.00497084      -0.01665684 </v>
  </varray>
  <energy>
   <i name="e_fr_energy">    -32.93915503 </i>
   <i name="e_wo_entrp">    -32.88376288 </i>
   <i name="e_0_energy">    -32.92069098 </i>
  </energy>
  <time name="totalsc">  100.89  105.73</time>
 </calculation>
 <calculation>
  <scstep>
   <time name="dav">   13.66   13.67</time>
   <time name="total">   19.41   19.43</time>
   <energy>
    <i name="alphaZ">     10.54298361 </i>
    <i name="ewald">  23661.43936482 </i>
    <i name="hartreedc"> -40086.59292864 </i>
    <i name="XCdc">    574.64489026 </i>
    <i name="pawpsdc">  16756.33191864 </i>
    <i name="pawaedc"> -18150.94572438 </i>
    <i name="eentropy">     -0.05539757 </i>
    <i name="bandstr">   -880.75336112 </i>
    <i name="atom">  18082.44932260 </i>
    <i name="e_fr_energy">    -32.93893178 </i>
    <i name="e_wo_entrp">    -32.88353421 </i>
    <i name="e_0_energy">    -32.92046592 </i>
   </energy>
  </scstep>
  <scstep>
   <time name="dav">   17.63   17.64</time>
   <time name="total">   23.42   23.44</time>
   <energy>
    <i name="e_fr_energy">    -32.93975757 </i>
    <i name="e_wo_entrp">    -32.88436330 </i>
    <i name="e_0_energy">    -32.92129282 </i>
   </energy>
  </scstep>
  <scstep>
   <time name="dav">   10.74   10.75</time>
   <time name="total">   15.02   15.04</time>
   <energy>
    <i name="alphaZ">     10.54298361 </i>
    <i name="ewald">  23661.43936482 </i>
    <i name="hartreedc"> -40086.93155354 </i>
    <i name="XCdc">    574.66202164 </i>
    <i name="pawpsdc">  16753.64127791 </i>
    <i name="pawaedc"> -18148.26553570 </i>
    <i name="eentropy">     -0.05539574 </i>
    <i name="bandstr">   -880.42221293 </i>
    <i name="atom">  18082.44932260 </i>
    <i name="e_fr_energy">    -32.93972733 </i>
    <i name="e_wo_entrp">    -32.88433159 </i>
    <i name="e_0_energy">    -32.92126209 </i>
   </energy>
  </scstep>
  <structure>
   <crystal>
    <varray name="basis" >
     <v>      23.10269786       0.00000000       0.00000000 </v>
     <v>       0.00000000      20.71228071       0.00000000 </v>
     <v>       0.00000000       0.00000000      24.49879789 </v>
    </varray>
    <i name="volume">  11722.90907885 </i>
    <varray name="rec_basis" >
     <v>       0.04328499       0.00000000       0.00000000 </v>
     <v>       0.00000000       0.04828054       0.00000000 </v>
     <v>       0.00000000       0.00000000       0.04081833 </v>
    </varray>
   </crystal>
   <varray name="positions" >
    <v>       0.45902686       0.44409899       0.52176109 </v>
    <v>       0.54231335       0.44200807       0.46173882 </v>
    <v>       0.55950745       0.55531217       0.48585349 </v>
    <v>       0.45151513       0.54949951       0.47618850 </v>
    <v>       0.55553995       0.47040266       0.55772969 </v>
    <v>       0.49442402       0.56677136       0.56491479 </v>
    <v>       0.44879213       0.45077316       0.41858206 </v>
    <v>       0.51238886       0.54048801       0.39725221 </v>
    <v>       0.39733277       0.52572946       0.56223304 </v>
    <v>       0.46859183       0.47080587       0.61838891 </v>
    <v>       0.60972793       0.50292265       0.40725232 </v>
    <v>       0.53670668       0.43388816       0.36397222 </v>
    <v>       0.55267744       0.53272062       0.64061867 </v>
   </varray>
  </structure>
  <varray name="forces" >
   <v>       0.00941485       0.01570197      -0.02275647 </v>
   <v>      -0.00438644       0.02238227       0.03913243 </v>
   <v>      -0.00796887      -0.00237678      -0.00267647 </v>
   <v>       0.00708358       0.00168475      -0.00619242 </v>
   <v>      -0.02119711      -0.00338600      -0.04246513 </v>
   <v>      -0.00633016      -0.01208631      -0.01060378 </v>
   <v>       0.00772348       0.01492559       0.02921500 </v>
   <v>      -0.01162242      -0.02386146       0.02811508 </v>
   <v>       0.01487710       0.00768069       0.00922291 </v>
   <v>       0.00365522      -0.01204217      -0.05890087 </v>
   <v>       0.01056111       0.01183750       0.01443469 </v>
   <v>      -0.00252314      -0.01737939       0.02707750 </v>
   <v>       0.00071279      -0.00308067      -0.00360248 </v>
  </varray>
  <energy>
   <i name="e_fr_energy">    -32.93972733 </i>
   <i name="e_wo_entrp">    -32.88433159 </i>
   <i name="e_0_energy">    -32.92126209 </i>
  </energy>
  <time name="totalsc">   79.73   81.07</time>
 </calculation>
 <calculation>
  <scstep>
   <time name="dav">   13.99   14.00</time>
   <time name="total">   19.77   19.80</time>
   <energy>
    <i name="alphaZ">     10.54298361 </i>
    <i name="ewald">  23672.99509094 </i>
    <i name="hartreedc"> -40098.46095123 </i>
    <i name="XCdc">    574.67422082 </i>
    <i name="pawpsdc">  16752.66727353 </i>
    <i name="pawaedc"> -18147.26734712 </i>
    <i name="eentropy">     -0.05535957 </i>
    <i name="bandstr">   -880.48492896 </i>
    <i name="atom">  18082.44932260 </i>
    <i name="e_fr_energy">    -32.93969539 </i>
    <i name="e_wo_entrp">    -32.88433583 </i>
    <i name="e_0_energy">    -32.92124220 </i>
   </energy>
  </scstep>
  <scstep>
   <time name="dav">   17.55   17.56</time>
   <time name="total">   23.25   23.28</time>
   <energy>
    <i name="e_fr_energy">    -32.94088340 </i>
    <i name="e_wo_entrp">    -32.88551135 </i>
    <i name="e_0_energy">    -32.92242605 </i>
   </energy>
  </scstep>
  <scstep>
   <time name="dav">   11.55   11.56</time>
   <time name="total">   15.85   15.86</time>
   <energy>
    <i name="alphaZ">     10.54298361 </i>
    <i name="ewald">  23672.99509094 </i>
    <i name="hartreedc"> -40098.39832396 </i>
    <i name="XCdc">    574.67007211 </i>
    <i name="pawpsdc">  16752.18219285 </i>
    <i name="pawaedc"> -18146.74608190 </i>
    <i name="eentropy">     -0.05536855 </i>
    <i name="bandstr">   -880.58073922 </i>
    <i name="atom">  18082.44932260 </i>
    <i name="e_fr_energy">    -32.94085153 </i>
    <i name="e_wo_entrp">    -32.88548298 </i>
    <i name="e_0_energy">    -32.92239535 </i>
   </energy>
  </scstep>
  <structure>
   <crystal>
    <varray name="basis" >
     <v>      23.10269786       0.00000000       0.00000000 </v>
     <v>       0.00000000      20.71228071       0.00000000 </v>
     <v>       0.00000000       0.00000000      24.49879789 </v>
    </varray>
    <i name="volume">  11722.90907885 </i>
    <varray name="rec_basis" >
     <v>       0.04328499       0.00000000       0.00000000 </v>
     <v>       0.00000000       0.04828054       0.00000000 </v>
     <v>       0.00000000       0.00000000       0.04081833 </v>
    </varray>
   </crystal>
   <varray name="positions" >
    <v>       0.45897225       0.44413729       0.52163411 </v>
    <v>       0.54236761       0.44204330       0.46184060 </v>
    <v>       0.55956613       0.55540334       0.48584940 </v>
    <v>       0.45143996       0.54955881       0.47618879 </v>
    <v>       0.55553484       0.47036424       0.55761718 </v>
    <v>       0.49444326       0.56679949       0.56487454 </v>
    <v>       0.44875813       0.45081864       0.41871183 </v>
    <v>       0.51235143       0.54039636       0.39733875 </v>
    <v>       0.39735286       0.52577369       0.56225775 </v>
    <v>       0.46860594       0.47068540       0.61817179 </v>
    <v>       0.60977159       0.50298101       0.40733002 </v>
    <v>       0.53671556       0.43376878       0.36412016 </v>
    <v>       0.55266483       0.53269034       0.64055089 </v>
   </varray>
  </structure>
  <varray name="forces" >
   <v>      -0.00400237       0.00678038      -0.01195430 </v>
   <v>       0.00208282       0.00995114       0.00420567 </v>
   <v>      -0.00485999       0.00764793      -0.00029725 </v>
   <v>       0.00199310       0.01156578       0.00008084 </v>
   <v>      -0.00628754       0.00381783      -0.01060949 </v>
   <v>      -0.00073677      -0.00463284      -0.00755493 </v>
   <v>       0.00190505       0.00123785       0.01509941 </v>
   <v>       0.00077933      -0.01534994       0.01324407 </v>
   <v>       0.00245811       0.00825600       0.00297663 </v>
   <v>       0.00815015      -0.01357565      -0.03409300 </v>
   <v>       0.00137775       0.00584111       0.00912063 </v>
   <v>       0.00113499      -0.01298134       0.03022851 </v>
   <v>      -0.00399463      -0.00855824      -0.01044680 </v>
  </varray>
  <energy>
   <i name="e_fr_energy">    -32.94085153 </i>
   <i name="e_wo_entrp">    -32.88548298 </i>
   <i name="e_0_energy">    -32.92239535 </i>
  </energy>
  <time name="totalsc">   80.76   83.18</time>
 </calculation>
 <calculation>
  <scstep>
   <time name="dav">   13.85   13.86</time>
   <time name="total">   19.56   19.59</time>
   <energy>
    <i name="alphaZ">     10.54298361 </i>
    <i name="ewald">  23690.83272542 </i>
    <i name="hartreedc"> -40116.18385840 </i>
    <i name="XCdc">    574.68958931 </i>
    <i name="pawpsdc">  16752.10186760 </i>
    <i name="pawaedc"> -18146.67263155 </i>
    <i name="eentropy">     -0.05530643 </i>
    <i name="bandstr">   -880.64398308 </i>
    <i name="atom">  18082.44932260 </i>
    <i name="e_fr_energy">    -32.93929092 </i>
    <i name="e_wo_entrp">    -32.88398449 </i>
    <i name="e_0_energy">    -32.92085544 </i>
   </energy>
  </scstep>
  <scstep>
   <time name="dav">   17.47   17.49</time>
   <time name="total">   23.23   23.25</time>
   <energy>
    <i name="e_fr_energy">    -32.94209748 </i>
    <i name="e_wo_entrp">    -32.88676841 </i>
    <i name="e_0_energy">    -32.92365446 </i>
   </energy>
  </scstep>
  <scstep>
   <time name="dav">   13.13   13.15</time>
   <time name="total">   17.44   17.47</time>
   <energy>
    <i name="alphaZ">     10.54298361 </i>
    <i name="ewald">  23690.83272542 </i>
    <i name="hartreedc"> -40115.99125933 </i>
    <i name="XCdc">    574.67911658 </i>
    <i name="pawpsdc">  16752.88849418 </i>
    <i name="pawaedc"> -18147.41463667 </i>
    <i name="eentropy">     -0.05532104 </i>
    <i name="bandstr">   -880.87342890 </i>
    <i name="atom">  18082.44932260 </i>
    <i name="e_fr_energy">    -32.94200355 </i>
    <i name="e_wo_entrp">    -32.88668251 </i>
    <i name="e_0_energy">    -32.92356320 </i>
   </energy>
  </scstep>
  <structure>
   <crystal>
    <varray name="basis" >
     <v>      23.10269786       0.00000000       0.00000000 </v>
     <v>       0.00000000      20.71228071       0.00000000 </v>
     <v>       0.00000000       0.00000000      24.49879789 </v>
    </varray>
    <i name="volume">  11722.90907885 </i>
    <varray name="rec_basis" >
     <v>       0.04328499       0.00000000       0.00000000 </v>
     <v>       0.00000000       0.04828054       0.00000000 </v>
     <v>       0.00000000       0.00000000       0.04081833 </v>
    </varray>
   </crystal>
   <varray name="positions" >
    <v>       0.45888791       0.44419644       0.52143800 </v>
    <v>       0.54245140       0.44209772       0.46199778 </v>
    <v>       0.55965675       0.55554413       0.48584309 </v>
    <v>       0.45132388       0.54965039       0.47618924 </v>
    <v>       0.55552695       0.47030491       0.55744342 </v>
    <v>       0.49447298       0.56684294       0.56481238 </v>
    <v>       0.44870561       0.45088889       0.41891222 </v>
    <v>       0.51229363       0.54025483       0.39747241 </v>
    <v>       0.39738388       0.52584198       0.56229593 </v>
    <v>       0.46862774       0.47049936       0.61783647 </v>
    <v>       0.60983902       0.50307114       0.40745003 </v>
    <v>       0.53672928       0.43358441       0.36434863 </v>
    <v>       0.55264535       0.53264356       0.64044620 </v>
   </varray>
  </structure>
  <varray name="forces" >
   <v>      -0.00824207       0.00113518       0.00268212 </v>
   <v>       0.00251133       0.00418818      -0.02684040 </v>
   <v>      -0.01568059       0.00907208       0.00192536 </v>
   <v>       0.00986300       0.02197551       0.00397101 </v>
   <v>      -0.00177157       0.01535148       0.01580820 </v>
   <v>      -0.00021105      -0.00802411      -0.00808792 </v>
   <v>       0.00447633      -0.01360724      -0.00306080 </v>
   <v>       0.01357823      -0.01194618       0.00460095 </v>
   <v>      -0.00504011       0.00895817      -0.00277144 </v>
   <v>       0.01491943      -0.00627877      -0.00771546 </v>
   <v>      -0.00881192       0.00002144       0.00169316 </v>
   <v>       0.00273756      -0.00500610       0.03163715 </v>
   <v>      -0.00832857      -0.01583964      -0.01384193 </v>
  </varray>
  <energy>
   <i name="e_fr_energy">    -32.94200355 </i>
   <i name="e_wo_entrp">    -32.88668251 </i>
   <i name="e_0_energy">    -32.92356320 </i>
  </energy>
  <time name="totalsc">   82.14   82.54</time>
 </calculation>
 <calculation>
  <scstep>
   <time name="dav">   13.95   13.96</time>
   <time name="total">   19.69   19.72</time>
   <energy>
    <i name="alphaZ">     10.54298361 </i>
    <i name="ewald">  23705.71358071 </i>
    <i name="hartreedc"> -40130.78093096 </i>
    <i name="XCdc">    574.70547594 </i>
    <i name="pawpsdc">  16753.07432974 </i>
    <i name="pawaedc"> -18147.62786775 </i>
    <i name="eentropy">     -0.05536679 </i>
    <i name="bandstr">   -880.96324942 </i>
    <i name="atom">  18082.44932260 </i>
    <i name="e_fr_energy">    -32.94172233 </i>
    <i name="e_wo_entrp">    -32.88635555 </i>
    <i name="e_0_energy">    -32.92326674 </i>
   </energy>
  </scstep>
  <scstep>
   <time name="dav">   17.84   17.85</time>
   <time name="total">   23.57   23.60</time>
   <energy>
    <i name="e_fr_energy">    -32.94251701 </i>
    <i name="e_wo_entrp">    -32.88715826 </i>
    <i name="e_0_energy">    -32.92406409 </i>
   </energy>
  </scstep>
  <scstep>
   <time name="dav">   11.57   11.58</time>
   <time name="total">   15.89   15.91</time>
   <energy>
    <i name="alphaZ">     10.54298361 </i>
    <i name="ewald">  23705.71358071 </i>
    <i name="hartreedc"> -40130.64853695 </i>
    <i name="XCdc">    574.69864577 </i>
    <i name="pawpsdc">  16755.10025687 </i>
    <i name="pawaedc"> -18149.70558664 </i>
    <i name="eentropy">     -0.05535946 </i>
    <i name="bandstr">   -881.03779054 </i>
    <i name="atom">  18082.44932260 </i>
    <i name="e_fr_energy">    -32.94248404 </i>
    <i name="e_wo_entrp">    -32.88712458 </i>
    <i name="e_0_energy">    -32.92403088 </i>
   </energy>
  </scstep>
  <structure>
   <crystal>
    <varray name="basis" >
     <v>      23.10269786       0.00000000       0.00000000 </v>
     <v>       0.00000000      20.71228071       0.00000000 </v>
     <v>       0.00000000       0.00000000      24.49879789 </v>
    </varray>
    <i name="volume">  11722.90907885 </i>
    <varray name="rec_basis" >
     <v>       0.04328499       0.00000000       0.00000000 </v>
     <v>       0.00000000       0.04828054       0.00000000 </v>
     <v>       0.00000000       0.00000000       0.04081833 </v>
    </varray>
   </crystal>
   <varray name="positions" >
    <v>       0.45882470       0.44422003       0.52139068 </v>
    <v>       0.54248812       0.44213553       0.46192874 </v>
    <v>       0.55961195       0.55563293       0.48584954 </v>
    <v>       0.45133430       0.54979052       0.47620658 </v>
    <v>       0.55551644       0.47036574       0.55745969 </v>
    <v>       0.49448094       0.56681488       0.56475866 </v>
    <v>       0.44871040       0.45084027       0.41895919 </v>
    <v>       0.51233863       0.54015108       0.39753251 </v>
    <v>       0.39737005       0.52590841       0.56229540 </v>
    <v>       0.46870283       0.47041127       0.61770228 </v>
    <v>       0.60981881       0.50309833       0.40749343 </v>
    <v>       0.53674598       0.43350335       0.36455435 </v>
    <v>       0.55260124       0.53254834       0.64035477 </v>
   </varray>
  </structure>
  <varray name="forces" >
   <v>       0.00029498       0.00599186      -0.01199301 </v>
   <v>      -0.00111687       0.00352456       0.03205809 </v>
   <v>       0.00000154       0.00651203       0.00218429 </v>
   <v>      -0.00295904       0.00702207      -0.00565399 </v>
   <v>       0.00327922      -0.00609230      -0.02321763 </v>
   <v>      -0.00464122       0.00613221      -0.00149060 </v>
   <v>      -0.00643355      -0.00031008       0.00963731 </v>
   <v>      -0.00432765      -0.00191515       0.00444794 </v>
   <v>       0.00104412       0.00586237       0.00071801 </v>
   <v>      -0.00593129      -0.00986945      -0.01319861 </v>
   <v>       0.01493840       0.00697195       0.00484835 </v>
   <v>       0.00355136      -0.01960579       0.00090823 </v>
   <v>       0.00229999      -0.00422428       0.00075161 </v>
  </varray>
  <energy>
   <i name="e_fr_energy">    -32.94248404 </i>
   <i name="e_wo_entrp">    -32.88712458 </i>
   <i name="e_0_energy">    -32.92403088 </i>
  </energy>
  <time name="totalsc">   81.11   81.61</time>
 </calculation>
 <calculation>
  <scstep>
   <time name="dav">   17.65   17.66</time>
   <time name="total">   23.38   23.40</time>
   <energy>
    <i name="alphaZ">     10.54298361 </i>
    <i name="ewald">  23708.59293775 </i>
    <i name="hartreedc"> -40133.44137040 </i>
    <i name="XCdc">    574.70219101 </i>
    <i name="pawpsdc">  16755.97884097 </i>
    <i name="pawaedc"> -18150.62126626 </i>
    <i name="eentropy">     -0.05537341 </i>
    <i name="bandstr">   -881.09078802 </i>
    <i name="atom">  18082.44932260 </i>
    <i name="e_fr_energy">    -32.94252216 </i>
    <i name="e_wo_entrp">    -32.88714875 </i>
    <i name="e_0_energy">    -32.92406436 </i>
   </energy>
  </scstep>
  <scstep>
   <time name="dav">    9.78    9.79</time>
   <time name="total">   14.11   14.13</time>
   <energy>
    <i name="alphaZ">     10.54298361 </i>
    <i name="ewald">  23708.59293775 </i>
    <i name="hartreedc"> -40133.38574104 </i>
    <i name="XCdc">    574.69993036 </i>
    <i name="pawpsdc">  16756.56229618 </i>
    <i name="pawaedc"> -18151.21799000 </i>
    <i name="eentropy">     -0.05536913 </i>
    <i name="bandstr">   -881.13089658 </i>
    <i name="atom">  18082.44932260 </i>
    <i name="e_fr_energy">    -32.94252625 </i>
    <i name="e_wo_entrp">    -32.88715712 </i>
    <i name="e_0_energy">    -32.92406987 </i>
   </energy>
  </scstep>
  <structure>
   <crystal>
    <varray name="basis" >
     <v>      23.10269786       0.00000000       0.00000000 </v>
     <v>       0.00000000      20.71228071       0.00000000 </v>
     <v>       0.00000000       0.00000000      24.49879789 </v>
    </varray>
    <i name="volume">  11722.90907885 </i>
    <varray name="rec_basis" >
     <v>       0.04328499       0.00000000       0.00000000 </v>
     <v>       0.00000000       0.04828054       0.00000000 </v>
     <v>       0.00000000       0.00000000       0.04081833 </v>
    </varray>
   </crystal>
   <varray name="positions" >
    <v>       0.45881247       0.44422459       0.52138153 </v>
    <v>       0.54249523       0.44214284       0.46191539 </v>
    <v>       0.55960328       0.55565010       0.48585079 </v>
    <v>       0.45133632       0.54981763       0.47620994 </v>
    <v>       0.55551440       0.47037751       0.55746283 </v>
    <v>       0.49448248       0.56680946       0.56474827 </v>
    <v>       0.44871132       0.45083087       0.41896827 </v>
    <v>       0.51234734       0.54013101       0.39754413 </v>
    <v>       0.39736738       0.52592126       0.56229529 </v>
    <v>       0.46871736       0.47039423       0.61767632 </v>
    <v>       0.60981490       0.50310359       0.40750182 </v>
    <v>       0.53674921       0.43348767       0.36459414 </v>
    <v>       0.55259271       0.53252992       0.64033709 </v>
   </varray>
  </structure>
  <varray name="forces" >
   <v>      -0.00035073       0.00652004      -0.01251251 </v>
   <v>      -0.00159513       0.00296402       0.02982362 </v>
   <v>      -0.00274304       0.00835671       0.00201540 </v>
   <v>      -0.00112564       0.01002546      -0.00594716 </v>
   <v>       0.00255718      -0.00482508      -0.02224294 </v>
   <v>      -0.00547075       0.00711982      -0.00214934 </v>
   <v>      -0.00531159      -0.00230954       0.01009917 </v>
   <v>      -0.00404702      -0.00074927       0.00470135 </v>
   <v>       0.00125348       0.00688259      -0.00057522 </v>
   <v>      -0.00461487      -0.01250358      -0.01479109 </v>
   <v>       0.01335179       0.00626141       0.00580582 </v>
   <v>       0.00403444      -0.02400061       0.00353148 </v>
   <v>       0.00406188      -0.00374197       0.00224143 </v>
  </varray>
  <energy>
   <i name="e_fr_energy">    -32.94252625 </i>
   <i name="e_wo_entrp">    -32.88715712 </i>
   <i name="e_0_energy">    -32.92406987 </i>
  </energy>
  <time name="totalsc">   58.11   58.22</time>
  <eigenvalues>
   <array>
    <dimension dim="1">band</dimension>
    <dimension dim="2">kpoint</dimension>
    <dimension dim="3">spin</dimension>
    <field>eigene</field>
    <field>occ</field>
    <set>
     <set comment="spin 1">
      <set comment="kpoint 1">
       <r>  -10.3674    1.0000 </r>
       <r>   -9.2038    1.0000 </r>
       <r>   -8.2443    1.0000 </r>
       <r>   -7.9882    1.0000 </r>
       <r>   -7.8829    1.0000 </r>
       <r>   -7.7298    1.0000 </r>
       <r>   -7.5217    1.0000 </r>
       <r>   -7.3392    1.0000 </r>
       <r>   -7.2593    1.0000 </r>
       <r>   -7.2252    1.0000 </r>
       <r>   -7.1820    1.0000 </r>
       <r>   -7.1308    1.0000 </r>
       <r>   -7.0887    1.0000 </r>
       <r>   -7.0145    1.0000 </r>
       <r>   -6.9599    1.0000 </r>
       <r>   -6.9087    1.0000 </r>
       <r>   -6.8505    1.0000 </r>
       <r>   -6.7863    1.0000 </r>
       <r>   -6.7173    1.0000 </r>
       <r>   -6.6605    1.0000 </r>
       <r>   -6.6128    1.0000 </r>
       <r>   -6.5906    1.0000 </r>
       <r>   -6.5821    1.0000 </r>
       <r>   -6.4568    1.0000 </r>
       <r>   -6.4014    1.0000 </r>
       <r>   -6.3317    1.0000 </r>
       <r>   -6.2969    1.0000 </r>
       <r>   -6.2371    1.0000 </r>
       <r>   -6.2134    1.0000 </r>
       <r>   -6.1483    1.0000 </r>
       <r>   -6.0846    1.0000 </r>
       <r>   -6.0271    1.0000 </r>
       <r>   -5.9801    1.0000 </r>
       <r>   -5.9693    1.0000 </r>
       <r>   -5.9339    1.0000 </r>
       <r>   -5.8536    1.0000 </r>
       <r>   -5.8333    1.0000 </r>
       <r>   -5.8258    1.0000 </r>
       <r>   -5.7742    1.0000 </r>
       <r>   -5.7578    1.0000 </r>
       <r>   -5.7257    1.0000 </r>
       <r>   -5.7031    1.0000 </r>
       <r>   -5.6600    1.0000 </r>
       <r>   -5.6452    1.0000 </r>
       <r>   -5.6251    1.0000 </r>
       <r>   -5.6028    1.0000 </r>
       <r>   -5.5745    1.0000 </r>
       <r>   -5.5662    1.0000 </r>
       <r>   -5.5377    1.0000 </r>
       <r>   -5.4990    1.0000 </r>
       <r>   -5.4863    1.0000 </r>
       <r>   -5.4753    1.0000 </r>
       <r>   -5.4512    1.0000 </r>
       <r>   -5.4463    1.0000 </r>
       <r>   -5.4096    1.0000 </r>
       <r>   -5.3767    1.0000 </r>
       <r>   -5.3217    1.0000 </r>
       <r>   -5.3054    1.0000 </r>
       <r>   -5.2869    1.0000 </r>
       <r>   -5.2700    1.0000 </r>
       <r>   -5.2477    1.0000 </r>
       <r>   -5.2236    1.0000 </r>
       <r>   -5.2056    1.0000 </r>
       <r>   -5.1781    1.0000 </r>
       <r>   -5.1741    1.0000 </r>
       <r>   -5.1300    1.0000 </r>
       <r>   -5.1201    1.0000 </r>
       <r>   -5.1143    1.0000 </r>
       <r>   -4.9223    1.0000 </r>
       <r>   -4.7675    1.0000 </r>
       <r>   -4.6203    1.0000 </r>
       <r>   -3.8483    0.5022 </r>
       <r>   -3.3394   -0.0010 </r>
       <r>   -2.9305   -0.0000 </r>
       <r>   -2.7892   -0.0000 </r>
       <r>   -2.6002   -0.0000 </r>
       <r>   -2.3275   -0.0000 </r>
       <r>   -2.0295   -0.0000 </r>
       <r>   -1.9622   -0.0000 </r>
       <r>   -1.4848   -0.0000 </r>
       <r>   -1.1988   -0.0000 </r>
       <r>   -0.9132   -0.0000 </r>
       <r>   -0.8050   -0.0000 </r>
       <r>   -0.6250   -0.0000 </r>
       <r>   -0.3947   -0.0000 </r>
       <r>   -0.2803   -0.0000 </r>
       <r>   -0.1128   -0.0000 </r>
       <r>    0.1101   -0.0000 </r>
       <r>    0.2696   -0.0000 </r>
       <r>    0.2998   -0.0000 </r>
       <r>    0.3303   -0.0000 </r>
       <r>    0.3408   -0.0000 </r>
      </set>
     </set>
     <set comment="spin 2">
      <set comment="kpoint 1">
       <r>  -10.3672    1.0000 </r>
       <r>   -9.2036    1.0000 </r>
       <r>   -8.2442    1.0000 </r>
       <r>   -7.9881    1.0000 </r>
       <r>   -7.8828    1.0000 </r>
[...]
       <r>    -1.2723     3.3381    80.2246 </r>
       <r>    -1.2232     3.5892    80.4008 </r>
       <r>    -1.1741     3.6749    80.5812 </r>
       <r>    -1.1251     3.4375    80.7500 </r>
       <r>    -1.0760     3.1222    80.9033 </r>
       <r>    -1.0269     3.2008    81.0604 </r>
       <r>    -0.9778     3.9639    81.2550 </r>
       <r>    -0.9287     5.2498    81.5127 </r>
       <r>    -0.8796     6.5371    81.8336 </r>
       <r>    -0.8305     7.3055    82.1923 </r>
       <r>    -0.7814     7.3529    82.5533 </r>
       <r>    -0.7323     6.8345    82.8888 </r>
       <r>    -0.6832     6.0562    83.1861 </r>
       <r>    -0.6341     5.2648    83.4446 </r>
       <r>    -0.5850     4.6171    83.6712 </r>
       <r>    -0.5359     4.2722    83.8810 </r>
       <r>    -0.4868     4.4033    84.0972 </r>
       <r>    -0.4378     5.0580    84.3455 </r>
       <r>    -0.3887     6.0263    84.6413 </r>
       <r>    -0.3396     6.9073    84.9804 </r>
       <r>    -0.2905     7.3485    85.3412 </r>
       <r>    -0.2414     7.2388    85.6966 </r>
       <r>    -0.1923     6.6964    86.0253 </r>
       <r>    -0.1432     5.9150    86.3157 </r>
       <r>    -0.0941     5.0572    86.5640 </r>
       <r>    -0.0450     4.2840    86.7743 </r>
       <r>     0.0041     3.8345    86.9625 </r>
       <r>     0.0532     4.0400    87.1609 </r>
       <r>     0.1023     5.2379    87.4180 </r>
       <r>     0.1514     7.5988    87.7910 </r>
       <r>     0.2005    10.8850    88.3254 </r>
       <r>     0.2496    14.2702    89.0260 </r>
       <r>     0.2986    16.4865    89.8354 </r>
       <r>     0.3477    16.4226    90.6416 </r>
       <r>     0.3968    13.8367    91.3209 </r>
       <r>     0.4459     9.5906    91.7917 </r>
       <r>     0.4950     5.1499    92.0445 </r>
       <r>     0.5441     1.7465    92.1303 </r>
       <r>     0.5932    -0.1561    92.1226 </r>
       <r>     0.6423    -0.8091    92.0829 </r>
       <r>     0.6914    -0.7648    92.0454 </r>
       <r>     0.7405    -0.4976    92.0209 </r>
       <r>     0.7896    -0.2572    92.0083 </r>
       <r>     0.8387    -0.1108    92.0029 </r>
       <r>     0.8878    -0.0407    92.0009 </r>
       <r>     0.9369    -0.0129    92.0002 </r>
       <r>     0.9859    -0.0035    92.0001 </r>
       <r>     1.0350    -0.0009    92.0000 </r>
       <r>     1.0841    -0.0002    92.0000 </r>
       <r>     1.1332    -0.0000    92.0000 </r>
       <r>     1.1823    -0.0000    92.0000 </r>
       <r>     1.2314    -0.0000    92.0000 </r>
       <r>     1.2805    -0.0000    92.0000 </r>
       <r>     1.3296    -0.0000    92.0000 </r>
       <r>     1.3787    -0.0000    92.0000 </r>
       <r>     1.4278    -0.0000    92.0000 </r>
       <r>     1.4769    -0.0000    92.0000 </r>
       <r>     1.5260    -0.0000    92.0000 </r>
       <r>     1.5751    -0.0000    92.0000 </r>
       <r>     1.6242     0.0000    92.0000 </r>
       <r>     1.6733     0.0000    92.0000 </r>
       <r>     1.7223     0.0000    92.0000 </r>
       <r>     1.7714     0.0000    92.0000 </r>
       <r>     1.8205     0.0000    92.0000 </r>
       <r>     1.8696     0.0000    92.0000 </r>
       <r>     1.9187     0.0000    92.0000 </r>
       <r>     1.9678     0.0000    92.0000 </r>
       <r>     2.0169     0.0000    92.0000 </r>
       <r>     2.0660     0.0000    92.0000 </r>
       <r>     2.1151     0.0000    92.0000 </r>
       <r>     2.1642     0.0000    92.0000 </r>
       <r>     2.2133     0.0000    92.0000 </r>
       <r>     2.2624     0.0000    92.0000 </r>
       <r>     2.3115     0.0000    92.0000 </r>
       <r>     2.3606     0.0000    92.0000 </r>
      </set>
      <set comment="spin 2">
       <r>   -12.3674     0.0000     0.0000 </r>
       <r>   -12.3183     0.0000     0.0000 </r>
       <r>   -12.2692     0.0000     0.0000 </r>
       <r>   -12.2201     0.0000     0.0000 </r>
       <r>   -12.1710     0.0000     0.0000 </r>
       <r>   -12.1219     0.0000     0.0000 </r>
       <r>   -12.0728     0.0000     0.0000 </r>
       <r>   -12.0237     0.0000     0.0000 </r>
       <r>   -11.9746    -0.0000    -0.0000 </r>
       <r>   -11.9255    -0.0000    -0.0000 </r>
       <r>   -11.8764    -0.0000    -0.0000 </r>
       <r>   -11.8273    -0.0000    -0.0000 </r>
       <r>   -11.7782    -0.0000    -0.0000 </r>
       <r>   -11.7292    -0.0000    -0.0000 </r>
       <r>   -11.6801    -0.0000    -0.0000 </r>
       <r>   -11.6310    -0.0000    -0.0000 </r>
       <r>   -11.5819    -0.0000    -0.0000 </r>
       <r>   -11.5328    -0.0000    -0.0000 </r>
       <r>   -11.4837    -0.0000    -0.0000 </r>
       <r>   -11.4346    -0.0000    -0.0000 </r>
       <r>   -11.3855    -0.0000    -0.0000 </r>
       <r>   -11.3364    -0.0000    -0.0000 </r>
       <r>   -11.2873    -0.0000    -0.0000 </r>
       <r>   -11.2382    -0.0000    -0.0000 </r>
       <r>   -11.1891    -0.0000    -0.0000 </r>
       <r>   -11.1400    -0.0000    -0.0000 </r>
       <r>   -11.0909    -0.0000    -0.0000 </r>
       <r>   -11.0419    -0.0002    -0.0000 </r>
       <r>   -10.9928    -0.0007    -0.0000 </r>
       <r>   -10.9437    -0.0027    -0.0002 </r>
       <r>   -10.8946    -0.0089    -0.0006 </r>
       <r>   -10.8455    -0.0253    -0.0019 </r>
       <r>   -10.7964    -0.0611    -0.0049 </r>
       <r>   -10.7473    -0.1229    -0.0109 </r>
       <r>   -10.6982    -0.1970    -0.0206 </r>
       <r>   -10.6491    -0.2214    -0.0314 </r>
       <r>   -10.6000    -0.0695    -0.0348 </r>
       <r>   -10.5509     0.4153    -0.0145 </r>
       <r>   -10.5018     1.3117     0.0499 </r>
       <r>   -10.4527     2.4926     0.1723 </r>
       <r>   -10.4036     3.5948     0.3488 </r>
       <r>   -10.3545     4.1721     0.5536 </r>
       <r>   -10.3055     3.9624     0.7481 </r>
       <r>   -10.2564     3.0630     0.8985 </r>
       <r>   -10.2073     1.8639     0.9900 </r>
       <r>   -10.1582     0.7984     1.0292 </r>
       <r>   -10.1091     0.1146     1.0348 </r>
       <r>   -10.0600    -0.1800     1.0260 </r>
       <r>   -10.0109    -0.2213     1.0151 </r>
       <r>    -9.9618    -0.1595     1.0073 </r>
       <r>    -9.9127    -0.0878     1.0030 </r>
       <r>    -9.8636    -0.0398     1.0011 </r>
       <r>    -9.8145    -0.0161     1.0003 </r>
       <r>    -9.7654    -0.0088     0.9998 </r>
       <r>    -9.7163    -0.0137     0.9992 </r>
       <r>    -9.6672    -0.0338     0.9975 </r>
       <r>    -9.6182    -0.0768     0.9937 </r>
       <r>    -9.5691    -0.1453     0.9866 </r>
       <r>    -9.5200    -0.2140     0.9761 </r>
       <r>    -9.4709    -0.2018     0.9662 </r>
       <r>    -9.4218     0.0337     0.9678 </r>
       <r>    -9.3727     0.6399     0.9993 </r>
       <r>    -9.3236     1.6459     1.0801 </r>
       <r>    -9.2745     2.8497     1.2200 </r>
       <r>    -9.2254     3.8392     1.4084 </r>
       <r>    -9.1763     4.1949     1.6144 </r>
       <r>    -9.1272     3.7530     1.7986 </r>
       <r>    -9.0781     2.7162     1.9320 </r>
       <r>    -9.0290     1.5168     2.0064 </r>
       <r>    -8.9799     0.5505     2.0335 </r>
       <r>    -8.9309    -0.0092     2.0330 </r>
       <r>    -8.8818    -0.2118     2.0226 </r>
       <r>    -8.8327    -0.2101     2.0123 </r>
       <r>    -8.7836    -0.1434     2.0052 </r>
       <r>    -8.7345    -0.0904     2.0008 </r>
       <r>    -8.6854    -0.0802     1.9969 </r>
       <r>    -8.6363    -0.1168     1.9911 </r>
       <r>    -8.5872    -0.1849     1.9821 </r>
       <r>    -8.5381    -0.2323     1.9707 </r>
       <r>    -8.4890    -0.1491     1.9633 </r>
       <r>    -8.4399     0.2128     1.9738 </r>
       <r>    -8.3908     0.9513     2.0205 </r>
       <r>    -8.3417     1.9920     2.1183 </r>
       <r>    -8.2926     3.0480     2.2679 </r>
       <r>    -8.2435     3.7622     2.4526 </r>
       <r>    -8.1945     3.9781     2.6479 </r>
       <r>    -8.1454     3.9100     2.8399 </r>
       <r>    -8.0963     4.0184     3.0371 </r>
       <r>    -8.0472     4.6530     3.2656 </r>
       <r>    -7.9981     5.7659     3.5486 </r>
       <r>    -7.9490     6.9445     3.8896 </r>
       <r>    -7.8999     7.7149     4.2683 </r>
       <r>    -7.8508     7.8379     4.6531 </r>
       <r>    -7.8017     7.3798     5.0154 </r>
       <r>    -7.7526     6.5826     5.3385 </r>
       <r>    -7.7035     5.7066     5.6187 </r>
       <r>    -7.6544     4.9517     5.8618 </r>
       <r>    -7.6053     4.4380     6.0797 </r>
       <r>    -7.5562     4.2184     6.2868 </r>
       <r>    -7.5072     4.3470     6.5002 </r>
       <r>    -7.4581     4.9823     6.7448 </r>
       <r>    -7.4090     6.3943     7.0587 </r>
       <r>    -7.3599     8.7755     7.4895 </r>
       <r>    -7.3108    11.9693     8.0771 </r>
       <r>    -7.2617    15.3781     8.8321 </r>
       <r>    -7.2126    18.1934     9.7252 </r>
       <r>    -7.1635    19.8129    10.6979 </r>
       <r>    -7.1144    20.1380    11.6866 </r>
       <r>    -7.0653    19.5474    12.6462 </r>
       <r>    -7.0162    18.5978    13.5592 </r>
       <r>    -6.9671    17.7054    14.4284 </r>
       <r>    -6.9180    17.0436    15.2652 </r>
       <r>    -6.8689    16.6765    16.0839 </r>
       <r>    -6.8198    16.7283    16.9051 </r>
       <r>    -6.7708    17.3570    17.7572 </r>
       <r>    -6.7217    18.5203    18.6664 </r>
       <r>    -6.6726    19.7804    19.6375 </r>
       <r>    -6.6235    20.4405    20.6410 </r>
       <r>    -6.5744    20.0139    21.6235 </r>
       <r>    -6.5253    18.6546    22.5394 </r>
       <r>    -6.4762    17.1302    23.3803 </r>
       <r>    -6.4271    16.3067    24.1809 </r>
       <r>    -6.3780    16.5617    24.9939 </r>
       <r>    -6.3289    17.5889    25.8574 </r>
       <r>    -6.2798    18.7012    26.7755 </r>
       <r>    -6.2307    19.3477    27.7254 </r>
       <r>    -6.1816    19.4627    28.6808 </r>
       <r>    -6.1325    19.4353    29.6350 </r>
       <r>    -6.0835    19.7776    30.6059 </r>
       <r>    -6.0344    20.7766    31.6259 </r>
       <r>    -5.9853    22.3925    32.7252 </r>
       <r>    -5.9362    24.4254    33.9243 </r>
       <r>    -5.8871    26.7309    35.2366 </r>
       <r>    -5.8380    29.2786    36.6740 </r>
       <r>    -5.7889    32.0676    38.2483 </r>
       <r>    -5.7398    35.0382    39.9684 </r>
       <r>    -5.6907    38.0446    41.8362 </r>
       <r>    -5.6416    40.8354    43.8409 </r>
       <r>    -5.5925    43.0348    45.9536 </r>
       <r>    -5.5434    44.2244    48.1247 </r>
       <r>    -5.4943    44.2007    50.2947 </r>
       <r>    -5.4452    43.2655    52.4187 </r>
       <r>    -5.3962    42.2361    54.4922 </r>
       <r>    -5.3471    41.9729    56.5528 </r>
       <r>    -5.2980    42.6464    58.6464 </r>
       <r>    -5.2489    43.3282    60.7735 </r>
       <r>    -5.1998    42.3703    62.8536 </r>
       <r>    -5.1507    38.4364    64.7406 </r>
       <r>    -5.1016    31.4731    66.2857 </r>
       <r>    -5.0525    22.8900    67.4094 </r>
       <r>    -5.0034    14.8038    68.1362 </r>
       <r>    -4.9543     8.9089    68.5736 </r>
       <r>    -4.9052     5.7633    68.8565 </r>
       <r>    -4.8561     4.8592    69.0951 </r>
       <r>    -4.8070     5.2113    69.3509 </r>
       <r>    -4.7579     5.9234    69.6417 </r>
       <r>    -4.7088     6.4187    69.9568 </r>
       <r>    -4.6598     6.4013    70.2711 </r>
       <r>    -4.6107     5.7682    70.5543 </r>
       <r>    -4.5616     4.5908    70.7796 </r>
       <r>    -4.5125     3.1150    70.9326 </r>
       <r>    -4.4634     1.6852    71.0153 </r>
       <r>    -4.4143     0.5939    71.0444 </r>
       <r>    -4.3652    -0.0429    71.0423 </r>
       <r>    -4.3161    -0.2971    71.0278 </r>
       <r>    -4.2670    -0.3377    71.0112 </r>
       <r>    -4.2179    -0.3188    70.9955 </r>
       <r>    -4.1688    -0.3062    70.9805 </r>
       <r>    -4.1197    -0.2536    70.9680 </r>
       <r>    -4.0706    -0.0199    70.9671 </r>
       <r>    -4.0215     0.5571    70.9944 </r>
       <r>    -3.9725     1.5324    71.0696 </r>
       <r>    -3.9234     2.7322    71.2038 </r>
       <r>    -3.8743     3.7579    71.3883 </r>
       <r>    -3.8252     4.1739    71.5932 </r>
       <r>    -3.7761     3.7740    71.7784 </r>
       <r>    -3.7270     2.7198    71.9120 </r>
       <r>    -3.6779     1.4416    71.9827 </r>
       <r>    -3.6288     0.4018    72.0025 </r>
       <r>    -3.5797    -0.0847    71.9983 </r>
       <r>    -3.5306     0.1065    72.0035 </r>
       <r>    -3.4815     0.9262    72.0490 </r>
       <r>    -3.4324     2.1395    72.1540 </r>
       <r>    -3.3833     3.3265    72.3174 </r>
       <r>    -3.3342     4.0020    72.5138 </r>
       <r>    -3.2851     3.8572    72.7032 </r>
       <r>    -3.2361     2.9659    72.8488 </r>
       <r>    -3.1870     1.7783    72.9361 </r>
       <r>    -3.1379     0.8947    72.9800 </r>
       <r>    -3.0888     0.7722    73.0179 </r>
       <r>    -3.0397     1.5344    73.0932 </r>
       <r>    -2.9906     2.9500    73.2381 </r>
       <r>    -2.9415     4.5592    73.4619 </r>
       <r>    -2.8924     5.8812    73.7506 </r>
       <r>    -2.8433     6.6136    74.0753 </r>
       <r>    -2.7942     6.7290    74.4057 </r>
       <r>    -2.7451     6.4213    74.7209 </r>
       <r>    -2.6960     5.9365    75.0123 </r>
       <r>    -2.6469     5.4079    75.2778 </r>
       <r>    -2.5978     4.8296    75.5149 </r>
       <r>    -2.5488     4.1902    75.7206 </r>
       <r>    -2.4997     3.6129    75.8980 </r>
       <r>    -2.4506     3.3110    76.0605 </r>
       <r>    -2.4015     3.3652    76.2258 </r>
       <r>    -2.3524     3.5748    76.4013 </r>
       <r>    -2.3033     3.6012    76.5780 </r>
       <r>    -2.2542     3.3186    76.7410 </r>
       <r>    -2.2051     3.0244    76.8894 </r>
       <r>    -2.1560     3.2556    77.0493 </r>
       <r>    -2.1069     4.3220    77.2614 </r>
       <r>    -2.0578     5.9488    77.5535 </r>
       <r>    -2.0087     7.3537    77.9145 </r>
       <r>    -1.9596     7.7281    78.2939 </r>
       <r>    -1.9105     6.7557    78.6256 </r>
       <r>    -1.8614     4.7832    78.8604 </r>
       <r>    -1.8124     2.5621    78.9862 </r>
       <r>    -1.7633     0.8173    79.0263 </r>
       <r>    -1.7142    -0.0376    79.0244 </r>
       <r>    -1.6651     0.0633    79.0275 </r>
       <r>    -1.6160     0.9246    79.0729 </r>
       <r>    -1.5669     2.1640    79.1792 </r>
       <r>    -1.5178     3.2953    79.3410 </r>
       <r>    -1.4687     3.9076    79.5328 </r>
       <r>    -1.4196     3.8945    79.7240 </r>
       <r>    -1.3705     3.5307    79.8973 </r>
       <r>    -1.3214     3.2590    80.0573 </r>
       <r>    -1.2723     3.3232    80.2205 </r>
       <r>    -1.2232     3.5791    80.3962 </r>
       <r>    -1.1741     3.6762    80.5766 </r>
       <r>    -1.1251     3.4461    80.7458 </r>
       <r>    -1.0760     3.1239    80.8992 </r>
       <r>    -1.0269     3.1811    81.0553 </r>
       <r>    -0.9778     3.9201    81.2478 </r>
       <r>    -0.9287     5.1932    81.5027 </r>
       <r>    -0.8796     6.4857    81.8212 </r>
       <r>    -0.8305     7.2719    82.1782 </r>
       <r>    -0.7814     7.3390    82.5384 </r>
       <r>    -0.7323     6.8354    82.8740 </r>
       <r>    -0.6832     6.0679    83.1719 </r>
       <r>    -0.6341     5.2849    83.4314 </r>
       <r>    -0.5850     4.6375    83.6590 </r>
       <r>    -0.5359     4.2744    83.8689 </r>
       <r>    -0.4868     4.3663    84.0832 </r>
       <r>    -0.4378     4.9755    84.3275 </r>
       <r>    -0.3887     5.9172    84.6180 </r>
       <r>    -0.3396     6.8075    84.9522 </r>
       <r>    -0.2905     7.2918    85.3102 </r>
       <r>    -0.2414     7.2409    85.6656 </r>
       <r>    -0.1923     6.7525    85.9971 </r>
       <r>    -0.1432     6.0051    86.2920 </r>
       <r>    -0.0941     5.1487    86.5447 </r>
       <r>    -0.0450     4.3247    86.7570 </r>
       <r>     0.0041     3.7378    86.9405 </r>
       <r>     0.0532     3.6713    87.1208 </r>
       <r>     0.1023     4.4333    87.3384 </r>
       <r>     0.1514     6.2599    87.6457 </r>
       <r>     0.2005     9.1391    88.0944 </r>
       <r>     0.2496    12.5676    88.7114 </r>
       <r>     0.2986    15.4738    89.4710 </r>
       <r>     0.3477    16.5893    90.2855 </r>
       <r>     0.3968    15.1833    91.0308 </r>
       <r>     0.4459    11.6029    91.6005 </r>
       <r>     0.4950     7.1153    91.9498 </r>
       <r>     0.5441     3.1508    92.1045 </r>
       <r>     0.5932     0.5586    92.1319 </r>
       <r>     0.6423    -0.6135    92.1018 </r>
       <r>     0.6914    -0.8280    92.0611 </r>
       <r>     0.7405    -0.6239    92.0305 </r>
       <r>     0.7896    -0.3567    92.0130 </r>
       <r>     0.8387    -0.1670    92.0048 </r>
       <r>     0.8878    -0.0661    92.0015 </r>
       <r>     0.9369    -0.0224    92.0004 </r>
       <r>     0.9859    -0.0066    92.0001 </r>
       <r>     1.0350    -0.0017    92.0000 </r>
       <r>     1.0841    -0.0004    92.0000 </r>
       <r>     1.1332    -0.0001    92.0000 </r>
       <r>     1.1823    -0.0000    92.0000 </r>
       <r>     1.2314    -0.0000    92.0000 </r>
       <r>     1.2805    -0.0000    92.0000 </r>
       <r>     1.3296    -0.0000    92.0000 </r>
       <r>     1.3787    -0.0000    92.0000 </r>
       <r>     1.4278    -0.0000    92.0000 </r>
       <r>     1.4769    -0.0000    92.0000 </r>
       <r>     1.5260    -0.0000    92.0000 </r>
       <r>     1.5751    -0.0000    92.0000 </r>
       <r>     1.6242    -0.0000    92.0000 </r>
       <r>     1.6733     0.0000    92.0000 </r>
       <r>     1.7223     0.0000    92.0000 </r>
       <r>     1.7714     0.0000    92.0000 </r>
       <r>     1.8205     0.0000    92.0000 </r>
       <r>     1.8696     0.0000    92.0000 </r>
       <r>     1.9187     0.0000    92.0000 </r>
       <r>     1.9678     0.0000    92.0000 </r>
       <r>     2.0169     0.0000    92.0000 </r>
       <r>     2.0660     0.0000    92.0000 </r>
       <r>     2.1151     0.0000    92.0000 </r>
       <r>     2.1642     0.0000    92.0000 </r>
       <r>     2.2133     0.0000    92.0000 </r>
       <r>     2.2624     0.0000    92.0000 </r>
       <r>     2.3115     0.0000    92.0000 </r>
       <r>     2.3606     0.0000    92.0000 </r>
      </set>
     </set>
    </array>
   </total>
  </dos>
 </calculation>
 <structure name="finalpos" >
  <crystal>
   <varray name="basis" >
    <v>      23.10269786       0.00000000       0.00000000 </v>
    <v>       0.00000000      20.71228071       0.00000000 </v>
    <v>       0.00000000       0.00000000      24.49879789 </v>
   </varray>
   <i name="volume">  11722.90907885 </i>
   <varray name="rec_basis" >
    <v>       0.04328499       0.00000000       0.00000000 </v>
    <v>       0.00000000       0.04828054       0.00000000 </v>
    <v>       0.00000000       0.00000000       0.04081833 </v>
   </varray>
  </crystal>
  <varray name="positions" >
   <v>       0.45881247       0.44422459       0.52138153 </v>
   <v>       0.54249523       0.44214284       0.46191539 </v>
   <v>       0.55960328       0.55565010       0.48585079 </v>
   <v>       0.45133632       0.54981763       0.47620994 </v>
   <v>       0.55551440       0.47037751       0.55746283 </v>
   <v>       0.49448248       0.56680946       0.56474827 </v>
   <v>       0.44871132       0.45083087       0.41896827 </v>
   <v>       0.51234734       0.54013101       0.39754413 </v>
   <v>       0.39736738       0.52592126       0.56229529 </v>
   <v>       0.46871736       0.47039423       0.61767632 </v>
   <v>       0.60981490       0.50310359       0.40750182 </v>
   <v>       0.53674921       0.43348767       0.36459414 </v>
   <v>       0.55259271       0.53252992       0.64033709 </v>
  </varray>
 </structure>
</modeling>
