unknown system                          
            1
    23.102698    0.000000    0.000000
     0.000000   20.712281    0.000000
     0.000000    0.000000   24.498798
   Cu
    13
Direct configuration=     1
   0.45865355  0.44430329  0.52213775
   0.54237000  0.44185273  0.46114527
   0.55941035  0.55474976  0.48590073
   0.45122764  0.54810546  0.47600643
   0.55635125  0.47005707  0.55916230
   0.49419362  0.56755466  0.56624886
   0.44766053  0.45026756  0.41833002
   0.51284045  0.54136831  0.39484472
   0.39601302  0.52567732  0.56179838
   0.46846030  0.47093459  0.61980256
   0.61093190  0.50272570  0.40673264
   0.53672764  0.43451958  0.36225703
   0.55370414  0.53330465  0.64211911
Direct configuration=     2
   0.45894457  0.44434995  0.52220419
   0.54219585  0.44212089  0.46120233
   0.55920997  0.55459348  0.48580776
   0.45157112  0.54831279  0.47593586
   0.55589072  0.47027348  0.55878009
   0.49416446  0.56704505  0.56599986
   0.44823826  0.45050101  0.41833792
   0.51275545  0.54096979  0.39557477
   0.39648655  0.52563409  0.56194798
   0.46855380  0.47115645  0.61936148
   0.61044542  0.50271421  0.40682445
   0.53666866  0.43458419  0.36272348
   0.55341955  0.53316531  0.64178566
Direct configuration=     3
   0.45936961  0.44441808  0.52230123
   0.54194151  0.44251252  0.46128566
   0.55891732  0.55436522  0.48567197
   0.45207275  0.54861560  0.47583279
   0.55521813  0.47058955  0.55822188
   0.49412188  0.56630076  0.56563620
   0.44908203  0.45084197  0.41834945
   0.51263130  0.54038776  0.39664100
   0.39717813  0.52557095  0.56216646
   0.46869035  0.47148048  0.61871728
   0.60973493  0.50269744  0.40695852
   0.53658251  0.43467856  0.36340471
   0.55300392  0.53296181  0.64129866
Direct configuration=     4
   0.45939277  0.44430777  0.52214258
   0.54197380  0.44237370  0.46157919
   0.55902249  0.55462103  0.48575369
   0.45201434  0.54894708  0.47596713
   0.55522576  0.47055109  0.55790780
   0.49418229  0.56637029  0.56528022
   0.44907221  0.45083612  0.41839337
   0.51250017  0.54043485  0.39696715
   0.39732943  0.52561978  0.56221349
   0.46863724  0.47130219  0.61859999
   0.60971648  0.50278509  0.40704070
   0.53660576  0.43439166  0.36356229
   0.55287165  0.53288004  0.64107822
Direct configuration=     5
   0.45941505  0.44420160  0.52198989
   0.54200488  0.44224009  0.46186168
   0.55912371  0.55486724  0.48583234
   0.45195812  0.54926610  0.47609643
   0.55523310  0.47051408  0.55760552
   0.49424042  0.56643721  0.56493761
   0.44906277  0.45083049  0.41843563
   0.51237396  0.54048017  0.39728104
   0.39747504  0.52566678  0.56225875
   0.46858613  0.47113060  0.61848710
   0.60969873  0.50286944  0.40711978
   0.53662813  0.43411555  0.36371396
   0.55274436  0.53280134  0.64086607
Direct configuration=     6
   0.45914812  0.44413104  0.52183256
   0.54221699  0.44208055  0.46177720
   0.55938758  0.55517319  0.48584688
   0.45165351  0.54942660  0.47615974
   0.55544409  0.47043746  0.55769090
   0.49436667  0.56666698  0.56492192
   0.44887667  0.45079106  0.41853632
   0.51238421  0.54048556  0.39726121
   0.39737721  0.52570988  0.56224107
   0.46859005  0.47090731  0.61841958
   0.60971881  0.50290603  0.40721092
   0.53668214  0.43395919  0.36389155
   0.55269834  0.53274584  0.64069595
Direct configuration=     7
   0.45902686  0.44409899  0.52176109
   0.54231335  0.44200807  0.46173882
   0.55950745  0.55531217  0.48585349
   0.45151513  0.54949951  0.47618850
   0.55553995  0.47040266  0.55772969
   0.49442402  0.56677136  0.56491479
   0.44879213  0.45077316  0.41858206
   0.51238886  0.54048801  0.39725221
   0.39733277  0.52572946  0.56223304
   0.46859183  0.47080587  0.61838891
   0.60972793  0.50292265  0.40725232
   0.53670668  0.43388816  0.36397222
   0.55267744  0.53272062  0.64061867
Direct configuration=     8
   0.45897225  0.44413729  0.52163411
   0.54236761  0.44204330  0.46184060
   0.55956613  0.55540334  0.48584940
   0.45143996  0.54955881  0.47618879
   0.55553484  0.47036424  0.55761718
   0.49444326  0.56679949  0.56487454
   0.44875813  0.45081864  0.41871183
   0.51235143  0.54039636  0.39733875
   0.39735286  0.52577369  0.56225775
   0.46860594  0.47068540  0.61817179
   0.60977159  0.50298101  0.40733002
   0.53671556  0.43376878  0.36412016
   0.55266483  0.53269034  0.64055089
Direct configuration=     9
   0.45888791  0.44419644  0.52143800
   0.54245140  0.44209772  0.46199778
   0.55965675  0.55554413  0.48584309
   0.45132388  0.54965039  0.47618924
   0.55552695  0.47030491  0.55744342
   0.49447298  0.56684294  0.56481238
   0.44870561  0.45088889  0.41891222
   0.51229363  0.54025483  0.39747241
   0.39738388  0.52584198  0.56229593
   0.46862774  0.47049936  0.61783647
   0.60983902  0.50307114  0.40745003
   0.53672928  0.43358441  0.36434863
   0.55264535  0.53264356  0.64044620
Direct configuration=    10
   0.45882470  0.44422003  0.52139068
   0.54248812  0.44213553  0.46192874
   0.55961195  0.55563293  0.48584954
   0.45133430  0.54979052  0.47620658
   0.55551644  0.47036574  0.55745969
   0.49448094  0.56681488  0.56475866
   0.44871040  0.45084027  0.41895919
   0.51233863  0.54015108  0.39753251
   0.39737005  0.52590841  0.56229540
   0.46870283  0.47041127  0.61770228
   0.60981881  0.50309833  0.40749343
   0.53674598  0.43350335  0.36455435
   0.55260124  0.53254834  0.64035477
Direct configuration=    11
   0.45881247  0.44422459  0.52138153
   0.54249523  0.44214284  0.46191539
   0.55960328  0.55565010  0.48585079
   0.45133632  0.54981763  0.47620994
   0.55551440  0.47037751  0.55746283
   0.49448248  0.56680946  0.56474827
   0.44871132  0.45083087  0.41896827
   0.51234734  0.54013101  0.39754413
   0.39736738  0.52592126  0.56229529
   0.46871736  0.47039423  0.61767632
   0.60981490  0.50310359  0.40750182
   0.53674921  0.43348767  0.36459414
   0.55259271  0.53252992  0.64033709
