    8    8 1000    2
  0.1470863E+04  0.2264185E-08  0.2429443E-08  0.2139161E-08  0.5000000E-15
   1.0000000000000000E-004
  CAR 
 unknown system                          
     88      1     56
 
  0.1262379E-14  0.1262379E-14  0.1262379E-14  0.1000000E+01
    1      -10.822317    -10.822317   1.000000   1.000000
    2       -9.944438     -9.944438   1.000000   1.000000
    3       -9.732598     -9.732598   1.000000   1.000000
    4       -9.634049     -9.634049   1.000000   1.000000
    5       -9.187831     -9.187831   1.000000   1.000000
    6       -9.018373     -9.018373   1.000000   1.000000
    7       -8.951977     -8.951977   1.000000   1.000000
    8       -8.833391     -8.833391   1.000000   1.000000
    9       -8.637784     -8.637784   1.000000   1.000000
   10       -8.527756     -8.527756   1.000000   1.000000
   11       -8.376890     -8.376890   1.000000   1.000000
   12       -8.266308     -8.266308   1.000000   1.000000
   13       -8.262997     -8.262997   1.000000   1.000000
   14       -8.150118     -8.150118   1.000000   1.000000
   15       -8.049492     -8.049492   1.000000   1.000000
   16       -7.962273     -7.962273   1.000000   1.000000
   17       -7.754959     -7.754959   1.000000   1.000000
   18       -7.729102     -7.729102   1.000000   1.000000
   19       -7.505146     -7.505146   1.000000   1.000000
   20       -7.476839     -7.476839   1.000000   1.000000
   21       -7.406072     -7.406072   1.000000   1.000000
   22       -7.271757     -7.271757   1.000000   1.000000
   23       -7.213083     -7.213083   1.000000   1.000000
   24       -7.108429     -7.108429   1.000000   1.000000
   25       -7.098861     -7.098861   1.000000   1.000000
   26       -6.986986     -6.986986   1.000000   1.000000
   27       -6.799014     -6.799014   1.000000   1.000000
   28       -6.761535     -6.761535   1.000000   1.000000
   29       -6.754442     -6.754442   1.000000   1.000000
   30       -6.697301     -6.697301   1.000000   1.000000
   31       -6.695123     -6.695123   1.000000   1.000000
   32       -6.664880     -6.664880   1.000000   1.000000
   33       -6.583591     -6.583591   1.000000   1.000000
   34       -6.550996     -6.550996   1.000000   1.000000
   35       -6.486885     -6.486885   1.000000   1.000000
   36       -6.451499     -6.451499   1.000000   1.000000
   37       -6.366994     -6.366994   1.000000   1.000000
   38       -6.332016     -6.332016   1.000000   1.000000
   39       -6.144814     -6.144814   1.000000   1.000000
   40       -6.030795     -6.030795   1.000000   1.000000
   41       -5.996948     -5.996948   1.000000   1.000000
   42       -5.936720     -5.936720   1.000003   1.000003
   43       -5.866783     -5.866783   1.000031   1.000031
   44       -5.396731     -5.396731   0.999966   0.999966
   45       -3.929282     -3.929282  -0.000000  -0.000000
   46       -3.712612     -3.712612  -0.000000  -0.000000
   47       -3.565304     -3.565304  -0.000000  -0.000000
   48       -3.304700     -3.304700  -0.000000  -0.000000
   49       -1.835640     -1.835641  -0.000000  -0.000000
   50       -1.508012     -1.508013  -0.000000  -0.000000
   51       -1.300063     -1.300061  -0.000000  -0.000000
   52       -1.243606     -1.243607  -0.000000  -0.000000
   53       -0.831512     -0.831511  -0.000000  -0.000000
   54       -0.461325     -0.461322  -0.000000  -0.000000
   55       -0.304358     -0.304358  -0.000000  -0.000000
   56        0.008087      0.008085  -0.000000  -0.000000
