<?xml version="1.0" encoding="ISO-8859-1"?>
<modeling>
 <generator>
  <i name="program" type="string">vasp </i>
  <i name="version" type="string">6.1.2  </i>
  <i name="subversion" type="string">22Jul20 (build Aug  2 2021 21:04:21) gamma-only                       parallel </i>
  <i name="platform" type="string">LinuxPGI </i>
  <i name="date" type="string">2021 12 30 </i>
  <i name="time" type="string">16:05:40 </i>
 </generator>
 <incar>
  <i type="int" name="ISPIN">     2</i>
  <i type="int" name="IBRION">     2</i>
  <i type="int" name="NSW">  1000</i>
  <i type="int" name="ISIF">     0</i>
  <i type="int" name="ISYM">     0</i>
  <i name="ENCUT">    400.00000000</i>
  <i type="logical" name="LREAL"> F  </i>
  <i type="int" name="ISMEAR">     1</i>
  <i name="SIGMA">      0.20000000</i>
  <i type="logical" name="LWAVE"> F  </i>
  <i type="logical" name="LCHARG"> F  </i>
  <i type="int" name="KPAR">     1</i>
  <i type="int" name="NCORE">     8</i>
  <i type="string" name="GGA"> PE</i>
  <i type="int" name="ISPIN">     2</i>
 </incar>
 <structure name="primitive_cell" >
  <crystal>
   <varray name="basis" >
    <v>      22.64184993       0.00000000       0.00000000 </v>
    <v>       0.00000000      24.29442984       0.00000000 </v>
    <v>       0.00000000       0.00000000      21.39161369 </v>
   </varray>
   <i name="volume">  11766.90279774 </i>
   <varray name="rec_basis" >
    <v>       0.04416600       0.00000000       0.00000000 </v>
    <v>       0.00000000       0.04116170       0.00000000 </v>
    <v>       0.00000000       0.00000000       0.04674729 </v>
   </varray>
  </crystal>
  <varray name="positions" >
   <v>       0.57650618       0.62527912       0.42525372 </v>
   <v>       0.48804677       0.57052281       0.46441668 </v>
   <v>       0.59925269       0.55210861       0.50343534 </v>
   <v>       0.46587836       0.45951028       0.47477671 </v>
   <v>       0.52700368       0.37481151       0.44780679 </v>
   <v>       0.40202961       0.53262127       0.53359131 </v>
   <v>       0.57806075       0.44541284       0.51298626 </v>
   <v>       0.50841434       0.51716906       0.57408241 </v>
  </varray>
 </structure>
 <varray name="primitive_index" >
  <v type="int" >        1 </v>
  <v type="int" >        2 </v>
  <v type="int" >        3 </v>
  <v type="int" >        4 </v>
  <v type="int" >        5 </v>
  <v type="int" >        6 </v>
  <v type="int" >        7 </v>
  <v type="int" >        8 </v>
 </varray>
 <kpoints>
  <generation param="Gamma">
   <v type="int" name="divisions">       1        1        1 </v>
   <v name="usershift">      0.00000000       0.00000000       0.00000000 </v>
   <v name="genvec1">      1.00000000       0.00000000       0.00000000 </v>
   <v name="genvec2">      0.00000000       1.00000000       0.00000000 </v>
   <v name="genvec3">      0.00000000       0.00000000       1.00000000 </v>
   <v name="shift">      0.00000000       0.00000000       0.00000000 </v>
  </generation>
  <varray name="kpointlist" >
   <v>       0.00000000       0.00000000       0.00000000 </v>
  </varray>
  <varray name="weights" >
   <v>       1.00000000 </v>
  </varray>
 </kpoints>
 <parameters>
  <separator name="general" >
   <i type="string" name="SYSTEM">unknown system</i>
   <i type="logical" name="LCOMPAT"> F  </i>
  </separator>
  <separator name="electronic" >
   <i type="string" name="PREC">normal</i>
   <i name="ENMAX">    400.00000000</i>
   <i name="ENAUG">    356.67000000</i>
   <i name="EDIFF">      0.00010000</i>
   <i type="int" name="IALGO">    38</i>
   <i type="int" name="IWAVPR">    11</i>
   <i type="int" name="NBANDS">    56</i>
   <i type="int" name="NBANDSLOW">    -1</i>
   <i type="int" name="NBANDSHIGH">    -1</i>
   <i name="NELECT">     88.00000000</i>
   <i type="int" name="TURBO">     0</i>
   <i type="int" name="IRESTART">     0</i>
   <i type="int" name="NREBOOT">     0</i>
   <i type="int" name="NMIN">     0</i>
   <i name="EREF">      0.00000000</i>
   <separator name="electronic smearing" >
    <i type="int" name="ISMEAR">     1</i>
    <i name="SIGMA">      0.20000000</i>
    <i name="KSPACING">      0.50000000</i>
    <i type="logical" name="KGAMMA"> T  </i>
    <i type="logical" name="KBLOWUP"> T  </i>
   </separator>
   <separator name="electronic projectors" >
    <i type="logical" name="LREAL"> F  </i>
    <v name="ROPT">      0.00000000</v>
    <i type="int" name="LMAXPAW">  -100</i>
    <i type="int" name="LMAXMIX">     2</i>
    <i type="logical" name="NLSPLINE"> F  </i>
   </separator>
   <separator name="electronic startup" >
    <i type="int" name="ISTART">     0</i>
    <i type="int" name="ICHARG">     2</i>
    <i type="int" name="INIWAV">     1</i>
   </separator>
   <separator name="electronic spin" >
    <i type="int" name="ISPIN">     2</i>
    <i type="logical" name="LNONCOLLINEAR"> F  </i>
    <v name="MAGMOM">      1.00000000      1.00000000      1.00000000      1.00000000      1.00000000      1.00000000      1.00000000      1.00000000</v>
    <i name="NUPDOWN">     -1.00000000</i>
    <i type="logical" name="LSORBIT"> F  </i>
    <v name="SAXIS">      0.00000000      0.00000000      1.00000000</v>
    <i type="logical" name="LSPIRAL"> F  </i>
    <v name="QSPIRAL">      0.00000000      0.00000000      0.00000000</v>
    <i type="logical" name="LZEROZ"> F  </i>
   </separator>
   <separator name="electronic exchange-correlation" >
    <i type="logical" name="LASPH"> F  </i>
    <i type="logical" name="LMETAGGA"> F  </i>
   </separator>
   <separator name="electronic convergence" >
    <i type="int" name="NELM">    60</i>
    <i type="int" name="NELMDL">     0</i>
    <i type="int" name="NELMIN">     2</i>
    <i name="ENINI">    400.00000000</i>
    <separator name="electronic convergence detail" >
     <i type="logical" name="LDIAG"> T  </i>
     <i type="logical" name="LSUBROT"> F  </i>
     <i name="WEIMIN">      0.00100000</i>
     <i name="EBREAK">      0.00000045</i>
     <i name="DEPER">      0.30000000</i>
     <i type="int" name="NRMM">     4</i>
     <i name="TIME">      0.40000000</i>
    </separator>
   </separator>
   <separator name="electronic mixer" >
    <i name="AMIX">      0.40000000</i>
    <i name="BMIX">      1.00000000</i>
    <i name="AMIN">      0.10000000</i>
    <i name="AMIX_MAG">      1.60000000</i>
    <i name="BMIX_MAG">      1.00000000</i>
    <separator name="electronic mixer details" >
     <i type="int" name="IMIX">     4</i>
     <i type="logical" name="MIXFIRST"> F  </i>
     <i type="int" name="MAXMIX">   -45</i>
     <i name="WC">    100.00000000</i>
     <i type="int" name="INIMIX">     1</i>
     <i type="int" name="MIXPRE">     1</i>
     <i type="int" name="MREMOVE">     5</i>
    </separator>
   </separator>
   <separator name="electronic dipolcorrection" >
    <i type="logical" name="LDIPOL"> F  </i>
    <i type="logical" name="LMONO"> F  </i>
    <i type="int" name="IDIPOL">     0</i>
    <i name="EPSILON">      1.00000000</i>
    <v name="DIPOL">   -100.00000000   -100.00000000   -100.00000000</v>
    <i name="EFIELD">      0.00000000</i>
   </separator>
  </separator>
  <separator name="grids" >
   <i type="int" name="NGX">   112</i>
   <i type="int" name="NGY">   120</i>
   <i type="int" name="NGZ">   108</i>
   <i type="int" name="NGXF">   224</i>
   <i type="int" name="NGYF">   240</i>
   <i type="int" name="NGZF">   216</i>
   <i type="logical" name="ADDGRID"> F  </i>
  </separator>
  <separator name="ionic" >
   <i type="int" name="NSW">  1000</i>
   <i type="int" name="IBRION">     2</i>
   <i type="int" name="MDALGO">     0</i>
   <i type="int" name="ISIF">     0</i>
   <i name="PSTRESS">      0.00000000</i>
   <i name="EDIFFG">      0.00100000</i>
   <i type="int" name="NFREE">     1</i>
   <i name="POTIM">      0.50000000</i>
   <i name="SMASS">     -3.00000000</i>
   <i name="SCALEE">      1.00000000</i>
  </separator>
  <separator name="ionic md" >
   <i name="TEBEG">      0.00010000</i>
   <i name="TEEND">      0.00010000</i>
   <i type="int" name="NBLOCK">     1</i>
   <i type="int" name="KBLOCK">  1000</i>
   <i type="int" name="NPACO">   256</i>
   <i name="APACO">     16.00000000</i>
  </separator>
  <separator name="symmetry" >
   <i type="int" name="ISYM">     0</i>
   <i name="SYMPREC">      0.00001000</i>
  </separator>
  <separator name="dos" >
   <i type="int" name="LORBIT">     0</i>
   <v name="RWIGS">     -1.00000000</v>
   <i type="int" name="NEDOS">   301</i>
   <i name="EMIN">     10.00000000</i>
   <i name="EMAX">    -10.00000000</i>
   <i name="EFERMI">      0.00000000</i>
  </separator>
  <separator name="writing" >
   <i type="int" name="NWRITE">     2</i>
   <i type="logical" name="LWAVE"> F  </i>
   <i type="logical" name="LDOWNSAMPLE"> F  </i>
   <i type="logical" name="LCHARG"> F  </i>
   <i type="logical" name="LPARD"> F  </i>
   <i type="logical" name="LVTOT"> F  </i>
   <i type="logical" name="LVHAR"> F  </i>
   <i type="logical" name="LELF"> F  </i>
   <i type="logical" name="LOPTICS"> F  </i>
   <v name="STM">      0.00000000      0.00000000      0.00000000      0.00000000      0.00000000      0.00000000      0.00000000</v>
  </separator>
  <separator name="performance" >
   <i type="int" name="NPAR">     1</i>
   <i type="int" name="NSIM">     4</i>
   <i type="int" name="NBLK">    -1</i>
   <i type="logical" name="LPLANE"> T  </i>
   <i type="logical" name="LSCALAPACK"> T  </i>
   <i type="logical" name="LSCAAWARE"> F  </i>
   <i type="logical" name="LSCALU"> F  </i>
   <i type="logical" name="LASYNC"> F  </i>
   <i type="logical" name="LORBITALREAL"> F  </i>
  </separator>
  <separator name="miscellaneous" >
   <i type="int" name="IDIOT">     3</i>
   <i type="int" name="PHON_NSTRUCT">    -1</i>
   <i type="logical" name="LMUSIC"> F  </i>
   <v name="POMASS">    196.96600000</v>
   <v name="DARWINR">      0.00000000</v>
   <v name="DARWINV">      1.00000000</v>
   <i type="logical" name="LCORR"> T  </i>
  </separator>
  <i type="logical" name="GGA_COMPAT"> T  </i>
  <i type="logical" name="LBERRY"> F  </i>
  <i type="int" name="ICORELEVEL">     0</i>
  <i type="logical" name="LDAU"> F  </i>
  <i type="int" name="I_CONSTRAINED_M">     0</i>
  <separator name="electronic exchange-correlation" >
   <i type="string" name="GGA">PE</i>
   <i type="int" name="VOSKOWN">     0</i>
   <i type="logical" name="LHFCALC"> F  </i>
   <i type="string" name="PRECFOCK"></i>
   <i type="logical" name="LSYMGRAD"> F  </i>
   <i type="logical" name="LHFONE"> F  </i>
   <i type="logical" name="LRHFCALC"> F  </i>
   <i type="logical" name="LTHOMAS"> F  </i>
   <i type="logical" name="LMODELHF"> F  </i>
   <i type="logical" name="LFOCKACE"> F  </i>
   <i name="ENCUT4O">     -1.00000000</i>
   <i type="int" name="EXXOEP">     0</i>
   <i type="int" name="FOURORBIT">     0</i>
   <i name="AEXX">      0.00000000</i>
   <i name="HFALPHA">      0.00000000</i>
   <i name="MCALPHA">      0.00000000</i>
   <i name="ALDAX">      1.00000000</i>
   <i name="AGGAX">      1.00000000</i>
   <i name="ALDAC">      1.00000000</i>
   <i name="AGGAC">      1.00000000</i>
   <i type="int" name="NKREDX">     1</i>
   <i type="int" name="NKREDY">     1</i>
   <i type="int" name="NKREDZ">     1</i>
   <i type="logical" name="SHIFTRED"> F  </i>
   <i type="logical" name="ODDONLY"> F  </i>
   <i type="logical" name="EVENONLY"> F  </i>
   <i type="int" name="LMAXFOCK">     0</i>
   <i type="int" name="NMAXFOCKAE">     0</i>
   <i type="logical" name="LFOCKAEDFT"> F  </i>
   <i name="HFSCREEN">      0.00000000</i>
   <i name="HFSCREENC">      0.00000000</i>
   <i type="int" name="NBANDSGWLOW">     0</i>
  </separator>
  <separator name="vdW DFT" >
   <i type="logical" name="LUSE_VDW"> F  </i>
   <i name="Zab_VDW">     -0.84910000</i>
   <i name="PARAM1">      0.12340000</i>
   <i name="PARAM2">      1.00000000</i>
   <i name="PARAM3">      0.00000000</i>
  </separator>
  <separator name="model GW" >
   <i type="int" name="MODEL_GW">     0</i>
   <i name="MODEL_EPS0">    882.51770983</i>
   <i name="MODEL_ALPHA">      1.00000000</i>
  </separator>
  <separator name="linear response parameters" >
   <i type="logical" name="LEPSILON"> F  </i>
   <i type="logical" name="LRPA"> F  </i>
   <i type="logical" name="LNABLA"> F  </i>
   <i type="logical" name="LVEL"> F  </i>
   <i type="int" name="KINTER">     0</i>
   <i name="CSHIFT">      0.10000000</i>
   <i name="OMEGAMAX">     -1.00000000</i>
   <i name="DEG_THRESHOLD">      0.00200000</i>
   <i name="RTIME">     -0.10000000</i>
   <i name="WPLASMAI">      0.00000000</i>
   <v name="DFIELD">      0.00000000      0.00000000      0.00000000</v>
   <v name="WPLASMA">      0.00000000      0.00000000      0.00000000      0.00000000      0.00000000      0.00000000      0.00000000      0.00000000      0.00000000</v>
  </separator>
  <separator name="orbital magnetization" >
   <i type="logical" name="NUCIND"> F  </i>
   <v name="MAGPOS">      0.00000000      0.00000000      0.00000000</v>
   <i type="logical" name="LNICSALL"> T  </i>
   <i type="logical" name="ORBITALMAG"> F  </i>
   <i type="logical" name="LMAGBLOCH"> F  </i>
   <i type="logical" name="LCHIMAG"> F  </i>
   <i type="logical" name="LGAUGE"> T  </i>
   <i type="int" name="MAGATOM">     0</i>
   <v name="MAGDIPOL">      0.00000000      0.00000000      0.00000000</v>
   <v name="AVECCONST">      0.00000000      0.00000000      0.00000000</v>
  </separator>
  <separator name="response functions" >
   <i type="logical" name="LFINITE_TEMPERATURE"> F  </i>
   <i type="logical" name="LADDER"> F  </i>
   <i type="logical" name="LRPAFORCE"> F  </i>
   <i type="logical" name="LFXC"> F  </i>
   <i type="logical" name="LHARTREE"> T  </i>
   <i type="int" name="IBSE">     0</i>
   <v type="int" name="KPOINT">    -1     0     0     0</v>
   <i type="logical" name="LTCTC"> F  </i>
   <i type="logical" name="LTCTE"> F  </i>
   <i type="logical" name="LTETE"> F  </i>
   <i type="logical" name="LTRIPLET"> F  </i>
   <i type="logical" name="LFXCEPS"> F  </i>
   <i type="logical" name="LFXHEG"> F  </i>
   <i type="int" name="NATURALO">     2</i>
   <i type="logical" name="LHOLEGF"> F  </i>
   <i type="logical" name="L2ORDER"> F  </i>
   <i type="logical" name="LDMP1"> F  </i>
   <i type="logical" name="LMP2LT"> F  </i>
   <i type="logical" name="LSMP2LT"> F  </i>
   <i type="logical" name="LGWLF"> F  </i>
   <i name="ENCUTGW">     -2.00000000</i>
   <i name="ENCUTGWSOFT">     -2.00000000</i>
   <i name="ENCUTLF">     -1.00000000</i>
   <i type="logical" name="LESF_SPLINES"> F  </i>
   <i type="int" name="LMAXMP2">    -1</i>
   <i name="SCISSOR">      0.00000000</i>
   <i type="int" name="NOMEGA">     0</i>
   <i type="int" name="NOMEGAR">     0</i>
   <i type="int" name="NBANDSGW">    -1</i>
   <i type="int" name="NBANDSO">    -1</i>
   <i type="int" name="NBANDSV">    -1</i>
   <i type="int" name="NELM">     1</i>
   <i type="int" name="NELMHF">     1</i>
   <i type="int" name="DIM">     3</i>
   <i type="int" name="IESPILON">     4</i>
   <i type="int" name="ANTIRES">     0</i>
   <i name="OMEGAMAX">    -30.00000000</i>
   <i name="OMEGAMIN">    -30.00000000</i>
   <i name="OMEGATL">   -200.00000000</i>
   <i type="int" name="OMEGAGRID">     0</i>
   <i name="CSHIFT">     -0.10000000</i>
   <i type="logical" name="LSELFENERGY"> F  </i>
   <i type="logical" name="LSPECTRAL"> F  </i>
   <i type="logical" name="LSPECTRALGW"> F  </i>
   <i type="logical" name="LSINGLES"> F  </i>
   <i type="logical" name="LFERMIGW"> F  </i>
   <i type="logical" name="ODDONLYGW"> F  </i>
   <i type="logical" name="EVENONLYGW"> F  </i>
   <i type="int" name="NKREDLFX">     1</i>
   <i type="int" name="NKREDLFY">     1</i>
   <i type="int" name="NKREDLFZ">     1</i>
   <i type="int" name="MAXMEM">  2800</i>
   <i type="int" name="TELESCOPE">     0</i>
   <i type="int" name="NTAUPAR">    -1</i>
   <i type="int" name="NOMEGAPAR">    -1</i>
   <i name="LAMBDA">      1.00000000</i>
  </separator>
  <separator name="External order field" >
   <i name="OFIELD_KAPPA">      0.00000000</i>
   <v name="OFIELD_K">      0.00000000      0.00000000      0.00000000</v>
   <i name="OFIELD_Q6_NEAR">      0.00000000</i>
   <i name="OFIELD_Q6_FAR">      0.00000000</i>
   <i name="OFIELD_A">      0.00000000</i>
  </separator>
 </parameters>
 <atominfo>
  <atoms>       8 </atoms>
  <types>       1 </types>
  <array name="atoms" >
   <dimension dim="1">ion</dimension>
   <field type="string">element</field>
   <field type="int">atomtype</field>
   <set>
    <rc><c>Au</c><c>   1</c></rc>
    <rc><c>Au</c><c>   1</c></rc>
    <rc><c>Au</c><c>   1</c></rc>
    <rc><c>Au</c><c>   1</c></rc>
    <rc><c>Au</c><c>   1</c></rc>
    <rc><c>Au</c><c>   1</c></rc>
    <rc><c>Au</c><c>   1</c></rc>
    <rc><c>Au</c><c>   1</c></rc>
   </set>
  </array>
  <array name="atomtypes" >
   <dimension dim="1">type</dimension>
   <field type="int">atomspertype</field>
   <field type="string">element</field>
   <field>mass</field>
   <field>valence</field>
   <field type="string">pseudopotential</field>
   <set>
    <rc><c>   8</c><c>Au</c><c>    196.96600000</c><c>     11.00000000</c><c>  PAW_PBE Au 04Oct2007                  </c></rc>
   </set>
  </array>
 </atominfo>
 <structure name="initialpos" >
  <crystal>
   <varray name="basis" >
    <v>      22.64184993       0.00000000       0.00000000 </v>
    <v>       0.00000000      24.29442984       0.00000000 </v>
    <v>       0.00000000       0.00000000      21.39161369 </v>
   </varray>
   <i name="volume">  11766.90279774 </i>
   <varray name="rec_basis" >
    <v>       0.04416600       0.00000000       0.00000000 </v>
    <v>       0.00000000       0.04116170       0.00000000 </v>
    <v>       0.00000000       0.00000000       0.04674729 </v>
   </varray>
  </crystal>
  <varray name="positions" >
   <v>       0.57650618       0.62527912       0.42525372 </v>
   <v>       0.48804677       0.57052281       0.46441668 </v>
   <v>       0.59925269       0.55210861       0.50343534 </v>
   <v>       0.46587836       0.45951028       0.47477671 </v>
   <v>       0.52700368       0.37481151       0.44780679 </v>
   <v>       0.40202961       0.53262127       0.53359131 </v>
   <v>       0.57806075       0.44541284       0.51298626 </v>
   <v>       0.50841434       0.51716906       0.57408241 </v>
  </varray>
 </structure>
 <calculation>
  <scstep>
   <time name="dav">    4.59    4.60</time>
   <time name="total">    7.24    7.46</time>
   <energy>
    <i name="alphaZ">      6.33530747 </i>
    <i name="ewald">   8008.43443968 </i>
    <i name="hartreedc"> -15086.78003199 </i>
    <i name="XCdc">    118.45824009 </i>
    <i name="pawpsdc">   6992.17180065 </i>
    <i name="pawaedc">  -6807.49900724 </i>
    <i name="eentropy">      0.01418337 </i>
    <i name="bandstr">    110.24371321 </i>
    <i name="atom">   7408.64415014 </i>
    <i name="e_fr_energy">    750.02279539 </i>
    <i name="e_wo_entrp">    750.00861202 </i>
    <i name="e_0_energy">    750.01806760 </i>
   </energy>
  </scstep>
  <scstep>
   <time name="dav">    9.01   10.04</time>
   <time name="total">    9.02   10.05</time>
   <energy>
    <i name="e_fr_energy">    456.32932832 </i>
    <i name="e_wo_entrp">    456.42423052 </i>
    <i name="e_0_energy">    456.36096239 </i>
   </energy>
  </scstep>
  <scstep>
   <time name="dav">    7.36    7.43</time>
   <time name="total">    7.37    7.44</time>
   <energy>
    <i name="e_fr_energy">    134.60610360 </i>
    <i name="e_wo_entrp">    134.61325557 </i>
    <i name="e_0_energy">    134.60848759 </i>
   </energy>
  </scstep>
  <scstep>
   <time name="dav">    5.94    5.95</time>
   <time name="total">    5.95    5.96</time>
   <energy>
    <i name="e_fr_energy">      6.95038696 </i>
    <i name="e_wo_entrp">      6.98214694 </i>
    <i name="e_0_energy">      6.96097362 </i>
   </energy>
  </scstep>
  <scstep>
   <time name="dav">    5.12    5.13</time>
   <time name="total">    5.86    5.86</time>
   <energy>
    <i name="e_fr_energy">    -14.56182143 </i>
    <i name="e_wo_entrp">    -14.57972957 </i>
    <i name="e_0_energy">    -14.56779081 </i>
   </energy>
  </scstep>
  <scstep>
   <time name="dav">    4.77    4.83</time>
   <time name="total">    8.29    8.37</time>
   <energy>
    <i name="e_fr_energy">     -2.60296489 </i>
    <i name="e_wo_entrp">     -2.62667859 </i>
    <i name="e_0_energy">     -2.61086946 </i>
   </energy>
  </scstep>
  <scstep>
   <time name="dav">    4.80    4.81</time>
   <time name="total">    8.29    8.32</time>
   <energy>
    <i name="e_fr_energy">     -1.72939123 </i>
    <i name="e_wo_entrp">     -1.73972339 </i>
    <i name="e_0_energy">     -1.73283529 </i>
   </energy>
  </scstep>
  <scstep>
   <time name="dav">    5.02    5.03</time>
   <time name="total">    8.51    8.54</time>
   <energy>
    <i name="e_fr_energy">     -7.58985931 </i>
    <i name="e_wo_entrp">     -7.59577272 </i>
    <i name="e_0_energy">     -7.59183045 </i>
   </energy>
  </scstep>
  <scstep>
   <time name="dav">    4.77    4.88</time>
   <time name="total">    8.28    8.40</time>
   <energy>
    <i name="e_fr_energy">     -9.79921196 </i>
    <i name="e_wo_entrp">     -9.80507471 </i>
    <i name="e_0_energy">     -9.80116621 </i>
   </energy>
  </scstep>
  <scstep>
   <time name="dav">    4.65    4.72</time>
   <time name="total">    8.18    8.27</time>
   <energy>
    <i name="e_fr_energy">    -12.68768279 </i>
    <i name="e_wo_entrp">    -12.69542735 </i>
    <i name="e_0_energy">    -12.69026431 </i>
   </energy>
  </scstep>
  <scstep>
   <time name="dav">    4.93    5.06</time>
   <time name="total">    8.44    8.59</time>
   <energy>
    <i name="e_fr_energy">    -13.88172088 </i>
    <i name="e_wo_entrp">    -13.89272246 </i>
    <i name="e_0_energy">    -13.88538808 </i>
   </energy>
  </scstep>
  <scstep>
   <time name="dav">    5.52    5.58</time>
   <time name="total">    9.02    9.25</time>
   <energy>
    <i name="e_fr_energy">    -15.05626346 </i>
    <i name="e_wo_entrp">    -15.06923248 </i>
    <i name="e_0_energy">    -15.06058646 </i>
   </energy>
  </scstep>
  <scstep>
   <time name="dav">    4.71    4.85</time>
   <time name="total">    8.19    8.39</time>
   <energy>
    <i name="e_fr_energy">    -15.58678345 </i>
    <i name="e_wo_entrp">    -15.59902480 </i>
    <i name="e_0_energy">    -15.59086390 </i>
   </energy>
  </scstep>
  <scstep>
   <time name="dav">    4.85    4.91</time>
   <time name="total">    8.36    8.48</time>
   <energy>
    <i name="e_fr_energy">    -15.83625768 </i>
    <i name="e_wo_entrp">    -15.84819482 </i>
    <i name="e_0_energy">    -15.84023673 </i>
   </energy>
  </scstep>
  <scstep>
   <time name="dav">    4.90    4.97</time>
   <time name="total">    8.42    8.53</time>
   <energy>
    <i name="e_fr_energy">    -16.16853572 </i>
    <i name="e_wo_entrp">    -16.18026928 </i>
    <i name="e_0_energy">    -16.17244691 </i>
   </energy>
  </scstep>
  <scstep>
   <time name="dav">    4.93    4.94</time>
   <time name="total">    8.49    8.54</time>
   <energy>
    <i name="e_fr_energy">    -16.33028654 </i>
    <i name="e_wo_entrp">    -16.34201408 </i>
    <i name="e_0_energy">    -16.33419572 </i>
   </energy>
  </scstep>
  <scstep>
   <time name="dav">    4.63    4.70</time>
   <time name="total">    8.18    8.29</time>
   <energy>
    <i name="e_fr_energy">    -16.39117813 </i>
    <i name="e_wo_entrp">    -16.40290313 </i>
    <i name="e_0_energy">    -16.39508646 </i>
   </energy>
  </scstep>
  <scstep>
   <time name="dav">    4.14    4.19</time>
   <time name="total">    7.69    7.77</time>
   <energy>
    <i name="e_fr_energy">    -16.42226459 </i>
    <i name="e_wo_entrp">    -16.43399081 </i>
    <i name="e_0_energy">    -16.42617333 </i>
   </energy>
  </scstep>
  <scstep>
   <time name="dav">    3.59    3.66</time>
   <time name="total">    7.15    7.26</time>
   <energy>
    <i name="e_fr_energy">    -16.43599652 </i>
    <i name="e_wo_entrp">    -16.44772201 </i>
    <i name="e_0_energy">    -16.43990502 </i>
   </energy>
  </scstep>
  <scstep>
   <time name="dav">    3.57    3.57</time>
   <time name="total">    7.37    7.58</time>
   <energy>
    <i name="e_fr_energy">    -16.44401293 </i>
    <i name="e_wo_entrp">    -16.45573796 </i>
    <i name="e_0_energy">    -16.44792128 </i>
   </energy>
  </scstep>
  <scstep>
   <time name="dav">    4.40    4.80</time>
   <time name="total">    7.97    8.39</time>
   <energy>
    <i name="e_fr_energy">    -16.45022480 </i>
    <i name="e_wo_entrp">    -16.46194940 </i>
    <i name="e_0_energy">    -16.45413300 </i>
   </energy>
  </scstep>
  <scstep>
   <time name="dav">    3.59    3.65</time>
   <time name="total">    7.18    7.29</time>
   <energy>
    <i name="e_fr_energy">    -16.45551384 </i>
    <i name="e_wo_entrp">    -16.46723811 </i>
    <i name="e_0_energy">    -16.45942193 </i>
   </energy>
  </scstep>
  <scstep>
   <time name="dav">    3.48    3.53</time>
   <time name="total">    7.04    7.14</time>
   <energy>
    <i name="e_fr_energy">    -16.45878350 </i>
    <i name="e_wo_entrp">    -16.47050742 </i>
    <i name="e_0_energy">    -16.46269147 </i>
   </energy>
  </scstep>
  <scstep>
   <time name="dav">    3.56    3.63</time>
   <time name="total">    7.17    7.27</time>
   <energy>
    <i name="e_fr_energy">    -16.45993710 </i>
    <i name="e_wo_entrp">    -16.47166086 </i>
    <i name="e_0_energy">    -16.46384502 </i>
   </energy>
  </scstep>
  <scstep>
   <time name="dav">    3.37    3.41</time>
   <time name="total">    6.97    7.05</time>
   <energy>
    <i name="e_fr_energy">    -16.46054643 </i>
    <i name="e_wo_entrp">    -16.47227032 </i>
    <i name="e_0_energy">    -16.46445439 </i>
   </energy>
  </scstep>
  <scstep>
   <time name="dav">    3.72    3.88</time>
   <time name="total">    7.36    7.60</time>
   <energy>
    <i name="e_fr_energy">    -16.46069664 </i>
    <i name="e_wo_entrp">    -16.47242061 </i>
    <i name="e_0_energy">    -16.46460463 </i>
   </energy>
  </scstep>
  <scstep>
   <time name="dav">    3.42    3.43</time>
   <time name="total">    6.18    6.18</time>
   <energy>
    <i name="alphaZ">      6.33530747 </i>
    <i name="ewald">   8008.43443968 </i>
    <i name="hartreedc"> -15046.51503500 </i>
    <i name="XCdc">    115.57976913 </i>
    <i name="pawpsdc">   8089.79846794 </i>
    <i name="pawaedc">  -7921.58618308 </i>
    <i name="eentropy">      0.01172398 </i>
    <i name="bandstr">   -677.16341701 </i>
    <i name="atom">   7408.64415014 </i>
    <i name="e_fr_energy">    -16.46077676 </i>
    <i name="e_wo_entrp">    -16.47250074 </i>
    <i name="e_0_energy">    -16.46468475 </i>
   </energy>
  </scstep>
  <structure>
   <crystal>
    <varray name="basis" >
     <v>      22.64184993       0.00000000       0.00000000 </v>
     <v>       0.00000000      24.29442984       0.00000000 </v>
     <v>       0.00000000       0.00000000      21.39161369 </v>
    </varray>
    <i name="volume">  11766.90279774 </i>
    <varray name="rec_basis" >
     <v>       0.04416600       0.00000000       0.00000000 </v>
     <v>       0.00000000       0.04116170       0.00000000 </v>
     <v>       0.00000000       0.00000000       0.04674729 </v>
    </varray>
   </crystal>
   <varray name="positions" >
    <v>       0.57650618       0.62527912       0.42525372 </v>
    <v>       0.48804677       0.57052281       0.46441668 </v>
    <v>       0.59925269       0.55210861       0.50343534 </v>
    <v>       0.46587836       0.45951028       0.47477671 </v>
    <v>       0.52700368       0.37481151       0.44780679 </v>
    <v>       0.40202961       0.53262127       0.53359131 </v>
    <v>       0.57806075       0.44541284       0.51298626 </v>
    <v>       0.50841434       0.51716906       0.57408241 </v>
   </varray>
  </structure>
  <varray name="forces" >
   <v>       0.18032252       1.51051958      -1.35509411 </v>
   <v>      -0.70591563       0.55720781      -0.68807552 </v>
   <v>       1.14006165      -0.85425120       1.10629411 </v>
   <v>      -0.87911259      -0.37029220      -0.60457419 </v>
   <v>      -0.40228365      -1.66345364      -1.10149941 </v>
   <v>      -1.66890367       0.31582011       0.10172875 </v>
   <v>       1.39891322       0.55357088       0.99065491 </v>
   <v>       0.93691814      -0.04912133       1.55056547 </v>
  </varray>
  <energy>
   <i name="e_fr_energy">    -16.46077676 </i>
   <i name="e_wo_entrp">    -16.47250074 </i>
   <i name="e_0_energy">    -16.46468475 </i>
  </energy>
  <time name="totalsc">  216.71  220.84</time>
 </calculation>
 <calculation>
  <scstep>
   <time name="dav">    4.54    4.55</time>
   <time name="total">    8.04    8.06</time>
   <energy>
    <i name="alphaZ">      6.33530747 </i>
    <i name="ewald">   7602.69764511 </i>
    <i name="hartreedc"> -14647.52603785 </i>
    <i name="XCdc">    114.24081779 </i>
    <i name="pawpsdc">   8089.77999642 </i>
    <i name="pawaedc">  -7921.56775841 </i>
    <i name="eentropy">      0.01179321 </i>
    <i name="bandstr">   -669.28262787 </i>
    <i name="atom">   7408.64415014 </i>
    <i name="e_fr_energy">    -16.66671400 </i>
    <i name="e_wo_entrp">    -16.67850721 </i>
    <i name="e_0_energy">    -16.67064507 </i>
   </energy>
  </scstep>
  <scstep>
   <time name="dav">    4.56    4.56</time>
   <time name="total">    8.00    8.01</time>
   <energy>
    <i name="e_fr_energy">    -17.01000999 </i>
    <i name="e_wo_entrp">    -17.02169618 </i>
    <i name="e_0_energy">    -17.01390539 </i>
   </energy>
  </scstep>
  <scstep>
   <time name="dav">    4.96    5.20</time>
   <time name="total">    8.39    8.65</time>
   <energy>
    <i name="e_fr_energy">    -16.99158001 </i>
    <i name="e_wo_entrp">    -17.00342139 </i>
    <i name="e_0_energy">    -16.99552714 </i>
   </energy>
  </scstep>
  <scstep>
   <time name="dav">    4.82    4.90</time>
   <time name="total">    8.25    8.34</time>
   <energy>
    <i name="e_fr_energy">    -16.99354782 </i>
    <i name="e_wo_entrp">    -17.00541025 </i>
    <i name="e_0_energy">    -16.99750196 </i>
   </energy>
  </scstep>
  <scstep>
   <time name="dav">    4.91    4.95</time>
   <time name="total">    8.41    8.48</time>
   <energy>
    <i name="e_fr_energy">    -16.99003849 </i>
    <i name="e_wo_entrp">    -17.00183994 </i>
    <i name="e_0_energy">    -16.99397231 </i>
   </energy>
  </scstep>
  <scstep>
   <time name="dav">    4.72    4.80</time>
   <time name="total">    8.13    8.26</time>
   <energy>
    <i name="e_fr_energy">    -16.98993635 </i>
    <i name="e_wo_entrp">    -17.00172542 </i>
    <i name="e_0_energy">    -16.99386604 </i>
   </energy>
  </scstep>
  <scstep>
   <time name="dav">    3.69    3.78</time>
   <time name="total">    6.55    6.71</time>
   <energy>
    <i name="alphaZ">      6.33530747 </i>
    <i name="ewald">   7602.69764511 </i>
    <i name="hartreedc"> -14655.09235335 </i>
    <i name="XCdc">    114.45193417 </i>
    <i name="pawpsdc">   7835.21732603 </i>
    <i name="pawaedc">  -7664.46864692 </i>
    <i name="eentropy">      0.01179015 </i>
    <i name="bandstr">   -664.78715172 </i>
    <i name="atom">   7408.64415014 </i>
    <i name="e_fr_energy">    -16.98999893 </i>
    <i name="e_wo_entrp">    -17.00178908 </i>
    <i name="e_0_energy">    -16.99392898 </i>
   </energy>
  </scstep>
  <structure>
   <crystal>
    <varray name="basis" >
     <v>      22.64184993       0.00000000       0.00000000 </v>
     <v>       0.00000000      24.29442984       0.00000000 </v>
     <v>       0.00000000       0.00000000      21.39161369 </v>
    </varray>
    <i name="volume">  11766.90279774 </i>
    <varray name="rec_basis" >
     <v>       0.04416600       0.00000000       0.00000000 </v>
     <v>       0.00000000       0.04116170       0.00000000 </v>
     <v>       0.00000000       0.00000000       0.04674729 </v>
    </varray>
   </crystal>
   <varray name="positions" >
    <v>       0.57689039       0.62827863       0.42219769 </v>
    <v>       0.48654268       0.57162928       0.46286492 </v>
    <v>       0.60168180       0.55041228       0.50593027 </v>
    <v>       0.46400524       0.45877497       0.47341327 </v>
    <v>       0.52614654       0.37150831       0.44532268 </v>
    <v>       0.39847370       0.53324841       0.53382073 </v>
    <v>       0.58104139       0.44651209       0.51522040 </v>
    <v>       0.51041062       0.51707152       0.57757927 </v>
   </varray>
  </structure>
  <varray name="forces" >
   <v>      -0.04650922       0.03555207      -0.07375044 </v>
   <v>       0.00629279       0.19958508      -0.08020766 </v>
   <v>       0.31016751       0.70012513      -0.05661079 </v>
   <v>      -0.06455308      -0.19575801      -0.05183169 </v>
   <v>      -0.06098013      -0.02819438      -0.06606164 </v>
   <v>      -0.15800338       0.02401093      -0.05036326 </v>
   <v>       0.04182875      -0.76544479       0.05837029 </v>
   <v>      -0.02824324       0.03012399       0.32045520 </v>
  </varray>
  <energy>
   <i name="e_fr_energy">    -16.98999893 </i>
   <i name="e_wo_entrp">    -17.00178908 </i>
   <i name="e_0_energy">    -16.99392898 </i>
  </energy>
  <time name="totalsc">   64.27   65.30</time>
 </calculation>
 <calculation>
  <scstep>
   <time name="dav">    4.68    4.74</time>
   <time name="total">    8.06    8.16</time>
   <energy>
    <i name="alphaZ">      6.33530747 </i>
    <i name="ewald">   7584.30281187 </i>
    <i name="hartreedc"> -14637.06210254 </i>
    <i name="XCdc">    114.39721463 </i>
    <i name="pawpsdc">   7834.33636151 </i>
    <i name="pawaedc">  -7663.58301591 </i>
    <i name="eentropy">      0.01180175 </i>
    <i name="bandstr">   -664.37283994 </i>
    <i name="atom">   7408.64415014 </i>
    <i name="e_fr_energy">    -16.99031102 </i>
    <i name="e_wo_entrp">    -17.00211277 </i>
    <i name="e_0_energy">    -16.99424494 </i>
   </energy>
  </scstep>
  <scstep>
   <time name="dav">    4.98    4.98</time>
   <time name="total">    8.46    8.57</time>
   <energy>
    <i name="e_fr_energy">    -16.99116501 </i>
    <i name="e_wo_entrp">    -17.00296199 </i>
    <i name="e_0_energy">    -16.99509734 </i>
   </energy>
  </scstep>
  <scstep>
   <time name="dav">    5.26    5.52</time>
   <time name="total">    7.96    8.22</time>
   <energy>
    <i name="alphaZ">      6.33530747 </i>
    <i name="ewald">   7584.30281187 </i>
    <i name="hartreedc"> -14637.44450697 </i>
    <i name="XCdc">    114.40565834 </i>
    <i name="pawpsdc">   7828.15250182 </i>
    <i name="pawaedc">  -7657.32980497 </i>
    <i name="eentropy">      0.01180401 </i>
    <i name="bandstr">   -664.06907038 </i>
    <i name="atom">   7408.64415014 </i>
    <i name="e_fr_energy">    -16.99114868 </i>
    <i name="e_wo_entrp">    -17.00295269 </i>
    <i name="e_0_energy">    -16.99508335 </i>
   </energy>
  </scstep>
  <structure>
   <crystal>
    <varray name="basis" >
     <v>      22.64184993       0.00000000       0.00000000 </v>
     <v>       0.00000000      24.29442984       0.00000000 </v>
     <v>       0.00000000       0.00000000      21.39161369 </v>
    </varray>
    <i name="volume">  11766.90279774 </i>
    <varray name="rec_basis" >
     <v>       0.04416600       0.00000000       0.00000000 </v>
     <v>       0.00000000       0.04116170       0.00000000 </v>
     <v>       0.00000000       0.00000000       0.04674729 </v>
    </varray>
   </crystal>
   <varray name="positions" >
    <v>       0.57690854       0.62842036       0.42205329 </v>
    <v>       0.48647161       0.57168156       0.46279160 </v>
    <v>       0.60179658       0.55033213       0.50604816 </v>
    <v>       0.46391674       0.45874023       0.47334885 </v>
    <v>       0.52610604       0.37135223       0.44520530 </v>
    <v>       0.39830568       0.53327805       0.53383157 </v>
    <v>       0.58118223       0.44656403       0.51532597 </v>
    <v>       0.51050495       0.51706691       0.57774450 </v>
   </varray>
  </structure>
  <varray name="forces" >
   <v>      -0.05839789      -0.00726414      -0.03747473 </v>
   <v>       0.02825467       0.18850233      -0.06107326 </v>
   <v>       0.28854356       0.75685076      -0.08809386 </v>
   <v>      -0.03945276      -0.19022725      -0.03451498 </v>
   <v>      -0.05616300       0.02105405      -0.03706723 </v>
   <v>      -0.10834362       0.01406222      -0.06023040 </v>
   <v>       0.00066915      -0.81506010       0.03532652 </v>
   <v>      -0.05511010       0.03208213       0.28312793 </v>
  </varray>
  <energy>
   <i name="e_fr_energy">    -16.99114868 </i>
   <i name="e_wo_entrp">    -17.00295269 </i>
   <i name="e_0_energy">    -16.99508335 </i>
  </energy>
  <time name="totalsc">   32.80   33.30</time>
 </calculation>
 <calculation>
  <scstep>
   <time name="dav">    4.57    4.57</time>
   <time name="total">    8.00    8.01</time>
   <energy>
    <i name="alphaZ">      6.33530747 </i>
    <i name="ewald">   7500.35181128 </i>
    <i name="hartreedc"> -14554.70966313 </i>
    <i name="XCdc">    114.16429083 </i>
    <i name="pawpsdc">   7824.86810407 </i>
    <i name="pawaedc">  -7654.01182922 </i>
    <i name="eentropy">      0.01164161 </i>
    <i name="bandstr">   -662.66059791 </i>
    <i name="atom">   7408.64415014 </i>
    <i name="e_fr_energy">    -17.00678488 </i>
    <i name="e_wo_entrp">    -17.01842648 </i>
    <i name="e_0_energy">    -17.01066541 </i>
   </energy>
  </scstep>
  <scstep>
   <time name="dav">    4.91    4.91</time>
   <time name="total">    8.34    8.35</time>
   <energy>
    <i name="e_fr_energy">    -17.03208200 </i>
    <i name="e_wo_entrp">    -17.04373070 </i>
    <i name="e_0_energy">    -17.03596490 </i>
   </energy>
  </scstep>
  <scstep>
   <time name="dav">    4.91    4.91</time>
   <time name="total">    8.32    8.33</time>
   <energy>
    <i name="e_fr_energy">    -17.03083691 </i>
    <i name="e_wo_entrp">    -17.04249049 </i>
    <i name="e_0_energy">    -17.03472144 </i>
   </energy>
  </scstep>
  <scstep>
   <time name="dav">    4.80    4.80</time>
   <time name="total">    8.27    8.31</time>
   <energy>
    <i name="e_fr_energy">    -17.03097921 </i>
    <i name="e_wo_entrp">    -17.04263425 </i>
    <i name="e_0_energy">    -17.03486422 </i>
   </energy>
  </scstep>
  <scstep>
   <time name="dav">    5.11    5.25</time>
   <time name="total">    8.53    8.70</time>
   <energy>
    <i name="e_fr_energy">    -17.03080842 </i>
    <i name="e_wo_entrp">    -17.04246215 </i>
    <i name="e_0_energy">    -17.03469300 </i>
   </energy>
  </scstep>
  <scstep>
   <time name="dav">    3.70    3.72</time>
   <time name="total">    6.38    6.40</time>
   <energy>
    <i name="alphaZ">      6.33530747 </i>
    <i name="ewald">   7500.35181128 </i>
    <i name="hartreedc"> -14556.44014714 </i>
    <i name="XCdc">    114.20186513 </i>
    <i name="pawpsdc">   7782.29421872 </i>
    <i name="pawaedc">  -7611.00003355 </i>
    <i name="eentropy">      0.01165359 </i>
    <i name="bandstr">   -661.42963450 </i>
    <i name="atom">   7408.64415014 </i>
    <i name="e_fr_energy">    -17.03080888 </i>
    <i name="e_wo_entrp">    -17.04246246 </i>
    <i name="e_0_energy">    -17.03469340 </i>
   </energy>
  </scstep>
  <structure>
   <crystal>
    <varray name="basis" >
     <v>      22.64184993       0.00000000       0.00000000 </v>
     <v>       0.00000000      24.29442984       0.00000000 </v>
     <v>       0.00000000       0.00000000      21.39161369 </v>
    </varray>
    <i name="volume">  11766.90279774 </i>
    <varray name="rec_basis" >
     <v>       0.04416600       0.00000000       0.00000000 </v>
     <v>       0.00000000       0.04116170       0.00000000 </v>
     <v>       0.00000000       0.00000000       0.04674729 </v>
    </varray>
   </crystal>
   <varray name="positions" >
    <v>       0.57680721       0.62859531       0.42177489 </v>
    <v>       0.48643735       0.57212933       0.46255452 </v>
    <v>       0.60257066       0.55174207       0.50600524 </v>
    <v>       0.46371353       0.45831246       0.47318413 </v>
    <v>       0.52593108       0.37118573       0.44496396 </v>
    <v>       0.39784799       0.53334586       0.53370895 </v>
    <v>       0.58137199       0.44499969       0.51554755 </v>
    <v>       0.51051254       0.51712505       0.57860999 </v>
   </varray>
  </structure>
  <varray name="forces" >
   <v>      -0.04536772       0.04692410      -0.08467846 </v>
   <v>       0.00008982       0.02267268       0.07579689 </v>
   <v>      -0.00839517       0.10884227       0.07751270 </v>
   <v>      -0.00353395      -0.00577776       0.07336107 </v>
   <v>      -0.06436179      -0.04111715      -0.07573082 </v>
   <v>       0.06040688      -0.02200026      -0.12140591 </v>
   <v>      -0.04248627      -0.08669382       0.09352740 </v>
   <v>       0.10364821      -0.02285007      -0.03838286 </v>
  </varray>
  <energy>
   <i name="e_fr_energy">    -17.03080888 </i>
   <i name="e_wo_entrp">    -17.04246246 </i>
   <i name="e_0_energy">    -17.03469340 </i>
  </energy>
  <time name="totalsc">   56.08   56.46</time>
 </calculation>
 <calculation>
  <scstep>
   <time name="dav">    4.81    4.81</time>
   <time name="total">    8.44    8.65</time>
   <energy>
    <i name="alphaZ">      6.33530747 </i>
    <i name="ewald">   7490.25298458 </i>
    <i name="hartreedc"> -14546.48841750 </i>
    <i name="XCdc">    114.17379786 </i>
    <i name="pawpsdc">   7782.01841142 </i>
    <i name="pawaedc">  -7610.72272438 </i>
    <i name="eentropy">      0.01164408 </i>
    <i name="bandstr">   -661.25619140 </i>
    <i name="atom">   7408.64415014 </i>
    <i name="e_fr_energy">    -17.03103773 </i>
    <i name="e_wo_entrp">    -17.04268182 </i>
    <i name="e_0_energy">    -17.03491910 </i>
   </energy>
  </scstep>
  <scstep>
   <time name="dav">    5.22    5.40</time>
   <time name="total">    8.62    8.82</time>
   <energy>
    <i name="e_fr_energy">    -17.03141900 </i>
    <i name="e_wo_entrp">    -17.04306435 </i>
    <i name="e_0_energy">    -17.03530079 </i>
   </energy>
  </scstep>
  <scstep>
   <time name="dav">    4.05    4.11</time>
   <time name="total">    6.91    7.27</time>
   <energy>
    <i name="alphaZ">      6.33530747 </i>
    <i name="ewald">   7490.25298458 </i>
    <i name="hartreedc"> -14546.72432081 </i>
    <i name="XCdc">    114.17769437 </i>
    <i name="pawpsdc">   7778.86037054 </i>
    <i name="pawaedc">  -7607.52970380 </i>
    <i name="eentropy">      0.01164572 </i>
    <i name="bandstr">   -661.05953301 </i>
    <i name="atom">   7408.64415014 </i>
    <i name="e_fr_energy">    -17.03140481 </i>
    <i name="e_wo_entrp">    -17.04305053 </i>
    <i name="e_0_energy">    -17.03528672 </i>
   </energy>
  </scstep>
  <structure>
   <crystal>
    <varray name="basis" >
     <v>      22.64184993       0.00000000       0.00000000 </v>
     <v>       0.00000000      24.29442984       0.00000000 </v>
     <v>       0.00000000       0.00000000      21.39161369 </v>
    </varray>
    <i name="volume">  11766.90279774 </i>
    <varray name="rec_basis" >
     <v>       0.04416600       0.00000000       0.00000000 </v>
     <v>       0.00000000       0.04116170       0.00000000 </v>
     <v>       0.00000000       0.00000000       0.04674729 </v>
    </varray>
   </crystal>
   <varray name="positions" >
    <v>       0.57679487       0.62861663       0.42174098 </v>
    <v>       0.48643318       0.57218387       0.46252564 </v>
    <v>       0.60266496       0.55191383       0.50600001 </v>
    <v>       0.46368878       0.45826035       0.47316406 </v>
    <v>       0.52590977       0.37116545       0.44493456 </v>
    <v>       0.39779223       0.53335412       0.53369401 </v>
    <v>       0.58139511       0.44480912       0.51557454 </v>
    <v>       0.51051347       0.51713214       0.57871542 </v>
   </varray>
  </structure>
  <varray name="forces" >
   <v>      -0.04416836       0.05246695      -0.09108981 </v>
   <v>      -0.00426021       0.00296822       0.09179079 </v>
   <v>      -0.04025479       0.04162529       0.09787519 </v>
   <v>      -0.00019289       0.01644882       0.08586198 </v>
   <v>      -0.06536633      -0.04767975      -0.08123683 </v>
   <v>       0.08190053      -0.02664691      -0.12985852 </v>
   <v>      -0.04794466      -0.01028158       0.10273862 </v>
   <v>       0.12028672      -0.02890104      -0.07608142 </v>
  </varray>
  <energy>
   <i name="e_fr_energy">    -17.03140481 </i>
   <i name="e_wo_entrp">    -17.04305053 </i>
   <i name="e_0_energy">    -17.03528672 </i>
  </energy>
  <time name="totalsc">   32.94   33.95</time>
 </calculation>
 <calculation>
  <scstep>
   <time name="dav">    5.22    5.41</time>
   <time name="total">    8.58    8.80</time>
   <energy>
    <i name="alphaZ">      6.33530747 </i>
    <i name="ewald">   7489.67880108 </i>
    <i name="hartreedc"> -14546.24950913 </i>
    <i name="XCdc">    114.18083540 </i>
    <i name="pawpsdc">   7777.25761150 </i>
    <i name="pawaedc">  -7605.91083411 </i>
    <i name="eentropy">      0.01164003 </i>
    <i name="bandstr">   -660.98211651 </i>
    <i name="atom">   7408.64415014 </i>
    <i name="e_fr_energy">    -17.03411413 </i>
    <i name="e_wo_entrp">    -17.04575416 </i>
    <i name="e_0_energy">    -17.03799414 </i>
   </energy>
  </scstep>
  <scstep>
   <time name="dav">    5.02    5.02</time>
   <time name="total">    8.44    8.52</time>
   <energy>
    <i name="e_fr_energy">    -17.03628834 </i>
    <i name="e_wo_entrp">    -17.04792838 </i>
    <i name="e_0_energy">    -17.04016835 </i>
   </energy>
  </scstep>
  <scstep>
   <time name="dav">    5.02    5.02</time>
   <time name="total">    7.70    7.71</time>
   <energy>
    <i name="alphaZ">      6.33530747 </i>
    <i name="ewald">   7489.67880108 </i>
    <i name="hartreedc"> -14546.23960191 </i>
    <i name="XCdc">    114.18145799 </i>
    <i name="pawpsdc">   7777.33160614 </i>
    <i name="pawaedc">  -7605.98233816 </i>
    <i name="eentropy">      0.01164040 </i>
    <i name="bandstr">   -660.99723999 </i>
    <i name="atom">   7408.64415014 </i>
    <i name="e_fr_energy">    -17.03621684 </i>
    <i name="e_wo_entrp">    -17.04785724 </i>
    <i name="e_0_energy">    -17.04009697 </i>
   </energy>
  </scstep>
  <structure>
   <crystal>
    <varray name="basis" >
     <v>      22.64184993       0.00000000       0.00000000 </v>
     <v>       0.00000000      24.29442984       0.00000000 </v>
     <v>       0.00000000       0.00000000      21.39161369 </v>
    </varray>
    <i name="volume">  11766.90279774 </i>
    <varray name="rec_basis" >
     <v>       0.04416600       0.00000000       0.00000000 </v>
     <v>       0.00000000       0.04116170       0.00000000 </v>
     <v>       0.00000000       0.00000000       0.04674729 </v>
    </varray>
   </crystal>
   <varray name="positions" >
    <v>       0.57668930       0.62873861       0.42150588 </v>
    <v>       0.48642100       0.57222645       0.46272038 </v>
    <v>       0.60263934       0.55211418       0.50622476 </v>
    <v>       0.46367180       0.45825927       0.47335087 </v>
    <v>       0.52575150       0.37105398       0.44472546 </v>
    <v>       0.39793538       0.53330493       0.53338119 </v>
    <v>       0.58130494       0.44466055       0.51583218 </v>
    <v>       0.51077911       0.51707753       0.57860852 </v>
   </varray>
  </structure>
  <varray name="forces" >
   <v>      -0.04965015       0.01865653      -0.06131515 </v>
   <v>       0.03799435       0.03381829       0.05221082 </v>
   <v>      -0.02995343       0.03783771       0.06007792 </v>
   <v>       0.02744204      -0.03290070       0.05323424 </v>
   <v>      -0.05750182      -0.00991364      -0.05684967 </v>
   <v>       0.02999927      -0.01316172      -0.08431047 </v>
   <v>      -0.03848957      -0.01650442       0.06501478 </v>
   <v>       0.08015930      -0.01783205      -0.02806248 </v>
  </varray>
  <energy>
   <i name="e_fr_energy">    -17.03621684 </i>
   <i name="e_wo_entrp">    -17.04785724 </i>
   <i name="e_0_energy">    -17.04009697 </i>
  </energy>
  <time name="totalsc">   32.96   33.97</time>
 </calculation>
 <calculation>
  <scstep>
   <time name="dav">    5.45    5.50</time>
   <time name="total">    8.82    8.93</time>
   <energy>
    <i name="alphaZ">      6.33530747 </i>
    <i name="ewald">   7488.65109955 </i>
    <i name="hartreedc"> -14545.22372516 </i>
    <i name="XCdc">    114.18667425 </i>
    <i name="pawpsdc">   7777.42619162 </i>
    <i name="pawaedc">  -7606.07533634 </i>
    <i name="eentropy">      0.01163216 </i>
    <i name="bandstr">   -660.98908425 </i>
    <i name="atom">   7408.64415014 </i>
    <i name="e_fr_energy">    -17.03309056 </i>
    <i name="e_wo_entrp">    -17.04472272 </i>
    <i name="e_0_energy">    -17.03696794 </i>
   </energy>
  </scstep>
  <scstep>
   <time name="dav">    4.95    5.01</time>
   <time name="total">    8.34    8.43</time>
   <energy>
    <i name="e_fr_energy">    -17.04009874 </i>
    <i name="e_wo_entrp">    -17.05173074 </i>
    <i name="e_0_energy">    -17.04397607 </i>
   </energy>
  </scstep>
  <scstep>
   <time name="dav">    4.95    5.02</time>
   <time name="total">    8.41    8.52</time>
   <energy>
    <i name="e_fr_energy">    -17.03984229 </i>
    <i name="e_wo_entrp">    -17.05147487 </i>
    <i name="e_0_energy">    -17.04371982 </i>
   </energy>
  </scstep>
  <scstep>
   <time name="dav">    5.39    5.46</time>
   <time name="total">    8.06    8.15</time>
   <energy>
    <i name="alphaZ">      6.33530747 </i>
    <i name="ewald">   7488.65109955 </i>
    <i name="hartreedc"> -14545.24363694 </i>
    <i name="XCdc">    114.18773116 </i>
    <i name="pawpsdc">   7778.47910470 </i>
    <i name="pawaedc">  -7607.12334959 </i>
    <i name="eentropy">      0.01163288 </i>
    <i name="bandstr">   -660.98178285 </i>
    <i name="atom">   7408.64415014 </i>
    <i name="e_fr_energy">    -17.03974349 </i>
    <i name="e_wo_entrp">    -17.05137636 </i>
    <i name="e_0_energy">    -17.04362111 </i>
   </energy>
  </scstep>
  <structure>
   <crystal>
    <varray name="basis" >
     <v>      22.64184993       0.00000000       0.00000000 </v>
     <v>       0.00000000      24.29442984       0.00000000 </v>
     <v>       0.00000000       0.00000000      21.39161369 </v>
    </varray>
    <i name="volume">  11766.90279774 </i>
    <varray name="rec_basis" >
     <v>       0.04416600       0.00000000       0.00000000 </v>
     <v>       0.00000000       0.04116170       0.00000000 </v>
     <v>       0.00000000       0.00000000       0.04674729 </v>
    </varray>
   </crystal>
   <varray name="positions" >
    <v>       0.57649924       0.62895824       0.42108261 </v>
    <v>       0.48639908       0.57230311       0.46307098 </v>
    <v>       0.60259322       0.55247489       0.50662938 </v>
    <v>       0.46364123       0.45825732       0.47368719 </v>
    <v>       0.52546656       0.37085329       0.44434899 </v>
    <v>       0.39819311       0.53321637       0.53281801 </v>
    <v>       0.58114260       0.44439306       0.51629602 </v>
    <v>       0.51125735       0.51697922       0.57841606 </v>
   </varray>
  </structure>
  <varray name="forces" >
   <v>      -0.06442003      -0.03586963      -0.01069056 </v>
   <v>       0.11102981       0.08671475      -0.01031061 </v>
   <v>      -0.01893902       0.02798804       0.00039776 </v>
   <v>       0.07561333      -0.11686461       0.00256043 </v>
   <v>      -0.05028739       0.05350416      -0.01541174 </v>
   <v>      -0.05155056       0.00748953      -0.01837484 </v>
   <v>      -0.02724782      -0.02078150       0.00493102 </v>
   <v>       0.02580168      -0.00218074       0.04689854 </v>
  </varray>
  <energy>
   <i name="e_fr_energy">    -17.03974349 </i>
   <i name="e_wo_entrp">    -17.05137636 </i>
   <i name="e_0_energy">    -17.04362111 </i>
  </energy>
  <time name="totalsc">   41.87   42.42</time>
 </calculation>
 <calculation>
  <scstep>
   <time name="dav">    4.70    4.71</time>
   <time name="total">    8.26    8.29</time>
   <energy>
    <i name="alphaZ">      6.33530747 </i>
    <i name="ewald">   7487.06536081 </i>
    <i name="hartreedc"> -14543.67087114 </i>
    <i name="XCdc">    114.19070029 </i>
    <i name="pawpsdc">   7778.51207990 </i>
    <i name="pawaedc">  -7607.15565584 </i>
    <i name="eentropy">      0.01163270 </i>
    <i name="bandstr">   -660.97153175 </i>
    <i name="atom">   7408.64415014 </i>
    <i name="e_fr_energy">    -17.03882742 </i>
    <i name="e_wo_entrp">    -17.05046012 </i>
    <i name="e_0_energy">    -17.04270499 </i>
   </energy>
  </scstep>
  <scstep>
   <time name="dav">    5.15    5.21</time>
   <time name="total">    8.60    8.77</time>
   <energy>
    <i name="e_fr_energy">    -17.04198192 </i>
    <i name="e_wo_entrp">    -17.05361335 </i>
    <i name="e_0_energy">    -17.04585907 </i>
   </energy>
  </scstep>
  <scstep>
   <time name="dav">    5.00    5.02</time>
   <time name="total">    8.48    8.60</time>
   <energy>
    <i name="e_fr_energy">    -17.04188725 </i>
    <i name="e_wo_entrp">    -17.05351921 </i>
    <i name="e_0_energy">    -17.04576457 </i>
   </energy>
  </scstep>
  <scstep>
   <time name="dav">    3.65    3.66</time>
   <time name="total">    6.33    6.34</time>
   <energy>
    <i name="alphaZ">      6.33530747 </i>
    <i name="ewald">   7487.06536081 </i>
    <i name="hartreedc"> -14543.74818358 </i>
    <i name="XCdc">    114.19116932 </i>
    <i name="pawpsdc">   7779.76162108 </i>
    <i name="pawaedc">  -7608.41392669 </i>
    <i name="eentropy">      0.01163202 </i>
    <i name="bandstr">   -660.88898377 </i>
    <i name="atom">   7408.64415014 </i>
    <i name="e_fr_energy">    -17.04185321 </i>
    <i name="e_wo_entrp">    -17.05348523 </i>
    <i name="e_0_energy">    -17.04573055 </i>
   </energy>
  </scstep>
  <structure>
   <crystal>
    <varray name="basis" >
     <v>      22.64184993       0.00000000       0.00000000 </v>
     <v>       0.00000000      24.29442984       0.00000000 </v>
     <v>       0.00000000       0.00000000      21.39161369 </v>
    </varray>
    <i name="volume">  11766.90279774 </i>
    <varray name="rec_basis" >
     <v>       0.04416600       0.00000000       0.00000000 </v>
     <v>       0.00000000       0.04116170       0.00000000 </v>
     <v>       0.00000000       0.00000000       0.04674729 </v>
    </varray>
   </crystal>
   <varray name="positions" >
    <v>       0.57623514       0.62894017       0.42089045 </v>
    <v>       0.48672359       0.57257394       0.46316935 </v>
    <v>       0.60251922       0.55268791       0.50678192 </v>
    <v>       0.46385637       0.45793023       0.47382105 </v>
    <v>       0.52520934       0.37092769       0.44415936 </v>
    <v>       0.39813499       0.53320418       0.53254917 </v>
    <v>       0.58100026       0.44423502       0.51648507 </v>
    <v>       0.51151346       0.51693638       0.57849285 </v>
   </varray>
  </structure>
  <varray name="forces" >
   <v>       0.00080366      -0.00177197      -0.03064204 </v>
   <v>       0.00489642       0.00371153       0.03576481 </v>
   <v>       0.00184986      -0.00781972      -0.01049301 </v>
   <v>       0.00718974       0.00399469       0.03293487 </v>
   <v>      -0.00121257      -0.00407402      -0.02829763 </v>
   <v>       0.01287815      -0.00599619      -0.03869038 </v>
   <v>       0.00433055       0.00343136      -0.01061277 </v>
   <v>      -0.03073583       0.00852433       0.05003615 </v>
  </varray>
  <energy>
   <i name="e_fr_energy">    -17.04185321 </i>
   <i name="e_wo_entrp">    -17.05348523 </i>
   <i name="e_0_energy">    -17.04573055 </i>
  </energy>
  <time name="totalsc">   40.33   41.13</time>
 </calculation>
 <calculation>
  <scstep>
   <time name="dav">    4.81    4.91</time>
   <time name="total">    8.22    8.34</time>
   <energy>
    <i name="alphaZ">      6.33530747 </i>
    <i name="ewald">   7486.89546354 </i>
    <i name="hartreedc"> -14543.58814658 </i>
    <i name="XCdc">    114.19170051 </i>
    <i name="pawpsdc">   7779.76982875 </i>
    <i name="pawaedc">  -7608.42301406 </i>
    <i name="eentropy">      0.01163203 </i>
    <i name="bandstr">   -660.87874493 </i>
    <i name="atom">   7408.64415014 </i>
    <i name="e_fr_energy">    -17.04182312 </i>
    <i name="e_wo_entrp">    -17.05345515 </i>
    <i name="e_0_energy">    -17.04570046 </i>
   </energy>
  </scstep>
  <scstep>
   <time name="dav">    5.27    5.33</time>
   <time name="total">    7.93    8.02</time>
   <energy>
    <i name="alphaZ">      6.33530747 </i>
    <i name="ewald">   7486.89546354 </i>
    <i name="hartreedc"> -14543.59591218 </i>
    <i name="XCdc">    114.19174111 </i>
    <i name="pawpsdc">   7779.80823692 </i>
    <i name="pawaedc">  -7608.46193023 </i>
    <i name="eentropy">      0.01163192 </i>
    <i name="bandstr">   -660.87054776 </i>
    <i name="atom">   7408.64415014 </i>
    <i name="e_fr_energy">    -17.04185906 </i>
    <i name="e_wo_entrp">    -17.05349098 </i>
    <i name="e_0_energy">    -17.04573637 </i>
   </energy>
  </scstep>
  <structure>
   <crystal>
    <varray name="basis" >
     <v>      22.64184993       0.00000000       0.00000000 </v>
     <v>       0.00000000      24.29442984       0.00000000 </v>
     <v>       0.00000000       0.00000000      21.39161369 </v>
    </varray>
    <i name="volume">  11766.90279774 </i>
    <varray name="rec_basis" >
     <v>       0.04416600       0.00000000       0.00000000 </v>
     <v>       0.00000000       0.04116170       0.00000000 </v>
     <v>       0.00000000       0.00000000       0.04674729 </v>
    </varray>
   </crystal>
   <varray name="positions" >
    <v>       0.57620647       0.62893821       0.42086959 </v>
    <v>       0.48675882       0.57260334       0.46318003 </v>
    <v>       0.60251119       0.55271103       0.50679848 </v>
    <v>       0.46387973       0.45789472       0.47383558 </v>
    <v>       0.52518141       0.37093576       0.44413877 </v>
    <v>       0.39812868       0.53320285       0.53251999 </v>
    <v>       0.58098480       0.44421786       0.51650560 </v>
    <v>       0.51154126       0.51693172       0.57850119 </v>
   </varray>
  </structure>
  <varray name="forces" >
   <v>       0.02113219       0.00478971      -0.02247640 </v>
   <v>      -0.02235741      -0.01826562       0.03480228 </v>
   <v>       0.00747712      -0.02250892      -0.01876664 </v>
   <v>      -0.01125326       0.03278410       0.02892075 </v>
   <v>       0.01646764      -0.01582662      -0.01935922 </v>
   <v>       0.02329564      -0.00687845      -0.02799276 </v>
   <v>       0.01430281       0.01408198      -0.02108609 </v>
   <v>      -0.04906473       0.01182382       0.04595808 </v>
  </varray>
  <energy>
   <i name="e_fr_energy">    -17.04185906 </i>
   <i name="e_wo_entrp">    -17.05349098 </i>
   <i name="e_0_energy">    -17.04573637 </i>
  </energy>
  <time name="totalsc">   24.73   25.23</time>
 </calculation>
 <calculation>
  <scstep>
   <time name="dav">    4.98    5.15</time>
   <time name="total">    8.47    8.81</time>
   <energy>
    <i name="alphaZ">      6.33530747 </i>
    <i name="ewald">   7486.03117845 </i>
    <i name="hartreedc"> -14542.73913787 </i>
    <i name="XCdc">    114.18666248 </i>
    <i name="pawpsdc">   7779.78756303 </i>
    <i name="pawaedc">  -7608.44156311 </i>
    <i name="eentropy">      0.01163027 </i>
    <i name="bandstr">   -660.85761311 </i>
    <i name="atom">   7408.64415014 </i>
    <i name="e_fr_energy">    -17.04182225 </i>
    <i name="e_wo_entrp">    -17.05345252 </i>
    <i name="e_0_energy">    -17.04569901 </i>
   </energy>
  </scstep>
  <scstep>
   <time name="dav">    5.03    5.05</time>
   <time name="total">    8.71    8.95</time>
   <energy>
    <i name="e_fr_energy">    -17.04226044 </i>
    <i name="e_wo_entrp">    -17.05389106 </i>
    <i name="e_0_energy">    -17.04613731 </i>
   </energy>
  </scstep>
  <scstep>
   <time name="dav">    3.88    3.88</time>
   <time name="total">    6.57    6.65</time>
   <energy>
    <i name="alphaZ">      6.33530747 </i>
    <i name="ewald">   7486.03117845 </i>
    <i name="hartreedc"> -14542.74459056 </i>
    <i name="XCdc">    114.18720083 </i>
    <i name="pawpsdc">   7778.96583311 </i>
    <i name="pawaedc">  -7607.61309630 </i>
    <i name="eentropy">      0.01163059 </i>
    <i name="bandstr">   -660.85985894 </i>
    <i name="atom">   7408.64415014 </i>
    <i name="e_fr_energy">    -17.04224523 </i>
    <i name="e_wo_entrp">    -17.05387582 </i>
    <i name="e_0_energy">    -17.04612209 </i>
   </energy>
  </scstep>
  <structure>
   <crystal>
    <varray name="basis" >
     <v>      22.64184993       0.00000000       0.00000000 </v>
     <v>       0.00000000      24.29442984       0.00000000 </v>
     <v>       0.00000000       0.00000000      21.39161369 </v>
    </varray>
    <i name="volume">  11766.90279774 </i>
    <varray name="rec_basis" >
     <v>       0.04416600       0.00000000       0.00000000 </v>
     <v>       0.00000000       0.04116170       0.00000000 </v>
     <v>       0.00000000       0.00000000       0.04674729 </v>
    </varray>
   </crystal>
   <varray name="positions" >
    <v>       0.57627117       0.62895188       0.42079676 </v>
    <v>       0.48669037       0.57255122       0.46329281 </v>
    <v>       0.60253408       0.55264681       0.50673767 </v>
    <v>       0.46384528       0.45798826       0.47392930 </v>
    <v>       0.52523183       0.37089060       0.44407604 </v>
    <v>       0.39820000       0.53318323       0.53242927 </v>
    <v>       0.58102859       0.44425804       0.51643727 </v>
    <v>       0.51139105       0.51696546       0.57865012 </v>
   </varray>
  </structure>
  <varray name="forces" >
   <v>      -0.01838762      -0.02175048      -0.00574556 </v>
   <v>       0.04896559       0.03389971       0.00051069 </v>
   <v>      -0.01636641       0.00127862      -0.00552616 </v>
   <v>       0.03578921      -0.04596501       0.00486376 </v>
   <v>      -0.01111285       0.02497127      -0.00801190 </v>
   <v>      -0.03558648       0.00612017      -0.00302844 </v>
   <v>      -0.01557393       0.00257623      -0.00495669 </v>
   <v>       0.01227248      -0.00113051       0.02189429 </v>
  </varray>
  <energy>
   <i name="e_fr_energy">    -17.04224523 </i>
   <i name="e_wo_entrp">    -17.05387582 </i>
   <i name="e_0_energy">    -17.04612209 </i>
  </energy>
  <time name="totalsc">   32.03   32.75</time>
 </calculation>
 <calculation>
  <scstep>
   <time name="dav">    4.73    4.80</time>
   <time name="total">    8.19    8.35</time>
   <energy>
    <i name="alphaZ">      6.33530747 </i>
    <i name="ewald">   7486.25236533 </i>
    <i name="hartreedc"> -14542.97424861 </i>
    <i name="XCdc">    114.18859025 </i>
    <i name="pawpsdc">   7778.69894287 </i>
    <i name="pawaedc">  -7607.34272456 </i>
    <i name="eentropy">      0.01163108 </i>
    <i name="bandstr">   -660.85622533 </i>
    <i name="atom">   7408.64415014 </i>
    <i name="e_fr_energy">    -17.04221135 </i>
    <i name="e_wo_entrp">    -17.05384244 </i>
    <i name="e_0_energy">    -17.04608838 </i>
   </energy>
  </scstep>
  <scstep>
   <time name="dav">    3.72    3.79</time>
   <time name="total">    6.40    6.48</time>
   <energy>
    <i name="alphaZ">      6.33530747 </i>
    <i name="ewald">   7486.25236533 </i>
    <i name="hartreedc"> -14542.97577302 </i>
    <i name="XCdc">    114.18846039 </i>
    <i name="pawpsdc">   7778.84266922 </i>
    <i name="pawaedc">  -7607.48723489 </i>
    <i name="eentropy">      0.01163096 </i>
    <i name="bandstr">   -660.85381451 </i>
    <i name="atom">   7408.64415014 </i>
    <i name="e_fr_energy">    -17.04223891 </i>
    <i name="e_wo_entrp">    -17.05386987 </i>
    <i name="e_0_energy">    -17.04611590 </i>
   </energy>
  </scstep>
  <structure>
   <crystal>
    <varray name="basis" >
     <v>      22.64184993       0.00000000       0.00000000 </v>
     <v>       0.00000000      24.29442984       0.00000000 </v>
     <v>       0.00000000       0.00000000      21.39161369 </v>
    </varray>
    <i name="volume">  11766.90279774 </i>
    <varray name="rec_basis" >
     <v>       0.04416600       0.00000000       0.00000000 </v>
     <v>       0.00000000       0.04116170       0.00000000 </v>
     <v>       0.00000000       0.00000000       0.04674729 </v>
    </varray>
   </crystal>
   <varray name="positions" >
    <v>       0.57625449       0.62894835       0.42081554 </v>
    <v>       0.48670802       0.57256466       0.46326373 </v>
    <v>       0.60252818       0.55266337       0.50675335 </v>
    <v>       0.46385416       0.45796414       0.47390513 </v>
    <v>       0.52521883       0.37090225       0.44409222 </v>
    <v>       0.39818161       0.53318829       0.53245266 </v>
    <v>       0.58101730       0.44424768       0.51645489 </v>
    <v>       0.51142978       0.51695676       0.57861171 </v>
   </varray>
  </structure>
  <varray name="forces" >
   <v>      -0.00220472      -0.01231943      -0.02041034 </v>
   <v>       0.02347320       0.01463611       0.02479294 </v>
   <v>      -0.00730569      -0.01193971      -0.01538976 </v>
   <v>       0.02046447      -0.01428305       0.02421546 </v>
   <v>      -0.00002440       0.00816546      -0.01989579 </v>
   <v>      -0.00981852      -0.00054312      -0.02448151 </v>
   <v>      -0.00285602       0.00960409      -0.01627781 </v>
   <v>      -0.02172833       0.00667966       0.04744680 </v>
  </varray>
  <energy>
   <i name="e_fr_energy">    -17.04223891 </i>
   <i name="e_wo_entrp">    -17.05386987 </i>
   <i name="e_0_energy">    -17.04611590 </i>
  </energy>
  <time name="totalsc">   22.51   23.04</time>
  <eigenvalues>
   <array>
    <dimension dim="1">band</dimension>
    <dimension dim="2">kpoint</dimension>
    <dimension dim="3">spin</dimension>
    <field>eigene</field>
    <field>occ</field>
    <set>
     <set comment="spin 1">
      <set comment="kpoint 1">
       <r>  -10.8223    1.0000 </r>
       <r>   -9.9444    1.0000 </r>
       <r>   -9.7326    1.0000 </r>
       <r>   -9.6340    1.0000 </r>
       <r>   -9.1878    1.0000 </r>
       <r>   -9.0184    1.0000 </r>
       <r>   -8.9520    1.0000 </r>
       <r>   -8.8334    1.0000 </r>
       <r>   -8.6378    1.0000 </r>
       <r>   -8.5278    1.0000 </r>
       <r>   -8.3769    1.0000 </r>
       <r>   -8.2663    1.0000 </r>
       <r>   -8.2630    1.0000 </r>
       <r>   -8.1501    1.0000 </r>
       <r>   -8.0495    1.0000 </r>
       <r>   -7.9623    1.0000 </r>
       <r>   -7.7550    1.0000 </r>
       <r>   -7.7291    1.0000 </r>
       <r>   -7.5051    1.0000 </r>
       <r>   -7.4768    1.0000 </r>
       <r>   -7.4061    1.0000 </r>
       <r>   -7.2718    1.0000 </r>
       <r>   -7.2131    1.0000 </r>
       <r>   -7.1084    1.0000 </r>
       <r>   -7.0989    1.0000 </r>
       <r>   -6.9870    1.0000 </r>
       <r>   -6.7990    1.0000 </r>
       <r>   -6.7615    1.0000 </r>
       <r>   -6.7544    1.0000 </r>
       <r>   -6.6973    1.0000 </r>
       <r>   -6.6951    1.0000 </r>
       <r>   -6.6649    1.0000 </r>
       <r>   -6.5836    1.0000 </r>
       <r>   -6.5510    1.0000 </r>
       <r>   -6.4869    1.0000 </r>
       <r>   -6.4515    1.0000 </r>
       <r>   -6.3670    1.0000 </r>
       <r>   -6.3320    1.0000 </r>
       <r>   -6.1448    1.0000 </r>
       <r>   -6.0308    1.0000 </r>
       <r>   -5.9969    1.0000 </r>
       <r>   -5.9367    1.0000 </r>
       <r>   -5.8668    1.0000 </r>
       <r>   -5.3967    1.0000 </r>
       <r>   -3.9293   -0.0000 </r>
       <r>   -3.7126   -0.0000 </r>
       <r>   -3.5653   -0.0000 </r>
       <r>   -3.3047   -0.0000 </r>
       <r>   -1.8356   -0.0000 </r>
       <r>   -1.5080   -0.0000 </r>
       <r>   -1.3001   -0.0000 </r>
       <r>   -1.2436   -0.0000 </r>
       <r>   -0.8315   -0.0000 </r>
       <r>   -0.4613   -0.0000 </r>
       <r>   -0.3044   -0.0000 </r>
       <r>    0.0081   -0.0000 </r>
      </set>
     </set>
     <set comment="spin 2">
      <set comment="kpoint 1">
       <r>  -10.8223    1.0000 </r>
       <r>   -9.9444    1.0000 </r>
       <r>   -9.7326    1.0000 </r>
       <r>   -9.6340    1.0000 </r>
       <r>   -9.1878    1.0000 </r>
       <r>   -9.0184    1.0000 </r>
       <r>   -8.9520    1.0000 </r>
       <r>   -8.8334    1.0000 </r>
       <r>   -8.6378    1.0000 </r>
       <r>   -8.5278    1.0000 </r>
       <r>   -8.3769    1.0000 </r>
       <r>   -8.2663    1.0000 </r>
       <r>   -8.2630    1.0000 </r>
       <r>   -8.1501    1.0000 </r>
       <r>   -8.0495    1.0000 </r>
       <r>   -7.9623    1.0000 </r>
       <r>   -7.7550    1.0000 </r>
       <r>   -7.7291    1.0000 </r>
       <r>   -7.5051    1.0000 </r>
       <r>   -7.4768    1.0000 </r>
       <r>   -7.4061    1.0000 </r>
       <r>   -7.2718    1.0000 </r>
       <r>   -7.2131    1.0000 </r>
       <r>   -7.1084    1.0000 </r>
       <r>   -7.0989    1.0000 </r>
       <r>   -6.9870    1.0000 </r>
       <r>   -6.7990    1.0000 </r>
       <r>   -6.7615    1.0000 </r>
       <r>   -6.7544    1.0000 </r>
       <r>   -6.6973    1.0000 </r>
       <r>   -6.6951    1.0000 </r>
       <r>   -6.6649    1.0000 </r>
       <r>   -6.5836    1.0000 </r>
       <r>   -6.5510    1.0000 </r>
       <r>   -6.4869    1.0000 </r>
       <r>   -6.4515    1.0000 </r>
       <r>   -6.3670    1.0000 </r>
       <r>   -6.3320    1.0000 </r>
       <r>   -6.1448    1.0000 </r>
       <r>   -6.0308    1.0000 </r>
       <r>   -5.9969    1.0000 </r>
       <r>   -5.9367    1.0000 </r>
       <r>   -5.8668    1.0000 </r>
       <r>   -5.3967    1.0000 </r>
       <r>   -3.9293   -0.0000 </r>
       <r>   -3.7126   -0.0000 </r>
       <r>   -3.5653   -0.0000 </r>
       <r>   -3.3047   -0.0000 </r>
       <r>   -1.8356   -0.0000 </r>
       <r>   -1.5080   -0.0000 </r>
       <r>   -1.3001   -0.0000 </r>
       <r>   -1.2436   -0.0000 </r>
       <r>   -0.8315   -0.0000 </r>
       <r>   -0.4613   -0.0000 </r>
       <r>   -0.3044   -0.0000 </r>
       <r>    0.0081   -0.0000 </r>
      </set>
     </set>
    </set>
   </array>
  </eigenvalues>
  <separator name="orbital magnetization" >
   <v name="MAGDIPOLOUT">      0.00000000      0.00000000      0.00000000</v>
  </separator>
  <dos>
   <i name="efermi">     -5.22838625 </i>
   <total>
    <array>
     <dimension dim="1">gridpoints</dimension>
     <dimension dim="2">spin</dimension>
     <field>energy</field>
     <field>total</field>
     <field>integrated</field>
     <set>
      <set comment="spin 1">
       <r>   -12.8223     0.0000     0.0000 </r>
       <r>   -12.7729     0.0000     0.0000 </r>
       <r>   -12.7234     0.0000     0.0000 </r>
       <r>   -12.6740     0.0000     0.0000 </r>
       <r>   -12.6246     0.0000     0.0000 </r>
       <r>   -12.5751     0.0000     0.0000 </r>
       <r>   -12.5257     0.0000     0.0000 </r>
       <r>   -12.4763     0.0000     0.0000 </r>
       <r>   -12.4268    -0.0000    -0.0000 </r>
       <r>   -12.3774    -0.0000    -0.0000 </r>
       <r>   -12.3280    -0.0000    -0.0000 </r>
       <r>   -12.2785    -0.0000    -0.0000 </r>
       <r>   -12.2291    -0.0000    -0.0000 </r>
       <r>   -12.1797    -0.0000    -0.0000 </r>
       <r>   -12.1302    -0.0000    -0.0000 </r>
       <r>   -12.0808    -0.0000    -0.0000 </r>
       <r>   -12.0314    -0.0000    -0.0000 </r>
       <r>   -11.9819    -0.0000    -0.0000 </r>
       <r>   -11.9325    -0.0000    -0.0000 </r>
       <r>   -11.8831    -0.0000    -0.0000 </r>
       <r>   -11.8336    -0.0000    -0.0000 </r>
       <r>   -11.7842    -0.0000    -0.0000 </r>
       <r>   -11.7348    -0.0000    -0.0000 </r>
       <r>   -11.6853    -0.0000    -0.0000 </r>
       <r>   -11.6359    -0.0000    -0.0000 </r>
       <r>   -11.5865    -0.0000    -0.0000 </r>
       <r>   -11.5370    -0.0000    -0.0000 </r>
       <r>   -11.4876    -0.0002    -0.0000 </r>
       <r>   -11.4381    -0.0009    -0.0001 </r>
       <r>   -11.3887    -0.0035    -0.0002 </r>
       <r>   -11.3393    -0.0112    -0.0008 </r>
       <r>   -11.2898    -0.0310    -0.0023 </r>
       <r>   -11.2404    -0.0725    -0.0059 </r>
       <r>   -11.1910    -0.1400    -0.0128 </r>
       <r>   -11.1415    -0.2108    -0.0232 </r>
       <r>   -11.0921    -0.2067    -0.0335 </r>
       <r>   -11.0427     0.0150    -0.0327 </r>
       <r>   -10.9932     0.6068    -0.0027 </r>
       <r>   -10.9438     1.6064     0.0767 </r>
       <r>   -10.8944     2.8174     0.2160 </r>
       <r>   -10.8449     3.8238     0.4050 </r>
       <r>   -10.7955     4.1950     0.6124 </r>
       <r>   -10.7461     3.7578     0.7981 </r>
       <r>   -10.6966     2.7155     0.9324 </r>
       <r>   -10.6472     1.5084     1.0069 </r>
       <r>   -10.5978     0.5394     1.0336 </r>
       <r>   -10.5483    -0.0178     1.0327 </r>
       <r>   -10.4989    -0.2178     1.0220 </r>
       <r>   -10.4495    -0.2207     1.0110 </r>
       <r>   -10.4000    -0.1724     1.0025 </r>
       <r>   -10.3506    -0.1555     0.9948 </r>
       <r>   -10.3011    -0.1907     0.9854 </r>
       <r>   -10.2517    -0.2429     0.9734 </r>
       <r>   -10.2023    -0.2156     0.9627 </r>
       <r>   -10.1528     0.0379     0.9646 </r>
       <r>   -10.1034     0.6472     0.9966 </r>
       <r>   -10.0540     1.6137     1.0764 </r>
       <r>   -10.0045     2.7502     1.2123 </r>
       <r>    -9.9551     3.7740     1.3989 </r>
       <r>    -9.9057     4.5241     1.6225 </r>
       <r>    -9.8562     5.1035     1.8748 </r>
       <r>    -9.8068     5.7626     2.1597 </r>
       <r>    -9.7574     6.5923     2.4856 </r>
       <r>    -9.7079     7.3247     2.8477 </r>
       <r>    -9.6585     7.4664     3.2168 </r>
       <r>    -9.6091     6.6684     3.5464 </r>
       <r>    -9.5596     5.0121     3.7942 </r>
       <r>    -9.5102     2.9872     3.9419 </r>
       <r>    -9.4608     1.2197     4.0022 </r>
       <r>    -9.4113     0.1844     4.0113 </r>
       <r>    -9.3619     0.0674     4.0146 </r>
       <r>    -9.3125     0.7800     4.0532 </r>
       <r>    -9.2630     2.0511     4.1546 </r>
       <r>    -9.2136     3.5569     4.3304 </r>
       <r>    -9.1642     5.0627     4.5807 </r>
       <r>    -9.1147     6.4899     4.9015 </r>
       <r>    -9.0653     7.8315     5.2887 </r>
       <r>    -9.0158     8.9838     5.7328 </r>
       <r>    -8.9664     9.6847     6.2115 </r>
       <r>    -8.9170     9.6620     6.6892 </r>
       <r>    -8.8675     8.8751     7.1279 </r>
       <r>    -8.8181     7.6301     7.5051 </r>
       <r>    -8.7687     6.4566     7.8243 </r>
       <r>    -8.7192     5.8199     8.1120 </r>
       <r>    -8.6698     5.8599     8.4017 </r>
       <r>    -8.6204     6.3453     8.7154 </r>
       <r>    -8.5709     6.8921     9.0561 </r>
       <r>    -8.5215     7.2932     9.4166 </r>
       <r>    -8.4721     7.6857     9.7965 </r>
       <r>    -8.4226     8.4030    10.2119 </r>
       <r>    -8.3732     9.6280    10.6879 </r>
       <r>    -8.3238    11.1531    11.2392 </r>
       <r>    -8.2743    12.4682    11.8556 </r>
       <r>    -8.2249    13.1064    12.5035 </r>
       <r>    -8.1755    12.9405    13.1432 </r>
       <r>    -8.1260    12.1807    13.7454 </r>
       <r>    -8.0766    11.1245    14.2953 </r>
       <r>    -8.0272     9.9482    14.7871 </r>
       <r>    -7.9777     8.7459    15.2195 </r>
       <r>    -7.9283     7.7036    15.6003 </r>
       <r>    -7.8788     7.1146    15.9520 </r>
       <r>    -7.8294     7.1327    16.3046 </r>
       <r>    -7.7800     7.5393    16.6773 </r>
       <r>    -7.7305     7.8747    17.0666 </r>
       <r>    -7.6811     7.8924    17.4567 </r>
       <r>    -7.6317     7.8533    17.8450 </r>
       <r>    -7.5822     8.2763    18.2541 </r>
       <r>    -7.5328     9.3613    18.7169 </r>
       <r>    -7.4834    10.7105    19.2463 </r>
       <r>    -7.4339    11.6678    19.8231 </r>
       <r>    -7.3845    11.9256    20.4127 </r>
       <r>    -7.3351    11.7780    20.9949 </r>
       <r>    -7.2856    11.8022    21.5783 </r>
       <r>    -7.2362    12.3162    22.1872 </r>
       <r>    -7.1868    13.0957    22.8346 </r>
       <r>    -7.1373    13.5282    23.5033 </r>
       <r>    -7.0879    13.0429    24.1481 </r>
       <r>    -7.0385    11.5507    24.7191 </r>
       <r>    -6.9890     9.6698    25.1971 </r>
       <r>    -6.9396     8.5723    25.6209 </r>
       <r>    -6.8902     9.4190    26.0865 </r>
       <r>    -6.8407    12.6208    26.7104 </r>
       <r>    -6.7913    17.4155    27.5714 </r>
       <r>    -6.7419    22.1619    28.6669 </r>
       <r>    -6.6924    25.2488    29.9151 </r>
       <r>    -6.6430    25.9789    31.1994 </r>
       <r>    -6.5935    24.7800    32.4243 </r>
       <r>    -6.5441    22.6628    33.5447 </r>
       <r>    -6.4947    20.4462    34.5554 </r>
       <r>    -6.4452    18.3480    35.4625 </r>
       <r>    -6.3958    16.1326    36.2600 </r>
       <r>    -6.3464    13.5715    36.9309 </r>
       <r>    -6.2969    10.8280    37.4661 </r>
       <r>    -6.2475     8.5056    37.8866 </r>
       <r>    -6.1981     7.3459    38.2498 </r>
       <r>    -6.1486     7.7840    38.6345 </r>
       <r>    -6.0992     9.6454    39.1114 </r>
       <r>    -6.0498    12.1565    39.7123 </r>
       <r>    -6.0003    14.2429    40.4164 </r>
       <r>    -5.9509    14.9609    41.1560 </r>
       <r>    -5.9015    13.8710    41.8417 </r>
       <r>    -5.8520    11.1915    42.3950 </r>
       <r>    -5.8026     7.6631    42.7738 </r>
       <r>    -5.7532     4.2007    42.9814 </r>
       <r>    -5.7037     1.5320    43.0572 </r>
       <r>    -5.6543     0.0117    43.0578 </r>
       <r>    -5.6049    -0.3462    43.0406 </r>
       <r>    -5.5554     0.2573    43.0534 </r>
       <r>    -5.5060     1.4825    43.1267 </r>
       <r>    -5.4565     2.8630    43.2682 </r>
       <r>    -5.4071     3.8722    43.4596 </r>
       <r>    -5.3577     4.1134    43.6629 </r>
       <r>    -5.3082     3.5248    43.8372 </r>
       <r>    -5.2588     2.4089    43.9563 </r>
       <r>    -5.2094     1.2340    44.0173 </r>
       <r>    -5.1599     0.3623    44.0352 </r>
       <r>    -5.1105    -0.0932    44.0306 </r>
       <r>    -5.0611    -0.2241    44.0195 </r>
       <r>    -5.0116    -0.1903    44.0101 </r>
       <r>    -4.9622    -0.1152    44.0044 </r>
       <r>    -4.9128    -0.0558    44.0016 </r>
       <r>    -4.8633    -0.0225    44.0005 </r>
       <r>    -4.8139    -0.0077    44.0001 </r>
       <r>    -4.7645    -0.0023    44.0000 </r>
       <r>    -4.7150    -0.0006    44.0000 </r>
       <r>    -4.6656    -0.0002    44.0000 </r>
       <r>    -4.6162    -0.0001    44.0000 </r>
       <r>    -4.5667    -0.0005    44.0000 </r>
       <r>    -4.5173    -0.0020    43.9999 </r>
       <r>    -4.4679    -0.0069    43.9995 </r>
       <r>    -4.4184    -0.0203    43.9985 </r>
       <r>    -4.3690    -0.0514    43.9960 </r>
       <r>    -4.3196    -0.1090    43.9906 </r>
       <r>    -4.2701    -0.1873    43.9813 </r>
       <r>    -4.2207    -0.2395    43.9695 </r>
       <r>    -4.1712    -0.1572    43.9617 </r>
       <r>    -4.1218     0.2084    43.9720 </r>
       <r>    -4.0724     0.9578    44.0194 </r>
       <r>    -4.0229     2.0288    44.1197 </r>
       <r>    -3.9735     3.1676    44.2763 </r>
       <r>    -3.9241     4.0649    44.4772 </r>
       <r>    -3.8746     4.5793    44.7036 </r>
       <r>    -3.8252     4.8427    44.9430 </r>
       <r>    -3.7758     5.1250    45.1963 </r>
       <r>    -3.7263     5.5716    45.4718 </r>
       <r>    -3.6769     6.0583    45.7713 </r>
       <r>    -3.6275     6.2853    46.0820 </r>
       <r>    -3.5780     6.0201    46.3796 </r>
[...]
       <r>    -1.9467     1.8035    48.0970 </r>
       <r>    -1.8973     2.9519    48.2429 </r>
       <r>    -1.8478     3.7751    48.4295 </r>
       <r>    -1.7984     3.9218    48.6234 </r>
       <r>    -1.7489     3.4027    48.7916 </r>
       <r>    -1.6995     2.6334    48.9218 </r>
       <r>    -1.6501     2.1661    49.0289 </r>
       <r>    -1.6006     2.3150    49.1433 </r>
       <r>    -1.5512     2.9984    49.2915 </r>
       <r>    -1.5018     3.9221    49.4854 </r>
       <r>    -1.4523     4.8965    49.7275 </r>
       <r>    -1.4029     5.9412    50.0212 </r>
       <r>    -1.3535     7.0653    50.3705 </r>
       <r>    -1.3040     7.9912    50.7655 </r>
       <r>    -1.2546     8.1917    51.1705 </r>
       <r>    -1.2052     7.2777    51.5302 </r>
       <r>    -1.1557     5.3778    51.7961 </r>
       <r>    -1.1063     3.1488    51.9517 </r>
       <r>    -1.0569     1.4130    52.0216 </r>
       <r>    -1.0074     0.7254    52.0575 </r>
       <r>    -0.9580     1.1411    52.1139 </r>
       <r>    -0.9086     2.2400    52.2246 </r>
       <r>    -0.8591     3.3442    52.3899 </r>
       <r>    -0.8097     3.8418    52.5798 </r>
       <r>    -0.7603     3.4959    52.7527 </r>
       <r>    -0.7108     2.5691    52.8797 </r>
       <r>    -0.6614     1.6636    52.9619 </r>
       <r>    -0.6120     1.3680    53.0295 </r>
       <r>    -0.5625     1.9351    53.1252 </r>
       <r>    -0.5131     3.1835    53.2826 </r>
       <r>    -0.4636     4.6390    53.5119 </r>
       <r>    -0.4142     5.7858    53.7979 </r>
       <r>    -0.3648     6.2641    54.1076 </r>
       <r>    -0.3153     5.9563    54.4020 </r>
       <r>    -0.2659     5.0048    54.6494 </r>
       <r>    -0.2165     3.7932    54.8369 </r>
       <r>    -0.1670     2.8350    54.9771 </r>
       <r>    -0.1176     2.5308    55.1022 </r>
       <r>    -0.0682     2.9075    55.2459 </r>
       <r>    -0.0187     3.5642    55.4221 </r>
       <r>     0.0307     3.9225    55.6160 </r>
       <r>     0.0801     3.6135    55.7947 </r>
       <r>     0.1296     2.6949    55.9279 </r>
       <r>     0.1790     1.5482    56.0044 </r>
       <r>     0.2284     0.5835    56.0333 </r>
       <r>     0.2779     0.0071    56.0336 </r>
       <r>     0.3273    -0.2090    56.0233 </r>
       <r>     0.3767    -0.2114    56.0128 </r>
       <r>     0.4262    -0.1401    56.0059 </r>
       <r>     0.4756    -0.0725    56.0023 </r>
       <r>     0.5250    -0.0310    56.0008 </r>
       <r>     0.5745    -0.0112    56.0002 </r>
       <r>     0.6239    -0.0035    56.0001 </r>
       <r>     0.6734    -0.0009    56.0000 </r>
       <r>     0.7228    -0.0002    56.0000 </r>
       <r>     0.7722    -0.0000    56.0000 </r>
       <r>     0.8217    -0.0000    56.0000 </r>
       <r>     0.8711    -0.0000    56.0000 </r>
       <r>     0.9205    -0.0000    56.0000 </r>
       <r>     0.9700    -0.0000    56.0000 </r>
       <r>     1.0194    -0.0000    56.0000 </r>
       <r>     1.0688    -0.0000    56.0000 </r>
       <r>     1.1183    -0.0000    56.0000 </r>
       <r>     1.1677    -0.0000    56.0000 </r>
       <r>     1.2171    -0.0000    56.0000 </r>
       <r>     1.2666    -0.0000    56.0000 </r>
       <r>     1.3160     0.0000    56.0000 </r>
       <r>     1.3654     0.0000    56.0000 </r>
       <r>     1.4149     0.0000    56.0000 </r>
       <r>     1.4643     0.0000    56.0000 </r>
       <r>     1.5137     0.0000    56.0000 </r>
       <r>     1.5632     0.0000    56.0000 </r>
       <r>     1.6126     0.0000    56.0000 </r>
       <r>     1.6620     0.0000    56.0000 </r>
       <r>     1.7115     0.0000    56.0000 </r>
       <r>     1.7609     0.0000    56.0000 </r>
       <r>     1.8103     0.0000    56.0000 </r>
       <r>     1.8598     0.0000    56.0000 </r>
       <r>     1.9092     0.0000    56.0000 </r>
       <r>     1.9587     0.0000    56.0000 </r>
       <r>     2.0081     0.0000    56.0000 </r>
      </set>
      <set comment="spin 2">
       <r>   -12.8223     0.0000     0.0000 </r>
       <r>   -12.7729     0.0000     0.0000 </r>
       <r>   -12.7234     0.0000     0.0000 </r>
       <r>   -12.6740     0.0000     0.0000 </r>
       <r>   -12.6246     0.0000     0.0000 </r>
       <r>   -12.5751     0.0000     0.0000 </r>
       <r>   -12.5257     0.0000     0.0000 </r>
       <r>   -12.4763     0.0000     0.0000 </r>
       <r>   -12.4268    -0.0000    -0.0000 </r>
       <r>   -12.3774    -0.0000    -0.0000 </r>
       <r>   -12.3280    -0.0000    -0.0000 </r>
       <r>   -12.2785    -0.0000    -0.0000 </r>
       <r>   -12.2291    -0.0000    -0.0000 </r>
       <r>   -12.1797    -0.0000    -0.0000 </r>
       <r>   -12.1302    -0.0000    -0.0000 </r>
       <r>   -12.0808    -0.0000    -0.0000 </r>
       <r>   -12.0314    -0.0000    -0.0000 </r>
       <r>   -11.9819    -0.0000    -0.0000 </r>
       <r>   -11.9325    -0.0000    -0.0000 </r>
       <r>   -11.8831    -0.0000    -0.0000 </r>
       <r>   -11.8336    -0.0000    -0.0000 </r>
       <r>   -11.7842    -0.0000    -0.0000 </r>
       <r>   -11.7348    -0.0000    -0.0000 </r>
       <r>   -11.6853    -0.0000    -0.0000 </r>
       <r>   -11.6359    -0.0000    -0.0000 </r>
       <r>   -11.5865    -0.0000    -0.0000 </r>
       <r>   -11.5370    -0.0000    -0.0000 </r>
       <r>   -11.4876    -0.0002    -0.0000 </r>
       <r>   -11.4381    -0.0009    -0.0001 </r>
       <r>   -11.3887    -0.0035    -0.0002 </r>
       <r>   -11.3393    -0.0112    -0.0008 </r>
       <r>   -11.2898    -0.0310    -0.0023 </r>
       <r>   -11.2404    -0.0725    -0.0059 </r>
       <r>   -11.1910    -0.1400    -0.0128 </r>
       <r>   -11.1415    -0.2108    -0.0232 </r>
       <r>   -11.0921    -0.2067    -0.0335 </r>
       <r>   -11.0427     0.0150    -0.0327 </r>
       <r>   -10.9932     0.6068    -0.0027 </r>
       <r>   -10.9438     1.6064     0.0767 </r>
       <r>   -10.8944     2.8174     0.2160 </r>
       <r>   -10.8449     3.8238     0.4050 </r>
       <r>   -10.7955     4.1950     0.6124 </r>
       <r>   -10.7461     3.7578     0.7981 </r>
       <r>   -10.6966     2.7155     0.9324 </r>
       <r>   -10.6472     1.5084     1.0069 </r>
       <r>   -10.5978     0.5394     1.0336 </r>
       <r>   -10.5483    -0.0178     1.0327 </r>
       <r>   -10.4989    -0.2178     1.0220 </r>
       <r>   -10.4495    -0.2207     1.0110 </r>
       <r>   -10.4000    -0.1724     1.0025 </r>
       <r>   -10.3506    -0.1555     0.9948 </r>
       <r>   -10.3011    -0.1907     0.9854 </r>
       <r>   -10.2517    -0.2429     0.9734 </r>
       <r>   -10.2023    -0.2156     0.9627 </r>
       <r>   -10.1528     0.0379     0.9646 </r>
       <r>   -10.1034     0.6472     0.9966 </r>
       <r>   -10.0540     1.6137     1.0764 </r>
       <r>   -10.0045     2.7502     1.2123 </r>
       <r>    -9.9551     3.7740     1.3989 </r>
       <r>    -9.9057     4.5241     1.6225 </r>
       <r>    -9.8562     5.1035     1.8748 </r>
       <r>    -9.8068     5.7626     2.1597 </r>
       <r>    -9.7574     6.5923     2.4856 </r>
       <r>    -9.7079     7.3247     2.8477 </r>
       <r>    -9.6585     7.4664     3.2168 </r>
       <r>    -9.6091     6.6684     3.5464 </r>
       <r>    -9.5596     5.0121     3.7942 </r>
       <r>    -9.5102     2.9872     3.9419 </r>
       <r>    -9.4608     1.2197     4.0022 </r>
       <r>    -9.4113     0.1844     4.0113 </r>
       <r>    -9.3619     0.0674     4.0146 </r>
       <r>    -9.3125     0.7800     4.0532 </r>
       <r>    -9.2630     2.0511     4.1546 </r>
       <r>    -9.2136     3.5569     4.3304 </r>
       <r>    -9.1642     5.0627     4.5807 </r>
       <r>    -9.1147     6.4899     4.9015 </r>
       <r>    -9.0653     7.8315     5.2887 </r>
       <r>    -9.0158     8.9838     5.7328 </r>
       <r>    -8.9664     9.6847     6.2115 </r>
       <r>    -8.9170     9.6620     6.6892 </r>
       <r>    -8.8675     8.8751     7.1279 </r>
       <r>    -8.8181     7.6301     7.5051 </r>
       <r>    -8.7687     6.4566     7.8243 </r>
       <r>    -8.7192     5.8199     8.1120 </r>
       <r>    -8.6698     5.8599     8.4017 </r>
       <r>    -8.6204     6.3453     8.7154 </r>
       <r>    -8.5709     6.8921     9.0561 </r>
       <r>    -8.5215     7.2932     9.4166 </r>
       <r>    -8.4721     7.6857     9.7965 </r>
       <r>    -8.4226     8.4030    10.2119 </r>
       <r>    -8.3732     9.6280    10.6879 </r>
       <r>    -8.3238    11.1531    11.2392 </r>
       <r>    -8.2743    12.4682    11.8556 </r>
       <r>    -8.2249    13.1064    12.5035 </r>
       <r>    -8.1755    12.9405    13.1432 </r>
       <r>    -8.1260    12.1807    13.7454 </r>
       <r>    -8.0766    11.1245    14.2953 </r>
       <r>    -8.0272     9.9482    14.7871 </r>
       <r>    -7.9777     8.7459    15.2195 </r>
       <r>    -7.9283     7.7036    15.6003 </r>
       <r>    -7.8788     7.1146    15.9520 </r>
       <r>    -7.8294     7.1327    16.3046 </r>
       <r>    -7.7800     7.5393    16.6773 </r>
       <r>    -7.7305     7.8747    17.0666 </r>
       <r>    -7.6811     7.8924    17.4567 </r>
       <r>    -7.6317     7.8533    17.8450 </r>
       <r>    -7.5822     8.2763    18.2541 </r>
       <r>    -7.5328     9.3613    18.7169 </r>
       <r>    -7.4834    10.7105    19.2463 </r>
       <r>    -7.4339    11.6678    19.8231 </r>
       <r>    -7.3845    11.9256    20.4127 </r>
       <r>    -7.3351    11.7780    20.9949 </r>
       <r>    -7.2856    11.8022    21.5783 </r>
       <r>    -7.2362    12.3162    22.1872 </r>
       <r>    -7.1868    13.0957    22.8346 </r>
       <r>    -7.1373    13.5282    23.5033 </r>
       <r>    -7.0879    13.0429    24.1481 </r>
       <r>    -7.0385    11.5507    24.7191 </r>
       <r>    -6.9890     9.6698    25.1971 </r>
       <r>    -6.9396     8.5723    25.6209 </r>
       <r>    -6.8902     9.4190    26.0865 </r>
       <r>    -6.8407    12.6208    26.7104 </r>
       <r>    -6.7913    17.4155    27.5714 </r>
       <r>    -6.7419    22.1619    28.6669 </r>
       <r>    -6.6924    25.2488    29.9151 </r>
       <r>    -6.6430    25.9789    31.1994 </r>
       <r>    -6.5935    24.7800    32.4243 </r>
       <r>    -6.5441    22.6628    33.5447 </r>
       <r>    -6.4947    20.4462    34.5554 </r>
       <r>    -6.4452    18.3480    35.4625 </r>
       <r>    -6.3958    16.1326    36.2600 </r>
       <r>    -6.3464    13.5715    36.9309 </r>
       <r>    -6.2969    10.8280    37.4661 </r>
       <r>    -6.2475     8.5056    37.8866 </r>
       <r>    -6.1981     7.3459    38.2498 </r>
       <r>    -6.1486     7.7840    38.6345 </r>
       <r>    -6.0992     9.6454    39.1114 </r>
       <r>    -6.0498    12.1565    39.7123 </r>
       <r>    -6.0003    14.2429    40.4164 </r>
       <r>    -5.9509    14.9609    41.1560 </r>
       <r>    -5.9015    13.8710    41.8417 </r>
       <r>    -5.8520    11.1915    42.3950 </r>
       <r>    -5.8026     7.6631    42.7738 </r>
       <r>    -5.7532     4.2007    42.9814 </r>
       <r>    -5.7037     1.5320    43.0572 </r>
       <r>    -5.6543     0.0117    43.0578 </r>
       <r>    -5.6049    -0.3462    43.0406 </r>
       <r>    -5.5554     0.2573    43.0534 </r>
       <r>    -5.5060     1.4825    43.1267 </r>
       <r>    -5.4565     2.8630    43.2682 </r>
       <r>    -5.4071     3.8722    43.4596 </r>
       <r>    -5.3577     4.1134    43.6629 </r>
       <r>    -5.3082     3.5248    43.8372 </r>
       <r>    -5.2588     2.4089    43.9563 </r>
       <r>    -5.2094     1.2340    44.0173 </r>
       <r>    -5.1599     0.3623    44.0352 </r>
       <r>    -5.1105    -0.0932    44.0306 </r>
       <r>    -5.0611    -0.2241    44.0195 </r>
       <r>    -5.0116    -0.1903    44.0101 </r>
       <r>    -4.9622    -0.1152    44.0044 </r>
       <r>    -4.9128    -0.0558    44.0016 </r>
       <r>    -4.8633    -0.0225    44.0005 </r>
       <r>    -4.8139    -0.0077    44.0001 </r>
       <r>    -4.7645    -0.0023    44.0000 </r>
       <r>    -4.7150    -0.0006    44.0000 </r>
       <r>    -4.6656    -0.0002    44.0000 </r>
       <r>    -4.6162    -0.0001    44.0000 </r>
       <r>    -4.5667    -0.0005    44.0000 </r>
       <r>    -4.5173    -0.0020    43.9999 </r>
       <r>    -4.4679    -0.0069    43.9995 </r>
       <r>    -4.4184    -0.0203    43.9985 </r>
       <r>    -4.3690    -0.0514    43.9960 </r>
       <r>    -4.3196    -0.1090    43.9906 </r>
       <r>    -4.2701    -0.1873    43.9813 </r>
       <r>    -4.2207    -0.2395    43.9695 </r>
       <r>    -4.1712    -0.1572    43.9617 </r>
       <r>    -4.1218     0.2084    43.9720 </r>
       <r>    -4.0724     0.9578    44.0194 </r>
       <r>    -4.0229     2.0288    44.1197 </r>
       <r>    -3.9735     3.1676    44.2763 </r>
       <r>    -3.9241     4.0649    44.4772 </r>
       <r>    -3.8746     4.5793    44.7036 </r>
       <r>    -3.8252     4.8427    44.9430 </r>
       <r>    -3.7758     5.1250    45.1963 </r>
       <r>    -3.7263     5.5716    45.4718 </r>
       <r>    -3.6769     6.0583    45.7713 </r>
       <r>    -3.6275     6.2853    46.0820 </r>
       <r>    -3.5780     6.0201    46.3796 </r>
       <r>    -3.5286     5.3003    46.6416 </r>
       <r>    -3.4792     4.4503    46.8616 </r>
       <r>    -3.4297     3.8790    47.0533 </r>
       <r>    -3.3803     3.7794    47.2402 </r>
       <r>    -3.3309     3.9628    47.4361 </r>
       <r>    -3.2814     3.9937    47.6335 </r>
       <r>    -3.2320     3.5316    47.8081 </r>
       <r>    -3.1826     2.5837    47.9358 </r>
       <r>    -3.1331     1.4639    48.0082 </r>
       <r>    -3.0837     0.5355    48.0346 </r>
       <r>    -3.0343    -0.0143    48.0339 </r>
       <r>    -2.9848    -0.2161    48.0233 </r>
       <r>    -2.9354    -0.2126    48.0127 </r>
       <r>    -2.8859    -0.1396    48.0058 </r>
       <r>    -2.8365    -0.0719    48.0023 </r>
       <r>    -2.7871    -0.0306    48.0008 </r>
       <r>    -2.7376    -0.0111    48.0002 </r>
       <r>    -2.6882    -0.0034    48.0001 </r>
       <r>    -2.6388    -0.0009    48.0000 </r>
       <r>    -2.5893    -0.0002    48.0000 </r>
       <r>    -2.5399    -0.0001    48.0000 </r>
       <r>    -2.4905    -0.0003    48.0000 </r>
       <r>    -2.4410    -0.0012    47.9999 </r>
       <r>    -2.3916    -0.0045    47.9997 </r>
       <r>    -2.3422    -0.0141    47.9990 </r>
       <r>    -2.2927    -0.0376    47.9971 </r>
       <r>    -2.2433    -0.0848    47.9929 </r>
       <r>    -2.1939    -0.1564    47.9852 </r>
       <r>    -2.1444    -0.2206    47.9743 </r>
       <r>    -2.0950    -0.1857    47.9651 </r>
       <r>    -2.0456     0.0981    47.9700 </r>
       <r>    -1.9961     0.7656    48.0078 </r>
       <r>    -1.9467     1.8035    48.0970 </r>
       <r>    -1.8973     2.9519    48.2429 </r>
       <r>    -1.8478     3.7751    48.4295 </r>
       <r>    -1.7984     3.9218    48.6234 </r>
       <r>    -1.7489     3.4027    48.7916 </r>
       <r>    -1.6995     2.6334    48.9218 </r>
       <r>    -1.6501     2.1661    49.0289 </r>
       <r>    -1.6006     2.3150    49.1433 </r>
       <r>    -1.5512     2.9984    49.2915 </r>
       <r>    -1.5018     3.9221    49.4854 </r>
       <r>    -1.4523     4.8964    49.7275 </r>
       <r>    -1.4029     5.9412    50.0212 </r>
       <r>    -1.3535     7.0653    50.3705 </r>
       <r>    -1.3040     7.9911    50.7655 </r>
       <r>    -1.2546     8.1918    51.1705 </r>
       <r>    -1.2052     7.2777    51.5302 </r>
       <r>    -1.1557     5.3778    51.7961 </r>
       <r>    -1.1063     3.1488    51.9517 </r>
       <r>    -1.0569     1.4130    52.0216 </r>
       <r>    -1.0074     0.7254    52.0575 </r>
       <r>    -0.9580     1.1410    52.1139 </r>
       <r>    -0.9086     2.2399    52.2246 </r>
       <r>    -0.8591     3.3442    52.3899 </r>
       <r>    -0.8097     3.8418    52.5798 </r>
       <r>    -0.7603     3.4960    52.7526 </r>
       <r>    -0.7108     2.5691    52.8796 </r>
       <r>    -0.6614     1.6637    52.9619 </r>
       <r>    -0.6120     1.3679    53.0295 </r>
       <r>    -0.5625     1.9351    53.1252 </r>
       <r>    -0.5131     3.1834    53.2825 </r>
       <r>    -0.4636     4.6390    53.5119 </r>
       <r>    -0.4142     5.7858    53.7979 </r>
       <r>    -0.3648     6.2641    54.1076 </r>
       <r>    -0.3153     5.9563    54.4020 </r>
       <r>    -0.2659     5.0048    54.6494 </r>
       <r>    -0.2165     3.7932    54.8369 </r>
       <r>    -0.1670     2.8351    54.9771 </r>
       <r>    -0.1176     2.5309    55.1022 </r>
       <r>    -0.0682     2.9076    55.2459 </r>
       <r>    -0.0187     3.5642    55.4221 </r>
       <r>     0.0307     3.9225    55.6160 </r>
       <r>     0.0801     3.6135    55.7947 </r>
       <r>     0.1296     2.6949    55.9279 </r>
       <r>     0.1790     1.5482    56.0044 </r>
       <r>     0.2284     0.5835    56.0333 </r>
       <r>     0.2779     0.0071    56.0336 </r>
       <r>     0.3273    -0.2090    56.0233 </r>
       <r>     0.3767    -0.2114    56.0128 </r>
       <r>     0.4262    -0.1401    56.0059 </r>
       <r>     0.4756    -0.0725    56.0023 </r>
       <r>     0.5250    -0.0310    56.0008 </r>
       <r>     0.5745    -0.0112    56.0002 </r>
       <r>     0.6239    -0.0035    56.0001 </r>
       <r>     0.6734    -0.0009    56.0000 </r>
       <r>     0.7228    -0.0002    56.0000 </r>
       <r>     0.7722    -0.0000    56.0000 </r>
       <r>     0.8217    -0.0000    56.0000 </r>
       <r>     0.8711    -0.0000    56.0000 </r>
       <r>     0.9205    -0.0000    56.0000 </r>
       <r>     0.9700    -0.0000    56.0000 </r>
       <r>     1.0194    -0.0000    56.0000 </r>
       <r>     1.0688    -0.0000    56.0000 </r>
       <r>     1.1183    -0.0000    56.0000 </r>
       <r>     1.1677    -0.0000    56.0000 </r>
       <r>     1.2171    -0.0000    56.0000 </r>
       <r>     1.2666    -0.0000    56.0000 </r>
       <r>     1.3160     0.0000    56.0000 </r>
       <r>     1.3654     0.0000    56.0000 </r>
       <r>     1.4149     0.0000    56.0000 </r>
       <r>     1.4643     0.0000    56.0000 </r>
       <r>     1.5137     0.0000    56.0000 </r>
       <r>     1.5632     0.0000    56.0000 </r>
       <r>     1.6126     0.0000    56.0000 </r>
       <r>     1.6620     0.0000    56.0000 </r>
       <r>     1.7115     0.0000    56.0000 </r>
       <r>     1.7609     0.0000    56.0000 </r>
       <r>     1.8103     0.0000    56.0000 </r>
       <r>     1.8598     0.0000    56.0000 </r>
       <r>     1.9092     0.0000    56.0000 </r>
       <r>     1.9587     0.0000    56.0000 </r>
       <r>     2.0081     0.0000    56.0000 </r>
      </set>
     </set>
    </array>
   </total>
  </dos>
 </calculation>
 <structure name="finalpos" >
  <crystal>
   <varray name="basis" >
    <v>      22.64184993       0.00000000       0.00000000 </v>
    <v>       0.00000000      24.29442984       0.00000000 </v>
    <v>       0.00000000       0.00000000      21.39161369 </v>
   </varray>
   <i name="volume">  11766.90279774 </i>
   <varray name="rec_basis" >
    <v>       0.04416600       0.00000000       0.00000000 </v>
    <v>       0.00000000       0.04116170       0.00000000 </v>
    <v>       0.00000000       0.00000000       0.04674729 </v>
   </varray>
  </crystal>
  <varray name="positions" >
   <v>       0.57625449       0.62894835       0.42081554 </v>
   <v>       0.48670802       0.57256466       0.46326373 </v>
   <v>       0.60252818       0.55266337       0.50675335 </v>
   <v>       0.46385416       0.45796414       0.47390513 </v>
   <v>       0.52521883       0.37090225       0.44409222 </v>
   <v>       0.39818161       0.53318829       0.53245266 </v>
   <v>       0.58101730       0.44424768       0.51645489 </v>
   <v>       0.51142978       0.51695676       0.57861171 </v>
  </varray>
 </structure>
</modeling>
