  10  10   0   0
  0.1065379E+04  0.2170314E-08  0.2202496E-08  0.2228776E-08  0.5000000E-15
   1.0000000000000000E-004
  CAR 
 unknown system                          
      1.98648079    -11.96733256  301     -3.86878470      1.00000000
    -11.967  0.0000E+00  0.0000E+00  0.0000E+00  0.0000E+00
    -11.921  0.0000E+00  0.0000E+00  0.0000E+00  0.0000E+00
    -11.874  0.0000E+00  0.0000E+00  0.0000E+00  0.0000E+00
    -11.828  0.0000E+00  0.0000E+00  0.0000E+00  0.0000E+00
    -11.781  0.0000E+00  0.0000E+00  0.0000E+00  0.0000E+00
    -11.735  0.0000E+00  0.0000E+00  0.0000E+00  0.0000E+00
    -11.688  0.0000E+00  0.0000E+00  0.0000E+00  0.0000E+00
    -11.642  0.0000E+00  0.0000E+00  0.0000E+00  0.0000E+00
    -11.595 -0.8334E-30 -0.4630E-30 -0.3876E-31 -0.2154E-31
    -11.549 -0.3297E-28 -0.1864E-28 -0.1572E-29 -0.8885E-30
    -11.502 -0.1196E-26 -0.6876E-27 -0.5719E-28 -0.3287E-28
    -11.456 -0.3887E-25 -0.2274E-25 -0.1865E-26 -0.1090E-26
    -11.409 -0.1132E-23 -0.6738E-24 -0.5453E-25 -0.3243E-25
    -11.363 -0.2956E-22 -0.1790E-22 -0.1430E-23 -0.8648E-24
    -11.316 -0.6916E-21 -0.4259E-21 -0.3360E-22 -0.2067E-22
    -11.270 -0.1449E-19 -0.9081E-20 -0.7078E-21 -0.4430E-21
    -11.223 -0.2721E-18 -0.1734E-18 -0.1336E-19 -0.8510E-20
    -11.177 -0.4575E-17 -0.2967E-17 -0.2262E-18 -0.1465E-18
    -11.130 -0.6650E-16 -0.4425E-16 -0.3319E-17 -0.2205E-17
    -11.084 -0.8986E-15 -0.6029E-15 -0.4511E-16 -0.3025E-16
    -11.037 -0.1081E-13 -0.7388E-14 -0.5480E-15 -0.3739E-15
    -10.991 -0.1163E-12 -0.8086E-13 -0.5957E-14 -0.4135E-14
    -10.944 -0.1118E-11 -0.7912E-12 -0.5797E-13 -0.4094E-13
    -10.898 -0.9607E-11 -0.6919E-11 -0.5048E-12 -0.3627E-12
    -10.851 -0.7370E-10 -0.5403E-10 -0.3933E-11 -0.2876E-11
    -10.805 -0.5045E-09 -0.3765E-09 -0.2740E-10 -0.2039E-10
    -10.758 -0.3078E-08 -0.2339E-08 -0.1706E-09 -0.1292E-09
    -10.711 -0.1673E-07 -0.1294E-07 -0.9486E-09 -0.7312E-09
    -10.665 -0.8082E-07 -0.6370E-07 -0.4708E-08 -0.3694E-08
    -10.618 -0.3466E-06 -0.2783E-06 -0.2083E-07 -0.1664E-07
    -10.572 -0.1316E-05 -0.1077E-05 -0.8203E-07 -0.6675E-07
    -10.525 -0.4408E-05 -0.3681E-05 -0.2871E-06 -0.2380E-06
    -10.479 -0.1297E-04 -0.1106E-04 -0.8903E-06 -0.7522E-06
    -10.432 -0.3326E-04 -0.2899E-04 -0.2437E-05 -0.2100E-05
    -10.386 -0.7349E-04 -0.6562E-04 -0.5855E-05 -0.5153E-05
    -10.339 -0.1369E-03 -0.1258E-03 -0.1222E-04 -0.1101E-04
    -10.293 -0.2056E-03 -0.1964E-03 -0.2179E-04 -0.2014E-04
    -10.246 -0.2184E-03 -0.2242E-03 -0.3195E-04 -0.3057E-04
    -10.200 -0.6154E-04 -0.1028E-03 -0.3481E-04 -0.3535E-04
    -10.153  0.3989E-03  0.3027E-03 -0.1626E-04 -0.2127E-04
    -10.107  0.1231E-02  0.1078E-02  0.4102E-04  0.2889E-04
    -10.060  0.2339E-02  0.2158E-02  0.1498E-03  0.1292E-03
    -10.014  0.3426E-02  0.3273E-02  0.3091E-03  0.2815E-03
     -9.967  0.4107E-02  0.4042E-02  0.5002E-03  0.4695E-03
     -9.921  0.4107E-02  0.4155E-02  0.6912E-03  0.6628E-03
     -9.874  0.3424E-02  0.3567E-02  0.8505E-03  0.8287E-03
     -9.828  0.2336E-02  0.2517E-02  0.9591E-03  0.9458E-03
     -9.781  0.1229E-02  0.1389E-02  0.1016E-02  0.1010E-02
     -9.735  0.3976E-03  0.5030E-03  0.1035E-02  0.1034E-02
     -9.688 -0.6212E-04 -0.1340E-04  0.1032E-02  0.1033E-02
     -9.642 -0.2185E-03 -0.2087E-03  0.1022E-02  0.1023E-02
     -9.595 -0.2055E-03 -0.2135E-03  0.1012E-02  0.1014E-02
     -9.549 -0.1368E-03 -0.1481E-03  0.1006E-02  0.1007E-02
     -9.502 -0.7338E-04 -0.8185E-04  0.1002E-02  0.1003E-02
     -9.456 -0.3320E-04 -0.3796E-04  0.1001E-02  0.1001E-02
     -9.409 -0.1294E-04 -0.1513E-04  0.1000E-02  0.1000E-02
     -9.363 -0.4398E-05 -0.5251E-05  0.1000E-02  0.1000E-02
     -9.316 -0.1313E-05 -0.1598E-05  0.1000E-02  0.1000E-02
     -9.270 -0.3456E-06 -0.4291E-06  0.1000E-02  0.1000E-02
     -9.223 -0.8058E-07 -0.1019E-06  0.1000E-02  0.1000E-02
     -9.177 -0.1673E-07 -0.2149E-07  0.1000E-02  0.1000E-02
     -9.130 -0.3461E-08 -0.4026E-08  0.1000E-02  0.1000E-02
     -9.084 -0.2942E-08 -0.6719E-09  0.1000E-02  0.1000E-02
     -9.037 -0.1354E-07 -0.1024E-09  0.1000E-02  0.1000E-02
     -8.991 -0.6610E-07 -0.3399E-10  0.1000E-02  0.1000E-02
     -8.944 -0.2881E-06 -0.1541E-09  0.1000E-02  0.1000E-02
     -8.897 -0.1113E-05 -0.1001E-08  0.9999E-03  0.1000E-02
     -8.851 -0.3797E-05 -0.5851E-08  0.9998E-03  0.1000E-02
     -8.804 -0.1139E-04 -0.3045E-07  0.9992E-03  0.1000E-02
     -8.758 -0.2989E-04 -0.1408E-06  0.9978E-03  0.1000E-02
     -8.711 -0.6788E-04 -0.5776E-06  0.9947E-03  0.1000E-02
     -8.665 -0.1313E-03 -0.2096E-05  0.9886E-03  0.9999E-03
     -8.618 -0.2092E-03 -0.6704E-05  0.9788E-03  0.9996E-03
     -8.572 -0.2532E-03 -0.1880E-04  0.9671E-03  0.9987E-03
     -8.525 -0.1641E-03 -0.4589E-04  0.9594E-03  0.9965E-03
     -8.479  0.1888E-03 -0.9618E-04  0.9682E-03  0.9921E-03
     -8.432  0.9026E-03 -0.1691E-03  0.1010E-02  0.9842E-03
     -8.386  0.1960E-02 -0.2369E-03  0.1101E-02  0.9732E-03
     -8.339  0.3197E-02 -0.2250E-03  0.1250E-02  0.9627E-03
     -8.293  0.4361E-02 -0.1360E-04  0.1453E-02  0.9621E-03
     -8.246  0.5225E-02  0.5178E-03  0.1696E-02  0.9862E-03
     -8.200  0.5669E-02  0.1409E-02  0.1960E-02  0.1052E-02
     -8.153  0.5664E-02  0.2556E-02  0.2223E-02  0.1171E-02
     -8.107  0.5222E-02  0.3729E-02  0.2466E-02  0.1344E-02
     -8.060  0.4407E-02  0.4691E-02  0.2671E-02  0.1562E-02
     -8.014  0.3409E-02  0.5303E-02  0.2829E-02  0.1809E-02
     -7.967  0.2550E-02  0.5554E-02  0.2948E-02  0.2067E-02
     -7.921  0.2159E-02  0.5466E-02  0.3049E-02  0.2321E-02
     -7.874  0.2351E-02  0.5028E-02  0.3158E-02  0.2555E-02
     -7.828  0.2912E-02  0.4219E-02  0.3293E-02  0.2752E-02
     -7.781  0.3419E-02  0.3103E-02  0.3452E-02  0.2896E-02
     -7.735  0.3538E-02  0.1873E-02  0.3617E-02  0.2983E-02
     -7.688  0.3288E-02  0.7753E-03  0.3770E-02  0.3019E-02
     -7.642  0.3058E-02 -0.2667E-05  0.3912E-02  0.3019E-02
     -7.595  0.3346E-02 -0.3791E-03  0.4068E-02  0.3001E-02
     -7.549  0.4414E-02 -0.3380E-03  0.4273E-02  0.2986E-02
     -7.502  0.6088E-02  0.1267E-03  0.4556E-02  0.2991E-02
     -7.456  0.7836E-02  0.9950E-03  0.4921E-02  0.3038E-02
     -7.409  0.9070E-02  0.2138E-02  0.5343E-02  0.3137E-02
     -7.363  0.9488E-02  0.3261E-02  0.5784E-02  0.3289E-02
     -7.316  0.9261E-02  0.3969E-02  0.6215E-02  0.3473E-02
     -7.270  0.8947E-02  0.3957E-02  0.6631E-02  0.3658E-02
     -7.223  0.9166E-02  0.3195E-02  0.7057E-02  0.3806E-02
     -7.177  0.1022E-01  0.1980E-02  0.7532E-02  0.3898E-02
     -7.130  0.1191E-01  0.8289E-03  0.8087E-02  0.3937E-02
     -7.083  0.1371E-01  0.2943E-03  0.8724E-02  0.3950E-02
     -7.037  0.1506E-01  0.7961E-03  0.9425E-02  0.3987E-02
     -6.990  0.1561E-01  0.2487E-02  0.1015E-01  0.4103E-02
     -6.944  0.1526E-01  0.5142E-02  0.1086E-01  0.4342E-02
     -6.897  0.1409E-01  0.8113E-02  0.1152E-01  0.4720E-02
     -6.851  0.1238E-01  0.1047E-01  0.1209E-01  0.5207E-02
     -6.804  0.1062E-01  0.1135E-01  0.1259E-01  0.5734E-02
     -6.758  0.9408E-02  0.1041E-01  0.1302E-01  0.6218E-02
     -6.711  0.9121E-02  0.8053E-02  0.1345E-01  0.6593E-02
     -6.665  0.9590E-02  0.5308E-02  0.1389E-01  0.6840E-02
     -6.618  0.1016E-01  0.3321E-02  0.1437E-01  0.6994E-02
     -6.572  0.1015E-01  0.2838E-02  0.1484E-01  0.7126E-02
     -6.525  0.9349E-02  0.3925E-02  0.1527E-01  0.7309E-02
     -6.479  0.8265E-02  0.6092E-02  0.1566E-01  0.7592E-02
     -6.432  0.7762E-02  0.8679E-02  0.1602E-01  0.7996E-02
     -6.386  0.8443E-02  0.1122E-01  0.1641E-01  0.8518E-02
     -6.339  0.1017E-01  0.1348E-01  0.1688E-01  0.9145E-02
     -6.293  0.1210E-01  0.1531E-01  0.1745E-01  0.9857E-02
     -6.246  0.1320E-01  0.1640E-01  0.1806E-01  0.1062E-01
     -6.200  0.1293E-01  0.1644E-01  0.1866E-01  0.1138E-01
     -6.153  0.1155E-01  0.1539E-01  0.1920E-01  0.1210E-01
     -6.107  0.9999E-02  0.1366E-01  0.1966E-01  0.1273E-01
     -6.060  0.9299E-02  0.1183E-01  0.2010E-01  0.1329E-01
     -6.014  0.9978E-02  0.1028E-01  0.2056E-01  0.1376E-01
     -5.967  0.1182E-01  0.9022E-02  0.2111E-01  0.1418E-01
     -5.921  0.1403E-01  0.7842E-02  0.2176E-01  0.1455E-01
     -5.874  0.1576E-01  0.6704E-02  0.2250E-01  0.1486E-01
     -5.828  0.1647E-01  0.5882E-02  0.2326E-01  0.1513E-01
     -5.781  0.1609E-01  0.5794E-02  0.2401E-01  0.1540E-01
     -5.735  0.1495E-01  0.6702E-02  0.2471E-01  0.1571E-01
     -5.688  0.1353E-01  0.8470E-02  0.2534E-01  0.1611E-01
     -5.642  0.1225E-01  0.1052E-01  0.2591E-01  0.1660E-01
     -5.595  0.1142E-01  0.1201E-01  0.2644E-01  0.1716E-01
     -5.549  0.1117E-01  0.1227E-01  0.2696E-01  0.1773E-01
     -5.502  0.1147E-01  0.1121E-01  0.2749E-01  0.1825E-01
     -5.456  0.1218E-01  0.9458E-02  0.2806E-01  0.1869E-01
     -5.409  0.1304E-01  0.8066E-02  0.2866E-01  0.1906E-01
     -5.363  0.1384E-01  0.7876E-02  0.2931E-01  0.1943E-01
     -5.316  0.1451E-01  0.9089E-02  0.2998E-01  0.1985E-01
     -5.270  0.1523E-01  0.1127E-01  0.3069E-01  0.2038E-01
     -5.223  0.1639E-01  0.1374E-01  0.3145E-01  0.2102E-01
     -5.176  0.1829E-01  0.1592E-01  0.3230E-01  0.2176E-01
     -5.130  0.2092E-01  0.1750E-01  0.3328E-01  0.2257E-01
     -5.083  0.2394E-01  0.1835E-01  0.3439E-01  0.2342E-01
     -5.037  0.2690E-01  0.1846E-01  0.3564E-01  0.2428E-01
     -4.990  0.2944E-01  0.1793E-01  0.3701E-01  0.2512E-01
     -4.944  0.3152E-01  0.1697E-01  0.3848E-01  0.2591E-01
     -4.897  0.3330E-01  0.1581E-01  0.4002E-01  0.2664E-01
     -4.851  0.3499E-01  0.1455E-01  0.4165E-01  0.2732E-01
     -4.804  0.3658E-01  0.1317E-01  0.4335E-01  0.2793E-01
     -4.758  0.3769E-01  0.1168E-01  0.4511E-01  0.2847E-01
     -4.711  0.3768E-01  0.1028E-01  0.4686E-01  0.2895E-01
     -4.665  0.3595E-01  0.9389E-02  0.4853E-01  0.2939E-01
     -4.618  0.3231E-01  0.9493E-02  0.5003E-01  0.2983E-01
     -4.572  0.2714E-01  0.1094E-01  0.5130E-01  0.3034E-01
     -4.525  0.2127E-01  0.1377E-01  0.5229E-01  0.3098E-01
     -4.479  0.1557E-01  0.1758E-01  0.5301E-01  0.3180E-01
     -4.432  0.1065E-01  0.2160E-01  0.5350E-01  0.3280E-01
     -4.386  0.6726E-02  0.2483E-01  0.5382E-01  0.3396E-01
     -4.339  0.3791E-02  0.2642E-01  0.5399E-01  0.3519E-01
     -4.293  0.1727E-02  0.2608E-01  0.5407E-01  0.3640E-01
     -4.246  0.4161E-03  0.2428E-01  0.5409E-01  0.3753E-01
     -4.200 -0.2758E-03  0.2211E-01  0.5408E-01  0.3856E-01
     -4.153 -0.5144E-03  0.2066E-01  0.5406E-01  0.3952E-01
     -4.107 -0.4849E-03  0.2051E-01  0.5403E-01  0.4047E-01
     -4.060 -0.3479E-03  0.2145E-01  0.5402E-01  0.4147E-01
     -4.014 -0.2070E-03  0.2275E-01  0.5401E-01  0.4253E-01
     -3.967 -0.1058E-03  0.2368E-01  0.5400E-01  0.4363E-01
     -3.921 -0.4872E-04  0.2404E-01  0.5400E-01  0.4475E-01
     -3.874 -0.2526E-04  0.2413E-01  0.5400E-01  0.4587E-01
     -3.828 -0.2715E-04  0.2448E-01  0.5400E-01  0.4701E-01
     -3.781 -0.5516E-04  0.2527E-01  0.5400E-01  0.4818E-01
     -3.735 -0.1178E-03  0.2608E-01  0.5399E-01  0.4940E-01
     -3.688 -0.2196E-03  0.2605E-01  0.5398E-01  0.5061E-01
     -3.642 -0.3363E-03  0.2435E-01  0.5396E-01  0.5174E-01
     -3.595 -0.3798E-03  0.2067E-01  0.5395E-01  0.5270E-01
     -3.549 -0.1778E-03  0.1547E-01  0.5394E-01  0.5342E-01
     -3.502  0.4917E-03  0.9799E-02  0.5396E-01  0.5388E-01
     -3.456  0.1784E-02  0.4799E-02  0.5404E-01  0.5410E-01
     -3.409  0.3631E-02  0.1224E-02  0.5421E-01  0.5416E-01
     -3.362  0.5641E-02 -0.7783E-03  0.5448E-01  0.5412E-01
     -3.316  0.7195E-02 -0.1495E-02  0.5481E-01  0.5405E-01
     -3.269  0.7727E-02 -0.1303E-02  0.5517E-01  0.5399E-01
     -3.223  0.7054E-02 -0.4127E-03  0.5550E-01  0.5397E-01
     -3.176  0.5519E-02  0.1131E-02  0.5575E-01  0.5403E-01
     -3.130  0.3836E-02  0.3227E-02  0.5593E-01  0.5418E-01
     -3.083  0.2712E-02  0.5502E-02  0.5606E-01  0.5443E-01
     -3.037  0.2472E-02  0.7315E-02  0.5617E-01  0.5477E-01
     -2.990  0.2922E-02  0.8068E-02  0.5631E-01  0.5515E-01
     -2.944  0.3508E-02  0.7586E-02  0.5647E-01  0.5550E-01
     -2.897  0.3671E-02  0.6278E-02  0.5664E-01  0.5579E-01
     -2.851  0.3167E-02  0.4890E-02  0.5679E-01  0.5602E-01
     -2.804  0.2183E-02  0.4020E-02  0.5689E-01  0.5621E-01
     -2.758  0.1211E-02  0.3772E-02  0.5695E-01  0.5638E-01
     -2.711  0.7919E-03  0.3782E-02  0.5699E-01  0.5656E-01
     -2.665  0.1271E-02  0.3558E-02  0.5705E-01  0.5672E-01
     -2.618  0.2651E-02  0.2845E-02  0.5717E-01  0.5686E-01
     -2.572  0.4567E-02  0.1762E-02  0.5738E-01  0.5694E-01
     -2.525  0.6396E-02  0.6852E-03  0.5768E-01  0.5697E-01
     -2.479  0.7492E-02  0.5025E-04  0.5803E-01  0.5697E-01
     -2.432  0.7461E-02  0.1906E-03  0.5837E-01  0.5698E-01
     -2.386  0.6328E-02  0.1248E-02  0.5867E-01  0.5704E-01
     -2.339  0.4508E-02  0.3095E-02  0.5888E-01  0.5718E-01
     -2.293  0.2578E-02  0.5288E-02  0.5900E-01  0.5743E-01
     -2.246  0.1007E-02  0.7149E-02  0.5904E-01  0.5776E-01
     -2.200 -0.2056E-05  0.8012E-02  0.5904E-01  0.5813E-01
     -2.153 -0.4862E-03  0.7552E-02  0.5902E-01  0.5849E-01
     -2.107 -0.5765E-03  0.5955E-02  0.5900E-01  0.5876E-01
     -2.060 -0.3562E-03  0.3807E-02  0.5898E-01  0.5894E-01
     -2.014  0.1833E-03  0.1776E-02  0.5899E-01  0.5902E-01
     -1.967  0.1067E-02  0.3301E-03  0.5904E-01  0.5904E-01
     -1.921  0.2207E-02 -0.3590E-03  0.5914E-01  0.5902E-01
     -1.874  0.3333E-02 -0.3222E-03  0.5929E-01  0.5901E-01
     -1.828  0.4070E-02  0.3248E-03  0.5948E-01  0.5902E-01
     -1.781  0.4134E-02  0.1410E-02  0.5968E-01  0.5909E-01
     -1.735  0.3501E-02  0.2662E-02  0.5984E-01  0.5921E-01
     -1.688  0.2431E-02  0.3703E-02  0.5995E-01  0.5938E-01
     -1.642  0.1308E-02  0.4173E-02  0.6001E-01  0.5958E-01
     -1.595  0.4342E-03  0.3902E-02  0.6003E-01  0.5976E-01
     -1.548 -0.8337E-04  0.3018E-02  0.6003E-01  0.5990E-01
     -1.502 -0.3141E-03  0.1866E-02  0.6001E-01  0.5999E-01
     -1.455 -0.3953E-03  0.8109E-03  0.6000E-01  0.6002E-01
     -1.409 -0.4261E-03  0.6462E-04  0.5998E-01  0.6003E-01
     -1.362 -0.4084E-03 -0.3534E-03  0.5996E-01  0.6001E-01
     -1.316 -0.2423E-03 -0.5264E-03  0.5995E-01  0.5999E-01
     -1.269  0.2310E-03 -0.5132E-03  0.5996E-01  0.5996E-01
     -1.223  0.1154E-02 -0.2715E-03  0.6001E-01  0.5995E-01
     -1.176  0.2576E-02  0.3240E-03  0.6013E-01  0.5996E-01
     -1.130  0.4404E-02  0.1390E-02  0.6034E-01  0.6003E-01
     -1.083  0.6406E-02  0.2925E-02  0.6063E-01  0.6016E-01
     -1.037  0.8227E-02  0.4759E-02  0.6102E-01  0.6039E-01
     -0.990  0.9448E-02  0.6592E-02  0.6146E-01  0.6069E-01
     -0.944  0.9693E-02  0.8082E-02  0.6191E-01  0.6107E-01
     -0.897  0.8811E-02  0.8938E-02  0.6232E-01  0.6148E-01
     -0.851  0.7038E-02  0.8973E-02  0.6264E-01  0.6190E-01
     -0.804  0.4976E-02  0.8143E-02  0.6287E-01  0.6228E-01
     -0.758  0.3336E-02  0.6594E-02  0.6303E-01  0.6259E-01
     -0.711  0.2578E-02  0.4688E-02  0.6315E-01  0.6281E-01
     -0.665  0.2692E-02  0.2934E-02  0.6327E-01  0.6294E-01
     -0.618  0.3278E-02  0.1815E-02  0.6343E-01  0.6303E-01
     -0.572  0.3866E-02  0.1579E-02  0.6361E-01  0.6310E-01
     -0.525  0.4205E-02  0.2119E-02  0.6380E-01  0.6320E-01
     -0.479  0.4320E-02  0.3051E-02  0.6400E-01  0.6334E-01
     -0.432  0.4348E-02  0.3932E-02  0.6421E-01  0.6352E-01
     -0.386  0.4354E-02  0.4498E-02  0.6441E-01  0.6373E-01
     -0.339  0.4314E-02  0.4741E-02  0.6461E-01  0.6395E-01
     -0.293  0.4221E-02  0.4808E-02  0.6481E-01  0.6418E-01
     -0.246  0.4159E-02  0.4832E-02  0.6500E-01  0.6440E-01
     -0.200  0.4209E-02  0.4868E-02  0.6519E-01  0.6463E-01
     -0.153  0.4309E-02  0.4915E-02  0.6540E-01  0.6486E-01
     -0.107  0.4237E-02  0.4958E-02  0.6559E-01  0.6509E-01
     -0.060  0.3778E-02  0.4934E-02  0.6577E-01  0.6532E-01
     -0.014  0.2909E-02  0.4708E-02  0.6590E-01  0.6554E-01
      0.033  0.1836E-02  0.4143E-02  0.6599E-01  0.6573E-01
      0.079  0.8571E-03  0.3220E-02  0.6603E-01  0.6588E-01
      0.126  0.1813E-03  0.2104E-02  0.6604E-01  0.6598E-01
      0.172 -0.1520E-03  0.1059E-02  0.6603E-01  0.6602E-01
      0.219 -0.2335E-03  0.2987E-03  0.6602E-01  0.6604E-01
      0.266 -0.1903E-03 -0.1101E-03  0.6601E-01  0.6603E-01
      0.312 -0.1175E-03 -0.2385E-03  0.6600E-01  0.6602E-01
      0.359 -0.5971E-04 -0.2129E-03  0.6600E-01  0.6601E-01
      0.405 -0.2582E-04 -0.1392E-03  0.6600E-01  0.6601E-01
      0.452 -0.9666E-05 -0.7412E-04  0.6600E-01  0.6600E-01
      0.498 -0.3163E-05 -0.3342E-04  0.6600E-01  0.6600E-01
      0.545 -0.9105E-06 -0.1300E-04  0.6600E-01  0.6600E-01
      0.591 -0.2315E-06 -0.4415E-05  0.6600E-01  0.6600E-01
      0.638 -0.5217E-07 -0.1317E-05  0.6600E-01  0.6600E-01
      0.684 -0.1044E-07 -0.3468E-06  0.6600E-01  0.6600E-01
      0.731 -0.1858E-08 -0.8085E-07  0.6600E-01  0.6600E-01
      0.777 -0.2947E-09 -0.1673E-07  0.6600E-01  0.6600E-01
      0.824 -0.4166E-10 -0.3079E-08  0.6600E-01  0.6600E-01
      0.870 -0.5258E-11 -0.5045E-09  0.6600E-01  0.6600E-01
      0.917 -0.5925E-12 -0.7370E-10  0.6600E-01  0.6600E-01
      0.963 -0.5968E-13 -0.9607E-11  0.6600E-01  0.6600E-01
      1.010 -0.5371E-14 -0.1118E-11  0.6600E-01  0.6600E-01
      1.056 -0.4344E-15 -0.1163E-12  0.6600E-01  0.6600E-01
      1.103 -0.3342E-16 -0.1081E-13  0.6600E-01  0.6600E-01
      1.149  0.0000E+00 -0.8975E-15  0.6600E-01  0.6600E-01
      1.196  0.0000E+00 -0.6683E-16  0.6600E-01  0.6600E-01
      1.242  0.0000E+00 -0.4774E-17  0.6600E-01  0.6600E-01
      1.289  0.0000E+00  0.0000E+00  0.6600E-01  0.6600E-01
      1.335  0.0000E+00  0.0000E+00  0.6600E-01  0.6600E-01
      1.382  0.0000E+00  0.0000E+00  0.6600E-01  0.6600E-01
      1.428  0.0000E+00  0.0000E+00  0.6600E-01  0.6600E-01
      1.475  0.0000E+00  0.0000E+00  0.6600E-01  0.6600E-01
      1.521  0.0000E+00  0.0000E+00  0.6600E-01  0.6600E-01
      1.568  0.0000E+00  0.0000E+00  0.6600E-01  0.6600E-01
      1.614  0.0000E+00  0.0000E+00  0.6600E-01  0.6600E-01
      1.661  0.0000E+00  0.0000E+00  0.6600E-01  0.6600E-01
      1.707  0.0000E+00  0.0000E+00  0.6600E-01  0.6600E-01
      1.754  0.0000E+00  0.0000E+00  0.6600E-01  0.6600E-01
      1.800  0.0000E+00  0.0000E+00  0.6600E-01  0.6600E-01
      1.847  0.0000E+00  0.0000E+00  0.6600E-01  0.6600E-01
      1.893  0.0000E+00  0.0000E+00  0.6600E-01  0.6600E-01
      1.940  0.0000E+00  0.0000E+00  0.6600E-01  0.6600E-01
      1.986  0.0000E+00  0.0000E+00  0.6600E-01  0.6600E-01
