   10   10 1000    2
  0.1065379E+04  0.2170314E-08  0.2202495E-08  0.2228776E-08  0.5000000E-15
   1.0000000000000000E-004
  CAR 
 unknown system                          
    100      1     66
 
  0.1262379E-14  0.1262379E-14  0.1262379E-14  0.1000000E+01
    1       -9.967333     -9.960073   1.000000   1.000000
    2       -8.286707     -8.077579   1.000000   1.000000
    3       -8.100835     -7.881019   1.000000   1.000000
    4       -7.774192     -7.311257   1.000000   1.000000
    5       -7.490138     -6.888095   1.000000   1.000000
    6       -7.396793     -6.799672   1.000000   1.000000
    7       -7.314694     -6.794714   1.000000   1.000000
    8       -7.128038     -6.454041   1.000000   1.000000
    9       -7.111635     -6.420056   1.000000   1.000000
   10       -7.050226     -6.279440   1.000000   1.000000
   11       -6.948033     -6.246444   1.000000   1.000000
   12       -6.905099     -6.190108   1.000000   1.000000
   13       -6.849596     -6.181828   1.000000   1.000000
   14       -6.663030     -5.984154   1.000000   1.000000
   15       -6.606761     -5.976745   1.000000   1.000000
   16       -6.541725     -5.761236   1.000000   1.000000
   17       -6.318848     -5.601691   1.000000   1.000000
   18       -6.292406     -5.564200   1.000000   1.000000
   19       -6.233589     -5.546889   1.000000   1.000000
   20       -6.159543     -5.323236   1.000000   1.000000
   21       -5.972226     -5.247876   1.000000   1.000000
   22       -5.935529     -5.208016   1.000000   1.000000
   23       -5.887814     -5.120159   1.000000   1.000000
   24       -5.802037     -5.063912   1.000000   1.000000
   25       -5.771761     -5.040656   1.000000   1.000000
   26       -5.682055     -4.993740   1.000000   1.000000
   27       -5.582084     -4.878557   1.000000   1.000000
   28       -5.509260     -4.849802   1.000000   1.000000
   29       -5.389293     -4.774683   1.000000   1.000000
   30       -5.369861     -4.661482   1.000000   1.000000
   31       -5.301765     -4.543021   1.000000   1.000010
   32       -5.212160     -4.477532   1.000000   1.000073
   33       -5.159563     -4.439514   1.000000   1.000207
   34       -5.105747     -4.374291   1.000000   1.001023
   35       -5.073097     -4.365470   1.000000   1.001247
   36       -5.046640     -4.325465   1.000000   1.002884
   37       -5.009656     -4.318869   1.000000   1.003281
   38       -4.976659     -4.278280   1.000000   1.006837
   39       -4.950577     -4.218298   1.000000   1.016525
   40       -4.891967     -4.133056   1.000000   1.034201
   41       -4.883639     -4.102543   1.000000   1.034938
   42       -4.875688     -4.040194   1.000000   1.003237
   43       -4.811495     -3.996543   1.000000   0.936662
   44       -4.804327     -3.977533   1.000000   0.893169
   45       -4.756219     -3.960585   1.000000   0.846757
   46       -4.738706     -3.904273   1.000000   0.647575
   47       -4.715989     -3.837138   1.000000   0.367931
   48       -4.687410     -3.780394   1.000000   0.163428
   49       -4.669642     -3.750908   1.000000   0.084806
   50       -4.650657     -3.748234   1.000000   0.078753
   51       -4.632639     -3.680634   1.000000  -0.017836
   52       -4.564882     -3.627383   1.000005  -0.035408
   53       -4.529363     -3.619375   1.000016  -0.035384
   54       -4.421530     -3.609297   1.000329  -0.034721
   55       -3.331170     -3.029668  -0.000480  -0.000000
   56       -3.255482     -2.994451  -0.000064  -0.000000
   57       -2.931021     -2.712961  -0.000000  -0.000000
   58       -2.527882     -2.247597  -0.000000  -0.000000
   59       -2.435782     -2.184867  -0.000000  -0.000000
   60       -1.823729     -1.659667  -0.000000  -0.000000
   61       -1.098448     -1.010524  -0.000000  -0.000000
   62       -0.960287     -0.891875  -0.000000  -0.000000
   63       -0.912991     -0.788195  -0.000000  -0.000000
   64       -0.598057     -0.441359  -0.000000  -0.000000
   65       -0.364570     -0.225392  -0.000000  -0.000000
   66       -0.119830     -0.013519  -0.000000  -0.000000
