       N       E                     dE             d eps       ncg     rms          rms(c)
DAV:   1     0.626251593379E+03    0.62625E+03   -0.16791E+04   264   0.704E+02
DAV:   2     0.995716888169E+02   -0.52668E+03   -0.48972E+03   448   0.148E+02
DAV:   3    -0.300117578159E+02   -0.12958E+03   -0.12171E+03   312   0.136E+02
DAV:   4    -0.415766910179E+02   -0.11565E+02   -0.10290E+02   288   0.498E+01
DAV:   5    -0.419053908156E+02   -0.32870E+00   -0.32335E+00   316   0.701E+00    0.191E+01
DAV:   6    -0.440943467816E+02   -0.21890E+01   -0.53678E+01   290   0.947E+01    0.455E+01
DAV:   7    -0.411014863942E+02    0.29929E+01   -0.42318E+01   276   0.961E+01    0.295E+01
DAV:   8    -0.391622757075E+02    0.19392E+01   -0.22408E+01   284   0.789E+01    0.338E+01
DAV:   9    -0.355212216777E+02    0.36411E+01   -0.11738E+01   340   0.515E+01    0.176E+01
DAV:  10    -0.380249610976E+02   -0.25037E+01   -0.11719E+01   356   0.515E+01    0.364E+01
DAV:  11    -0.360861868379E+02    0.19388E+01   -0.12075E+01   324   0.413E+01    0.260E+01
DAV:  12    -0.350116077347E+02    0.10746E+01   -0.33131E+00   294   0.275E+01    0.183E+01
DAV:  13    -0.349296402046E+02    0.81968E-01   -0.14899E+00   352   0.131E+01    0.156E+01
DAV:  14    -0.348078501832E+02    0.12179E+00   -0.84729E-01   284   0.104E+01    0.102E+01
DAV:  15    -0.348349523271E+02   -0.27102E-01   -0.58351E-01   292   0.128E+01    0.888E+00
DAV:  16    -0.348060927817E+02    0.28860E-01   -0.82565E-01   284   0.132E+01    0.950E+00
DAV:  17    -0.346724020433E+02    0.13369E+00   -0.43610E-01   306   0.105E+01    0.381E+00
DAV:  18    -0.348121708885E+02   -0.13977E+00   -0.20724E-01   362   0.668E+00    0.486E+00
DAV:  19    -0.348359897209E+02   -0.23819E-01   -0.13673E-01   276   0.611E+00    0.339E+00
DAV:  20    -0.350226905700E+02   -0.18670E+00   -0.12948E-01   332   0.526E+00    0.373E+00
DAV:  21    -0.350864995324E+02   -0.63809E-01   -0.11522E-01   278   0.568E+00    0.230E+00
DAV:  22    -0.353363865017E+02   -0.24989E+00   -0.84285E-02   324   0.349E+00    0.158E+00
DAV:  23    -0.355281887669E+02   -0.19180E+00   -0.47059E-02   300   0.270E+00    0.851E-01
DAV:  24    -0.356843100379E+02   -0.15612E+00   -0.22150E-02   274   0.136E+00    0.765E-01
DAV:  25    -0.358092702459E+02   -0.12496E+00   -0.10462E-02   268   0.102E+00    0.539E-01
DAV:  26    -0.359506993004E+02   -0.14143E+00   -0.95863E-03   282   0.643E-01    0.298E-01
DAV:  27    -0.360799875905E+02   -0.12929E+00   -0.87649E-03   290   0.558E-01    0.255E-01
DAV:  28    -0.361702308802E+02   -0.90243E-01   -0.52066E-03   274   0.418E-01    0.129E-01
DAV:  29    -0.362365407964E+02   -0.66310E-01   -0.27407E-03   274   0.232E-01    0.141E-01
DAV:  30    -0.362781027839E+02   -0.41562E-01   -0.12076E-03   260   0.196E-01    0.699E-02
DAV:  31    -0.363121765276E+02   -0.34074E-01   -0.10308E-03   258   0.109E-01    0.653E-02
DAV:  32    -0.363319109546E+02   -0.19734E-01   -0.52590E-04   244   0.956E-02    0.438E-02
DAV:  33    -0.363403609015E+02   -0.84499E-02   -0.13195E-04   186   0.648E-02    0.341E-02
DAV:  34    -0.363482972870E+02   -0.79364E-02   -0.19770E-04   210   0.741E-02    0.332E-02
DAV:  35    -0.363533711149E+02   -0.50738E-02   -0.11150E-04   188   0.696E-02    0.208E-02
DAV:  36    -0.363572249165E+02   -0.38538E-02   -0.10812E-04   194   0.412E-02    0.146E-02
DAV:  37    -0.363588683584E+02   -0.16434E-02   -0.42453E-05   176   0.313E-02    0.168E-02
DAV:  38    -0.363600389462E+02   -0.11706E-02   -0.35969E-05   178   0.294E-02    0.860E-03
DAV:  39    -0.363608186823E+02   -0.77974E-03   -0.31562E-05   174   0.174E-02    0.799E-03
DAV:  40    -0.363612644178E+02   -0.44574E-03   -0.21321E-05   182   0.140E-02    0.679E-03
DAV:  41    -0.363615385449E+02   -0.27413E-03   -0.14989E-05   174   0.109E-02    0.608E-03
DAV:  42    -0.363616738798E+02   -0.13533E-03   -0.94425E-06   176   0.103E-02    0.319E-03
DAV:  43    -0.363617582116E+02   -0.84332E-04   -0.68173E-06   174   0.781E-03
   1 F= -.36361758E+02 E0= -.36349089E+02  d E =-.363618E+02  mag=     7.9871
       N       E                     dE             d eps       ncg     rms          rms(c)
DAV:   1    -0.365425420240E+02   -0.18087E+00   -0.10248E+02   264   0.397E+01    0.317E+00
DAV:   2    -0.370217913592E+02   -0.47925E+00   -0.25366E+00   396   0.202E+01    0.130E+01
DAV:   3    -0.366327061320E+02    0.38909E+00   -0.13639E+00   292   0.217E+01    0.454E+00
DAV:   4    -0.367492605902E+02   -0.11655E+00   -0.44455E-01   358   0.118E+01    0.606E+00
DAV:   5    -0.366658796524E+02    0.83381E-01   -0.29586E-01   294   0.948E+00    0.269E+00
DAV:   6    -0.366883391584E+02   -0.22460E-01   -0.13915E-01   358   0.483E+00    0.312E+00
DAV:   7    -0.366912078057E+02   -0.28686E-02   -0.95887E-02   350   0.486E+00    0.238E+00
DAV:   8    -0.366876221138E+02    0.35857E-02   -0.56386E-02   310   0.483E+00    0.191E+00
DAV:   9    -0.366965135832E+02   -0.88915E-02   -0.58542E-02   334   0.400E+00    0.295E+00
DAV:  10    -0.366803377148E+02    0.16176E-01   -0.43915E-02   318   0.360E+00    0.119E+00
DAV:  11    -0.366878611188E+02   -0.75234E-02   -0.17825E-02   342   0.217E+00    0.119E+00
DAV:  12    -0.366851746615E+02    0.26865E-02   -0.76814E-03   290   0.170E+00    0.334E-01
DAV:  13    -0.366871128460E+02   -0.19382E-02   -0.39380E-03   344   0.101E+00    0.560E-01
DAV:  14    -0.366866599471E+02    0.45290E-03   -0.22963E-03   292   0.755E-01    0.199E-01
DAV:  15    -0.366870580358E+02   -0.39809E-03   -0.42990E-04   216   0.423E-01    0.176E-01
DAV:  16    -0.366873038601E+02   -0.24582E-03   -0.27075E-04   188   0.328E-01    0.116E-01
DAV:  17    -0.366874428092E+02   -0.13895E-03   -0.13417E-04   176   0.221E-01    0.118E-01
DAV:  18    -0.366876446405E+02   -0.20183E-03   -0.12412E-04   172   0.202E-01    0.489E-02
DAV:  19    -0.366879070342E+02   -0.26239E-03   -0.40704E-05   174   0.624E-02    0.273E-02
DAV:  20    -0.366880721675E+02   -0.16513E-03   -0.19781E-05   168   0.407E-02    0.139E-02
DAV:  21    -0.366882514714E+02   -0.17930E-03   -0.12064E-05   174   0.297E-02    0.123E-02
DAV:  22    -0.366884285911E+02   -0.17712E-03   -0.74302E-06   168   0.199E-02    0.620E-03
DAV:  23    -0.366885768160E+02   -0.14822E-03   -0.50441E-06   176   0.105E-02    0.371E-03
DAV:  24    -0.366886958387E+02   -0.11902E-03   -0.27773E-06   168   0.104E-02    0.477E-03
DAV:  25    -0.366887965207E+02   -0.10068E-03   -0.18928E-06   160   0.769E-03    0.242E-03
DAV:  26    -0.366889251167E+02   -0.12860E-03   -0.25503E-06   164   0.494E-03    0.193E-03
DAV:  27    -0.366890605312E+02   -0.13541E-03   -0.26664E-06   164   0.464E-03    0.245E-03
DAV:  28    -0.366891310948E+02   -0.70564E-04   -0.11926E-06   158   0.505E-03
   2 F= -.36689131E+02 E0= -.36679977E+02  d E =-.327373E+00  mag=     7.9925
       N       E                     dE             d eps       ncg     rms          rms(c)
DAV:   1    -0.366978804131E+02   -0.88199E-02   -0.23645E+01   264   0.188E+01    0.154E+00
DAV:   2    -0.368108641220E+02   -0.11298E+00   -0.57079E-01   396   0.103E+01    0.648E+00
DAV:   3    -0.367088494962E+02    0.10201E+00   -0.42271E-01   294   0.109E+01    0.221E+00
DAV:   4    -0.367517736638E+02   -0.42924E-01   -0.12524E-01   388   0.615E+00    0.350E+00
DAV:   5    -0.367286877875E+02    0.23086E-01   -0.86041E-02   308   0.493E+00    0.205E+00
DAV:   6    -0.367271683027E+02    0.15195E-02   -0.29220E-02   340   0.288E+00    0.800E-01
DAV:   7    -0.367351468599E+02   -0.79786E-02   -0.20189E-02   374   0.253E+00    0.143E+00
DAV:   8    -0.367341954413E+02    0.95142E-03   -0.23485E-02   308   0.277E+00    0.169E+00
DAV:   9    -0.367323488939E+02    0.18465E-02   -0.21585E-02   340   0.218E+00    0.146E+00
DAV:  10    -0.367297598994E+02    0.25890E-02   -0.12561E-02   316   0.193E+00    0.384E-01
DAV:  11    -0.367319192926E+02   -0.21594E-02   -0.32698E-03   366   0.982E-01    0.502E-01
DAV:  12    -0.367316279303E+02    0.29136E-03   -0.16059E-03   290   0.741E-01    0.252E-01
DAV:  13    -0.367317945456E+02   -0.16662E-03   -0.56654E-04   190   0.428E-01    0.166E-01
DAV:  14    -0.367319439328E+02   -0.14939E-03   -0.35755E-04   178   0.296E-01    0.132E-01
DAV:  15    -0.367319723501E+02   -0.28417E-04   -0.16272E-04   174   0.226E-01
   3 F= -.36731972E+02 E0= -.36724446E+02  d E =-.370214E+00  mag=     7.9942
       N       E                     dE             d eps       ncg     rms          rms(c)
DAV:   1    -0.367423843341E+02   -0.10440E-01   -0.50720E+00   264   0.860E+00    0.925E-01
DAV:   2    -0.368338157583E+02   -0.91431E-01   -0.29190E-01   348   0.936E+00    0.607E+00
DAV:   3    -0.367296559559E+02    0.10416E+00   -0.22616E-01   300   0.843E+00    0.133E+00
DAV:   4    -0.367520079054E+02   -0.22352E-01   -0.57948E-02   396   0.390E+00    0.203E+00
DAV:   5    -0.367487492767E+02    0.32586E-02   -0.35329E-02   340   0.289E+00    0.132E+00
DAV:   6    -0.367467908480E+02    0.19584E-02   -0.13469E-02   292   0.210E+00    0.413E-01
DAV:   7    -0.367487605159E+02   -0.19697E-02   -0.51967E-03   382   0.100E+00    0.726E-01
DAV:   8    -0.367486491664E+02    0.11135E-03   -0.43374E-03   302   0.101E+00    0.560E-01
DAV:   9    -0.367485968095E+02    0.52357E-04   -0.15907E-03   286   0.819E-01    0.391E-01
DAV:  10    -0.367485802444E+02    0.16565E-04   -0.10076E-03   286   0.611E-01    0.141E-01
DAV:  11    -0.367489698719E+02   -0.38963E-03   -0.48336E-04   208   0.464E-01    0.197E-01
DAV:  12    -0.367489988764E+02   -0.29004E-04   -0.31321E-04   182   0.348E-01
   4 F= -.36748999E+02 E0= -.36742771E+02  d E =-.170265E-01  mag=     7.9953
       N       E                     dE             d eps       ncg     rms          rms(c)
DAV:   1    -0.367384462956E+02    0.10524E-01   -0.16919E+01   264   0.158E+01    0.179E+00
DAV:   2    -0.370961741815E+02   -0.35773E+00   -0.11530E+00   340   0.187E+01    0.114E+01
DAV:   3    -0.367071761433E+02    0.38900E+00   -0.75054E-01   292   0.165E+01    0.170E+00
DAV:   4    -0.367737952822E+02   -0.66619E-01   -0.18792E-01   388   0.661E+00    0.354E+00
DAV:   5    -0.367619898517E+02    0.11805E-01   -0.12715E-01   292   0.511E+00    0.283E+00
DAV:   6    -0.367534252424E+02    0.85646E-02   -0.44985E-02   300   0.350E+00    0.698E-01
DAV:   7    -0.367602894870E+02   -0.68642E-02   -0.12675E-02   368   0.195E+00    0.970E-01
DAV:   8    -0.367592617274E+02    0.10278E-02   -0.89610E-03   294   0.170E+00    0.765E-01
DAV:   9    -0.367605518751E+02   -0.12901E-02   -0.57767E-03   360   0.125E+00    0.109E+00
DAV:  10    -0.367578916785E+02    0.26602E-02   -0.43136E-03   310   0.129E+00    0.325E-01
DAV:  11    -0.367600384250E+02   -0.21467E-02   -0.33894E-03   350   0.916E-01    0.562E-01
DAV:  12    -0.367593837128E+02    0.65471E-03   -0.22763E-03   302   0.808E-01    0.189E-01
DAV:  13    -0.367600071897E+02   -0.62348E-03   -0.85475E-04   248   0.561E-01    0.277E-01
DAV:  14    -0.367598505206E+02    0.15667E-03   -0.54584E-04   206   0.460E-01    0.127E-01
DAV:  15    -0.367600139767E+02   -0.16346E-03   -0.13693E-04   168   0.245E-01    0.115E-01
DAV:  16    -0.367600980632E+02   -0.84087E-04   -0.10836E-04   176   0.198E-01
   5 F= -.36760098E+02 E0= -.36756143E+02  d E =-.281257E-01  mag=     7.9969
       N       E                     dE             d eps       ncg     rms          rms(c)
DAV:   1    -0.367594781909E+02    0.53579E-03   -0.57452E+00   264   0.907E+00    0.805E-01
DAV:   2    -0.368319300814E+02   -0.72452E-01   -0.20150E-01   332   0.701E+00    0.576E+00
DAV:   3    -0.367501320312E+02    0.81798E-01   -0.17695E-01   308   0.710E+00    0.131E+00
DAV:   4    -0.367706135295E+02   -0.20481E-01   -0.49704E-02   374   0.353E+00    0.175E+00
DAV:   5    -0.367659446220E+02    0.46689E-02   -0.18157E-02   312   0.239E+00    0.596E-01
DAV:   6    -0.367672409703E+02   -0.12963E-02   -0.37900E-03   328   0.107E+00    0.491E-01
DAV:   7    -0.367678922716E+02   -0.65130E-03   -0.32689E-03   336   0.918E-01    0.544E-01
DAV:   8    -0.367678548399E+02    0.37432E-04   -0.25207E-03   320   0.870E-01    0.426E-01
DAV:   9    -0.367681577892E+02   -0.30295E-03   -0.13910E-03   296   0.796E-01    0.449E-01
DAV:  10    -0.367680280641E+02    0.12973E-03   -0.19212E-03   294   0.813E-01    0.320E-01
DAV:  11    -0.367682317555E+02   -0.20369E-03   -0.10296E-03   240   0.554E-01    0.261E-01
DAV:  12    -0.367682019077E+02    0.29848E-04   -0.36596E-04   190   0.370E-01
   6 F= -.36768202E+02 E0= -.36766268E+02  d E =-.810384E-02  mag=     7.9977
       N       E                     dE             d eps       ncg     rms          rms(c)
DAV:   1    -0.367668596416E+02    0.13721E-02   -0.15816E+00   264   0.477E+00    0.403E-01
DAV:   2    -0.367818182453E+02   -0.14959E-01   -0.45991E-02   388   0.320E+00    0.276E+00
DAV:   3    -0.367634821990E+02    0.18336E-01   -0.38002E-02   300   0.335E+00    0.649E-01
DAV:   4    -0.367703282767E+02   -0.68461E-02   -0.12618E-02   364   0.185E+00    0.105E+00
DAV:   5    -0.367681989333E+02    0.21293E-02   -0.58344E-03   294   0.137E+00    0.326E-01
DAV:   6    -0.367688850882E+02   -0.68615E-03   -0.11072E-03   288   0.529E-01    0.253E-01
DAV:   7    -0.367692738324E+02   -0.38874E-03   -0.94387E-04   232   0.527E-01    0.288E-01
DAV:   8    -0.367692826617E+02   -0.88292E-05   -0.80405E-04   216   0.491E-01
   7 F= -.36769283E+02 E0= -.36768348E+02  d E =-.918460E-02  mag=     7.9980
       N       E                     dE             d eps       ncg     rms          rms(c)
DAV:   1    -0.367679645813E+02    0.13093E-02   -0.46621E+00   264   0.815E+00    0.742E-01
DAV:   2    -0.368273840476E+02   -0.59419E-01   -0.13718E-01   406   0.625E+00    0.565E+00
DAV:   3    -0.367602859425E+02    0.67098E-01   -0.12834E-01   292   0.652E+00    0.153E+00
DAV:   4    -0.367762819021E+02   -0.15996E-01   -0.47583E-02   388   0.346E+00    0.141E+00
DAV:   5    -0.367745269104E+02    0.17550E-02   -0.20352E-02   308   0.236E+00    0.914E-01
DAV:   6    -0.367732233754E+02    0.13035E-02   -0.62937E-03   296   0.156E+00    0.469E-01
DAV:   7    -0.367739565000E+02   -0.73312E-03   -0.27596E-03   358   0.812E-01    0.370E-01
DAV:   8    -0.367746911136E+02   -0.73461E-03   -0.22893E-03   296   0.831E-01    0.463E-01
DAV:   9    -0.367743849869E+02    0.30613E-03   -0.12411E-03   296   0.735E-01    0.367E-01
DAV:  10    -0.367744796240E+02   -0.94637E-04   -0.77105E-04   280   0.588E-01
   8 F= -.36774480E+02 E0= -.36773841E+02  d E =-.519696E-02  mag=     7.9984
       N       E                     dE             d eps       ncg     rms          rms(c)
DAV:   1    -0.367732350474E+02    0.11499E-02   -0.14927E+00   264   0.462E+00    0.444E-01
DAV:   2    -0.367934042019E+02   -0.20169E-01   -0.49819E-02   390   0.404E+00    0.313E+00
DAV:   3    -0.367696835578E+02    0.23721E-01   -0.39382E-02   308   0.406E+00    0.109E+00
DAV:   4    -0.367746521080E+02   -0.49686E-02   -0.16109E-02   388   0.204E+00    0.670E-01
DAV:   5    -0.367756999310E+02   -0.10478E-02   -0.67862E-03   332   0.139E+00    0.619E-01
DAV:   6    -0.367747651768E+02    0.93475E-03   -0.28724E-03   288   0.105E+00    0.287E-01
DAV:   7    -0.367751427424E+02   -0.37757E-03   -0.90414E-04   238   0.487E-01    0.197E-01
DAV:   8    -0.367754725702E+02   -0.32983E-03   -0.89307E-04   238   0.494E-01    0.283E-01
DAV:   9    -0.367753811661E+02    0.91404E-04   -0.46902E-04   190   0.440E-01
   9 F= -.36775381E+02 E0= -.36774833E+02  d E =-.609850E-02  mag=     7.9987
       N       E                     dE             d eps       ncg     rms          rms(c)
DAV:   1    -0.367749568337E+02    0.51574E-03   -0.17896E+00   264   0.511E+00    0.438E-01
DAV:   2    -0.367892690610E+02   -0.14312E-01   -0.48114E-02   380   0.343E+00    0.270E+00
DAV:   3    -0.367729306647E+02    0.16338E-01   -0.44404E-02   300   0.362E+00    0.924E-01
DAV:   4    -0.367788280553E+02   -0.58974E-02   -0.12631E-02   388   0.208E+00    0.105E+00
DAV:   5    -0.367765584357E+02    0.22696E-02   -0.57973E-03   294   0.139E+00    0.320E-01
DAV:   6    -0.367770956318E+02   -0.53720E-03   -0.13463E-03   320   0.603E-01    0.221E-01
DAV:   7    -0.367775764142E+02   -0.48078E-03   -0.96353E-04   236   0.536E-01    0.389E-01
DAV:   8    -0.367773955522E+02    0.18086E-03   -0.11602E-03   252   0.530E-01    0.256E-01
DAV:   9    -0.367775612375E+02   -0.16569E-03   -0.53625E-04   186   0.450E-01    0.219E-01
DAV:  10    -0.367776390295E+02   -0.77792E-04   -0.44634E-04   174   0.401E-01
  10 F= -.36777639E+02 E0= -.36776743E+02  d E =-.225786E-02  mag=     7.9989
       N       E                     dE             d eps       ncg     rms          rms(c)
DAV:   1    -0.367763423628E+02    0.12189E-02   -0.13587E+00   264   0.446E+00    0.427E-01
DAV:   2    -0.367916161402E+02   -0.15274E-01   -0.47714E-02   374   0.383E+00    0.266E+00
DAV:   3    -0.367737996103E+02    0.17817E-01   -0.44157E-02   292   0.382E+00    0.975E-01
DAV:   4    -0.367780801317E+02   -0.42805E-02   -0.10199E-02   388   0.182E+00    0.804E-01
DAV:   5    -0.367778059837E+02    0.27415E-03   -0.39940E-03   300   0.113E+00    0.388E-01
DAV:   6    -0.367777144787E+02    0.91505E-04   -0.15183E-03   288   0.706E-01    0.184E-01
DAV:   7    -0.367781230534E+02   -0.40857E-03   -0.71097E-04   206   0.462E-01    0.290E-01
DAV:   8    -0.367781787792E+02   -0.55726E-04   -0.96283E-04   220   0.478E-01
  11 F= -.36778179E+02 E0= -.36776786E+02  d E =-.279761E-02  mag=     7.9991
       N       E                     dE             d eps       ncg     rms          rms(c)
DAV:   1    -0.367767356733E+02    0.13874E-02   -0.16238E+00   264   0.488E+00    0.452E-01
DAV:   2    -0.367992262017E+02   -0.22491E-01   -0.70553E-02   388   0.391E+00    0.346E+00
DAV:   3    -0.367718686902E+02    0.27358E-01   -0.62085E-02   308   0.409E+00    0.881E-01
DAV:   4    -0.367797873227E+02   -0.79186E-02   -0.15092E-02   380   0.197E+00    0.101E+00
DAV:   5    -0.367784793029E+02    0.13080E-02   -0.61362E-03   284   0.133E+00    0.479E-01
DAV:   6    -0.367787129654E+02   -0.23366E-03   -0.18491E-03   308   0.672E-01    0.276E-01
DAV:   7    -0.367790930157E+02   -0.38005E-03   -0.92022E-04   268   0.562E-01    0.249E-01
DAV:   8    -0.367793256270E+02   -0.23261E-03   -0.11702E-03   260   0.526E-01    0.306E-01
DAV:   9    -0.367792224468E+02    0.10318E-03   -0.55620E-04   172   0.442E-01    0.275E-01
DAV:  10    -0.367792743750E+02   -0.51928E-04   -0.58597E-04   188   0.418E-01
  12 F= -.36779274E+02 E0= -.36776918E+02  d E =-.109560E-02  mag=     7.9993
       N       E                     dE             d eps       ncg     rms          rms(c)
DAV:   1    -0.367792997988E+02   -0.77352E-04   -0.69507E-02   264   0.104E+00    0.172E-01
DAV:   2    -0.367839498454E+02   -0.46500E-02   -0.14413E-02   348   0.196E+00    0.149E+00
DAV:   3    -0.367776126050E+02    0.63372E-02   -0.11635E-02   332   0.184E+00    0.375E-01
DAV:   4    -0.367790046082E+02   -0.13920E-02   -0.11796E-03   322   0.553E-01    0.141E-01
DAV:   5    -0.367794495062E+02   -0.44490E-03   -0.33570E-04   178   0.357E-01    0.146E-01
DAV:   6    -0.367794124057E+02    0.37100E-04   -0.25431E-04   172   0.293E-01
  13 F= -.36779412E+02 E0= -.36776851E+02  d E =-.123363E-02  mag=     7.9993
       N       E                     dE             d eps       ncg     rms          rms(c)
DAV:   1    -0.367779837882E+02    0.14657E-02   -0.15003E+00   264   0.465E+00    0.454E-01
DAV:   2    -0.367972711975E+02   -0.19287E-01   -0.69638E-02   364   0.407E+00    0.303E+00
DAV:   3    -0.367739009595E+02    0.23370E-01   -0.53778E-02   300   0.403E+00    0.891E-01
DAV:   4    -0.367799507463E+02   -0.60498E-02   -0.14686E-02   364   0.193E+00    0.101E+00
DAV:   5    -0.367796050599E+02    0.34569E-03   -0.71565E-03   308   0.143E+00    0.579E-01
DAV:   6    -0.367794944635E+02    0.11060E-03   -0.29797E-03   292   0.995E-01    0.353E-01
DAV:   7    -0.367797085037E+02   -0.21404E-03   -0.96270E-04   268   0.546E-01    0.223E-01
DAV:   8    -0.367801528252E+02   -0.44432E-03   -0.11827E-03   252   0.537E-01    0.335E-01
DAV:   9    -0.367799618396E+02    0.19099E-03   -0.83747E-04   212   0.504E-01    0.239E-01
DAV:  10    -0.367801174789E+02   -0.15564E-03   -0.43242E-04   182   0.408E-01    0.208E-01
DAV:  11    -0.367800802975E+02    0.37181E-04   -0.33421E-04   158   0.344E-01
  14 F= -.36780080E+02 E0= -.36776871E+02  d E =-.667892E-03  mag=     7.9995
       N       E                     dE             d eps       ncg     rms          rms(c)
DAV:   1    -0.367801768781E+02   -0.59399E-04   -0.48173E-02   264   0.855E-01    0.142E-01
DAV:   2    -0.367828603097E+02   -0.26834E-02   -0.77327E-03   308   0.168E+00    0.107E+00
DAV:   3    -0.367789414981E+02    0.39188E-02   -0.60359E-03   292   0.150E+00    0.213E-01
DAV:   4    -0.367799738187E+02   -0.10323E-02   -0.71708E-04   250   0.435E-01    0.173E-01
DAV:   5    -0.367801937979E+02   -0.21998E-03   -0.30171E-04   172   0.311E-01    0.159E-01
DAV:   6    -0.367801743005E+02    0.19497E-04   -0.18119E-04   156   0.246E-01
  15 F= -.36780174E+02 E0= -.36776828E+02  d E =-.761895E-03  mag=     7.9995
