 vasp.6.1.2 22Jul20 (build Aug  2 2021 21:04:21) gamma-only                      
 executed on             LinuxPGI date 2021.12.25  17:17:21
 running on   16 total cores
 distrk:  each k-point on   16 cores,    1 groups
 distr:  one band on NCORE=   8 cores,    2 groups


--------------------------------------------------------------------------------------------------------


 INCAR:
 POTCAR:    PAW_PBE Ni 02Aug2007                  
 -----------------------------------------------------------------------------
|                                                                             |
|           W    W    AA    RRRRR   N    N  II  N    N   GGGG   !!!           |
|           W    W   A  A   R    R  NN   N  II  NN   N  G    G  !!!           |
|           W    W  A    A  R    R  N N  N  II  N N  N  G       !!!           |
|           W WW W  AAAAAA  RRRRR   N  N N  II  N  N N  G  GGG   !            |
|           WW  WW  A    A  R   R   N   NN  II  N   NN  G    G                |
|           W    W  A    A  R    R  N    N  II  N    N   GGGG   !!!           |
|                                                                             |
|     You use a magnetic or noncollinear calculation, but did not specify     |
|     the initial magnetic moment with the MAGMOM tag. Note that a            |
|     default of 1 will be used for all atoms. This ferromagnetic setup       |
|     may break the symmetry of the crystal, in particular it may rule        |
|     out finding an antiferromagnetic solution. Thence, we recommend         |
|     setting the initial magnetic moment manually or verifying carefully     |
|     that this magnetic setup is desired.                                    |
|                                                                             |
 -----------------------------------------------------------------------------

 POTCAR:    PAW_PBE Ni 02Aug2007                  
   SHA256 =  0534bc51ca8003dfef23f56753fef9fdd3e22eac8d719fccacb59f3e6b7a69c7 Ni/POTCAR             
   COPYR  = (c) Copyright 02Aug2007 Georg Kresse                                                    
   COPYR  = This file is part of the software VASP. Any use, copying, and all other rights are regul
   COPYR  = If you do not have a valid VASP license, you may not use, copy or distribute this file. 
   VRHFIN =Ni:                                                                                      
   LEXCH  = PE                                                                                      
   EATOM  =  1077.6739 eV,   79.2068 Ry                                                             
                                                                                                    
   TITEL  = PAW_PBE Ni 02Aug2007                                                                    
   LULTRA =        F    use ultrasoft PP ?                                                          
   IUNSCR =        1    unscreen: 0-lin 1-nonlin 2-no                                               
   RPACOR =    2.000    partial core radius                                                         
   POMASS =   58.690; ZVAL   =   10.000    mass and valenz                                          
   RCORE  =    2.300    outmost cutoff radius                                                       
   RWIGS  =    2.430; RWIGS  =    1.286    wigner-seitz radius (au A)                               
   ENMAX  =  269.532; ENMIN  =  202.149 eV                                                          
   RCLOC  =    1.201    cutoff for local pot                                                        
   LCOR   =        T    correct aug charges                                                         
   LPAW   =        T    paw PP                                                                      
   EAUG   =  544.565                                                                                
   DEXC   =    0.000                                                                                
   RMAX   =    2.357    core radius for proj-oper                                                   
   RAUG   =    1.300    factor for augmentation sphere                                              
   RDEP   =    2.390    radius for radial grids                                                     
   RDEPT  =    1.838    core radius for aug-charge                                                  
                                                                                                    
   Atomic configuration                                                                             
    9 entries                                                                                       
     n  l   j            E        occ.                                                              
     1  0  0.50     -8206.4253   2.0000                                                             
     2  0  0.50      -976.1748   2.0000                                                             
     2  1  1.50      -839.0571   6.0000                                                             
     3  0  0.50      -105.9991   2.0000                                                             
     3  1  1.50       -66.4603   6.0000                                                             
     3  2  2.50        -4.6458   9.0000                                                             
     4  0  0.50        -4.4926   1.0000                                                             
     4  1  1.50        -4.0817   0.0000                                                             
     4  3  2.50        -1.3606   0.0000                                                             
   Description                                                                                      
     l       E           TYP  RCUT    TYP  RCUT                                                     
     2     -4.6457903     23  2.300                                                                 
     2     -6.0063729     23  2.300                                                                 
     0     -4.4925590     23  2.300                                                                 
     0      5.0102601     23  2.300                                                                 
     1     -2.7211652     23  2.300                                                                 
     1     16.5183231     23  2.300                                                                 
  local pseudopotential read in
  partial core-charges read in
  partial kinetic energy density read in
  atomic valenz-charges read in
  non local Contribution for L=            2  read in
    real space projection operators read in
  non local Contribution for L=            2  read in
    real space projection operators read in
  non local Contribution for L=            0  read in
    real space projection operators read in
  non local Contribution for L=            0  read in
    real space projection operators read in
  non local Contribution for L=            1  read in
    real space projection operators read in
  non local Contribution for L=            1  read in
    real space projection operators read in
    PAW grid and wavefunctions read in
 
   number of l-projection  operators is LMAX  =            6
   number of lm-projection operators is LMMAX =           18
 
  PAW_PBE Ni 02Aug2007                  :
 energy of atom  1       EATOM=-1077.6739
 kinetic energy error for atom=    0.0101 (will be added to EATOM!!)
 
 
 POSCAR: Ni
  positions in cartesian coordinates
  No initial velocities read in
 exchange correlation table for  LEXCH =        8
   RHO(1)=    0.500       N(1)  =     2000
   RHO(2)=  100.500       N(2)  =     4000
 


--------------------------------------------------------------------------------------------------------


 ion  position               nearest neighbor table
   1  0.448  0.470  0.507-   8 2.40   2 2.44   4 2.44   5 2.47   3 2.48   9 2.50   6 2.51
   2  0.456  0.423  0.408-   9 2.39   4 2.41   7 2.43   1 2.44
   3  0.481  0.525  0.599-   5 2.36   6 2.37   1 2.48   8 2.48
   4  0.453  0.532  0.416-   6 2.40   7 2.40   2 2.41  10 2.42   1 2.44   8 3.08
   5  0.520  0.427  0.582-   3 2.36   9 2.37   1 2.47   8 2.48
   6  0.465  0.583  0.510-   3 2.37   4 2.40  10 2.42   8 2.48   1 2.51
   7  0.551  0.482  0.406-   4 2.40   9 2.41  10 2.42   2 2.43   8 2.45
   8  0.552  0.509  0.513-   1 2.40  10 2.42   7 2.45   6 2.48   3 2.48   5 2.48   9 2.48   4 3.08

   9  0.536  0.403  0.480-   5 2.37   2 2.39   7 2.41   8 2.48   1 2.50
  10  0.547  0.587  0.436-   4 2.42   6 2.42   7 2.42   8 2.42
 

IMPORTANT INFORMATION: All symmetrisations will be switched off!
NOSYMM: (Re-)initialisation of all symmetry stuff for point group C_1.


----------------------------------------------------------------------------------------

                                     Primitive cell                                     

  volume of cell :   10653.7876

  direct lattice vectors                    reciprocal lattice vectors
    21.703142952  0.000000000  0.000000000     0.046076276  0.000000000  0.000000000
     0.000000000 22.024954995  0.000000000     0.000000000  0.045403044  0.000000000
     0.000000000  0.000000000 22.287757520     0.000000000  0.000000000  0.044867681

  length of vectors
    21.703142952 22.024954995 22.287757520     0.046076276  0.045403044  0.044867681

  position of ions in fractional coordinates (direct lattice)
     0.448393852  0.470418178  0.506981370
     0.456375397  0.423019419  0.408370311
     0.480812448  0.525499491  0.598560100
     0.453264828  0.531995564  0.415880141
     0.519527109  0.426930195  0.581967351
     0.465441776  0.583170913  0.510048990
     0.551079573  0.481897764  0.406359372
     0.551543896  0.509376817  0.512754803
     0.536434003  0.402762757  0.479500922
     0.547059421  0.587379856  0.436356232

  ion indices of the primitive-cell ions
   primitive index   ion index
                 1           1
                 2           2
                 3           3
                 4           4
                 5           5
                 6           6
                 7           7
                 8           8
                 9           9
                10          10

----------------------------------------------------------------------------------------

 
 
 KPOINTS: KPOINTS created by Atomic Simulation Env

Automatic generation of k-mesh.
Space group operators:
 irot       det(A)        alpha          n_x          n_y          n_z        tau_x        tau_y        tau_z
    1     1.000000     0.000000     1.000000     0.000000     0.000000     0.000000     0.000000     0.000000
 
 Subroutine IBZKPT returns following result:
 ===========================================
 
 Found      1 irreducible k-points:
 
 Following reciprocal coordinates:
            Coordinates               Weight
  0.000000  0.000000  0.000000      1.000000
 
 Following cartesian coordinates:
            Coordinates               Weight
  0.000000  0.000000  0.000000      1.000000
 


--------------------------------------------------------------------------------------------------------




 Dimension of arrays:
   k-points           NKPTS =      1   k-points in BZ     NKDIM =      1   number of bands    NBANDS=     66
   number of dos      NEDOS =    301   number of ions     NIONS =     10
   non local maximal  LDIM  =      6   non local SUM 2l+1 LMDIM =     18
   total plane-waves  NPLWV = ******
   max r-space proj   IRMAX =      1   max aug-charges    IRDMAX=   4174
   dimension x,y,z NGX =   108 NGY =  108 NGZ =  112
   dimension x,y,z NGXF=   216 NGYF=  216 NGZF=  224
   support grid    NGXF=   216 NGYF=  216 NGZF=  224
   ions per type =              10
   NGX,Y,Z   is equivalent  to a cutoff of   8.27,  8.15,  8.35 a.u.
   NGXF,Y,Z  is equivalent  to a cutoff of  16.55, 16.30, 16.71 a.u.

 SYSTEM =  unknown system                          
 POSCAR =  Ni                                      

 Startparameter for this run:
   NWRITE =      2    write-flag & timer
   PREC   = normal    normal or accurate (medium, high low for compatibility)
   ISTART =      0    job   : 0-new  1-cont  2-samecut
   ICHARG =      2    charge: 1-file 2-atom 10-const
   ISPIN  =      2    spin polarized calculation?
   LNONCOLLINEAR =      F non collinear calculations
   LSORBIT =      F    spin-orbit coupling
   INIWAV =      1    electr: 0-lowe 1-rand  2-diag
   LASPH  =      F    aspherical Exc in radial PAW
   METAGGA=      F    non-selfconsistent MetaGGA calc.

 Electronic Relaxation 1
   ENCUT  =  400.0 eV  29.40 Ry    5.42 a.u.  35.39 35.92 36.35*2*pi/ulx,y,z
   ENINI  =  400.0     initial cutoff
   ENAUG  =  544.6 eV  augmentation charge cutoff
   NELM   =     60;   NELMIN=  2; NELMDL=  0     # of ELM steps 
   EDIFF  = 0.1E-03   stopping-criterion for ELM
   LREAL  =      F    real-space projection
   NLSPLINE    = F    spline interpolate recip. space projectors
   LCOMPAT=      F    compatible to vasp.4.4
   GGA_COMPAT  = T    GGA compatible to vasp.4.4-vasp.4.6
   LMAXPAW     = -100 max onsite density
   LMAXMIX     =    2 max onsite mixed and CHGCAR
   VOSKOWN=      0    Vosko Wilk Nusair interpolation
   ROPT   =    0.00000
 Ionic relaxation
   EDIFFG = 0.1E-02   stopping-criterion for IOM
   NSW    =   1000    number of steps for IOM
   NBLOCK =      1;   KBLOCK =   1000    inner block; outer block 
   IBRION =      2    ionic relax: 0-MD 1-quasi-New 2-CG
   NFREE  =      1    steps in history (QN), initial steepest desc. (CG)
   ISIF   =      0    stress and relaxation
   IWAVPR =     11    prediction:  0-non 1-charg 2-wave 3-comb
   ISYM   =      0    0-nonsym 1-usesym 2-fastsym
   LCORR  =      T    Harris-Foulkes like correction to forces

   POTIM  = 0.5000    time-step for ionic-motion
   TEIN   =    0.0    initial temperature
   TEBEG  =    0.0;   TEEND  =   0.0 temperature during run
   SMASS  =  -3.00    Nose mass-parameter (am)
   estimated Nose-frequenzy (Omega)   =  0.10E-29 period in steps = 0.13E+47 mass=  -0.108E-25a.u.
   SCALEE = 1.0000    scale energy and forces
   NPACO  =    256;   APACO  = 16.0  distance and # of slots for P.C.
   PSTRESS=    0.0 pullay stress

  Mass of Ions in am
   POMASS =  58.69
  Ionic Valenz
   ZVAL   =  10.00
  Atomic Wigner-Seitz radii
   RWIGS  =  -1.00
  virtual crystal weights 
   VCA    =   1.00
   NELECT =     100.0000    total number of electrons
   NUPDOWN=      -1.0000    fix difference up-down

 DOS related values:
   EMIN   =  10.00;   EMAX   =-10.00  energy-range for DOS
   EFERMI =   0.00
   ISMEAR =     1;   SIGMA  =   0.20  broadening in eV -4-tet -1-fermi 0-gaus

 Electronic relaxation 2 (details)
   IALGO  =     38    algorithm
   LDIAG  =      T    sub-space diagonalisation (order eigenvalues)
   LSUBROT=      F    optimize rotation matrix (better conditioning)
   TURBO    =      0    0=normal 1=particle mesh
   IRESTART =      0    0=no restart 2=restart with 2 vectors
   NREBOOT  =      0    no. of reboots
   NMIN     =      0    reboot dimension
   EREF     =   0.00    reference energy to select bands
   IMIX   =      4    mixing-type and parameters
     AMIX     =   0.40;   BMIX     =  1.00
     AMIX_MAG =   1.60;   BMIX_MAG =  1.00
     AMIN     =   0.10
     WC   =   100.;   INIMIX=   1;  MIXPRE=   1;  MAXMIX= -45

 Intra band minimization:
   WEIMIN = 0.0010     energy-eigenvalue tresh-hold
   EBREAK =  0.38E-06  absolut break condition
   DEPER  =   0.30     relativ break condition  

   TIME   =   0.40     timestep for ELM

  volume/ion in A,a.u.               =    1065.38      7189.53
  Fermi-wavevector in a.u.,A,eV,Ry     =   0.345335  0.652588  1.622577  0.119256
  Thomas-Fermi vector in A             =   1.253066
 
 Write flags
   LWAVE        =      F    write WAVECAR
   LDOWNSAMPLE  =      F    k-point downsampling of WAVECAR
   LCHARG       =      F    write CHGCAR
   LVTOT        =      F    write LOCPOT, total local potential
   LVHAR        =      F    write LOCPOT, Hartree potential only
   LELF         =      F    write electronic localiz. function (ELF)
   LORBIT       =      0    0 simple, 1 ext, 2 COOP (PROOUT), +10 PAW based schemes


 Dipole corrections
   LMONO  =      F    monopole corrections only (constant potential shift)
   LDIPOL =      F    correct potential (dipole corrections)
   IDIPOL =      0    1-x, 2-y, 3-z, 4-all directions 
   EPSILON=  1.0000000 bulk dielectric constant

 Exchange correlation treatment:
   GGA     =    PE    GGA type
   LEXCH   =     8    internal setting for exchange type
   VOSKOWN=      0    Vosko Wilk Nusair interpolation
   LHFCALC =     F    Hartree Fock is set to
   LHFONE  =     F    Hartree Fock one center treatment
   AEXX    =    0.0000 exact exchange contribution

 Linear response parameters
   LEPSILON=     F    determine dielectric tensor
   LRPA    =     F    only Hartree local field effects (RPA)
   LNABLA  =     F    use nabla operator in PAW spheres
   LVEL    =     F    velocity operator in full k-point grid
   LINTERFAST=   F  fast interpolation
   KINTER  =     0    interpolate to denser k-point grid
   CSHIFT  =0.1000    complex shift for real part using Kramers Kronig
   OMEGAMAX=  -1.0    maximum frequency
   DEG_THRESHOLD= 0.2000000E-02 threshold for treating states as degnerate
   RTIME   =   -0.100 relaxation time in fs
  (WPLASMAI=    0.000 imaginary part of plasma frequency in eV, 0.658/RTIME)
   DFIELD  = 0.0000000 0.0000000 0.0000000 field for delta impulse in time
 
 Orbital magnetization related:
   ORBITALMAG=     F  switch on orbital magnetization
   LCHIMAG   =     F  perturbation theory with respect to B field
   DQ        =  0.001000  dq finite difference perturbation B field
   LLRAUG    =     F  two centre corrections for induced B field



--------------------------------------------------------------------------------------------------------


 conjugate gradient relaxation of ions
 charge density and potential will be updated during run
 spin polarized calculation
 Variant of blocked Davidson
 Davidson routine will perform the subspace rotation
 perform sub-space diagonalisation
    after iterative eigenvector-optimisation
 modified Broyden-mixing scheme, WC =      100.0
 initial mixing is a Kerker type mixing with AMIX =  0.4000 and BMIX =      1.0000
 Hartree-type preconditioning will be used
 using additional bands            16
 reciprocal scheme for non local part
 use partial core corrections
 calculate Harris-corrections to forces 
   (improved forces if not selfconsistent)
 use gradient corrections 
 use of overlap-Matrix (Vanderbilt PP)
 Methfessel and Paxton  Order N= 1 SIGMA  =   0.20


--------------------------------------------------------------------------------------------------------


  energy-cutoff  :      400.00
  volume of cell :    10653.79
      direct lattice vectors                 reciprocal lattice vectors
    21.703142952  0.000000000  0.000000000     0.046076276  0.000000000  0.000000000
     0.000000000 22.024954995  0.000000000     0.000000000  0.045403044  0.000000000
     0.000000000  0.000000000 22.287757520     0.000000000  0.000000000  0.044867681

  length of vectors
    21.703142952 22.024954995 22.287757520     0.046076276  0.045403044  0.044867681


 
 k-points in units of 2pi/SCALE and weight: KPOINTS created by Atomic Simulation Env
   0.00000000  0.00000000  0.00000000       1.000
 
 k-points in reciprocal lattice and weights: KPOINTS created by Atomic Simulation Env
   0.00000000  0.00000000  0.00000000       1.000
 
 position of ions in fractional coordinates (direct lattice) 
   0.44839385  0.47041818  0.50698137
   0.45637540  0.42301942  0.40837031
   0.48081245  0.52549949  0.59856010
   0.45326483  0.53199556  0.41588014
   0.51952711  0.42693019  0.58196735
   0.46544178  0.58317091  0.51004899
   0.55107957  0.48189776  0.40635937
   0.55154390  0.50937682  0.51275480
   0.53643400  0.40276276  0.47950092
   0.54705942  0.58737986  0.43635623
 
 position of ions in cartesian coordinates  (Angst):
   9.73155587 10.36093920 11.29947784
   9.90478048  9.31698367  9.10165846
  10.43514129 11.57410264 13.34056238
   9.83727137 11.71717836  9.26903575
  11.27537110  9.40311832 12.97074721
  10.10154941 12.84431312 11.36784821
  11.96015875 10.61377656  9.05683915
  11.97023602 11.21900147 11.42815472
  11.64230386  8.87083160 10.68700028
  11.87290881 12.93701490  9.72540188
 


--------------------------------------------------------------------------------------------------------


 use parallel FFT for orbitals z direction half grid
 k-point   1 :   0.0000 0.0000 0.0000  plane waves:   96763

 maximum and minimum number of plane-waves per node :     12101    12089

 maximum number of plane-waves:     96763
 maximum index in each direction: 
   IXMAX=   35   IYMAX=   35   IZMAX=   36
   IXMIN=  -35   IYMIN=  -35   IZMIN=    0


 parallel 3D FFT for wavefunctions:
    minimum data exchange during FFTs selected (reduces bandwidth)
 parallel 3D FFT for charge:
    minimum data exchange during FFTs selected (reduces bandwidth)


 total amount of memory used by VASP MPI-rank0   135544. kBytes
=======================================================================

   base      :      30000. kBytes
   nonl-proj :       3679. kBytes
   fftplans  :      26331. kBytes
   grid      :      62705. kBytes
   one-center:         31. kBytes
   wavefun   :      12798. kBytes
 
     INWAV:  cpu time    0.0000: real time    0.0000
 Broyden mixing: mesh for mixing (old mesh)
   NGX = 71   NGY = 71   NGZ = 73
  (NGX  =216   NGY  =216   NGZ  =224)
  gives a total of 367993 points

 initial charge density was supplied:
 charge density of overlapping atoms calculated
 number of electron     100.0000000 magnetization      10.0000000
 keeping initial charge density in first step


--------------------------------------------------------------------------------------------------------


 Maximum index for augmentation-charges           299 (set IRDMAX)


--------------------------------------------------------------------------------------------------------


 First call to EWALD:  gamma=   0.081
 Maximum number of real-space cells 3x 3x 3
 Maximum number of reciprocal cells 3x 3x 3

    FEWALD:  cpu time    0.0012: real time    0.0012


--------------------------------------- Iteration      1(   1)  ---------------------------------------


    POTLOK:  cpu time    1.8777: real time    1.8940
    SETDIJ:  cpu time    0.0184: real time    0.0185
     EDDAV:  cpu time    6.4994: real time    6.7449
       DOS:  cpu time    0.0007: real time    0.0007
    --------------------------------------------
      LOOP:  cpu time    8.3962: real time    8.6581

 eigenvalue-minimisations  :   264
 total energy-change (2. order) : 0.6262516E+03  (-0.1679083E+04)
 number of electron     100.0000000 magnetization      10.0000000
 augmentation part      100.0000000 magnetization      10.0000000

 Free energy of the ion-electron system (eV)
  ---------------------------------------------------
  alpha Z        PSCENC =         4.78697369
  Ewald energy   TEWEN  =     12848.07803664
  -Hartree energ DENC   =    -22699.04371779
  -exchange      EXHF   =         0.00000000
  -V(xc)+E(xc)   XCENC  =       305.05034215
  PAW double counting   =      9628.33173603   -10296.70712275
  entropy T*S    EENTRO =         0.04859616
  eigenvalues    EBANDS =        59.06837796
  atomic energy  EATOM  =     10776.63837129
  Solvation  Ediel_sol  =         0.00000000
  ---------------------------------------------------
  free energy    TOTEN  =       626.25159338 eV

  energy without entropy =      626.20299722  energy(sigma->0) =      626.23539466


--------------------------------------------------------------------------------------------------------




--------------------------------------- Iteration      1(   2)  ---------------------------------------


     EDDAV:  cpu time    7.7345: real time    7.7628
       DOS:  cpu time    0.0013: real time    0.0013
    --------------------------------------------
      LOOP:  cpu time    7.7359: real time    7.7641

 eigenvalue-minimisations  :   448
 total energy-change (2. order) :-0.5266799E+03  (-0.4897162E+03)
 number of electron     100.0000000 magnetization      10.0000000
 augmentation part      100.0000000 magnetization      10.0000000

 Free energy of the ion-electron system (eV)
  ---------------------------------------------------
  alpha Z        PSCENC =         4.78697369
  Ewald energy   TEWEN  =     12848.07803664
  -Hartree energ DENC   =    -22699.04371779
  -exchange      EXHF   =         0.00000000
  -V(xc)+E(xc)   XCENC  =       305.05034215
  PAW double counting   =      9628.33173603   -10296.70712275
  entropy T*S    EENTRO =        -0.00823241
  eigenvalues    EBANDS =      -467.55469804
  atomic energy  EATOM  =     10776.63837129
  Solvation  Ediel_sol  =         0.00000000
  ---------------------------------------------------
  free energy    TOTEN  =        99.57168882 eV

  energy without entropy =       99.57992122  energy(sigma->0) =       99.57443295


--------------------------------------------------------------------------------------------------------




--------------------------------------- Iteration      1(   3)  ---------------------------------------


     EDDAV:  cpu time    6.4058: real time    6.4335
       DOS:  cpu time    0.0021: real time    0.0021
    --------------------------------------------
      LOOP:  cpu time    6.4080: real time    6.4356

 eigenvalue-minimisations  :   312
 total energy-change (2. order) :-0.1295834E+03  (-0.1217050E+03)
 number of electron     100.0000000 magnetization      10.0000000
 augmentation part      100.0000000 magnetization      10.0000000

 Free energy of the ion-electron system (eV)
  ---------------------------------------------------
  alpha Z        PSCENC =         4.78697369
  Ewald energy   TEWEN  =     12848.07803664
  -Hartree energ DENC   =    -22699.04371779
  -exchange      EXHF   =         0.00000000
  -V(xc)+E(xc)   XCENC  =       305.05034215
  PAW double counting   =      9628.33173603   -10296.70712275
  entropy T*S    EENTRO =        -0.06050317
  eigenvalues    EBANDS =      -597.08587390
  atomic energy  EATOM  =     10776.63837129
  Solvation  Ediel_sol  =         0.00000000
  ---------------------------------------------------
  free energy    TOTEN  =       -30.01175782 eV

  energy without entropy =      -29.95125464  energy(sigma->0) =      -29.99159009


--------------------------------------------------------------------------------------------------------




--------------------------------------- Iteration      1(   4)  ---------------------------------------


     EDDAV:  cpu time    5.9677: real time    6.0633
       DOS:  cpu time    0.0026: real time    0.0026
    --------------------------------------------
      LOOP:  cpu time    5.9704: real time    6.0659

 eigenvalue-minimisations  :   288
 total energy-change (2. order) :-0.1156493E+02  (-0.1029047E+02)
 number of electron     100.0000000 magnetization      10.0000000
 augmentation part      100.0000000 magnetization      10.0000000

 Free energy of the ion-electron system (eV)
  ---------------------------------------------------
  alpha Z        PSCENC =         4.78697369
  Ewald energy   TEWEN  =     12848.07803664
  -Hartree energ DENC   =    -22699.04371779
  -exchange      EXHF   =         0.00000000
  -V(xc)+E(xc)   XCENC  =       305.05034215
  PAW double counting   =      9628.33173603   -10296.70712275
  entropy T*S    EENTRO =        -0.03383543
  eigenvalues    EBANDS =      -608.67747485
  atomic energy  EATOM  =     10776.63837129
  Solvation  Ediel_sol  =         0.00000000
  ---------------------------------------------------
  free energy    TOTEN  =       -41.57669102 eV

  energy without entropy =      -41.54285559  energy(sigma->0) =      -41.56541254


--------------------------------------------------------------------------------------------------------




--------------------------------------- Iteration      1(   5)  ---------------------------------------


     EDDAV:  cpu time   11.4482: real time   11.4731
       DOS:  cpu time    0.4593: real time    0.4595
    CHARGE:  cpu time    2.8641: real time    2.8653
    MIXING:  cpu time    0.0686: real time    0.0687
    --------------------------------------------
      LOOP:  cpu time   14.8402: real time   14.8666

 eigenvalue-minimisations  :   316
 total energy-change (2. order) :-0.3286998E+00  (-0.3233493E+00)
 number of electron      99.9999630 magnetization       9.7505252
 augmentation part       59.7162174 magnetization       8.4378743

 Broyden mixing:
  rms(total) = 0.19080E+01    rms(broyden)= 0.19069E+01
  rms(prec ) = 0.20262E+01
  weight for this iteration     100.00

 Free energy of the ion-electron system (eV)
  ---------------------------------------------------
  alpha Z        PSCENC =         4.78697369
  Ewald energy   TEWEN  =     12848.07803664
  -Hartree energ DENC   =    -22699.04371779
  -exchange      EXHF   =         0.00000000
  -V(xc)+E(xc)   XCENC  =       305.05034215
  PAW double counting   =      9628.33173603   -10296.70712275
  entropy T*S    EENTRO =        -0.03993067
  eigenvalues    EBANDS =      -609.00007941
  atomic energy  EATOM  =     10776.63837129
  Solvation  Ediel_sol  =         0.00000000
  ---------------------------------------------------
  free energy    TOTEN  =       -41.90539082 eV

  energy without entropy =      -41.86546015  energy(sigma->0) =      -41.89208059


--------------------------------------------------------------------------------------------------------




--------------------------------------- Iteration      1(   6)  ---------------------------------------


    POTLOK:  cpu time    1.8887: real time    1.8995
    SETDIJ:  cpu time    0.0214: real time    0.0215
     EDDAV:  cpu time    8.5508: real time    8.5614
       DOS:  cpu time    0.0038: real time    0.0038
    CHARGE:  cpu time    0.5754: real time    0.5768
    MIXING:  cpu time    0.0397: real time    0.0398
    --------------------------------------------
      LOOP:  cpu time   11.0799: real time   11.1028

 eigenvalue-minimisations  :   290
 total energy-change (2. order) :-0.2188956E+01  (-0.5367797E+01)
 number of electron      99.9999661 magnetization       9.6541136
 augmentation part       63.6598624 magnetization       8.5086431

 Broyden mixing:
  rms(total) = 0.45495E+01    rms(broyden)= 0.45485E+01
  rms(prec ) = 0.48559E+01
  weight for this iteration     100.00

 eigenvalues of (default mixing * dielectric matrix)
  average eigenvalue GAMMA=   0.1931
  0.1931

 Free energy of the ion-electron system (eV)
  ---------------------------------------------------
  alpha Z        PSCENC =         4.78697369
  Ewald energy   TEWEN  =     12848.07803664
  -Hartree energ DENC   =    -22611.69322284
  -exchange      EXHF   =         0.00000000
  -V(xc)+E(xc)   XCENC  =       298.82912498
  PAW double counting   =      9970.70295841   -10615.81595099
  entropy T*S    EENTRO =         0.02929938
  eigenvalues    EBANDS =      -715.64993735
  atomic energy  EATOM  =     10776.63837129
  Solvation  Ediel_sol  =         0.00000000
  ---------------------------------------------------
  free energy    TOTEN  =       -44.09434678 eV

  energy without entropy =      -44.12364616  energy(sigma->0) =      -44.10411324


--------------------------------------------------------------------------------------------------------




--------------------------------------- Iteration      1(   7)  ---------------------------------------


    POTLOK:  cpu time    2.2591: real time    2.2659
    SETDIJ:  cpu time    0.0184: real time    0.0184
     EDDAV:  cpu time    5.7144: real time    5.7706
       DOS:  cpu time    0.0042: real time    0.0042
    CHARGE:  cpu time    0.5607: real time    0.5651
    MIXING:  cpu time    0.1876: real time    0.1881
    --------------------------------------------
      LOOP:  cpu time    8.7444: real time    8.8124

 eigenvalue-minimisations  :   276
 total energy-change (2. order) : 0.2992860E+01  (-0.4231794E+01)
 number of electron      99.9999645 magnetization       9.5859476
 augmentation part       64.3375774 magnetization       7.6839249

 Broyden mixing:
  rms(total) = 0.29478E+01    rms(broyden)= 0.29461E+01
  rms(prec ) = 0.31288E+01
  weight for this iteration     100.00

 eigenvalues of (default mixing * dielectric matrix)
  average eigenvalue GAMMA=   0.2134
  0.2800  0.1469

 Free energy of the ion-electron system (eV)
  ---------------------------------------------------
  alpha Z        PSCENC =         4.78697369
  Ewald energy   TEWEN  =     12848.07803664
  -Hartree energ DENC   =    -22623.84962608
  -exchange      EXHF   =         0.00000000
  -V(xc)+E(xc)   XCENC  =       299.47891209
  PAW double counting   =     10045.83153648   -10696.18976619
  entropy T*S    EENTRO =        -0.01740487
  eigenvalues    EBANDS =      -695.85851946
  atomic energy  EATOM  =     10776.63837129
  Solvation  Ediel_sol  =         0.00000000
  ---------------------------------------------------
  free energy    TOTEN  =       -41.10148639 eV

  energy without entropy =      -41.08408153  energy(sigma->0) =      -41.09568477


--------------------------------------------------------------------------------------------------------




--------------------------------------- Iteration      1(   8)  ---------------------------------------


    POTLOK:  cpu time    5.2889: real time    5.2960
    SETDIJ:  cpu time    0.1947: real time    0.1948
     EDDAV:  cpu time   13.8006: real time   13.8182
       DOS:  cpu time    0.4537: real time    0.4539
    CHARGE:  cpu time    1.5455: real time    1.5461
    MIXING:  cpu time    0.2417: real time    0.2418
    --------------------------------------------
      LOOP:  cpu time   21.5252: real time   21.5509

 eigenvalue-minimisations  :   284
 total energy-change (2. order) : 0.1939211E+01  (-0.2240835E+01)
 number of electron      99.9999560 magnetization       9.4643684
 augmentation part       63.4359933 magnetization       7.8175572

 Broyden mixing:
  rms(total) = 0.33844E+01    rms(broyden)= 0.33838E+01
  rms(prec ) = 0.36011E+01
  weight for this iteration     100.00

 eigenvalues of (default mixing * dielectric matrix)
  average eigenvalue GAMMA=   0.3202
  0.6794  0.1406  0.1406

 Free energy of the ion-electron system (eV)
  ---------------------------------------------------
  alpha Z        PSCENC =         4.78697369
  Ewald energy   TEWEN  =     12848.07803664
  -Hartree energ DENC   =    -22659.74903057
  -exchange      EXHF   =         0.00000000
  -V(xc)+E(xc)   XCENC  =       300.50975371
  PAW double counting   =     10159.48249982   -10818.92803741
  entropy T*S    EENTRO =        -0.00455833
  eigenvalues    EBANDS =      -649.97628455
  atomic energy  EATOM  =     10776.63837129
  Solvation  Ediel_sol  =         0.00000000
  ---------------------------------------------------
  free energy    TOTEN  =       -39.16227571 eV

  energy without entropy =      -39.15771738  energy(sigma->0) =      -39.16075626


--------------------------------------------------------------------------------------------------------




--------------------------------------- Iteration      1(   9)  ---------------------------------------


    POTLOK:  cpu time    3.0983: real time    3.1092
    SETDIJ:  cpu time    0.0181: real time    0.0181
     EDDAV:  cpu time    6.2709: real time    6.2942
       DOS:  cpu time    0.0056: real time    0.0056
    CHARGE:  cpu time    0.5605: real time    0.5694
    MIXING:  cpu time    0.0459: real time    0.0460
    --------------------------------------------
      LOOP:  cpu time    9.9992: real time   10.0424

 eigenvalue-minimisations  :   340
 total energy-change (2. order) : 0.3641054E+01  (-0.1173765E+01)
 number of electron      99.9999627 magnetization       9.3725519
 augmentation part       62.8075917 magnetization       7.6422380

 Broyden mixing:
  rms(total) = 0.17615E+01    rms(broyden)= 0.17606E+01
  rms(prec ) = 0.18788E+01
  weight for this iteration     100.00

 eigenvalues of (default mixing * dielectric matrix)
  average eigenvalue GAMMA=   0.3175
  0.6791  0.3054  0.1427  0.1427

 Free energy of the ion-electron system (eV)
  ---------------------------------------------------
  alpha Z        PSCENC =         4.78697369
  Ewald energy   TEWEN  =     12848.07803664
  -Hartree energ DENC   =    -22701.68531347
  -exchange      EXHF   =         0.00000000
  -V(xc)+E(xc)   XCENC  =       301.81057825
  PAW double counting   =     10311.68746470   -10982.33677790
  entropy T*S    EENTRO =        -0.04702348
  eigenvalues    EBANDS =      -594.45353141
  atomic energy  EATOM  =     10776.63837129
  Solvation  Ediel_sol  =         0.00000000
  ---------------------------------------------------
  free energy    TOTEN  =       -35.52122168 eV

  energy without entropy =      -35.47419820  energy(sigma->0) =      -35.50554719


--------------------------------------------------------------------------------------------------------




--------------------------------------- Iteration      1(  10)  ---------------------------------------


    POTLOK:  cpu time    2.2949: real time    2.3026
    SETDIJ:  cpu time    0.0214: real time    0.0214
     EDDAV:  cpu time    6.3865: real time    6.4289
       DOS:  cpu time    0.0010: real time    0.0010
    CHARGE:  cpu time    0.5802: real time    0.5865
    MIXING:  cpu time    0.2372: real time    0.2374
    --------------------------------------------
      LOOP:  cpu time    9.5211: real time    9.5778

 eigenvalue-minimisations  :   356
 total energy-change (2. order) :-0.2503739E+01  (-0.1171892E+01)
 number of electron      99.9999715 magnetization       9.2580878
 augmentation part       62.2903432 magnetization       7.4412224

 Broyden mixing:
  rms(total) = 0.36445E+01    rms(broyden)= 0.36436E+01
  rms(prec ) = 0.39467E+01
  weight for this iteration     100.00

 eigenvalues of (default mixing * dielectric matrix)
  average eigenvalue GAMMA=   0.3651
  0.8924  0.5637  0.1316  0.1316  0.1060

 Free energy of the ion-electron system (eV)
  ---------------------------------------------------
  alpha Z        PSCENC =         4.78697369
  Ewald energy   TEWEN  =     12848.07803664
  -Hartree energ DENC   =    -22710.70122769
  -exchange      EXHF   =         0.00000000
  -V(xc)+E(xc)   XCENC  =       302.01219857
  PAW double counting   =     10381.20115205   -11054.27895658
  entropy T*S    EENTRO =         0.07913173
  eigenvalues    EBANDS =      -585.84064080
  atomic energy  EATOM  =     10776.63837129
  Solvation  Ediel_sol  =         0.00000000
  ---------------------------------------------------
  free energy    TOTEN  =       -38.02496110 eV

  energy without entropy =      -38.10409283  energy(sigma->0) =      -38.05133834


--------------------------------------------------------------------------------------------------------




--------------------------------------- Iteration      1(  11)  ---------------------------------------


    POTLOK:  cpu time    1.9484: real time    1.9812
    SETDIJ:  cpu time    0.0142: real time    0.0166
     EDDAV:  cpu time    5.8579: real time    5.8974
       DOS:  cpu time    0.0013: real time    0.0013
    CHARGE:  cpu time    0.5791: real time    0.5799
    MIXING:  cpu time    0.0598: real time    0.0599
    --------------------------------------------
      LOOP:  cpu time    8.4607: real time    8.5364

 eigenvalue-minimisations  :   324
 total energy-change (2. order) : 0.1938774E+01  (-0.1207543E+01)
 number of electron      99.9999604 magnetization       9.2218602
 augmentation part       62.2278357 magnetization       7.6394531

 Broyden mixing:
  rms(total) = 0.26027E+01    rms(broyden)= 0.26020E+01
  rms(prec ) = 0.27707E+01
  weight for this iteration     100.00

 eigenvalues of (default mixing * dielectric matrix)
  average eigenvalue GAMMA=   0.3464
  1.0409  0.5525  0.1404  0.1404  0.1375  0.0668

 Free energy of the ion-electron system (eV)
  ---------------------------------------------------
  alpha Z        PSCENC =         4.78697369
  Ewald energy   TEWEN  =     12848.07803664
  -Hartree energ DENC   =    -22717.79440616
  -exchange      EXHF   =         0.00000000
  -V(xc)+E(xc)   XCENC  =       302.20898865
  PAW double counting   =     10463.60667901   -11139.50778575
  entropy T*S    EENTRO =         0.01104625
  eigenvalues    EBANDS =      -574.11409046
  atomic energy  EATOM  =     10776.63837129
  Solvation  Ediel_sol  =         0.00000000
  ---------------------------------------------------
  free energy    TOTEN  =       -36.08618684 eV

  energy without entropy =      -36.09723308  energy(sigma->0) =      -36.08986892


--------------------------------------------------------------------------------------------------------




--------------------------------------- Iteration      1(  12)  ---------------------------------------


    POTLOK:  cpu time    1.8874: real time    1.8969
    SETDIJ:  cpu time    0.0214: real time    0.0215
     EDDAV:  cpu time   10.2832: real time   10.8290
       DOS:  cpu time    0.0008: real time    0.0008
    CHARGE:  cpu time    0.5685: real time    0.5693
    MIXING:  cpu time    0.0648: real time    0.0649
    --------------------------------------------
      LOOP:  cpu time   12.8261: real time   13.3824

 eigenvalue-minimisations  :   294
 total energy-change (2. order) : 0.1074579E+01  (-0.3313132E+00)
 number of electron      99.9999637 magnetization       9.2110809
 augmentation part       62.2501209 magnetization       7.6435542

 Broyden mixing:
  rms(total) = 0.18288E+01    rms(broyden)= 0.18284E+01
  rms(prec ) = 0.19522E+01
  weight for this iteration     100.00

 eigenvalues of (default mixing * dielectric matrix)
  average eigenvalue GAMMA=   0.3121
  1.0542  0.5328  0.1596  0.1596  0.1301  0.0741  0.0741

 Free energy of the ion-electron system (eV)
  ---------------------------------------------------
  alpha Z        PSCENC =         4.78697369
  Ewald energy   TEWEN  =     12848.07803664
  -Hartree energ DENC   =    -22719.39367109
  -exchange      EXHF   =         0.00000000
  -V(xc)+E(xc)   XCENC  =       302.17525390
  PAW double counting   =     10488.91793159   -11165.63221839
  entropy T*S    EENTRO =        -0.05525357
  eigenvalues    EBANDS =      -570.52703180
  atomic energy  EATOM  =     10776.63837129
  Solvation  Ediel_sol  =         0.00000000
  ---------------------------------------------------
  free energy    TOTEN  =       -35.01160773 eV

  energy without entropy =      -34.95635416  energy(sigma->0) =      -34.99318988


--------------------------------------------------------------------------------------------------------




--------------------------------------- Iteration      1(  13)  ---------------------------------------


    POTLOK:  cpu time    1.8901: real time    1.8927
    SETDIJ:  cpu time    0.0207: real time    0.0207
     EDDAV:  cpu time   13.2161: real time   13.9801
       DOS:  cpu time    0.0008: real time    0.0008
    CHARGE:  cpu time    0.5793: real time    0.5811
    MIXING:  cpu time    0.0696: real time    0.0698
    --------------------------------------------
      LOOP:  cpu time   15.7766: real time   16.5453

 eigenvalue-minimisations  :   352
 total energy-change (2. order) : 0.8196753E-01  (-0.1489860E+00)
 number of electron      99.9999614 magnetization       9.1961309
 augmentation part       62.2664970 magnetization       7.6844181

 Broyden mixing:
  rms(total) = 0.15550E+01    rms(broyden)= 0.15547E+01
  rms(prec ) = 0.16717E+01
  weight for this iteration     100.00

 eigenvalues of (default mixing * dielectric matrix)
  average eigenvalue GAMMA=   0.2859
  1.0573  0.5034  0.1824  0.1824  0.1248  0.0905  0.0905  0.0562

 Free energy of the ion-electron system (eV)
  ---------------------------------------------------
  alpha Z        PSCENC =         4.78697369
  Ewald energy   TEWEN  =     12848.07803664
  -Hartree energ DENC   =    -22719.54401456
  -exchange      EXHF   =         0.00000000
  -V(xc)+E(xc)   XCENC  =       302.13706764
  PAW double counting   =     10495.69177783   -11172.54145188
  entropy T*S    EENTRO =        -0.06143889
  eigenvalues    EBANDS =      -570.11496196
  atomic energy  EATOM  =     10776.63837129
  Solvation  Ediel_sol  =         0.00000000
  ---------------------------------------------------
  free energy    TOTEN  =       -34.92964020 eV

  energy without entropy =      -34.86820131  energy(sigma->0) =      -34.90916057


--------------------------------------------------------------------------------------------------------




--------------------------------------- Iteration      1(  14)  ---------------------------------------


    POTLOK:  cpu time    1.8901: real time    1.8964
    SETDIJ:  cpu time    0.0214: real time    0.0214
     EDDAV:  cpu time    5.2303: real time    5.2449
       DOS:  cpu time    0.0008: real time    0.0008
    CHARGE:  cpu time    0.5732: real time    0.5741
    MIXING:  cpu time    0.0764: real time    0.0765
    --------------------------------------------
      LOOP:  cpu time    7.7922: real time    7.8141

 eigenvalue-minimisations  :   284
 total energy-change (2. order) : 0.1217900E+00  (-0.8472935E-01)
 number of electron      99.9999623 magnetization       9.1597817
 augmentation part       62.2935548 magnetization       7.7329976

 Broyden mixing:
  rms(total) = 0.10194E+01    rms(broyden)= 0.10190E+01
  rms(prec ) = 0.10904E+01
  weight for this iteration     100.00

 eigenvalues of (default mixing * dielectric matrix)
  average eigenvalue GAMMA=   0.2933
  1.1112  0.4264  0.2836  0.2836  0.1435  0.1292  0.1292  0.0751  0.0578

 Free energy of the ion-electron system (eV)
  ---------------------------------------------------
  alpha Z        PSCENC =         4.78697369
  Ewald energy   TEWEN  =     12848.07803664
  -Hartree energ DENC   =    -22719.88865442
  -exchange      EXHF   =         0.00000000
  -V(xc)+E(xc)   XCENC  =       302.09527302
  PAW double counting   =     10503.18908296   -11180.12565613
  entropy T*S    EENTRO =        -0.07731364
  eigenvalues    EBANDS =      -569.50396360
  atomic energy  EATOM  =     10776.63837129
  Solvation  Ediel_sol  =         0.00000000
  ---------------------------------------------------
  free energy    TOTEN  =       -34.80785018 eV

  energy without entropy =      -34.73053654  energy(sigma->0) =      -34.78207897


--------------------------------------------------------------------------------------------------------




--------------------------------------- Iteration      1(  15)  ---------------------------------------


    POTLOK:  cpu time    1.8951: real time    1.9012
    SETDIJ:  cpu time    0.0218: real time    0.0219
     EDDAV:  cpu time    6.1541: real time    6.5271
       DOS:  cpu time    0.0023: real time    0.0023
    CHARGE:  cpu time    0.5917: real time    0.5929
    MIXING:  cpu time    0.0781: real time    0.0782
    --------------------------------------------
      LOOP:  cpu time    8.7432: real time    9.1236

 eigenvalue-minimisations  :   292
 total energy-change (2. order) :-0.2710214E-01  (-0.5835074E-01)
 number of electron      99.9999625 magnetization       9.0667913
 augmentation part       62.3514634 magnetization       7.6857719

 Broyden mixing:
  rms(total) = 0.88761E+00    rms(broyden)= 0.88714E+00
  rms(prec ) = 0.94333E+00
  weight for this iteration     100.00

 eigenvalues of (default mixing * dielectric matrix)
  average eigenvalue GAMMA=   0.3556
  1.3940  0.5558  0.5558  0.4124  0.1572  0.1193  0.1193  0.1037  0.0814  0.0567

 Free energy of the ion-electron system (eV)
  ---------------------------------------------------
  alpha Z        PSCENC =         4.78697369
  Ewald energy   TEWEN  =     12848.07803664
  -Hartree energ DENC   =    -22721.06368920
  -exchange      EXHF   =         0.00000000
  -V(xc)+E(xc)   XCENC  =       302.05232338
  PAW double counting   =     10517.23937571   -11194.27104097
  entropy T*S    EENTRO =        -0.04994238
  eigenvalues    EBANDS =      -568.24536049
  atomic energy  EATOM  =     10776.63837129
  Solvation  Ediel_sol  =         0.00000000
  ---------------------------------------------------
  free energy    TOTEN  =       -34.83495233 eV

  energy without entropy =      -34.78500994  energy(sigma->0) =      -34.81830487


--------------------------------------------------------------------------------------------------------




--------------------------------------- Iteration      1(  16)  ---------------------------------------


    POTLOK:  cpu time    1.8852: real time    1.8925
    SETDIJ:  cpu time    0.0161: real time    0.0161
     EDDAV:  cpu time    7.7577: real time    7.7811
       DOS:  cpu time    0.0010: real time    0.0033
    CHARGE:  cpu time    0.8302: real time    0.8314
    MIXING:  cpu time    0.2123: real time    0.2125
    --------------------------------------------
      LOOP:  cpu time   10.7025: real time   10.7369

 eigenvalue-minimisations  :   284
 total energy-change (2. order) : 0.2885955E-01  (-0.8256486E-01)
 number of electron      99.9999647 magnetization       9.0391935
 augmentation part       62.4154611 magnetization       7.6751530

 Broyden mixing:
  rms(total) = 0.95045E+00    rms(broyden)= 0.94989E+00
  rms(prec ) = 0.10244E+01
  weight for this iteration     100.00

 eigenvalues of (default mixing * dielectric matrix)
  average eigenvalue GAMMA=   0.3426
  1.4546  0.5875  0.5875  0.4201  0.1519  0.1157  0.1157  0.1218  0.0860  0.0700
  0.0578

 Free energy of the ion-electron system (eV)
  ---------------------------------------------------
  alpha Z        PSCENC =         4.78697369
  Ewald energy   TEWEN  =     12848.07803664
  -Hartree energ DENC   =    -22725.16726047
  -exchange      EXHF   =         0.00000000
  -V(xc)+E(xc)   XCENC  =       301.99807349
  PAW double counting   =     10547.42777559   -11224.62308712
  entropy T*S    EENTRO =        -0.02337922
  eigenvalues    EBANDS =      -563.92159669
  atomic energy  EATOM  =     10776.63837129
  Solvation  Ediel_sol  =         0.00000000
  ---------------------------------------------------
  free energy    TOTEN  =       -34.80609278 eV

  energy without entropy =      -34.78271356  energy(sigma->0) =      -34.79829971


--------------------------------------------------------------------------------------------------------




--------------------------------------- Iteration      1(  17)  ---------------------------------------


    POTLOK:  cpu time    1.8948: real time    1.9049
    SETDIJ:  cpu time    0.0164: real time    0.0165
     EDDAV:  cpu time   10.9587: real time   10.9802
       DOS:  cpu time    0.0030: real time    0.0030
    CHARGE:  cpu time    0.7183: real time    0.7265
    MIXING:  cpu time    0.0940: real time    0.0954
    --------------------------------------------
      LOOP:  cpu time   13.6852: real time   13.7264

 eigenvalue-minimisations  :   306
 total energy-change (2. order) : 0.1336907E+00  (-0.4360958E-01)
 number of electron      99.9999637 magnetization       8.9612393
 augmentation part       62.4505879 magnetization       7.6108752

 Broyden mixing:
  rms(total) = 0.38052E+00    rms(broyden)= 0.37969E+00
  rms(prec ) = 0.40324E+00
  weight for this iteration     100.00

 eigenvalues of (default mixing * dielectric matrix)
  average eigenvalue GAMMA=   0.3675
  1.5038  0.6974  0.6974  0.3977  0.3977  0.1530  0.1283  0.1158  0.1158  0.0791
  0.0587  0.0650

 Free energy of the ion-electron system (eV)
  ---------------------------------------------------
  alpha Z        PSCENC =         4.78697369
  Ewald energy   TEWEN  =     12848.07803664
  -Hartree energ DENC   =    -22726.16195704
  -exchange      EXHF   =         0.00000000
  -V(xc)+E(xc)   XCENC  =       301.97550678
  PAW double counting   =     10553.91008239   -11231.06347364
  entropy T*S    EENTRO =        -0.04015860
  eigenvalues    EBANDS =      -562.79578356
  atomic energy  EATOM  =     10776.63837129
  Solvation  Ediel_sol  =         0.00000000
  ---------------------------------------------------
  free energy    TOTEN  =       -34.67240204 eV

  energy without entropy =      -34.63224344  energy(sigma->0) =      -34.65901584


--------------------------------------------------------------------------------------------------------




--------------------------------------- Iteration      1(  18)  ---------------------------------------


    POTLOK:  cpu time    1.8789: real time    1.8862
    SETDIJ:  cpu time    0.0158: real time    0.0159
     EDDAV:  cpu time   13.4861: real time   14.2940
       DOS:  cpu time    0.0041: real time    0.0041
    CHARGE:  cpu time    0.6311: real time    0.6321
    MIXING:  cpu time    0.0988: real time    0.1031
    --------------------------------------------
      LOOP:  cpu time   16.1148: real time   16.9354

 eigenvalue-minimisations  :   362
 total energy-change (2. order) :-0.1397688E+00  (-0.2072391E-01)
 number of electron      99.9999642 magnetization       8.9333446
 augmentation part       62.4781764 magnetization       7.6052351

 Broyden mixing:
  rms(total) = 0.48575E+00    rms(broyden)= 0.48543E+00
  rms(prec ) = 0.51755E+00
  weight for this iteration     100.00

 eigenvalues of (default mixing * dielectric matrix)
  average eigenvalue GAMMA=   0.3543
  1.5153  0.7228  0.7228  0.4046  0.4046  0.1450  0.1450  0.1162  0.1162  0.1089
  0.0794  0.0585  0.0662

 Free energy of the ion-electron system (eV)
  ---------------------------------------------------
  alpha Z        PSCENC =         4.78697369
  Ewald energy   TEWEN  =     12848.07803664
  -Hartree energ DENC   =    -22728.98246148
  -exchange      EXHF   =         0.00000000
  -V(xc)+E(xc)   XCENC  =       301.88738685
  PAW double counting   =     10562.99882819   -11239.94688070
  entropy T*S    EENTRO =        -0.03604093
  eigenvalues    EBANDS =      -560.23638445
  atomic energy  EATOM  =     10776.63837129
  Solvation  Ediel_sol  =         0.00000000
  ---------------------------------------------------
  free energy    TOTEN  =       -34.81217089 eV

  energy without entropy =      -34.77612996  energy(sigma->0) =      -34.80015725


--------------------------------------------------------------------------------------------------------




--------------------------------------- Iteration      1(  19)  ---------------------------------------


    POTLOK:  cpu time    1.8685: real time    1.8740
    SETDIJ:  cpu time    0.0174: real time    0.0174
     EDDAV:  cpu time   14.4998: real time   14.5434
       DOS:  cpu time    0.0041: real time    0.0041
    CHARGE:  cpu time    0.6236: real time    0.6249
    MIXING:  cpu time    0.1080: real time    0.1083
    --------------------------------------------
      LOOP:  cpu time   17.1213: real time   17.1721

 eigenvalue-minimisations  :   276
 total energy-change (2. order) :-0.2381883E-01  (-0.1367265E-01)
 number of electron      99.9999639 magnetization       8.8223869
 augmentation part       62.4925496 magnetization       7.5128638

 Broyden mixing:
  rms(total) = 0.33942E+00    rms(broyden)= 0.33922E+00
  rms(prec ) = 0.36037E+00
  weight for this iteration     100.00

 eigenvalues of (default mixing * dielectric matrix)
  average eigenvalue GAMMA=   0.3933
  1.6026  0.8372  0.8372  0.5095  0.5095  0.3976  0.1563  0.1176  0.1176  0.1235
  0.0932  0.0793  0.0585  0.0657

 Free energy of the ion-electron system (eV)
  ---------------------------------------------------
  alpha Z        PSCENC =         4.78697369
  Ewald energy   TEWEN  =     12848.07803664
  -Hartree energ DENC   =    -22729.75282462
  -exchange      EXHF   =         0.00000000
  -V(xc)+E(xc)   XCENC  =       301.84195765
  PAW double counting   =     10565.37689298   -11242.23877828
  entropy T*S    EENTRO =        -0.03126405
  eigenvalues    EBANDS =      -559.53535503
  atomic energy  EATOM  =     10776.63837129
  Solvation  Ediel_sol  =         0.00000000
  ---------------------------------------------------
  free energy    TOTEN  =       -34.83598972 eV

  energy without entropy =      -34.80472567  energy(sigma->0) =      -34.82556837


--------------------------------------------------------------------------------------------------------




--------------------------------------- Iteration      1(  20)  ---------------------------------------


    POTLOK:  cpu time    4.2254: real time    4.2307
    SETDIJ:  cpu time    0.1486: real time    0.1487
     EDDAV:  cpu time   14.6710: real time   14.7079
       DOS:  cpu time    0.3920: real time    0.3921
    CHARGE:  cpu time    2.1338: real time    2.1347
    MIXING:  cpu time    0.4461: real time    0.4465
    --------------------------------------------
      LOOP:  cpu time   22.0169: real time   22.0606

 eigenvalue-minimisations  :   332
 total energy-change (2. order) :-0.1867008E+00  (-0.1294804E-01)
 number of electron      99.9999638 magnetization       8.7757593
 augmentation part       62.5372862 magnetization       7.5104055

 Broyden mixing:
  rms(total) = 0.37261E+00    rms(broyden)= 0.37243E+00
  rms(prec ) = 0.39801E+00
  weight for this iteration     100.00

 eigenvalues of (default mixing * dielectric matrix)
  average eigenvalue GAMMA=   0.3859
  1.6427  0.8660  0.8660  0.5366  0.5366  0.4027  0.1604  0.1262  0.1262  0.1142
  0.1142  0.0924  0.0796  0.0586  0.0655

 Free energy of the ion-electron system (eV)
  ---------------------------------------------------
  alpha Z        PSCENC =         4.78697369
  Ewald energy   TEWEN  =     12848.07803664
  -Hartree energ DENC   =    -22732.67156058
  -exchange      EXHF   =         0.00000000
  -V(xc)+E(xc)   XCENC  =       301.68864091
  PAW double counting   =     10572.45378958   -11249.09725418
  entropy T*S    EENTRO =        -0.03483575
  eigenvalues    EBANDS =      -556.86485218
  atomic energy  EATOM  =     10776.63837129
  Solvation  Ediel_sol  =         0.00000000
  ---------------------------------------------------
  free energy    TOTEN  =       -35.02269057 eV

  energy without entropy =      -34.98785482  energy(sigma->0) =      -35.01107865


--------------------------------------------------------------------------------------------------------




--------------------------------------- Iteration      1(  21)  ---------------------------------------


    POTLOK:  cpu time    4.5592: real time    4.5754
    SETDIJ:  cpu time    0.1873: real time    0.1873
     EDDAV:  cpu time   12.5943: real time   12.6060
       DOS:  cpu time    0.0020: real time    0.0020
    CHARGE:  cpu time    0.6147: real time    0.6158
    MIXING:  cpu time    0.1290: real time    0.1292
    --------------------------------------------
      LOOP:  cpu time   18.0864: real time   18.1158

 eigenvalue-minimisations  :   278
 total energy-change (2. order) :-0.6380896E-01  (-0.1152154E-01)
 number of electron      99.9999638 magnetization       8.6399081
 augmentation part       62.5569436 magnetization       7.4033530

 Broyden mixing:
  rms(total) = 0.23048E+00    rms(broyden)= 0.23017E+00
  rms(prec ) = 0.24325E+00
  weight for this iteration     100.00

 eigenvalues of (default mixing * dielectric matrix)
  average eigenvalue GAMMA=   0.4249
  1.8521  0.9360  0.9360  0.6063  0.6063  0.5275  0.4285  0.1553  0.1171  0.1171
  0.1246  0.0996  0.0585  0.0655  0.0797  0.0875

 Free energy of the ion-electron system (eV)
  ---------------------------------------------------
  alpha Z        PSCENC =         4.78697369
  Ewald energy   TEWEN  =     12848.07803664
  -Hartree energ DENC   =    -22733.99232772
  -exchange      EXHF   =         0.00000000
  -V(xc)+E(xc)   XCENC  =       301.62429464
  PAW double counting   =     10574.78785739   -11251.36306160
  entropy T*S    EENTRO =        -0.03434370
  eigenvalues    EBANDS =      -555.61230018
  atomic energy  EATOM  =     10776.63837129
  Solvation  Ediel_sol  =         0.00000000
  ---------------------------------------------------
  free energy    TOTEN  =       -35.08649953 eV

  energy without entropy =      -35.05215584  energy(sigma->0) =      -35.07505163


--------------------------------------------------------------------------------------------------------




--------------------------------------- Iteration      1(  22)  ---------------------------------------


    POTLOK:  cpu time    1.8833: real time    1.8987
    SETDIJ:  cpu time    0.0163: real time    0.0164
     EDDAV:  cpu time    6.3445: real time    6.3965
       DOS:  cpu time    0.0023: real time    0.0023
    CHARGE:  cpu time    0.6188: real time    0.6281
    MIXING:  cpu time    0.1342: real time    0.1348
    --------------------------------------------
      LOOP:  cpu time    8.9995: real time    9.0768

 eigenvalue-minimisations  :   324
 total energy-change (2. order) :-0.2498870E+00  (-0.8428484E-02)
 number of electron      99.9999636 magnetization       8.5572126
 augmentation part       62.5639619 magnetization       7.3844041

 Broyden mixing:
  rms(total) = 0.15841E+00    rms(broyden)= 0.15817E+00
  rms(prec ) = 0.16783E+00
  weight for this iteration     100.00

 eigenvalues of (default mixing * dielectric matrix)
  average eigenvalue GAMMA=   0.4743
  2.1741  1.1944  0.7675  0.7143  0.7143  0.5827  0.5827  0.4276  0.1550  0.1170
  0.1170  0.1249  0.1018  0.0585  0.0655  0.0797  0.0869

 Free energy of the ion-electron system (eV)
  ---------------------------------------------------
  alpha Z        PSCENC =         4.78697369
  Ewald energy   TEWEN  =     12848.07803664
  -Hartree energ DENC   =    -22738.83140528
  -exchange      EXHF   =         0.00000000
  -V(xc)+E(xc)   XCENC  =       301.44850568
  PAW double counting   =     10578.91631207   -11255.44493047
  entropy T*S    EENTRO =        -0.04164782
  eigenvalues    EBANDS =      -550.88660230
  atomic energy  EATOM  =     10776.63837129
  Solvation  Ediel_sol  =         0.00000000
  ---------------------------------------------------
  free energy    TOTEN  =       -35.33638650 eV

  energy without entropy =      -35.29473868  energy(sigma->0) =      -35.32250389


--------------------------------------------------------------------------------------------------------




--------------------------------------- Iteration      1(  23)  ---------------------------------------


    POTLOK:  cpu time    5.1121: real time    5.1155
    SETDIJ:  cpu time    0.1186: real time    0.1186
     EDDAV:  cpu time    9.5722: real time    9.5885
       DOS:  cpu time    0.0010: real time    0.0010
    CHARGE:  cpu time    0.6163: real time    0.6174
    MIXING:  cpu time    0.1482: real time    0.1485
    --------------------------------------------
      LOOP:  cpu time   15.5683: real time   15.5895

 eigenvalue-minimisations  :   300
 total energy-change (2. order) :-0.1918023E+00  (-0.4705913E-02)
 number of electron      99.9999637 magnetization       8.4971918
 augmentation part       62.5673865 magnetization       7.3704739

 Broyden mixing:
  rms(total) = 0.85101E-01    rms(broyden)= 0.84911E-01
  rms(prec ) = 0.90406E-01
  weight for this iteration     100.00

 eigenvalues of (default mixing * dielectric matrix)
  average eigenvalue GAMMA=   0.5058
  2.3202  1.1035  1.1035  0.7516  0.7516  0.6071  0.6071  0.4961  0.4562  0.1550
  0.1170  0.1170  0.1248  0.1020  0.0585  0.0655  0.0797  0.0870

 Free energy of the ion-electron system (eV)
  ---------------------------------------------------
  alpha Z        PSCENC =         4.78697369
  Ewald energy   TEWEN  =     12848.07803664
  -Hartree energ DENC   =    -22741.24083769
  -exchange      EXHF   =         0.00000000
  -V(xc)+E(xc)   XCENC  =       301.31045075
  PAW double counting   =     10577.37040085   -11253.92734519
  entropy T*S    EENTRO =        -0.04010611
  eigenvalues    EBANDS =      -548.50413301
  atomic energy  EATOM  =     10776.63837129
  Solvation  Ediel_sol  =         0.00000000
  ---------------------------------------------------
  free energy    TOTEN  =       -35.52818877 eV

  energy without entropy =      -35.48808266  energy(sigma->0) =      -35.51482006


--------------------------------------------------------------------------------------------------------




--------------------------------------- Iteration      1(  24)  ---------------------------------------


    POTLOK:  cpu time    4.8229: real time    4.8268
    SETDIJ:  cpu time    0.1977: real time    0.1978
     EDDAV:  cpu time   14.7515: real time   16.0706
       DOS:  cpu time    0.4534: real time    0.4536
    CHARGE:  cpu time    1.0537: real time    1.4959
    MIXING:  cpu time    0.5037: real time    0.5282
    --------------------------------------------
      LOOP:  cpu time   21.7828: real time   23.5728

 eigenvalue-minimisations  :   274
 total energy-change (2. order) :-0.1561213E+00  (-0.2215017E-02)
 number of electron      99.9999637 magnetization       8.4391488
 augmentation part       62.5669708 magnetization       7.3378841

 Broyden mixing:
  rms(total) = 0.76538E-01    rms(broyden)= 0.76478E-01
  rms(prec ) = 0.81999E-01
  weight for this iteration     100.00

 eigenvalues of (default mixing * dielectric matrix)
  average eigenvalue GAMMA=   0.5349
  2.4765  1.1489  1.1489  0.8003  0.8003  0.6329  0.6329  0.5929  0.5929  0.4297
  0.1550  0.1170  0.1170  0.1248  0.1021  0.0585  0.0655  0.0797  0.0870

 Free energy of the ion-electron system (eV)
  ---------------------------------------------------
  alpha Z        PSCENC =         4.78697369
  Ewald energy   TEWEN  =     12848.07803664
  -Hartree energ DENC   =    -22742.22544249
  -exchange      EXHF   =         0.00000000
  -V(xc)+E(xc)   XCENC  =       301.17126548
  PAW double counting   =     10574.33475497   -11251.01065801
  entropy T*S    EENTRO =        -0.03888402
  eigenvalues    EBANDS =      -547.41872760
  atomic energy  EATOM  =     10776.63837129
  Solvation  Ediel_sol  =         0.00000000
  ---------------------------------------------------
  free energy    TOTEN  =       -35.68431004 eV

  energy without entropy =      -35.64542602  energy(sigma->0) =      -35.67134870


--------------------------------------------------------------------------------------------------------




--------------------------------------- Iteration      1(  25)  ---------------------------------------


    POTLOK:  cpu time    2.5037: real time    2.6328
    SETDIJ:  cpu time    0.0250: real time    0.0250
     EDDAV:  cpu time   11.6296: real time   13.3663
       DOS:  cpu time    0.0065: real time    0.0065
    CHARGE:  cpu time    0.6040: real time    0.6090
    MIXING:  cpu time    0.1696: real time    0.1699
    --------------------------------------------
      LOOP:  cpu time   14.9384: real time   16.8095

 eigenvalue-minimisations  :   268
 total energy-change (2. order) :-0.1249602E+00  (-0.1046246E-02)
 number of electron      99.9999638 magnetization       8.3672043
 augmentation part       62.5557934 magnetization       7.2891379

 Broyden mixing:
  rms(total) = 0.53898E-01    rms(broyden)= 0.53867E-01
  rms(prec ) = 0.58543E-01
  weight for this iteration     100.00

 eigenvalues of (default mixing * dielectric matrix)
  average eigenvalue GAMMA=   0.5726
  2.7636  1.0890  1.0890  1.0450  1.0450  0.6538  0.6538  0.6050  0.6050  0.5623
  0.4329  0.1550  0.1170  0.1170  0.1248  0.1021  0.0585  0.0655  0.0797  0.0870

 Free energy of the ion-electron system (eV)
  ---------------------------------------------------
  alpha Z        PSCENC =         4.78697369
  Ewald energy   TEWEN  =     12848.07803664
  -Hartree energ DENC   =    -22743.25591855
  -exchange      EXHF   =         0.00000000
  -V(xc)+E(xc)   XCENC  =       301.06486084
  PAW double counting   =     10571.48933465   -11248.28017646
  entropy T*S    EENTRO =        -0.03863370
  eigenvalues    EBANDS =      -546.29211865
  atomic energy  EATOM  =     10776.63837129
  Solvation  Ediel_sol  =         0.00000000
  ---------------------------------------------------
  free energy    TOTEN  =       -35.80927025 eV

  energy without entropy =      -35.77063655  energy(sigma->0) =      -35.79639235


--------------------------------------------------------------------------------------------------------




--------------------------------------- Iteration      1(  26)  ---------------------------------------


    POTLOK:  cpu time    1.8889: real time    1.8921
    SETDIJ:  cpu time    0.0206: real time    0.0206
     EDDAV:  cpu time   20.5801: real time   20.7110
       DOS:  cpu time    0.0008: real time    0.0008
    CHARGE:  cpu time    1.7703: real time    1.7741
    MIXING:  cpu time    0.5946: real time    0.5957
    --------------------------------------------
      LOOP:  cpu time   24.8553: real time   24.9943

 eigenvalue-minimisations  :   282
 total energy-change (2. order) :-0.1414291E+00  (-0.9586289E-03)
 number of electron      99.9999638 magnetization       8.2910067
 augmentation part       62.5508077 magnetization       7.2406541

 Broyden mixing:
  rms(total) = 0.29806E-01    rms(broyden)= 0.29770E-01
  rms(prec ) = 0.32475E-01
  weight for this iteration     100.00

 eigenvalues of (default mixing * dielectric matrix)
  average eigenvalue GAMMA=   0.6166
  3.1131  1.3739  1.3739  0.8947  0.8947  0.7144  0.7144  0.6340  0.6340  0.6318
  0.6318  0.4304  0.1550  0.1170  0.1170  0.1248  0.1021  0.0585  0.0655  0.0797
  0.0870

 Free energy of the ion-electron system (eV)
  ---------------------------------------------------
  alpha Z        PSCENC =         4.78697369
  Ewald energy   TEWEN  =     12848.07803664
  -Hartree energ DENC   =    -22744.20981196
  -exchange      EXHF   =         0.00000000
  -V(xc)+E(xc)   XCENC  =       300.94487067
  PAW double counting   =     10567.02867557   -11243.89642324
  entropy T*S    EENTRO =        -0.03727618
  eigenvalues    EBANDS =      -545.28411578
  atomic energy  EATOM  =     10776.63837129
  Solvation  Ediel_sol  =         0.00000000
  ---------------------------------------------------
  free energy    TOTEN  =       -35.95069930 eV

  energy without entropy =      -35.91342312  energy(sigma->0) =      -35.93827391


--------------------------------------------------------------------------------------------------------




--------------------------------------- Iteration      1(  27)  ---------------------------------------


    POTLOK:  cpu time    5.3285: real time    5.3390
    SETDIJ:  cpu time    0.1805: real time    0.1809
     EDDAV:  cpu time    7.8745: real time    8.0796
       DOS:  cpu time    0.0040: real time    0.0040
    CHARGE:  cpu time    0.5682: real time    0.5687
    MIXING:  cpu time    0.2072: real time    0.2073
    --------------------------------------------
      LOOP:  cpu time   14.1630: real time   14.3796

 eigenvalue-minimisations  :   290
 total energy-change (2. order) :-0.1292883E+00  (-0.8764892E-03)
 number of electron      99.9999637 magnetization       8.2268209
 augmentation part       62.5515144 magnetization       7.1998507

 Broyden mixing:
  rms(total) = 0.25492E-01    rms(broyden)= 0.25448E-01
  rms(prec ) = 0.27440E-01
  weight for this iteration     100.00

 eigenvalues of (default mixing * dielectric matrix)
  average eigenvalue GAMMA=   0.6584
  3.5271  1.5447  1.5447  1.0170  0.8826  0.8826  0.6348  0.6348  0.6419  0.6419
  0.5971  0.5971  0.4309  0.1550  0.1170  0.1170  0.1248  0.1021  0.0585  0.0655
  0.0797  0.0870

 Free energy of the ion-electron system (eV)
  ---------------------------------------------------
  alpha Z        PSCENC =         4.78697369
  Ewald energy   TEWEN  =     12848.07803664
  -Hartree energ DENC   =    -22744.88469908
  -exchange      EXHF   =         0.00000000
  -V(xc)+E(xc)   XCENC  =       300.82321545
  PAW double counting   =     10562.85091220   -11239.78363255
  entropy T*S    EENTRO =        -0.03716938
  eigenvalues    EBANDS =      -544.55199586
  atomic energy  EATOM  =     10776.63837129
  Solvation  Ediel_sol  =         0.00000000
  ---------------------------------------------------
  free energy    TOTEN  =       -36.07998759 eV

  energy without entropy =      -36.04281821  energy(sigma->0) =      -36.06759780


--------------------------------------------------------------------------------------------------------




--------------------------------------- Iteration      1(  28)  ---------------------------------------


    POTLOK:  cpu time    2.0969: real time    2.0997
    SETDIJ:  cpu time    0.0311: real time    0.0311
     EDDAV:  cpu time    5.7574: real time    6.0328
       DOS:  cpu time    0.0089: real time    0.0089
    CHARGE:  cpu time    0.6257: real time    0.6271
    MIXING:  cpu time    0.2063: real time    0.2066
    --------------------------------------------
      LOOP:  cpu time    8.7263: real time    9.0062

 eigenvalue-minimisations  :   274
 total energy-change (2. order) :-0.9024329E-01  (-0.5206572E-03)
 number of electron      99.9999637 magnetization       8.1732814
 augmentation part       62.5512867 magnetization       7.1624910

 Broyden mixing:
  rms(total) = 0.12886E-01    rms(broyden)= 0.12847E-01
  rms(prec ) = 0.13946E-01
  weight for this iteration     100.00

 eigenvalues of (default mixing * dielectric matrix)
  average eigenvalue GAMMA=   0.6821
  3.8622  1.6371  1.6371  0.8730  0.8730  0.9030  0.6386  0.6386  0.6660  0.6660
  0.6922  0.6922  0.5712  0.4314  0.1550  0.1170  0.1170  0.1248  0.1021  0.0585
  0.0655  0.0797  0.0870

 Free energy of the ion-electron system (eV)
  ---------------------------------------------------
  alpha Z        PSCENC =         4.78697369
  Ewald energy   TEWEN  =     12848.07803664
  -Hartree energ DENC   =    -22745.42559940
  -exchange      EXHF   =         0.00000000
  -V(xc)+E(xc)   XCENC  =       300.73813400
  PAW double counting   =     10559.84306155   -11236.83445786
  entropy T*S    EENTRO =        -0.03708053
  eigenvalues    EBANDS =      -543.95767026
  atomic energy  EATOM  =     10776.63837129
  Solvation  Ediel_sol  =         0.00000000
  ---------------------------------------------------
  free energy    TOTEN  =       -36.17023088 eV

  energy without entropy =      -36.13315035  energy(sigma->0) =      -36.15787070


--------------------------------------------------------------------------------------------------------




--------------------------------------- Iteration      1(  29)  ---------------------------------------


    POTLOK:  cpu time    1.8879: real time    1.8938
    SETDIJ:  cpu time    0.0220: real time    0.0221
     EDDAV:  cpu time    5.3063: real time    5.3348
       DOS:  cpu time    0.0089: real time    0.0089
    CHARGE:  cpu time    0.6314: real time    0.6323
    MIXING:  cpu time    0.2184: real time    0.2187
    --------------------------------------------
      LOOP:  cpu time    8.0750: real time    8.1107

 eigenvalue-minimisations  :   274
 total energy-change (2. order) :-0.6630992E-01  (-0.2740660E-03)
 number of electron      99.9999638 magnetization       8.1318060
 augmentation part       62.5479807 magnetization       7.1340993

 Broyden mixing:
  rms(total) = 0.14069E-01    rms(broyden)= 0.14048E-01
  rms(prec ) = 0.15130E-01
  weight for this iteration     100.00

 eigenvalues of (default mixing * dielectric matrix)
  average eigenvalue GAMMA=   0.7198
  4.2340  1.7401  1.7401  0.9445  0.9445  0.8595  0.8595  0.8231  0.6354  0.6354
  0.6614  0.6614  0.5996  0.5996  0.4309  0.1550  0.1170  0.1170  0.1248  0.1021
  0.0585  0.0655  0.0797  0.0870

 Free energy of the ion-electron system (eV)
  ---------------------------------------------------
  alpha Z        PSCENC =         4.78697369
  Ewald energy   TEWEN  =     12848.07803664
  -Hartree energ DENC   =    -22745.75297584
  -exchange      EXHF   =         0.00000000
  -V(xc)+E(xc)   XCENC  =       300.67711821
  PAW double counting   =     10557.06725599   -11234.12257323
  entropy T*S    EENTRO =        -0.03729900
  eigenvalues    EBANDS =      -543.57144855
  atomic energy  EATOM  =     10776.63837129
  Solvation  Ediel_sol  =         0.00000000
  ---------------------------------------------------
  free energy    TOTEN  =       -36.23654080 eV

  energy without entropy =      -36.19924180  energy(sigma->0) =      -36.22410780


--------------------------------------------------------------------------------------------------------




--------------------------------------- Iteration      1(  30)  ---------------------------------------


    POTLOK:  cpu time    1.8911: real time    1.8940
    SETDIJ:  cpu time    0.0218: real time    0.0218
     EDDAV:  cpu time    5.1247: real time    5.1456
       DOS:  cpu time    0.0074: real time    0.0074
    CHARGE:  cpu time    0.6332: real time    0.6340
    MIXING:  cpu time    0.2328: real time    0.2333
    --------------------------------------------
      LOOP:  cpu time    7.9109: real time    7.9361

 eigenvalue-minimisations  :   260
 total energy-change (2. order) :-0.4156199E-01  (-0.1207645E-03)
 number of electron      99.9999638 magnetization       8.0915122
 augmentation part       62.5475562 magnetization       7.1022995

 Broyden mixing:
  rms(total) = 0.69915E-02    rms(broyden)= 0.69784E-02
  rms(prec ) = 0.76335E-02
  weight for this iteration     100.00

 eigenvalues of (default mixing * dielectric matrix)
  average eigenvalue GAMMA=   0.7590
  4.6424  1.9100  1.9100  1.1390  1.1390  0.8573  0.8573  0.6389  0.6389  0.6521
  0.6521  0.7182  0.6510  0.6510  0.5789  0.4311  0.1550  0.1170  0.1170  0.1248
  0.1021  0.0585  0.0655  0.0797  0.0870

 Free energy of the ion-electron system (eV)
  ---------------------------------------------------
  alpha Z        PSCENC =         4.78697369
  Ewald energy   TEWEN  =     12848.07803664
  -Hartree energ DENC   =    -22745.91277463
  -exchange      EXHF   =         0.00000000
  -V(xc)+E(xc)   XCENC  =       300.63665121
  PAW double counting   =     10555.68101434   -11232.77295804
  entropy T*S    EENTRO =        -0.03733741
  eigenvalues    EBANDS =      -543.37607989
  atomic energy  EATOM  =     10776.63837129
  Solvation  Ediel_sol  =         0.00000000
  ---------------------------------------------------
  free energy    TOTEN  =       -36.27810278 eV

  energy without entropy =      -36.24076538  energy(sigma->0) =      -36.26565698


--------------------------------------------------------------------------------------------------------




--------------------------------------- Iteration      1(  31)  ---------------------------------------


    POTLOK:  cpu time    2.4255: real time    2.4322
    SETDIJ:  cpu time    0.0212: real time    0.0212
     EDDAV:  cpu time    6.1042: real time    6.1367
       DOS:  cpu time    0.0015: real time    0.0015
    CHARGE:  cpu time    0.6189: real time    0.6291
    MIXING:  cpu time    0.2420: real time    0.2435
    --------------------------------------------
      LOOP:  cpu time    9.4133: real time    9.4642

 eigenvalue-minimisations  :   258
 total energy-change (2. order) :-0.3407374E-01  (-0.1030788E-03)
 number of electron      99.9999638 magnetization       8.0622800
 augmentation part       62.5481041 magnetization       7.0784067

 Broyden mixing:
  rms(total) = 0.65268E-02    rms(broyden)= 0.65166E-02
  rms(prec ) = 0.70654E-02
  weight for this iteration     100.00

 eigenvalues of (default mixing * dielectric matrix)
  average eigenvalue GAMMA=   0.7929
[...]
 total energy-change (2. order) : 0.1949732E-04  (-0.1811903E-04)
 number of electron     100.0000087 magnetization       7.9995023
 augmentation part       62.3720219 magnetization       7.0648053

 Free energy of the ion-electron system (eV)
  ---------------------------------------------------
  alpha Z        PSCENC =         4.78697369
  Ewald energy   TEWEN  =     13613.31566860
  -Hartree energ DENC   =    -23487.33786263
  -exchange      EXHF   =         0.00000000
  -V(xc)+E(xc)   XCENC  =       301.73415545
  PAW double counting   =     10844.91967582   -11525.81033288
  entropy T*S    EENTRO =        -0.01003849
  eigenvalues    EBANDS =      -565.01678516
  atomic energy  EATOM  =     10776.63837129
  Solvation  Ediel_sol  =         0.00000000
  ---------------------------------------------------
  free energy    TOTEN  =       -36.78017430 eV

  energy without entropy =      -36.77013581  energy(sigma->0) =      -36.77682814


--------------------------------------------------------------------------------------------------------




 average (electrostatic) potential at core
  the test charge radii are     0.9791
  (the norm of the test charge is              1.0000)
       1 -95.1997       2 -94.8496       3 -94.7488       4 -95.0054       5 -94.7441
       6 -94.9095       7 -94.9978       8 -95.2115       9 -94.9051      10 -94.8446
 
 
 
 E-fermi :  -3.8688     XC(G=0):  -0.3391     alpha+bet : -0.1681


 spin component 1

 k-point     1 :       0.0000    0.0000    0.0000
  band No.  band energies     occupation 
      1      -9.9673      1.00000
      2      -8.2867      1.00000
      3      -8.1008      1.00000
      4      -7.7742      1.00000
      5      -7.4901      1.00000
      6      -7.3968      1.00000
      7      -7.3147      1.00000
      8      -7.1280      1.00000
      9      -7.1116      1.00000
     10      -7.0502      1.00000
     11      -6.9480      1.00000
     12      -6.9051      1.00000
     13      -6.8496      1.00000
     14      -6.6630      1.00000
     15      -6.6068      1.00000
     16      -6.5417      1.00000
     17      -6.3188      1.00000
     18      -6.2924      1.00000
     19      -6.2336      1.00000
     20      -6.1595      1.00000
     21      -5.9722      1.00000
     22      -5.9355      1.00000
     23      -5.8878      1.00000
     24      -5.8020      1.00000
     25      -5.7718      1.00000
     26      -5.6821      1.00000
     27      -5.5821      1.00000
     28      -5.5093      1.00000
     29      -5.3893      1.00000
     30      -5.3699      1.00000
     31      -5.3018      1.00000
     32      -5.2122      1.00000
     33      -5.1596      1.00000
     34      -5.1057      1.00000
     35      -5.0731      1.00000
     36      -5.0466      1.00000
     37      -5.0097      1.00000
     38      -4.9767      1.00000
     39      -4.9506      1.00000
     40      -4.8920      1.00000
     41      -4.8836      1.00000
     42      -4.8757      1.00000
     43      -4.8115      1.00000
     44      -4.8043      1.00000
     45      -4.7562      1.00000
     46      -4.7387      1.00000
     47      -4.7160      1.00000
     48      -4.6874      1.00000
     49      -4.6696      1.00000
     50      -4.6507      1.00000
     51      -4.6326      1.00000
     52      -4.5649      1.00000
     53      -4.5294      1.00002
     54      -4.4215      1.00033
     55      -3.3312     -0.00048
     56      -3.2555     -0.00006
     57      -2.9310     -0.00000
     58      -2.5279     -0.00000
     59      -2.4358     -0.00000
     60      -1.8237     -0.00000
     61      -1.0984     -0.00000
     62      -0.9603     -0.00000
     63      -0.9130     -0.00000
     64      -0.5981     -0.00000
     65      -0.3646     -0.00000
     66      -0.1198     -0.00000

 spin component 2

 k-point     1 :       0.0000    0.0000    0.0000
  band No.  band energies     occupation 
      1      -9.9601      1.00000
      2      -8.0776      1.00000
      3      -7.8810      1.00000
      4      -7.3113      1.00000
      5      -6.8881      1.00000
      6      -6.7997      1.00000
      7      -6.7947      1.00000
      8      -6.4540      1.00000
      9      -6.4201      1.00000
     10      -6.2794      1.00000
     11      -6.2464      1.00000
     12      -6.1901      1.00000
     13      -6.1818      1.00000
     14      -5.9842      1.00000
     15      -5.9767      1.00000
     16      -5.7612      1.00000
     17      -5.6017      1.00000
     18      -5.5642      1.00000
     19      -5.5469      1.00000
     20      -5.3232      1.00000
     21      -5.2479      1.00000
     22      -5.2080      1.00000
     23      -5.1202      1.00000
     24      -5.0639      1.00000
     25      -5.0407      1.00000
     26      -4.9937      1.00000
     27      -4.8786      1.00000
     28      -4.8498      1.00000
     29      -4.7747      1.00000
     30      -4.6615      1.00000
     31      -4.5430      1.00001
     32      -4.4775      1.00007
     33      -4.4395      1.00021
     34      -4.3743      1.00102
     35      -4.3655      1.00125
     36      -4.3255      1.00288
     37      -4.3189      1.00328
     38      -4.2783      1.00684
     39      -4.2183      1.01653
     40      -4.1331      1.03420
     41      -4.1025      1.03494
     42      -4.0402      1.00324
     43      -3.9965      0.93666
     44      -3.9775      0.89317
     45      -3.9606      0.84676
     46      -3.9043      0.64757
     47      -3.8371      0.36793
     48      -3.7804      0.16343
     49      -3.7509      0.08481
     50      -3.7482      0.07875
     51      -3.6806     -0.01784
     52      -3.6274     -0.03541
     53      -3.6194     -0.03538
     54      -3.6093     -0.03472
     55      -3.0297     -0.00000
     56      -2.9945     -0.00000
     57      -2.7130     -0.00000
     58      -2.2476     -0.00000
     59      -2.1849     -0.00000
     60      -1.6597     -0.00000
     61      -1.0105     -0.00000
     62      -0.8919     -0.00000
     63      -0.7882     -0.00000
     64      -0.4414     -0.00000
     65      -0.2254     -0.00000
     66      -0.0135     -0.00000


--------------------------------------------------------------------------------------------------------


 soft charge-density along one line, spin component            1
         0         1         2         3         4         5         6         7         8         9
 total charge-density along one line
 
 soft charge-density along one line, spin component            2
         0         1         2         3         4         5         6         7         8         9
 total charge-density along one line
 
 pseudopotential strength for first ion, spin component:            1
 -9.957  -0.078   0.046  -0.027  -0.121 -10.241  -0.075   0.045
 -0.078 -10.174  -0.063   0.054   0.040  -0.075 -10.448  -0.060
  0.046  -0.063 -10.182  -0.075   0.075   0.045  -0.060 -10.456
 -0.027   0.054  -0.075  -9.957  -0.014  -0.026   0.051  -0.072
 -0.121   0.040   0.075  -0.014 -10.006  -0.116   0.038   0.072
-10.241  -0.075   0.045  -0.026  -0.116 -10.471  -0.071   0.043
 -0.075 -10.448  -0.060   0.051   0.038  -0.071 -10.667  -0.058
  0.045  -0.060 -10.456  -0.072   0.072   0.043  -0.058 -10.675
 -0.026   0.051  -0.072 -10.241  -0.013  -0.024   0.049  -0.069
 -0.116   0.038   0.072  -0.013 -10.288  -0.111   0.036   0.069
 -0.002   0.013   0.022   0.017  -0.005  -0.002   0.013   0.021
 -0.004   0.023   0.039   0.030  -0.010  -0.004   0.022   0.038
 -0.011   0.005   0.003  -0.000   0.007  -0.010   0.005   0.002
 -0.000  -0.005   0.007  -0.014  -0.000  -0.000  -0.005   0.007
 -0.003  -0.000   0.002   0.005  -0.007  -0.002  -0.000   0.002
 -0.011   0.006   0.002  -0.001   0.008  -0.009   0.006   0.002
 -0.001  -0.005   0.008  -0.014  -0.000  -0.001  -0.005   0.008
 -0.002  -0.001   0.001   0.005  -0.005  -0.001  -0.001   0.001
 pseudopotential strength for first ion, spin component:            2
 -9.328  -0.035  -0.043  -0.039   0.055  -9.642  -0.034  -0.042
 -0.035  -9.405   0.001  -0.006   0.031  -0.034  -9.715   0.001
 -0.043   0.001  -9.418  -0.005  -0.067  -0.042   0.001  -9.728
 -0.039  -0.006  -0.005  -9.440  -0.064  -0.037  -0.006  -0.005
  0.055   0.031  -0.067  -0.064  -9.302   0.053   0.030  -0.064
 -9.642  -0.034  -0.042  -0.037   0.053  -9.899  -0.032  -0.040
 -0.034  -9.715   0.001  -0.006   0.030  -0.032  -9.969   0.001
 -0.042   0.001  -9.728  -0.005  -0.064  -0.040   0.001  -9.981
 -0.037  -0.006  -0.005  -9.749  -0.061  -0.036  -0.006  -0.004
  0.053   0.030  -0.064  -0.061  -9.616   0.052   0.029  -0.062
 -0.007   0.006   0.012   0.011  -0.008  -0.007   0.006   0.012
 -0.012   0.011   0.021   0.019  -0.014  -0.012   0.011   0.020
 -0.015   0.006   0.004   0.000   0.006  -0.013   0.006   0.004
  0.000  -0.006   0.007  -0.015   0.000   0.000  -0.006   0.007
 -0.007   0.000   0.009   0.007  -0.016  -0.007   0.000   0.008
 -0.016   0.007   0.005   0.000   0.007  -0.014   0.007   0.004
  0.000  -0.007   0.009  -0.016   0.000   0.000  -0.006   0.008
 -0.008   0.000   0.011   0.008  -0.018  -0.008   0.000   0.010
 total augmentation occupancy for first ion, spin component:            1
  3.173  -0.248   0.003   0.024  -0.579  -1.323   0.103   0.052  -0.051   0.308   0.025   0.031  -0.323  -0.031  -0.000   0.016
 -0.248   2.319  -0.159   0.397   0.019   0.108  -0.929   0.032  -0.233   0.032  -0.264   0.007   0.071  -0.088  -0.029  -0.002
  0.003  -0.159   2.657  -0.180   0.137   0.059   0.033  -1.186   0.040   0.016  -0.262  -0.014   0.042   0.124   0.101  -0.000
  0.024   0.397  -0.180   3.580   0.083  -0.062  -0.234   0.040  -1.563  -0.078  -0.321   0.002  -0.029  -0.325  -0.024   0.005
 -0.579   0.019   0.137   0.083   3.087   0.308   0.042   0.003  -0.074  -1.318   0.067   0.038   0.198  -0.057  -0.216  -0.011
 -1.323   0.108   0.059  -0.062   0.308   1.290  -0.015  -0.074   0.091  -0.170  -0.038  -0.016   0.349   0.028   0.027  -0.034
  0.103  -0.929   0.033  -0.234   0.042  -0.015   1.203   0.049   0.137  -0.078   0.271  -0.018  -0.078   0.103   0.023   0.006
  0.052   0.032  -1.186   0.040   0.003  -0.074   0.049   1.393   0.044  -0.083   0.299  -0.007  -0.054  -0.118  -0.158   0.005
 -0.051  -0.233   0.040  -1.563  -0.074   0.091   0.137   0.044   1.433   0.091   0.317  -0.017   0.025   0.327   0.019  -0.004
  0.308   0.032   0.016  -0.078  -1.318  -0.170  -0.078  -0.083   0.091   1.313  -0.103  -0.019  -0.192   0.058   0.272   0.019
  0.025  -0.264  -0.262  -0.321   0.067  -0.038   0.271   0.299   0.317  -0.103   2.098  -0.253   0.109  -0.054   0.295  -0.019
  0.031   0.007  -0.014   0.002   0.038  -0.016  -0.018  -0.007  -0.017  -0.019  -0.253   0.039  -0.018   0.009  -0.057   0.003
 -0.323   0.071   0.042  -0.029   0.198   0.349  -0.078  -0.054   0.025  -0.192   0.109  -0.018   0.237   0.027  -0.017  -0.023
 -0.031  -0.088   0.124  -0.325  -0.057   0.028   0.103  -0.118   0.327   0.058  -0.054   0.009   0.027   0.280   0.035  -0.002
 -0.000  -0.029   0.101  -0.024  -0.216   0.027   0.023  -0.158   0.019   0.272   0.295  -0.057  -0.017   0.035   0.192   0.000
  0.016  -0.002  -0.000   0.005  -0.011  -0.034   0.006   0.005  -0.004   0.019  -0.019   0.003  -0.023  -0.002   0.000   0.002
  0.004   0.004  -0.009   0.020   0.004  -0.004  -0.010   0.013  -0.035  -0.005   0.010  -0.002  -0.002  -0.026  -0.002   0.000
 -0.004   0.006   0.001   0.008   0.007  -0.002  -0.005   0.011  -0.005  -0.025  -0.053   0.008   0.000  -0.002  -0.022   0.000
 total augmentation occupancy for first ion, spin component:            2
  0.717   0.145  -0.262   0.001   0.496  -0.328  -0.068   0.135  -0.012  -0.235   0.009   0.013   0.007  -0.000  -0.032  -0.005
  0.145   1.277   0.232  -0.172  -0.044  -0.077  -0.627  -0.123   0.081   0.030  -0.057  -0.014  -0.002  -0.003   0.024   0.001
 -0.262   0.232   1.212   0.211  -0.432   0.120  -0.122  -0.585  -0.097   0.207  -0.092  -0.029   0.015  -0.000   0.067   0.002
  0.001  -0.172   0.211   0.416  -0.122  -0.002   0.079  -0.104  -0.187   0.058  -0.011  -0.011  -0.003   0.012   0.017   0.000
  0.496  -0.044  -0.432  -0.122   0.908  -0.235   0.021   0.227   0.055  -0.414   0.035   0.022  -0.020   0.006  -0.050   0.001
 -0.328  -0.077   0.120  -0.002  -0.235   0.076   0.030  -0.059   0.004   0.098   0.000  -0.006  -0.013   0.001   0.011   0.004
 -0.068  -0.627  -0.122   0.079   0.021   0.030   0.203   0.058  -0.028  -0.011   0.033   0.009   0.003  -0.000  -0.013  -0.001
  0.135  -0.123  -0.585  -0.104   0.227  -0.059   0.058   0.181   0.040  -0.105   0.047   0.016  -0.005  -0.002  -0.028  -0.001
 -0.012   0.081  -0.097  -0.187   0.055   0.004  -0.028   0.040   0.014  -0.027   0.001   0.008   0.003  -0.011  -0.008  -0.000
 -0.235   0.030   0.207   0.058  -0.414   0.098  -0.011  -0.105  -0.027   0.109  -0.010  -0.011   0.011  -0.004   0.015  -0.002
  0.009  -0.057  -0.092  -0.011   0.035   0.000   0.033   0.047   0.001  -0.010  -0.120   0.045  -0.007   0.002  -0.034   0.001
  0.013  -0.014  -0.029  -0.011   0.022  -0.006   0.009   0.016   0.008  -0.011   0.045  -0.007   0.002  -0.001   0.003  -0.000
  0.007  -0.002   0.015  -0.003  -0.020  -0.013   0.003  -0.005   0.003   0.011  -0.007   0.002  -0.018  -0.001   0.003   0.002
 -0.000  -0.003  -0.000   0.012   0.006   0.001  -0.000  -0.002  -0.011  -0.004   0.002  -0.001  -0.001  -0.019  -0.001   0.000
 -0.032   0.024   0.067   0.017  -0.050   0.011  -0.013  -0.028  -0.008   0.015  -0.034   0.003   0.003  -0.001  -0.000  -0.000
 -0.005   0.001   0.002   0.000   0.001   0.004  -0.001  -0.001  -0.000  -0.002   0.001  -0.000   0.002   0.000  -0.000  -0.000
  0.000  -0.001   0.001  -0.004   0.000   0.000   0.001  -0.001   0.003   0.000  -0.000   0.000   0.000   0.002   0.000  -0.000
 -0.003  -0.000   0.004   0.001  -0.007   0.001   0.000  -0.002  -0.000   0.003   0.003  -0.001  -0.000   0.000   0.001   0.000


------------------------ aborting loop because EDIFF is reached ----------------------------------------


    CHARGE:  cpu time    0.5818: real time    0.5922
    FORLOC:  cpu time    0.0426: real time    0.0432
    FORNL :  cpu time    1.3168: real time    1.3340
    FORCOR:  cpu time    2.2039: real time    2.2269
    FORHAR:  cpu time    0.2359: real time    0.2450
    MIXING:  cpu time    0.0510: real time    0.0511
    OFIELD:  cpu time    0.0000: real time    0.0000

 VOLUME and BASIS-vectors are now :
 -----------------------------------------------------------------------------
  energy-cutoff  :      400.00
  volume of cell :    10653.79
      direct lattice vectors                 reciprocal lattice vectors
    21.703142952  0.000000000  0.000000000     0.046076276  0.000000000  0.000000000
     0.000000000 22.024954995  0.000000000     0.000000000  0.045403044  0.000000000
     0.000000000  0.000000000 22.287757520     0.000000000  0.000000000  0.044867681

  length of vectors
    21.703142952 22.024954995 22.287757520     0.046076276  0.045403044  0.044867681


 FORCES acting on ions
    electron-ion (+dipol)            ewald-force                    non-local-force                 convergence-correction
 -----------------------------------------------------------------------------------------------
   0.889E+03 0.343E+03 -.263E+03   -.887E+03 -.342E+03 0.262E+03   -.148E+01 -.817E+00 0.499E+00   0.675E-01 -.141E+00 0.926E-01
   0.552E+03 0.700E+03 0.692E+03   -.549E+03 -.695E+03 -.687E+03   -.376E+01 -.515E+01 -.445E+01   0.703E-01 -.106E+00 0.667E-01
   0.274E+03 -.324E+03 -.103E+04   -.272E+03 0.322E+03 0.102E+04   -.179E+01 0.253E+01 0.752E+01   -.149E-01 -.102E+00 0.257E-01
   0.682E+03 -.431E+03 0.763E+03   -.679E+03 0.429E+03 -.760E+03   -.287E+01 0.232E+01 -.353E+01   -.131E-01 -.493E-01 0.291E-01
   -.263E+03 0.645E+03 -.863E+03   0.262E+03 -.640E+03 0.857E+03   0.172E+01 -.489E+01 0.630E+01   0.356E-01 -.453E-01 -.394E-01
   0.448E+03 -.976E+03 -.267E+03   -.445E+03 0.971E+03 0.265E+03   -.217E+01 0.533E+01 0.115E+01   -.735E-02 -.285E-01 0.108E+00
   -.693E+03 0.156E+03 0.855E+03   0.690E+03 -.155E+03 -.851E+03   0.297E+01 -.106E+01 -.413E+01   0.668E-01 -.167E+00 0.514E-01
   -.881E+03 -.232E+03 -.371E+03   0.879E+03 0.231E+03 0.370E+03   0.139E+01 0.552E+00 0.711E+00   -.198E-02 -.156E+00 0.765E-01
   -.447E+03 0.101E+04 0.660E+02   0.445E+03 -.100E+04 -.655E+02   0.218E+01 -.542E+01 -.664E+00   0.967E-02 -.475E-01 0.895E-01
   -.560E+03 -.888E+03 0.413E+03   0.556E+03 0.882E+03 -.410E+03   0.385E+01 0.638E+01 -.245E+01   0.632E-01 -.485E-02 0.915E-02
 -----------------------------------------------------------------------------------------------
   -.300E+00 0.108E+01 -.146E+01   -.227E-12 0.227E-12 -.114E-12   0.304E-01 -.222E+00 0.944E+00   0.276E+00 -.848E+00 0.510E+00
 
 
 POSITION                                       TOTAL-FORCE (eV/Angst)
 -----------------------------------------------------------------------------------
      9.79610     10.37991     11.28535         0.006838     -0.003654      0.010572
      9.88754      9.36284      9.17859         0.018035      0.021268     -0.015258
     10.33117     11.52386     13.22080        -0.020897     -0.010307      0.014397
      9.86946     11.68441      9.31450         0.007630     -0.030794     -0.022811
     11.38529      9.48807     12.88329         0.012068      0.014607     -0.007525
     10.15477     12.80449     11.33121         0.004493      0.030639      0.011647
     11.90359     10.63233      9.13964        -0.006695      0.025037      0.009185
     11.93199     11.20619     11.43065         0.002520     -0.032455      0.023361
     11.59097      8.90606     10.67552        -0.011252      0.001939      0.007574
     11.88039     12.86912      9.78717        -0.012740     -0.016280     -0.031143
 -----------------------------------------------------------------------------------
    total drift:                                0.005860      0.013834     -0.011454


--------------------------------------------------------------------------------------------------------



  FREE ENERGIE OF THE ION-ELECTRON SYSTEM (eV)
  ---------------------------------------------------
  free  energy   TOTEN  =       -36.78017430 eV

  energy  without entropy=      -36.77013581  energy(sigma->0) =      -36.77682814
 
 d Force =-0.8811857E-06[-0.382E-04, 0.365E-04]  d Energy = 0.9400309E-04-0.949E-04
 d Force =-0.7939408E+00[-0.793E+00,-0.795E+00]  d Ewald  =-0.7939407E+00-0.119E-06


--------------------------------------------------------------------------------------------------------


    POTLOK:  cpu time    1.8899: real time    1.9171


--------------------------------------------------------------------------------------------------------




--------------------------------------------------------------------------------------------------------


  
 reached required accuracy - stopping structural energy minimisation
     LOOP+:  cpu time   91.0785: real time   98.4250
    4ORBIT:  cpu time    0.0000: real time    0.0000

 total amount of memory used by VASP MPI-rank0   135544. kBytes
=======================================================================

   base      :      30000. kBytes
   nonl-proj :       3679. kBytes
   fftplans  :      26331. kBytes
   grid      :      62705. kBytes
   one-center:         31. kBytes
   wavefun   :      12798. kBytes
 
  
  
 General timing and accounting informations for this job:
 ========================================================
  
                  Total CPU time used (sec):     2779.720
                            User time (sec):     2756.989
                          System time (sec):       22.732
                         Elapsed time (sec):     2864.516
  
                   Maximum memory used (kb):      268084.
                   Average memory used (kb):           0.
  
                          Minor page faults:      3070894
                          Major page faults:       107826
                 Voluntary context switches:         8847
