<?xml version="1.0" encoding="ISO-8859-1"?>
<modeling>
 <generator>
  <i name="program" type="string">vasp </i>
  <i name="version" type="string">6.1.2  </i>
  <i name="subversion" type="string">22Jul20 (build Aug  2 2021 21:04:21) gamma-only                       parallel </i>
  <i name="platform" type="string">LinuxPGI </i>
  <i name="date" type="string">2021 12 25 </i>
  <i name="time" type="string">17:17:21 </i>
 </generator>
 <incar>
  <i type="int" name="ISPIN">     2</i>
  <i type="int" name="IBRION">     2</i>
  <i type="int" name="NSW">  1000</i>
  <i type="int" name="ISIF">     0</i>
  <i type="int" name="ISYM">     0</i>
  <i name="ENCUT">    400.00000000</i>
  <i type="logical" name="LREAL"> F  </i>
  <i type="int" name="ISMEAR">     1</i>
  <i name="SIGMA">      0.20000000</i>
  <i type="logical" name="LWAVE"> F  </i>
  <i type="logical" name="LCHARG"> F  </i>
  <i type="int" name="KPAR">     1</i>
  <i type="int" name="NCORE">     8</i>
  <i type="string" name="GGA"> PE</i>
  <i type="int" name="ISPIN">     2</i>
 </incar>
 <structure name="primitive_cell" >
  <crystal>
   <varray name="basis" >
    <v>      21.70314295       0.00000000       0.00000000 </v>
    <v>       0.00000000      22.02495500       0.00000000 </v>
    <v>       0.00000000       0.00000000      22.28775752 </v>
   </varray>
   <i name="volume">  10653.78761622 </i>
   <varray name="rec_basis" >
    <v>       0.04607628       0.00000000       0.00000000 </v>
    <v>       0.00000000       0.04540304       0.00000000 </v>
    <v>       0.00000000       0.00000000       0.04486768 </v>
   </varray>
  </crystal>
  <varray name="positions" >
   <v>       0.44839385       0.47041818       0.50698137 </v>
   <v>       0.45637540       0.42301942       0.40837031 </v>
   <v>       0.48081245       0.52549949       0.59856010 </v>
   <v>       0.45326483       0.53199556       0.41588014 </v>
   <v>       0.51952711       0.42693019       0.58196735 </v>
   <v>       0.46544178       0.58317091       0.51004899 </v>
   <v>       0.55107957       0.48189776       0.40635937 </v>
   <v>       0.55154390       0.50937682       0.51275480 </v>
   <v>       0.53643400       0.40276276       0.47950092 </v>
   <v>       0.54705942       0.58737986       0.43635623 </v>
  </varray>
 </structure>
 <varray name="primitive_index" >
  <v type="int" >        1 </v>
  <v type="int" >        2 </v>
  <v type="int" >        3 </v>
  <v type="int" >        4 </v>
  <v type="int" >        5 </v>
  <v type="int" >        6 </v>
  <v type="int" >        7 </v>
  <v type="int" >        8 </v>
  <v type="int" >        9 </v>
  <v type="int" >       10 </v>
 </varray>
 <kpoints>
  <generation param="Gamma">
   <v type="int" name="divisions">       1        1        1 </v>
   <v name="usershift">      0.00000000       0.00000000       0.00000000 </v>
   <v name="genvec1">      1.00000000       0.00000000       0.00000000 </v>
   <v name="genvec2">      0.00000000       1.00000000       0.00000000 </v>
   <v name="genvec3">      0.00000000       0.00000000       1.00000000 </v>
   <v name="shift">      0.00000000       0.00000000       0.00000000 </v>
  </generation>
  <varray name="kpointlist" >
   <v>       0.00000000       0.00000000       0.00000000 </v>
  </varray>
  <varray name="weights" >
   <v>       1.00000000 </v>
  </varray>
 </kpoints>
 <parameters>
  <separator name="general" >
   <i type="string" name="SYSTEM">unknown system</i>
   <i type="logical" name="LCOMPAT"> F  </i>
  </separator>
  <separator name="electronic" >
   <i type="string" name="PREC">normal</i>
   <i name="ENMAX">    400.00000000</i>
   <i name="ENAUG">    544.56500000</i>
   <i name="EDIFF">      0.00010000</i>
   <i type="int" name="IALGO">    38</i>
   <i type="int" name="IWAVPR">    11</i>
   <i type="int" name="NBANDS">    66</i>
   <i type="int" name="NBANDSLOW">    -1</i>
   <i type="int" name="NBANDSHIGH">    -1</i>
   <i name="NELECT">    100.00000000</i>
   <i type="int" name="TURBO">     0</i>
   <i type="int" name="IRESTART">     0</i>
   <i type="int" name="NREBOOT">     0</i>
   <i type="int" name="NMIN">     0</i>
   <i name="EREF">      0.00000000</i>
   <separator name="electronic smearing" >
    <i type="int" name="ISMEAR">     1</i>
    <i name="SIGMA">      0.20000000</i>
    <i name="KSPACING">      0.50000000</i>
    <i type="logical" name="KGAMMA"> T  </i>
    <i type="logical" name="KBLOWUP"> T  </i>
   </separator>
   <separator name="electronic projectors" >
    <i type="logical" name="LREAL"> F  </i>
    <v name="ROPT">      0.00000000</v>
    <i type="int" name="LMAXPAW">  -100</i>
    <i type="int" name="LMAXMIX">     2</i>
    <i type="logical" name="NLSPLINE"> F  </i>
   </separator>
   <separator name="electronic startup" >
    <i type="int" name="ISTART">     0</i>
    <i type="int" name="ICHARG">     2</i>
    <i type="int" name="INIWAV">     1</i>
   </separator>
   <separator name="electronic spin" >
    <i type="int" name="ISPIN">     2</i>
    <i type="logical" name="LNONCOLLINEAR"> F  </i>
    <v name="MAGMOM">      1.00000000      1.00000000      1.00000000      1.00000000      1.00000000      1.00000000      1.00000000      1.00000000      1.00000000      1.00000000</v>
    <i name="NUPDOWN">     -1.00000000</i>
    <i type="logical" name="LSORBIT"> F  </i>
    <v name="SAXIS">      0.00000000      0.00000000      1.00000000</v>
    <i type="logical" name="LSPIRAL"> F  </i>
    <v name="QSPIRAL">      0.00000000      0.00000000      0.00000000</v>
    <i type="logical" name="LZEROZ"> F  </i>
   </separator>
   <separator name="electronic exchange-correlation" >
    <i type="logical" name="LASPH"> F  </i>
    <i type="logical" name="LMETAGGA"> F  </i>
   </separator>
   <separator name="electronic convergence" >
    <i type="int" name="NELM">    60</i>
    <i type="int" name="NELMDL">     0</i>
    <i type="int" name="NELMIN">     2</i>
    <i name="ENINI">    400.00000000</i>
    <separator name="electronic convergence detail" >
     <i type="logical" name="LDIAG"> T  </i>
     <i type="logical" name="LSUBROT"> F  </i>
     <i name="WEIMIN">      0.00100000</i>
     <i name="EBREAK">      0.00000038</i>
     <i name="DEPER">      0.30000000</i>
     <i type="int" name="NRMM">     4</i>
     <i name="TIME">      0.40000000</i>
    </separator>
   </separator>
   <separator name="electronic mixer" >
    <i name="AMIX">      0.40000000</i>
    <i name="BMIX">      1.00000000</i>
    <i name="AMIN">      0.10000000</i>
    <i name="AMIX_MAG">      1.60000000</i>
    <i name="BMIX_MAG">      1.00000000</i>
    <separator name="electronic mixer details" >
     <i type="int" name="IMIX">     4</i>
     <i type="logical" name="MIXFIRST"> F  </i>
     <i type="int" name="MAXMIX">   -45</i>
     <i name="WC">    100.00000000</i>
     <i type="int" name="INIMIX">     1</i>
     <i type="int" name="MIXPRE">     1</i>
     <i type="int" name="MREMOVE">     5</i>
    </separator>
   </separator>
   <separator name="electronic dipolcorrection" >
    <i type="logical" name="LDIPOL"> F  </i>
    <i type="logical" name="LMONO"> F  </i>
    <i type="int" name="IDIPOL">     0</i>
    <i name="EPSILON">      1.00000000</i>
    <v name="DIPOL">   -100.00000000   -100.00000000   -100.00000000</v>
    <i name="EFIELD">      0.00000000</i>
   </separator>
  </separator>
  <separator name="grids" >
   <i type="int" name="NGX">   108</i>
   <i type="int" name="NGY">   108</i>
   <i type="int" name="NGZ">   112</i>
   <i type="int" name="NGXF">   216</i>
   <i type="int" name="NGYF">   216</i>
   <i type="int" name="NGZF">   224</i>
   <i type="logical" name="ADDGRID"> F  </i>
  </separator>
  <separator name="ionic" >
   <i type="int" name="NSW">  1000</i>
   <i type="int" name="IBRION">     2</i>
   <i type="int" name="MDALGO">     0</i>
   <i type="int" name="ISIF">     0</i>
   <i name="PSTRESS">      0.00000000</i>
   <i name="EDIFFG">      0.00100000</i>
   <i type="int" name="NFREE">     1</i>
   <i name="POTIM">      0.50000000</i>
   <i name="SMASS">     -3.00000000</i>
   <i name="SCALEE">      1.00000000</i>
  </separator>
  <separator name="ionic md" >
   <i name="TEBEG">      0.00010000</i>
   <i name="TEEND">      0.00010000</i>
   <i type="int" name="NBLOCK">     1</i>
   <i type="int" name="KBLOCK">  1000</i>
   <i type="int" name="NPACO">   256</i>
   <i name="APACO">     16.00000000</i>
  </separator>
  <separator name="symmetry" >
   <i type="int" name="ISYM">     0</i>
   <i name="SYMPREC">      0.00001000</i>
  </separator>
  <separator name="dos" >
   <i type="int" name="LORBIT">     0</i>
   <v name="RWIGS">     -1.00000000</v>
   <i type="int" name="NEDOS">   301</i>
   <i name="EMIN">     10.00000000</i>
   <i name="EMAX">    -10.00000000</i>
   <i name="EFERMI">      0.00000000</i>
  </separator>
  <separator name="writing" >
   <i type="int" name="NWRITE">     2</i>
   <i type="logical" name="LWAVE"> F  </i>
   <i type="logical" name="LDOWNSAMPLE"> F  </i>
   <i type="logical" name="LCHARG"> F  </i>
   <i type="logical" name="LPARD"> F  </i>
   <i type="logical" name="LVTOT"> F  </i>
   <i type="logical" name="LVHAR"> F  </i>
   <i type="logical" name="LELF"> F  </i>
   <i type="logical" name="LOPTICS"> F  </i>
   <v name="STM">      0.00000000      0.00000000      0.00000000      0.00000000      0.00000000      0.00000000      0.00000000</v>
  </separator>
  <separator name="performance" >
   <i type="int" name="NPAR">     2</i>
   <i type="int" name="NSIM">     4</i>
   <i type="int" name="NBLK">    -1</i>
   <i type="logical" name="LPLANE"> T  </i>
   <i type="logical" name="LSCALAPACK"> T  </i>
   <i type="logical" name="LSCAAWARE"> F  </i>
   <i type="logical" name="LSCALU"> F  </i>
   <i type="logical" name="LASYNC"> F  </i>
   <i type="logical" name="LORBITALREAL"> F  </i>
  </separator>
  <separator name="miscellaneous" >
   <i type="int" name="IDIOT">     3</i>
   <i type="int" name="PHON_NSTRUCT">    -1</i>
   <i type="logical" name="LMUSIC"> F  </i>
   <v name="POMASS">     58.69000000</v>
   <v name="DARWINR">      0.00000000</v>
   <v name="DARWINV">      1.00000000</v>
   <i type="logical" name="LCORR"> T  </i>
  </separator>
  <i type="logical" name="GGA_COMPAT"> T  </i>
  <i type="logical" name="LBERRY"> F  </i>
  <i type="int" name="ICORELEVEL">     0</i>
  <i type="logical" name="LDAU"> F  </i>
  <i type="int" name="I_CONSTRAINED_M">     0</i>
  <separator name="electronic exchange-correlation" >
   <i type="string" name="GGA">PE</i>
   <i type="int" name="VOSKOWN">     0</i>
   <i type="logical" name="LHFCALC"> F  </i>
   <i type="string" name="PRECFOCK"></i>
   <i type="logical" name="LSYMGRAD"> F  </i>
   <i type="logical" name="LHFONE"> F  </i>
   <i type="logical" name="LRHFCALC"> F  </i>
   <i type="logical" name="LTHOMAS"> F  </i>
   <i type="logical" name="LMODELHF"> F  </i>
   <i type="logical" name="LFOCKACE"> F  </i>
   <i name="ENCUT4O">     -1.00000000</i>
   <i type="int" name="EXXOEP">     0</i>
   <i type="int" name="FOURORBIT">     0</i>
   <i name="AEXX">      0.00000000</i>
   <i name="HFALPHA">      0.00000000</i>
   <i name="MCALPHA">      0.00000000</i>
   <i name="ALDAX">      1.00000000</i>
   <i name="AGGAX">      1.00000000</i>
   <i name="ALDAC">      1.00000000</i>
   <i name="AGGAC">      1.00000000</i>
   <i type="int" name="NKREDX">     1</i>
   <i type="int" name="NKREDY">     1</i>
   <i type="int" name="NKREDZ">     1</i>
   <i type="logical" name="SHIFTRED"> F  </i>
   <i type="logical" name="ODDONLY"> F  </i>
   <i type="logical" name="EVENONLY"> F  </i>
   <i type="int" name="LMAXFOCK">     0</i>
   <i type="int" name="NMAXFOCKAE">     0</i>
   <i type="logical" name="LFOCKAEDFT"> F  </i>
   <i name="HFSCREEN">      0.00000000</i>
   <i name="HFSCREENC">      0.00000000</i>
   <i type="int" name="NBANDSGWLOW">     0</i>
  </separator>
  <separator name="vdW DFT" >
   <i type="logical" name="LUSE_VDW"> F  </i>
   <i name="Zab_VDW">     -0.84910000</i>
   <i name="PARAM1">      0.12340000</i>
   <i name="PARAM2">      1.00000000</i>
   <i name="PARAM3">      0.00000000</i>
  </separator>
  <separator name="model GW" >
   <i type="int" name="MODEL_GW">     0</i>
   <i name="MODEL_EPS0">    639.22725697</i>
   <i name="MODEL_ALPHA">      1.00000000</i>
  </separator>
  <separator name="linear response parameters" >
   <i type="logical" name="LEPSILON"> F  </i>
   <i type="logical" name="LRPA"> F  </i>
   <i type="logical" name="LNABLA"> F  </i>
   <i type="logical" name="LVEL"> F  </i>
   <i type="int" name="KINTER">     0</i>
   <i name="CSHIFT">      0.10000000</i>
   <i name="OMEGAMAX">     -1.00000000</i>
   <i name="DEG_THRESHOLD">      0.00200000</i>
   <i name="RTIME">     -0.10000000</i>
   <i name="WPLASMAI">      0.00000000</i>
   <v name="DFIELD">      0.00000000      0.00000000      0.00000000</v>
   <v name="WPLASMA">      0.00000000      0.00000000      0.00000000      0.00000000      0.00000000      0.00000000      0.00000000      0.00000000      0.00000000</v>
  </separator>
  <separator name="orbital magnetization" >
   <i type="logical" name="NUCIND"> F  </i>
   <v name="MAGPOS">      0.00000000      0.00000000      0.00000000</v>
   <i type="logical" name="LNICSALL"> T  </i>
   <i type="logical" name="ORBITALMAG"> F  </i>
   <i type="logical" name="LMAGBLOCH"> F  </i>
   <i type="logical" name="LCHIMAG"> F  </i>
   <i type="logical" name="LGAUGE"> T  </i>
   <i type="int" name="MAGATOM">     0</i>
   <v name="MAGDIPOL">      0.00000000      0.00000000      0.00000000</v>
   <v name="AVECCONST">      0.00000000      0.00000000      0.00000000</v>
  </separator>
  <separator name="response functions" >
   <i type="logical" name="LFINITE_TEMPERATURE"> F  </i>
   <i type="logical" name="LADDER"> F  </i>
   <i type="logical" name="LRPAFORCE"> F  </i>
   <i type="logical" name="LFXC"> F  </i>
   <i type="logical" name="LHARTREE"> T  </i>
   <i type="int" name="IBSE">     0</i>
   <v type="int" name="KPOINT">    -1     0     0     0</v>
   <i type="logical" name="LTCTC"> F  </i>
   <i type="logical" name="LTCTE"> F  </i>
   <i type="logical" name="LTETE"> F  </i>
   <i type="logical" name="LTRIPLET"> F  </i>
   <i type="logical" name="LFXCEPS"> F  </i>
   <i type="logical" name="LFXHEG"> F  </i>
   <i type="int" name="NATURALO">     2</i>
   <i type="logical" name="LHOLEGF"> F  </i>
   <i type="logical" name="L2ORDER"> F  </i>
   <i type="logical" name="LDMP1"> F  </i>
   <i type="logical" name="LMP2LT"> F  </i>
   <i type="logical" name="LSMP2LT"> F  </i>
   <i type="logical" name="LGWLF"> F  </i>
   <i name="ENCUTGW">     -2.00000000</i>
   <i name="ENCUTGWSOFT">     -2.00000000</i>
   <i name="ENCUTLF">     -1.00000000</i>
   <i type="logical" name="LESF_SPLINES"> F  </i>
   <i type="int" name="LMAXMP2">    -1</i>
   <i name="SCISSOR">      0.00000000</i>
   <i type="int" name="NOMEGA">     0</i>
   <i type="int" name="NOMEGAR">     0</i>
   <i type="int" name="NBANDSGW">    -1</i>
   <i type="int" name="NBANDSO">    -1</i>
   <i type="int" name="NBANDSV">    -1</i>
   <i type="int" name="NELM">     1</i>
   <i type="int" name="NELMHF">     1</i>
   <i type="int" name="DIM">     3</i>
   <i type="int" name="IESPILON">     4</i>
   <i type="int" name="ANTIRES">     0</i>
   <i name="OMEGAMAX">    -30.00000000</i>
   <i name="OMEGAMIN">    -30.00000000</i>
   <i name="OMEGATL">   -200.00000000</i>
   <i type="int" name="OMEGAGRID">     0</i>
   <i name="CSHIFT">     -0.10000000</i>
   <i type="logical" name="LSELFENERGY"> F  </i>
   <i type="logical" name="LSPECTRAL"> F  </i>
   <i type="logical" name="LSPECTRALGW"> F  </i>
   <i type="logical" name="LSINGLES"> F  </i>
   <i type="logical" name="LFERMIGW"> F  </i>
   <i type="logical" name="ODDONLYGW"> F  </i>
   <i type="logical" name="EVENONLYGW"> F  </i>
   <i type="int" name="NKREDLFX">     1</i>
   <i type="int" name="NKREDLFY">     1</i>
   <i type="int" name="NKREDLFZ">     1</i>
   <i type="int" name="MAXMEM">  2800</i>
   <i type="int" name="TELESCOPE">     0</i>
   <i type="int" name="NTAUPAR">    -1</i>
   <i type="int" name="NOMEGAPAR">    -1</i>
   <i name="LAMBDA">      1.00000000</i>
  </separator>
  <separator name="External order field" >
   <i name="OFIELD_KAPPA">      0.00000000</i>
   <v name="OFIELD_K">      0.00000000      0.00000000      0.00000000</v>
   <i name="OFIELD_Q6_NEAR">      0.00000000</i>
   <i name="OFIELD_Q6_FAR">      0.00000000</i>
   <i name="OFIELD_A">      0.00000000</i>
  </separator>
 </parameters>
 <atominfo>
  <atoms>      10 </atoms>
  <types>       1 </types>
  <array name="atoms" >
   <dimension dim="1">ion</dimension>
   <field type="string">element</field>
   <field type="int">atomtype</field>
   <set>
    <rc><c>Ni</c><c>   1</c></rc>
    <rc><c>Ni</c><c>   1</c></rc>
    <rc><c>Ni</c><c>   1</c></rc>
    <rc><c>Ni</c><c>   1</c></rc>
    <rc><c>Ni</c><c>   1</c></rc>
    <rc><c>Ni</c><c>   1</c></rc>
    <rc><c>Ni</c><c>   1</c></rc>
    <rc><c>Ni</c><c>   1</c></rc>
    <rc><c>Ni</c><c>   1</c></rc>
    <rc><c>Ni</c><c>   1</c></rc>
   </set>
  </array>
  <array name="atomtypes" >
   <dimension dim="1">type</dimension>
   <field type="int">atomspertype</field>
   <field type="string">element</field>
   <field>mass</field>
   <field>valence</field>
   <field type="string">pseudopotential</field>
   <set>
    <rc><c>  10</c><c>Ni</c><c>     58.69000000</c><c>     10.00000000</c><c>  PAW_PBE Ni 02Aug2007                  </c></rc>
   </set>
  </array>
 </atominfo>
 <structure name="initialpos" >
  <crystal>
   <varray name="basis" >
    <v>      21.70314295       0.00000000       0.00000000 </v>
    <v>       0.00000000      22.02495500       0.00000000 </v>
    <v>       0.00000000       0.00000000      22.28775752 </v>
   </varray>
   <i name="volume">  10653.78761622 </i>
   <varray name="rec_basis" >
    <v>       0.04607628       0.00000000       0.00000000 </v>
    <v>       0.00000000       0.04540304       0.00000000 </v>
    <v>       0.00000000       0.00000000       0.04486768 </v>
   </varray>
  </crystal>
  <varray name="positions" >
   <v>       0.44839385       0.47041818       0.50698137 </v>
   <v>       0.45637540       0.42301942       0.40837031 </v>
   <v>       0.48081245       0.52549949       0.59856010 </v>
   <v>       0.45326483       0.53199556       0.41588014 </v>
   <v>       0.51952711       0.42693019       0.58196735 </v>
   <v>       0.46544178       0.58317091       0.51004899 </v>
   <v>       0.55107957       0.48189776       0.40635937 </v>
   <v>       0.55154390       0.50937682       0.51275480 </v>
   <v>       0.53643400       0.40276276       0.47950092 </v>
   <v>       0.54705942       0.58737986       0.43635623 </v>
  </varray>
 </structure>
 <calculation>
  <scstep>
   <time name="dav">    6.50    6.74</time>
   <time name="total">    8.40    8.66</time>
   <energy>
    <i name="alphaZ">      4.78697369 </i>
    <i name="ewald">  12848.07803664 </i>
    <i name="hartreedc"> -22699.04371779 </i>
    <i name="XCdc">    305.05034215 </i>
    <i name="pawpsdc">   9628.33173603 </i>
    <i name="pawaedc"> -10296.70712275 </i>
    <i name="eentropy">      0.04859616 </i>
    <i name="bandstr">     59.06837796 </i>
    <i name="atom">  10776.63837129 </i>
    <i name="e_fr_energy">    626.25159338 </i>
    <i name="e_wo_entrp">    626.20299722 </i>
    <i name="e_0_energy">    626.23539466 </i>
   </energy>
  </scstep>
  <scstep>
   <time name="dav">    7.73    7.76</time>
   <time name="total">    7.74    7.76</time>
   <energy>
    <i name="e_fr_energy">     99.57168882 </i>
    <i name="e_wo_entrp">     99.57992122 </i>
    <i name="e_0_energy">     99.57443295 </i>
   </energy>
  </scstep>
  <scstep>
   <time name="dav">    6.41    6.43</time>
   <time name="total">    6.41    6.44</time>
   <energy>
    <i name="e_fr_energy">    -30.01175782 </i>
    <i name="e_wo_entrp">    -29.95125464 </i>
    <i name="e_0_energy">    -29.99159009 </i>
   </energy>
  </scstep>
  <scstep>
   <time name="dav">    5.97    6.06</time>
   <time name="total">    5.97    6.07</time>
   <energy>
    <i name="e_fr_energy">    -41.57669102 </i>
    <i name="e_wo_entrp">    -41.54285559 </i>
    <i name="e_0_energy">    -41.56541254 </i>
   </energy>
  </scstep>
  <scstep>
   <time name="dav">   11.45   11.47</time>
   <time name="total">   14.84   14.87</time>
   <energy>
    <i name="e_fr_energy">    -41.90539082 </i>
    <i name="e_wo_entrp">    -41.86546015 </i>
    <i name="e_0_energy">    -41.89208059 </i>
   </energy>
  </scstep>
  <scstep>
   <time name="dav">    8.55    8.56</time>
   <time name="total">   11.08   11.10</time>
   <energy>
    <i name="e_fr_energy">    -44.09434678 </i>
    <i name="e_wo_entrp">    -44.12364616 </i>
    <i name="e_0_energy">    -44.10411324 </i>
   </energy>
  </scstep>
  <scstep>
   <time name="dav">    5.71    5.77</time>
   <time name="total">    8.74    8.81</time>
   <energy>
    <i name="e_fr_energy">    -41.10148639 </i>
    <i name="e_wo_entrp">    -41.08408153 </i>
    <i name="e_0_energy">    -41.09568477 </i>
   </energy>
  </scstep>
  <scstep>
   <time name="dav">   13.80   13.82</time>
   <time name="total">   21.53   21.55</time>
   <energy>
    <i name="e_fr_energy">    -39.16227571 </i>
    <i name="e_wo_entrp">    -39.15771738 </i>
    <i name="e_0_energy">    -39.16075626 </i>
   </energy>
  </scstep>
  <scstep>
   <time name="dav">    6.27    6.29</time>
   <time name="total">   10.00   10.04</time>
   <energy>
    <i name="e_fr_energy">    -35.52122168 </i>
    <i name="e_wo_entrp">    -35.47419820 </i>
    <i name="e_0_energy">    -35.50554719 </i>
   </energy>
  </scstep>
  <scstep>
   <time name="dav">    6.39    6.43</time>
   <time name="total">    9.52    9.58</time>
   <energy>
    <i name="e_fr_energy">    -38.02496110 </i>
    <i name="e_wo_entrp">    -38.10409283 </i>
    <i name="e_0_energy">    -38.05133834 </i>
   </energy>
  </scstep>
  <scstep>
   <time name="dav">    5.86    5.90</time>
   <time name="total">    8.46    8.54</time>
   <energy>
    <i name="e_fr_energy">    -36.08618684 </i>
    <i name="e_wo_entrp">    -36.09723308 </i>
    <i name="e_0_energy">    -36.08986892 </i>
   </energy>
  </scstep>
  <scstep>
   <time name="dav">   10.28   10.83</time>
   <time name="total">   12.83   13.38</time>
   <energy>
    <i name="e_fr_energy">    -35.01160773 </i>
    <i name="e_wo_entrp">    -34.95635416 </i>
    <i name="e_0_energy">    -34.99318988 </i>
   </energy>
  </scstep>
  <scstep>
   <time name="dav">   13.22   13.98</time>
   <time name="total">   15.78   16.55</time>
   <energy>
    <i name="e_fr_energy">    -34.92964020 </i>
    <i name="e_wo_entrp">    -34.86820131 </i>
    <i name="e_0_energy">    -34.90916057 </i>
   </energy>
  </scstep>
  <scstep>
   <time name="dav">    5.23    5.24</time>
   <time name="total">    7.79    7.81</time>
   <energy>
    <i name="e_fr_energy">    -34.80785018 </i>
    <i name="e_wo_entrp">    -34.73053654 </i>
    <i name="e_0_energy">    -34.78207897 </i>
   </energy>
  </scstep>
  <scstep>
   <time name="dav">    6.15    6.53</time>
   <time name="total">    8.74    9.12</time>
   <energy>
    <i name="e_fr_energy">    -34.83495233 </i>
    <i name="e_wo_entrp">    -34.78500994 </i>
    <i name="e_0_energy">    -34.81830487 </i>
   </energy>
  </scstep>
  <scstep>
   <time name="dav">    7.76    7.78</time>
   <time name="total">   10.70   10.74</time>
   <energy>
    <i name="e_fr_energy">    -34.80609278 </i>
    <i name="e_wo_entrp">    -34.78271356 </i>
    <i name="e_0_energy">    -34.79829971 </i>
   </energy>
  </scstep>
  <scstep>
   <time name="dav">   10.96   10.98</time>
   <time name="total">   13.69   13.73</time>
   <energy>
    <i name="e_fr_energy">    -34.67240204 </i>
    <i name="e_wo_entrp">    -34.63224344 </i>
    <i name="e_0_energy">    -34.65901584 </i>
   </energy>
  </scstep>
  <scstep>
   <time name="dav">   13.49   14.29</time>
   <time name="total">   16.11   16.94</time>
   <energy>
    <i name="e_fr_energy">    -34.81217089 </i>
    <i name="e_wo_entrp">    -34.77612996 </i>
    <i name="e_0_energy">    -34.80015725 </i>
   </energy>
  </scstep>
  <scstep>
   <time name="dav">   14.50   14.54</time>
   <time name="total">   17.12   17.17</time>
   <energy>
    <i name="e_fr_energy">    -34.83598972 </i>
    <i name="e_wo_entrp">    -34.80472567 </i>
    <i name="e_0_energy">    -34.82556837 </i>
   </energy>
  </scstep>
  <scstep>
   <time name="dav">   14.67   14.71</time>
   <time name="total">   22.02   22.06</time>
   <energy>
    <i name="e_fr_energy">    -35.02269057 </i>
    <i name="e_wo_entrp">    -34.98785482 </i>
    <i name="e_0_energy">    -35.01107865 </i>
   </energy>
  </scstep>
  <scstep>
   <time name="dav">   12.59   12.61</time>
   <time name="total">   18.09   18.12</time>
   <energy>
    <i name="e_fr_energy">    -35.08649953 </i>
    <i name="e_wo_entrp">    -35.05215584 </i>
    <i name="e_0_energy">    -35.07505163 </i>
   </energy>
  </scstep>
  <scstep>
   <time name="dav">    6.34    6.40</time>
   <time name="total">    9.00    9.08</time>
   <energy>
    <i name="e_fr_energy">    -35.33638650 </i>
    <i name="e_wo_entrp">    -35.29473868 </i>
    <i name="e_0_energy">    -35.32250389 </i>
   </energy>
  </scstep>
  <scstep>
   <time name="dav">    9.57    9.59</time>
   <time name="total">   15.57   15.59</time>
   <energy>
    <i name="e_fr_energy">    -35.52818877 </i>
    <i name="e_wo_entrp">    -35.48808266 </i>
    <i name="e_0_energy">    -35.51482006 </i>
   </energy>
  </scstep>
  <scstep>
   <time name="dav">   14.75   16.07</time>
   <time name="total">   21.78   23.57</time>
   <energy>
    <i name="e_fr_energy">    -35.68431004 </i>
    <i name="e_wo_entrp">    -35.64542602 </i>
    <i name="e_0_energy">    -35.67134870 </i>
   </energy>
  </scstep>
  <scstep>
   <time name="dav">   11.63   13.37</time>
   <time name="total">   14.94   16.81</time>
   <energy>
    <i name="e_fr_energy">    -35.80927025 </i>
    <i name="e_wo_entrp">    -35.77063655 </i>
    <i name="e_0_energy">    -35.79639235 </i>
   </energy>
  </scstep>
  <scstep>
   <time name="dav">   20.58   20.71</time>
   <time name="total">   24.86   24.99</time>
   <energy>
    <i name="e_fr_energy">    -35.95069930 </i>
    <i name="e_wo_entrp">    -35.91342312 </i>
    <i name="e_0_energy">    -35.93827391 </i>
   </energy>
  </scstep>
  <scstep>
   <time name="dav">    7.87    8.08</time>
   <time name="total">   14.16   14.38</time>
   <energy>
    <i name="e_fr_energy">    -36.07998759 </i>
    <i name="e_wo_entrp">    -36.04281821 </i>
    <i name="e_0_energy">    -36.06759780 </i>
   </energy>
  </scstep>
  <scstep>
   <time name="dav">    5.76    6.03</time>
   <time name="total">    8.73    9.01</time>
   <energy>
    <i name="e_fr_energy">    -36.17023088 </i>
    <i name="e_wo_entrp">    -36.13315035 </i>
    <i name="e_0_energy">    -36.15787070 </i>
   </energy>
  </scstep>
  <scstep>
   <time name="dav">    5.31    5.33</time>
   <time name="total">    8.07    8.11</time>
   <energy>
    <i name="e_fr_energy">    -36.23654080 </i>
    <i name="e_wo_entrp">    -36.19924180 </i>
    <i name="e_0_energy">    -36.22410780 </i>
   </energy>
  </scstep>
  <scstep>
   <time name="dav">    5.12    5.15</time>
   <time name="total">    7.91    7.94</time>
   <energy>
    <i name="e_fr_energy">    -36.27810278 </i>
    <i name="e_wo_entrp">    -36.24076538 </i>
    <i name="e_0_energy">    -36.26565698 </i>
   </energy>
  </scstep>
  <scstep>
   <time name="dav">    6.10    6.14</time>
   <time name="total">    9.41    9.46</time>
   <energy>
    <i name="e_fr_energy">    -36.31217653 </i>
    <i name="e_wo_entrp">    -36.27462385 </i>
    <i name="e_0_energy">    -36.29965897 </i>
   </energy>
  </scstep>
  <scstep>
   <time name="dav">    5.00    5.06</time>
   <time name="total">    7.77    7.85</time>
   <energy>
    <i name="e_fr_energy">    -36.33191095 </i>
    <i name="e_wo_entrp">    -36.29421562 </i>
    <i name="e_0_energy">    -36.31934584 </i>
   </energy>
  </scstep>
  <scstep>
   <time name="dav">    4.15    4.17</time>
   <time name="total">    7.33    7.43</time>
   <energy>
    <i name="e_fr_energy">    -36.34036090 </i>
    <i name="e_wo_entrp">    -36.30262981 </i>
    <i name="e_0_energy">    -36.32778387 </i>
   </energy>
  </scstep>
  <scstep>
   <time name="dav">    4.58    4.62</time>
   <time name="total">    7.37    7.42</time>
   <energy>
    <i name="e_fr_energy">    -36.34829729 </i>
    <i name="e_wo_entrp">    -36.31053009 </i>
    <i name="e_0_energy">    -36.33570822 </i>
   </energy>
  </scstep>
  <scstep>
   <time name="dav">   11.67   11.68</time>
   <time name="total">   14.85   14.87</time>
   <energy>
    <i name="e_fr_energy">    -36.35337111 </i>
    <i name="e_wo_entrp">    -36.31551697 </i>
    <i name="e_0_energy">    -36.34075307 </i>
   </energy>
  </scstep>
  <scstep>
   <time name="dav">   10.64   10.65</time>
   <time name="total">   17.31   17.33</time>
   <energy>
    <i name="e_fr_energy">    -36.35722492 </i>
    <i name="e_wo_entrp">    -36.31922533 </i>
    <i name="e_0_energy">    -36.34455839 </i>
   </energy>
  </scstep>
  <scstep>
   <time name="dav">    7.22    7.23</time>
   <time name="total">   13.67   13.70</time>
   <energy>
    <i name="e_fr_energy">    -36.35886836 </i>
    <i name="e_wo_entrp">    -36.32087402 </i>
    <i name="e_0_energy">    -36.34620358 </i>
   </energy>
  </scstep>
  <scstep>
   <time name="dav">    4.04    4.07</time>
   <time name="total">    6.88    6.91</time>
   <energy>
    <i name="e_fr_energy">    -36.36003895 </i>
    <i name="e_wo_entrp">    -36.32204020 </i>
    <i name="e_0_energy">    -36.34737270 </i>
   </energy>
  </scstep>
  <scstep>
   <time name="dav">    5.36    5.37</time>
   <time name="total">    8.56    8.59</time>
   <energy>
    <i name="e_fr_energy">    -36.36081868 </i>
    <i name="e_wo_entrp">    -36.32284596 </i>
    <i name="e_0_energy">    -36.34816111 </i>
   </energy>
  </scstep>
  <scstep>
   <time name="dav">    6.16    6.17</time>
   <time name="total">   10.50   10.53</time>
   <energy>
    <i name="e_fr_energy">    -36.36126442 </i>
    <i name="e_wo_entrp">    -36.32328601 </i>
    <i name="e_0_energy">    -36.34860495 </i>
   </energy>
  </scstep>
  <scstep>
   <time name="dav">    6.63    6.65</time>
   <time name="total">   12.11   12.14</time>
   <energy>
    <i name="e_fr_energy">    -36.36153854 </i>
    <i name="e_wo_entrp">    -36.32353609 </i>
    <i name="e_0_energy">    -36.34887106 </i>
   </energy>
  </scstep>
  <scstep>
   <time name="dav">    6.82    6.84</time>
   <time name="total">   13.07   13.10</time>
   <energy>
    <i name="e_fr_energy">    -36.36167388 </i>
    <i name="e_wo_entrp">    -36.32366222 </i>
    <i name="e_0_energy">    -36.34900333 </i>
   </energy>
  </scstep>
  <scstep>
   <time name="dav">    5.32    5.35</time>
   <time name="total">    7.22    7.25</time>
   <energy>
    <i name="alphaZ">      4.78697369 </i>
    <i name="ewald">  12848.07803664 </i>
    <i name="hartreedc"> -22745.83611863 </i>
    <i name="XCdc">    300.54372041 </i>
    <i name="pawpsdc">  10554.88277712 </i>
    <i name="pawaedc"> -11232.01528182 </i>
    <i name="eentropy">     -0.03800822 </i>
    <i name="bandstr">   -543.40222869 </i>
    <i name="atom">  10776.63837129 </i>
    <i name="e_fr_energy">    -36.36175821 </i>
    <i name="e_wo_entrp">    -36.32374999 </i>
    <i name="e_0_energy">    -36.34908881 </i>
   </energy>
  </scstep>
  <structure>
   <crystal>
    <varray name="basis" >
     <v>      21.70314295       0.00000000       0.00000000 </v>
     <v>       0.00000000      22.02495500       0.00000000 </v>
     <v>       0.00000000       0.00000000      22.28775752 </v>
    </varray>
    <i name="volume">  10653.78761622 </i>
    <varray name="rec_basis" >
     <v>       0.04607628       0.00000000       0.00000000 </v>
     <v>       0.00000000       0.04540304       0.00000000 </v>
     <v>       0.00000000       0.00000000       0.04486768 </v>
    </varray>
   </crystal>
   <varray name="positions" >
    <v>       0.44839385       0.47041818       0.50698137 </v>
    <v>       0.45637540       0.42301942       0.40837031 </v>
    <v>       0.48081245       0.52549949       0.59856010 </v>
    <v>       0.45326483       0.53199556       0.41588014 </v>
    <v>       0.51952711       0.42693019       0.58196735 </v>
    <v>       0.46544178       0.58317091       0.51004899 </v>
    <v>       0.55107957       0.48189776       0.40635937 </v>
    <v>       0.55154390       0.50937682       0.51275480 </v>
    <v>       0.53643400       0.40276276       0.47950092 </v>
    <v>       0.54705942       0.58737986       0.43635623 </v>
   </varray>
  </structure>
  <varray name="forces" >
   <v>       1.01311315       0.36547035      -0.07293921 </v>
   <v>       0.43190650       0.57821372       0.60471786 </v>
   <v>       0.02600694      -0.35790503      -0.95755377 </v>
   <v>       0.63118198      -0.47678635       0.54346829 </v>
   <v>      -0.01547616       0.63863465      -0.78104404 </v>
   <v>       0.49100092      -0.68987592      -0.24368171 </v>
   <v>      -0.66361462       0.27905615       0.71881139 </v>
   <v>      -0.96776495      -0.32931827      -0.17356017 </v>
   <v>      -0.49066591       0.72916729       0.01082827 </v>
   <v>      -0.45568784      -0.73665658       0.35095309 </v>
  </varray>
  <energy>
   <i name="e_fr_energy">    -36.36175821 </i>
   <i name="e_wo_entrp">    -36.32374999 </i>
   <i name="e_0_energy">    -36.34908881 </i>
  </energy>
  <time name="totalsc">  527.94  536.51</time>
 </calculation>
 <calculation>
  <scstep>
   <time name="dav">   15.33   15.35</time>
   <time name="total">   20.66   20.67</time>
   <energy>
    <i name="alphaZ">      4.78697369 </i>
    <i name="ewald">  13327.03719440 </i>
    <i name="hartreedc"> -23218.30160508 </i>
    <i name="XCdc">    301.68024387 </i>
    <i name="pawpsdc">  10554.87641793 </i>
    <i name="pawaedc"> -11232.00982543 </i>
    <i name="eentropy">     -0.02619733 </i>
    <i name="bandstr">   -551.22411537 </i>
    <i name="atom">  10776.63837129 </i>
    <i name="e_fr_energy">    -36.54254202 </i>
    <i name="e_wo_entrp">    -36.51634469 </i>
    <i name="e_0_energy">    -36.53380958 </i>
   </energy>
  </scstep>
  <scstep>
   <time name="dav">   14.84   16.49</time>
   <time name="total">   18.48   20.43</time>
   <energy>
    <i name="e_fr_energy">    -37.02179136 </i>
    <i name="e_wo_entrp">    -36.98142026 </i>
    <i name="e_0_energy">    -37.00833433 </i>
   </energy>
  </scstep>
  <scstep>
   <time name="dav">    7.19    7.58</time>
   <time name="total">   11.90   12.52</time>
   <energy>
    <i name="e_fr_energy">    -36.63270613 </i>
    <i name="e_wo_entrp">    -36.61783595 </i>
    <i name="e_0_energy">    -36.62774940 </i>
   </energy>
  </scstep>
  <scstep>
   <time name="dav">    7.94    8.34</time>
   <time name="total">   10.47   10.89</time>
   <energy>
    <i name="e_fr_energy">    -36.74926059 </i>
    <i name="e_wo_entrp">    -36.69050581 </i>
    <i name="e_0_energy">    -36.72967567 </i>
   </energy>
  </scstep>
  <scstep>
   <time name="dav">    5.94    5.98</time>
   <time name="total">    8.72    8.78</time>
   <energy>
    <i name="e_fr_energy">    -36.66587965 </i>
    <i name="e_wo_entrp">    -36.63992804 </i>
    <i name="e_0_energy">    -36.65722911 </i>
   </energy>
  </scstep>
  <scstep>
   <time name="dav">    7.92    8.01</time>
   <time name="total">   10.89   10.99</time>
   <energy>
    <i name="e_fr_energy">    -36.68833916 </i>
    <i name="e_wo_entrp">    -36.66641773 </i>
    <i name="e_0_energy">    -36.68103202 </i>
   </energy>
  </scstep>
  <scstep>
   <time name="dav">   19.22   20.79</time>
   <time name="total">   26.91   29.79</time>
   <energy>
    <i name="e_fr_energy">    -36.69120781 </i>
    <i name="e_wo_entrp">    -36.66062678 </i>
    <i name="e_0_energy">    -36.68101413 </i>
   </energy>
  </scstep>
  <scstep>
   <time name="dav">    9.39   10.56</time>
   <time name="total">   16.26   18.32</time>
   <energy>
    <i name="e_fr_energy">    -36.68762211 </i>
    <i name="e_wo_entrp">    -36.65956637 </i>
    <i name="e_0_energy">    -36.67827020 </i>
   </energy>
  </scstep>
  <scstep>
   <time name="dav">    6.21    6.31</time>
   <time name="total">    8.76    8.97</time>
   <energy>
    <i name="e_fr_energy">    -36.69651358 </i>
    <i name="e_wo_entrp">    -36.67386651 </i>
    <i name="e_0_energy">    -36.68896456 </i>
   </energy>
  </scstep>
  <scstep>
   <time name="dav">    7.07    7.30</time>
   <time name="total">    9.64    9.95</time>
   <energy>
    <i name="e_fr_energy">    -36.68033771 </i>
    <i name="e_wo_entrp">    -36.65184841 </i>
    <i name="e_0_energy">    -36.67084128 </i>
   </energy>
  </scstep>
  <scstep>
   <time name="dav">    6.28    6.30</time>
   <time name="total">    9.24    9.30</time>
   <energy>
    <i name="e_fr_energy">    -36.68786112 </i>
    <i name="e_wo_entrp">    -36.66086074 </i>
    <i name="e_0_energy">    -36.67886099 </i>
   </energy>
  </scstep>
  <scstep>
   <time name="dav">    5.96    5.99</time>
   <time name="total">    8.64    8.69</time>
   <energy>
    <i name="e_fr_energy">    -36.68517466 </i>
    <i name="e_wo_entrp">    -36.65716758 </i>
    <i name="e_0_energy">    -36.67583897 </i>
   </energy>
  </scstep>
  <scstep>
   <time name="dav">    7.19    7.22</time>
   <time name="total">    9.81    9.85</time>
   <energy>
    <i name="e_fr_energy">    -36.68711285 </i>
    <i name="e_wo_entrp">    -36.65895945 </i>
    <i name="e_0_energy">    -36.67772838 </i>
   </energy>
  </scstep>
  <scstep>
   <time name="dav">    5.53    5.56</time>
   <time name="total">    8.35    8.40</time>
   <energy>
    <i name="e_fr_energy">    -36.68665995 </i>
    <i name="e_wo_entrp">    -36.65873784 </i>
    <i name="e_0_energy">    -36.67735258 </i>
   </energy>
  </scstep>
  <scstep>
   <time name="dav">    4.62    4.63</time>
   <time name="total">    7.43    7.46</time>
   <energy>
    <i name="e_fr_energy">    -36.68705804 </i>
    <i name="e_wo_entrp">    -36.65908418 </i>
    <i name="e_0_energy">    -36.67773342 </i>
   </energy>
  </scstep>
  <scstep>
   <time name="dav">    4.53    4.56</time>
   <time name="total">    7.87    7.92</time>
   <energy>
    <i name="e_fr_energy">    -36.68730386 </i>
    <i name="e_wo_entrp">    -36.65939334 </i>
    <i name="e_0_energy">    -36.67800035 </i>
   </energy>
  </scstep>
  <scstep>
   <time name="dav">    4.00    4.01</time>
   <time name="total">    6.61    6.64</time>
   <energy>
    <i name="e_fr_energy">    -36.68744281 </i>
    <i name="e_wo_entrp">    -36.65965419 </i>
    <i name="e_0_energy">    -36.67817993 </i>
   </energy>
  </scstep>
  <scstep>
   <time name="dav">    4.31    4.32</time>
   <time name="total">    6.93    6.98</time>
   <energy>
    <i name="e_fr_energy">    -36.68764464 </i>
    <i name="e_wo_entrp">    -36.66000862 </i>
    <i name="e_0_energy">    -36.67843263 </i>
   </energy>
  </scstep>
  <scstep>
   <time name="dav">    4.19    4.20</time>
   <time name="total">    6.82    6.86</time>
   <energy>
    <i name="e_fr_energy">    -36.68790703 </i>
    <i name="e_wo_entrp">    -36.66040751 </i>
    <i name="e_0_energy">    -36.67874053 </i>
   </energy>
  </scstep>
  <scstep>
   <time name="dav">    4.08    4.11</time>
   <time name="total">    7.00    7.04</time>
   <energy>
    <i name="e_fr_energy">    -36.68807217 </i>
    <i name="e_wo_entrp">    -36.66058229 </i>
    <i name="e_0_energy">    -36.67890888 </i>
   </energy>
  </scstep>
  <scstep>
   <time name="dav">    4.01    4.04</time>
   <time name="total">    6.66    6.71</time>
   <energy>
    <i name="e_fr_energy">    -36.68825147 </i>
    <i name="e_wo_entrp">    -36.66076554 </i>
    <i name="e_0_energy">    -36.67908949 </i>
   </energy>
  </scstep>
  <scstep>
   <time name="dav">    3.98    4.02</time>
   <time name="total">    6.67    6.74</time>
   <energy>
    <i name="e_fr_energy">    -36.68842859 </i>
    <i name="e_wo_entrp">    -36.66091609 </i>
    <i name="e_0_energy">    -36.67925776 </i>
   </energy>
  </scstep>
  <scstep>
   <time name="dav">    4.00    4.02</time>
   <time name="total">    6.69    6.72</time>
   <energy>
    <i name="e_fr_energy">    -36.68857682 </i>
    <i name="e_wo_entrp">    -36.66108106 </i>
    <i name="e_0_energy">    -36.67941157 </i>
   </energy>
  </scstep>
  <scstep>
   <time name="dav">    3.91    3.95</time>
   <time name="total">    6.61    6.65</time>
   <energy>
    <i name="e_fr_energy">    -36.68869584 </i>
    <i name="e_wo_entrp">    -36.66119723 </i>
    <i name="e_0_energy">    -36.67952964 </i>
   </energy>
  </scstep>
  <scstep>
   <time name="dav">    3.65    3.69</time>
   <time name="total">    6.36    6.42</time>
   <energy>
    <i name="e_fr_energy">    -36.68879652 </i>
    <i name="e_wo_entrp">    -36.66132113 </i>
    <i name="e_0_energy">    -36.67963806 </i>
   </energy>
  </scstep>
  <scstep>
   <time name="dav">    3.79    3.83</time>
   <time name="total">    6.61    6.69</time>
   <energy>
    <i name="e_fr_energy">    -36.68892512 </i>
    <i name="e_wo_entrp">    -36.66145532 </i>
    <i name="e_0_energy">    -36.67976852 </i>
   </energy>
  </scstep>
  <scstep>
   <time name="dav">    4.01    4.15</time>
   <time name="total">    7.28    7.43</time>
   <energy>
    <i name="e_fr_energy">    -36.68906053 </i>
    <i name="e_wo_entrp">    -36.66158859 </i>
    <i name="e_0_energy">    -36.67990322 </i>
   </energy>
  </scstep>
  <scstep>
   <time name="dav">    8.15    8.16</time>
   <time name="total">   13.45   13.46</time>
   <energy>
    <i name="alphaZ">      4.78697369 </i>
    <i name="ewald">  13327.03719440 </i>
    <i name="hartreedc"> -23211.83154322 </i>
    <i name="XCdc">    301.31962404 </i>
    <i name="pawpsdc">  10735.52521725 </i>
    <i name="pawaedc"> -11414.88095719 </i>
    <i name="eentropy">     -0.02746245 </i>
    <i name="bandstr">   -555.25654892 </i>
    <i name="atom">  10776.63837129 </i>
    <i name="e_fr_energy">    -36.68913109 </i>
    <i name="e_wo_entrp">    -36.66166865 </i>
    <i name="e_0_energy">    -36.67997695 </i>
   </energy>
  </scstep>
  <structure>
   <crystal>
    <varray name="basis" >
     <v>      21.70314295       0.00000000       0.00000000 </v>
     <v>       0.00000000      22.02495500       0.00000000 </v>
     <v>       0.00000000       0.00000000      22.28775752 </v>
    </varray>
    <i name="volume">  10653.78761622 </i>
    <varray name="rec_basis" >
     <v>       0.04607628       0.00000000       0.00000000 </v>
     <v>       0.00000000       0.04540304       0.00000000 </v>
     <v>       0.00000000       0.00000000       0.04486768 </v>
    </varray>
   </crystal>
   <varray name="positions" >
    <v>       0.45064584       0.47121869       0.50682349 </v>
    <v>       0.45733546       0.42428592       0.40967924 </v>
    <v>       0.48087026       0.52471555       0.59648744 </v>
    <v>       0.45466785       0.53095123       0.41705650 </v>
    <v>       0.51949271       0.42832904       0.58027675 </v>
    <v>       0.46653319       0.58165983       0.50952153 </v>
    <v>       0.54960446       0.48250900       0.40791527 </v>
    <v>       0.54939271       0.50865549       0.51237913 </v>
    <v>       0.53534333       0.40435990       0.47952436 </v>
    <v>       0.54604650       0.58576631       0.43711588 </v>
   </varray>
  </structure>
  <varray name="forces" >
   <v>       0.25641710       0.12948376      -0.03312235 </v>
   <v>       0.12883366       0.24266711       0.30727679 </v>
   <v>      -0.09964793      -0.12893852      -0.48318613 </v>
   <v>       0.17279091      -0.22377161       0.22342315 </v>
   <v>       0.12019715       0.26571195      -0.40332488 </v>
   <v>       0.21474026      -0.21774974      -0.10817290 </v>
   <v>      -0.19986408       0.14253028       0.34361905 </v>
   <v>      -0.22435347      -0.11593540      -0.04509856 </v>
   <v>      -0.20755165       0.23142087      -0.01084824 </v>
   <v>      -0.16156194      -0.32541872       0.20943406 </v>
  </varray>
  <energy>
   <i name="e_fr_energy">    -36.68913109 </i>
   <i name="e_wo_entrp">    -36.66166865 </i>
   <i name="e_0_energy">    -36.67997695 </i>
  </energy>
  <time name="totalsc">  290.25  299.86</time>
 </calculation>
 <calculation>
  <scstep>
   <time name="dav">   20.76   20.77</time>
   <time name="total">   25.23   25.26</time>
   <energy>
    <i name="alphaZ">      4.78697369 </i>
    <i name="ewald">  13565.82921431 </i>
    <i name="hartreedc"> -23446.69219348 </i>
    <i name="XCdc">    301.88981533 </i>
    <i name="pawpsdc">  10735.53584991 </i>
    <i name="pawaedc"> -11414.89146994 </i>
    <i name="eentropy">     -0.02142145 </i>
    <i name="bandstr">   -559.77302007 </i>
    <i name="atom">  10776.63837129 </i>
    <i name="e_fr_energy">    -36.69788041 </i>
    <i name="e_wo_entrp">    -36.67645896 </i>
    <i name="e_0_energy">    -36.69073993 </i>
   </energy>
  </scstep>
  <scstep>
   <time name="dav">   14.89   14.92</time>
   <time name="total">   17.47   17.52</time>
   <energy>
    <i name="e_fr_energy">    -36.81086412 </i>
    <i name="e_wo_entrp">    -36.77878356 </i>
    <i name="e_0_energy">    -36.80017060 </i>
   </energy>
  </scstep>
  <scstep>
   <time name="dav">   10.78   10.79</time>
   <time name="total">   17.85   17.88</time>
   <energy>
    <i name="e_fr_energy">    -36.70884950 </i>
    <i name="e_wo_entrp">    -36.69057839 </i>
    <i name="e_0_energy">    -36.70275913 </i>
   </energy>
  </scstep>
  <scstep>
   <time name="dav">   12.87   12.89</time>
   <time name="total">   16.32   16.35</time>
   <energy>
    <i name="e_fr_energy">    -36.75177366 </i>
    <i name="e_wo_entrp">    -36.72419343 </i>
    <i name="e_0_energy">    -36.74258025 </i>
   </energy>
  </scstep>
  <scstep>
   <time name="dav">   11.23   11.24</time>
   <time name="total">   15.19   15.21</time>
   <energy>
    <i name="e_fr_energy">    -36.72868779 </i>
    <i name="e_wo_entrp">    -36.70126127 </i>
    <i name="e_0_energy">    -36.71954562 </i>
   </energy>
  </scstep>
  <scstep>
   <time name="dav">   24.09   24.10</time>
   <time name="total">   28.36   28.39</time>
   <energy>
    <i name="e_fr_energy">    -36.72716830 </i>
    <i name="e_wo_entrp">    -36.70676402 </i>
    <i name="e_0_energy">    -36.72036687 </i>
   </energy>
  </scstep>
  <scstep>
   <time name="dav">   10.99   11.02</time>
   <time name="total">   18.11   18.14</time>
   <energy>
    <i name="e_fr_energy">    -36.73514686 </i>
    <i name="e_wo_entrp">    -36.71087932 </i>
    <i name="e_0_energy">    -36.72705768 </i>
   </energy>
  </scstep>
  <scstep>
   <time name="dav">   13.34   14.71</time>
   <time name="total">   17.09   18.65</time>
   <energy>
    <i name="e_fr_energy">    -36.73419544 </i>
    <i name="e_wo_entrp">    -36.71112761 </i>
    <i name="e_0_energy">    -36.72650616 </i>
   </energy>
  </scstep>
  <scstep>
   <time name="dav">   13.93   13.94</time>
   <time name="total">   20.07   20.69</time>
   <energy>
    <i name="e_fr_energy">    -36.73234889 </i>
    <i name="e_wo_entrp">    -36.71029056 </i>
    <i name="e_0_energy">    -36.72499612 </i>
   </energy>
  </scstep>
  <scstep>
   <time name="dav">    9.47    9.89</time>
   <time name="total">   16.37   16.85</time>
   <energy>
    <i name="e_fr_energy">    -36.72975990 </i>
    <i name="e_wo_entrp">    -36.70722348 </i>
    <i name="e_0_energy">    -36.72224776 </i>
   </energy>
  </scstep>
  <scstep>
   <time name="dav">    7.20    7.22</time>
   <time name="total">   11.86   12.71</time>
   <energy>
    <i name="e_fr_energy">    -36.73191929 </i>
    <i name="e_wo_entrp">    -36.70924403 </i>
    <i name="e_0_energy">    -36.72436087 </i>
   </energy>
  </scstep>
  <scstep>
   <time name="dav">   15.62   17.81</time>
   <time name="total">   18.88   21.08</time>
   <energy>
    <i name="e_fr_energy">    -36.73162793 </i>
    <i name="e_wo_entrp">    -36.70901751 </i>
    <i name="e_0_energy">    -36.72409112 </i>
   </energy>
  </scstep>
  <scstep>
   <time name="dav">   12.68   14.53</time>
   <time name="total">   16.05   17.94</time>
   <energy>
    <i name="e_fr_energy">    -36.73179455 </i>
    <i name="e_wo_entrp">    -36.70917615 </i>
    <i name="e_0_energy">    -36.72425508 </i>
   </energy>
  </scstep>
  <scstep>
   <time name="dav">    9.81    9.82</time>
   <time name="total">   14.32   14.76</time>
   <energy>
    <i name="e_fr_energy">    -36.73194393 </i>
    <i name="e_wo_entrp">    -36.70938364 </i>
    <i name="e_0_energy">    -36.72442384 </i>
   </energy>
  </scstep>
  <scstep>
   <time name="dav">   10.67   10.68</time>
   <time name="total">   12.58   12.60</time>
   <energy>
    <i name="alphaZ">      4.78697369 </i>
    <i name="ewald">  13565.82921431 </i>
    <i name="hartreedc"> -23443.80806095 </i>
    <i name="XCdc">    301.73049224 </i>
    <i name="pawpsdc">  10834.95416533 </i>
    <i name="pawaedc"> -11515.55683204 </i>
    <i name="eentropy">     -0.02257904 </i>
    <i name="bandstr">   -561.28371718 </i>
    <i name="atom">  10776.63837129 </i>
    <i name="e_fr_energy">    -36.73197235 </i>
    <i name="e_wo_entrp">    -36.70939331 </i>
    <i name="e_0_energy">    -36.72444600 </i>
   </energy>
  </scstep>
  <structure>
   <crystal>
    <varray name="basis" >
     <v>      21.70314295       0.00000000       0.00000000 </v>
     <v>       0.00000000      22.02495500       0.00000000 </v>
     <v>       0.00000000       0.00000000      22.28775752 </v>
    </varray>
    <i name="volume">  10653.78761622 </i>
    <varray name="rec_basis" >
     <v>       0.04607628       0.00000000       0.00000000 </v>
     <v>       0.00000000       0.04540304       0.00000000 </v>
     <v>       0.00000000       0.00000000       0.04486768 </v>
    </varray>
   </crystal>
   <varray name="positions" >
    <v>       0.45173207       0.47160481       0.50674734 </v>
    <v>       0.45779853       0.42489680       0.41031059 </v>
    <v>       0.48089814       0.52433742       0.59548771 </v>
    <v>       0.45534458       0.53044750       0.41762390 </v>
    <v>       0.51947611       0.42900375       0.57946131 </v>
    <v>       0.46705963       0.58093098       0.50926712 </v>
    <v>       0.54889296       0.48280382       0.40866573 </v>
    <v>       0.54835510       0.50830757       0.51219792 </v>
    <v>       0.53481726       0.40513026       0.47953567 </v>
    <v>       0.54555793       0.58498803       0.43748229 </v>
   </varray>
  </structure>
  <varray name="forces" >
   <v>      -0.25045145      -0.02605808      -0.02530184 </v>
   <v>      -0.04822382       0.04876709       0.14155707 </v>
   <v>      -0.17754240       0.00351816      -0.18858791 </v>
   <v>      -0.11850459      -0.07368330       0.04174143 </v>
   <v>       0.19987733       0.04171500      -0.18190560 </v>
   <v>       0.05690011       0.06307973      -0.03083088 </v>
   <v>       0.09016672       0.05634536       0.12195751 </v>
   <v>       0.27682081       0.02939502       0.01964158 </v>
   <v>      -0.03910339      -0.06076939      -0.02429194 </v>
   <v>       0.01006068      -0.08230960       0.12602058 </v>
  </varray>
  <energy>
   <i name="e_fr_energy">    -36.73197235 </i>
   <i name="e_wo_entrp">    -36.70939331 </i>
   <i name="e_0_energy">    -36.72444600 </i>
  </energy>
  <time name="totalsc">  273.89  282.26</time>
 </calculation>
 <calculation>
  <scstep>
   <time name="dav">    6.68    6.85</time>
   <time name="total">    9.93   10.48</time>
   <energy>
    <i name="alphaZ">      4.78697369 </i>
    <i name="ewald">  13588.80522839 </i>
    <i name="hartreedc"> -23466.76416998 </i>
    <i name="XCdc">    301.77578158 </i>
    <i name="pawpsdc">  10834.95478054 </i>
    <i name="pawaedc"> -11515.55728482 </i>
    <i name="eentropy">     -0.02055527 </i>
    <i name="bandstr">   -561.36150976 </i>
    <i name="atom">  10776.63837129 </i>
    <i name="e_fr_energy">    -36.74238433 </i>
    <i name="e_wo_entrp">    -36.72182906 </i>
    <i name="e_0_energy">    -36.73553258 </i>
   </energy>
  </scstep>
  <scstep>
   <time name="dav">    9.64    9.77</time>
   <time name="total">   12.19   12.32</time>
   <energy>
    <i name="e_fr_energy">    -36.83381576 </i>
    <i name="e_wo_entrp">    -36.80769648 </i>
    <i name="e_0_energy">    -36.82510933 </i>
   </energy>
  </scstep>
  <scstep>
   <time name="dav">    8.23    8.26</time>
   <time name="total">   11.18   11.22</time>
   <energy>
    <i name="e_fr_energy">    -36.72965596 </i>
    <i name="e_wo_entrp">    -36.70970440 </i>
    <i name="e_0_energy">    -36.72300544 </i>
   </energy>
  </scstep>
  <scstep>
   <time name="dav">   18.35   18.38</time>
   <time name="total">   21.37   21.42</time>
   <energy>
    <i name="e_fr_energy">    -36.75200791 </i>
    <i name="e_wo_entrp">    -36.73398648 </i>
    <i name="e_0_energy">    -36.74600076 </i>
   </energy>
  </scstep>
  <scstep>
   <time name="dav">    9.06    9.09</time>
   <time name="total">   12.20   12.24</time>
   <energy>
    <i name="e_fr_energy">    -36.74874928 </i>
    <i name="e_wo_entrp">    -36.72372612 </i>
    <i name="e_0_energy">    -36.74040823 </i>
   </energy>
  </scstep>
  <scstep>
   <time name="dav">   12.90   12.91</time>
   <time name="total">   15.62   15.64</time>
   <energy>
    <i name="e_fr_energy">    -36.74679085 </i>
    <i name="e_wo_entrp">    -36.72812717 </i>
    <i name="e_0_energy">    -36.74056962 </i>
   </energy>
  </scstep>
  <scstep>
   <time name="dav">   28.70   28.74</time>
   <time name="total">   31.65   31.70</time>
   <energy>
    <i name="e_fr_energy">    -36.74876052 </i>
    <i name="e_wo_entrp">    -36.73041134 </i>
    <i name="e_0_energy">    -36.74264412 </i>
   </energy>
  </scstep>
  <scstep>
   <time name="dav">   10.27   10.28</time>
   <time name="total">   13.25   13.27</time>
   <energy>
    <i name="e_fr_energy">    -36.74864917 </i>
    <i name="e_wo_entrp">    -36.72940664 </i>
    <i name="e_0_energy">    -36.74223499 </i>
   </energy>
  </scstep>
  <scstep>
   <time name="dav">   20.66   20.67</time>
   <time name="total">   25.08   25.10</time>
   <energy>
    <i name="e_fr_energy">    -36.74859681 </i>
    <i name="e_wo_entrp">    -36.73031788 </i>
    <i name="e_0_energy">    -36.74250383 </i>
   </energy>
  </scstep>
  <scstep>
   <time name="dav">    8.56    8.57</time>
   <time name="total">   11.14   11.17</time>
   <energy>
    <i name="e_fr_energy">    -36.74858024 </i>
    <i name="e_wo_entrp">    -36.73009736 </i>
    <i name="e_0_energy">    -36.74241928 </i>
   </energy>
  </scstep>
  <scstep>
   <time name="dav">    5.60    5.62</time>
   <time name="total">   11.58   11.61</time>
   <energy>
    <i name="e_fr_energy">    -36.74896987 </i>
    <i name="e_wo_entrp">    -36.73033157 </i>
    <i name="e_0_energy">    -36.74275710 </i>
   </energy>
  </scstep>
  <scstep>
   <time name="dav">    4.85    4.87</time>
   <time name="total">    6.86    6.91</time>
   <energy>
    <i name="alphaZ">      4.78697369 </i>
    <i name="ewald">  13588.80522839 </i>
    <i name="hartreedc"> -23465.61744092 </i>
    <i name="XCdc">    301.74658887 </i>
    <i name="pawpsdc">  10840.02439332 </i>
    <i name="pawaedc"> -11520.71225552 </i>
    <i name="eentropy">     -0.01868319 </i>
    <i name="bandstr">   -562.40217481 </i>
    <i name="atom">  10776.63837129 </i>
    <i name="e_fr_energy">    -36.74899888 </i>
    <i name="e_wo_entrp">    -36.73031568 </i>
    <i name="e_0_energy">    -36.74277115 </i>
   </energy>
  </scstep>
  <structure>
   <crystal>
    <varray name="basis" >
     <v>      21.70314295       0.00000000       0.00000000 </v>
     <v>       0.00000000      22.02495500       0.00000000 </v>
     <v>       0.00000000       0.00000000      22.28775752 </v>
    </varray>
    <i name="volume">  10653.78761622 </i>
    <varray name="rec_basis" >
     <v>       0.04607628       0.00000000       0.00000000 </v>
     <v>       0.00000000       0.04540304       0.00000000 </v>
     <v>       0.00000000       0.00000000       0.04486768 </v>
    </varray>
   </crystal>
   <varray name="positions" >
    <v>       0.45122703       0.47157969       0.50667990 </v>
    <v>       0.45772592       0.42507319       0.41070781 </v>
    <v>       0.48046813       0.52430919       0.59494314 </v>
    <v>       0.45512140       0.53022167       0.41777801 </v>
    <v>       0.51996166       0.42916940       0.57895048 </v>
    <v>       0.46724938       0.58101177       0.50916926 </v>
    <v>       0.54904369       0.48296774       0.40902799 </v>
    <v>       0.54892913       0.50834441       0.51222696 </v>
    <v>       0.53467091       0.40505905       0.47947911 </v>
    <v>       0.54553505       0.58471485       0.43781693 </v>
   </varray>
  </structure>
  <varray name="forces" >
   <v>      -0.09455869       0.01372179       0.01545311 </v>
   <v>      -0.06914941       0.00556952       0.09600807 </v>
   <v>      -0.16704867      -0.00937212      -0.14464256 </v>
   <v>      -0.10269036      -0.02410481       0.00888685 </v>
   <v>       0.18182910       0.04556381      -0.13129514 </v>
   <v>       0.03704446       0.05247947      -0.03056772 </v>
   <v>       0.07094394       0.02342357       0.07182639 </v>
   <v>       0.13021890      -0.02264547       0.04994999 </v>
   <v>      -0.01818256      -0.06042482      -0.02940365 </v>
   <v>       0.03159330      -0.02421094       0.09378466 </v>
  </varray>
  <energy>
   <i name="e_fr_energy">    -36.74899888 </i>
   <i name="e_wo_entrp">    -36.73031568 </i>
   <i name="e_0_energy">    -36.74277115 </i>
  </energy>
  <time name="totalsc">  188.75  189.84</time>
 </calculation>
 <calculation>
  <scstep>
   <time name="dav">   12.33   12.35</time>
   <time name="total">   18.48   18.51</time>
   <energy>
    <i name="alphaZ">      4.78697369 </i>
    <i name="ewald">  13630.73708209 </i>
    <i name="hartreedc"> -23507.44346607 </i>
    <i name="XCdc">    301.83530621 </i>
    <i name="pawpsdc">  10840.10748005 </i>
    <i name="pawaedc"> -11520.79728311 </i>
    <i name="eentropy">     -0.01708380 </i>
    <i name="bandstr">   -562.58582664 </i>
    <i name="atom">  10776.63837129 </i>
    <i name="e_fr_energy">    -36.73844630 </i>
    <i name="e_wo_entrp">    -36.72136250 </i>
    <i name="e_0_energy">    -36.73275170 </i>
   </energy>
  </scstep>
  <scstep>
   <time name="dav">   13.57   13.58</time>
   <time name="total">   16.77   16.79</time>
   <energy>
    <i name="e_fr_energy">    -37.09617418 </i>
    <i name="e_wo_entrp">    -37.05965040 </i>
    <i name="e_0_energy">    -37.08399959 </i>
   </energy>
  </scstep>
  <scstep>
   <time name="dav">   12.62   12.64</time>
   <time name="total">   15.16   15.20</time>
   <energy>
    <i name="e_fr_energy">    -36.70717614 </i>
    <i name="e_wo_entrp">    -36.69412363 </i>
    <i name="e_0_energy">    -36.70282531 </i>
   </energy>
  </scstep>
  <scstep>
   <time name="dav">    8.11    8.13</time>
   <time name="total">   13.46   13.81</time>
   <energy>
    <i name="e_fr_energy">    -36.77379528 </i>
    <i name="e_wo_entrp">    -36.74893136 </i>
    <i name="e_0_energy">    -36.76550731 </i>
   </energy>
  </scstep>
  <scstep>
   <time name="dav">   17.96   21.36</time>
   <time name="total">   24.66   28.78</time>
   <energy>
    <i name="e_fr_energy">    -36.76198985 </i>
    <i name="e_wo_entrp">    -36.74318420 </i>
    <i name="e_0_energy">    -36.75572130 </i>
   </energy>
  </scstep>
  <scstep>
   <time name="dav">   13.87   14.79</time>
   <time name="total">   19.36   21.04</time>
   <energy>
    <i name="e_fr_energy">    -36.75342524 </i>
    <i name="e_wo_entrp">    -36.74139107 </i>
    <i name="e_0_energy">    -36.74941385 </i>
   </energy>
  </scstep>
  <scstep>
   <time name="dav">    7.20    7.21</time>
   <time name="total">    9.78    9.80</time>
   <energy>
    <i name="e_fr_energy">    -36.76028949 </i>
    <i name="e_wo_entrp">    -36.74756079 </i>
    <i name="e_0_energy">    -36.75604659 </i>
   </energy>
  </scstep>
  <scstep>
   <time name="dav">    7.91    8.21</time>
   <time name="total">   11.58   11.90</time>
   <energy>
    <i name="e_fr_energy">    -36.75926173 </i>
    <i name="e_wo_entrp">    -36.74703556 </i>
    <i name="e_0_energy">    -36.75518634 </i>
   </energy>
  </scstep>
  <scstep>
   <time name="dav">    7.38    7.42</time>
   <time name="total">   11.59   11.65</time>
   <energy>
    <i name="e_fr_energy">    -36.76055188 </i>
    <i name="e_wo_entrp">    -36.75132502 </i>
    <i name="e_0_energy">    -36.75747626 </i>
   </energy>
  </scstep>
  <scstep>
   <time name="dav">   11.98   11.99</time>
   <time name="total">   14.57   14.59</time>
   <energy>
    <i name="e_fr_energy">    -36.75789168 </i>
    <i name="e_wo_entrp">    -36.74600114 </i>
    <i name="e_0_energy">    -36.75392817 </i>
   </energy>
  </scstep>
  <scstep>
   <time name="dav">    9.09    9.17</time>
   <time name="total">   12.58   12.67</time>
   <energy>
    <i name="e_fr_energy">    -36.76003843 </i>
    <i name="e_wo_entrp">    -36.74838713 </i>
    <i name="e_0_energy">    -36.75615466 </i>
   </energy>
  </scstep>
  <scstep>
   <time name="dav">    7.29    7.85</time>
   <time name="total">   11.05   11.64</time>
   <energy>
    <i name="e_fr_energy">    -36.75938371 </i>
    <i name="e_wo_entrp">    -36.74677380 </i>
    <i name="e_0_energy">    -36.75518041 </i>
   </energy>
  </scstep>
  <scstep>
   <time name="dav">   17.31   17.38</time>
   <time name="total">   23.48   23.59</time>
   <energy>
    <i name="e_fr_energy">    -36.76000719 </i>
    <i name="e_wo_entrp">    -36.74751480 </i>
    <i name="e_0_energy">    -36.75584306 </i>
   </energy>
  </scstep>
  <scstep>
   <time name="dav">    4.33    4.39</time>
   <time name="total">    7.48    7.59</time>
   <energy>
    <i name="e_fr_energy">    -36.75985052 </i>
    <i name="e_wo_entrp">    -36.74788066 </i>
    <i name="e_0_energy">    -36.75586057 </i>
   </energy>
  </scstep>
  <scstep>
   <time name="dav">    9.81    9.88</time>
   <time name="total">   13.95   14.06</time>
   <energy>
    <i name="e_fr_energy">    -36.76001398 </i>
    <i name="e_wo_entrp">    -36.74808478 </i>
    <i name="e_0_energy">    -36.75603758 </i>
   </energy>
  </scstep>
  <scstep>
   <time name="dav">   12.47   12.54</time>
   <time name="total">   15.36   15.44</time>
   <energy>
    <i name="alphaZ">      4.78697369 </i>
    <i name="ewald">  13630.73708209 </i>
    <i name="hartreedc"> -23505.29224265 </i>
    <i name="XCdc">    301.78069303 </i>
    <i name="pawpsdc">  10851.47527961 </i>
    <i name="pawaedc"> -11532.38407169 </i>
    <i name="eentropy">     -0.01186620 </i>
    <i name="bandstr">   -564.49031724 </i>
    <i name="atom">  10776.63837129 </i>
    <i name="e_fr_energy">    -36.76009806 </i>
    <i name="e_wo_entrp">    -36.74823187 </i>
    <i name="e_0_energy">    -36.75614266 </i>
   </energy>
  </scstep>
  <structure>
   <crystal>
    <varray name="basis" >
     <v>      21.70314295       0.00000000       0.00000000 </v>
     <v>       0.00000000      22.02495500       0.00000000 </v>
     <v>       0.00000000       0.00000000      22.28775752 </v>
    </varray>
    <i name="volume">  10653.78761622 </i>
    <varray name="rec_basis" >
     <v>       0.04607628       0.00000000       0.00000000 </v>
     <v>       0.00000000       0.04540304       0.00000000 </v>
     <v>       0.00000000       0.00000000       0.04486768 </v>
    </varray>
   </crystal>
   <varray name="positions" >
    <v>       0.45030526       0.47153383       0.50655682 </v>
    <v>       0.45759340       0.42539511       0.41143278 </v>
    <v>       0.47968329       0.52425766       0.59394923 </v>
    <v>       0.45471407       0.52980950       0.41805929 </v>
    <v>       0.52084785       0.42947171       0.57801814 </v>
    <v>       0.46759570       0.58115922       0.50899067 </v>
    <v>       0.54931881       0.48326693       0.40968915 </v>
    <v>       0.54997681       0.50841165       0.51227996 </v>
    <v>       0.53440382       0.40492908       0.47937589 </v>
    <v>       0.54549329       0.58421625       0.43842769 </v>
   </varray>
  </structure>
  <varray name="forces" >
   <v>       0.15403002       0.06949440       0.09159764 </v>
   <v>      -0.10768844      -0.08410332      -0.00344874 </v>
   <v>      -0.13388128      -0.03205974      -0.05258283 </v>
   <v>      -0.05980229       0.06491044      -0.04213810 </v>
   <v>       0.13580561       0.04788810      -0.01966065 </v>
   <v>      -0.00665794       0.04039385      -0.02520143 </v>
   <v>       0.04201277      -0.04251083      -0.03615970 </v>
   <v>      -0.12276610      -0.10619015       0.10096090 </v>
   <v>       0.01779037      -0.04723435      -0.03728747 </v>
   <v>       0.08115728       0.08941162       0.02392038 </v>
  </varray>
  <energy>
   <i name="e_fr_energy">    -36.76009806 </i>
   <i name="e_wo_entrp">    -36.74823187 </i>
   <i name="e_0_energy">    -36.75614266 </i>
  </energy>
  <time name="totalsc">  246.03  253.93</time>
 </calculation>
 <calculation>
  <scstep>
   <time name="dav">    5.16    5.18</time>
   <time name="total">   10.25   10.29</time>
   <energy>
    <i name="alphaZ">      4.78697369 </i>
    <i name="ewald">  13630.10086697 </i>
    <i name="hartreedc"> -23504.71416941 </i>
    <i name="XCdc">    301.78072762 </i>
    <i name="pawpsdc">  10851.50617271 </i>
    <i name="pawaedc"> -11532.41565994 </i>
    <i name="eentropy">     -0.00809956 </i>
    <i name="bandstr">   -564.43466156 </i>
    <i name="atom">  10776.63837129 </i>
    <i name="e_fr_energy">    -36.75947819 </i>
    <i name="e_wo_entrp">    -36.75137863 </i>
    <i name="e_0_energy">    -36.75677834 </i>
   </energy>
  </scstep>
  <scstep>
   <time name="dav">    8.16    8.18</time>
   <time name="total">   11.74   11.78</time>
   <energy>
    <i name="e_fr_energy">    -36.83193008 </i>
    <i name="e_wo_entrp">    -36.83415169 </i>
    <i name="e_0_energy">    -36.83267062 </i>
   </energy>
  </scstep>
  <scstep>
   <time name="dav">    6.38    6.47</time>
   <time name="total">    8.99    9.10</time>
   <energy>
    <i name="e_fr_energy">    -36.75013203 </i>
    <i name="e_wo_entrp">    -36.73984106 </i>
    <i name="e_0_energy">    -36.74670171 </i>
   </energy>
  </scstep>
  <scstep>
   <time name="dav">    6.70    6.83</time>
   <time name="total">    9.27    9.45</time>
   <energy>
    <i name="e_fr_energy">    -36.77061353 </i>
    <i name="e_wo_entrp">    -36.76839931 </i>
    <i name="e_0_energy">    -36.76987546 </i>
   </energy>
  </scstep>
  <scstep>
   <time name="dav">    6.39    6.59</time>
   <time name="total">    8.92    9.19</time>
   <energy>
    <i name="e_fr_energy">    -36.76594462 </i>
    <i name="e_wo_entrp">    -36.75881032 </i>
    <i name="e_0_energy">    -36.76356652 </i>
   </energy>
  </scstep>
  <scstep>
   <time name="dav">    6.74    6.77</time>
   <time name="total">    9.53    9.59</time>
   <energy>
    <i name="e_fr_energy">    -36.76724097 </i>
    <i name="e_wo_entrp">    -36.76032054 </i>
    <i name="e_0_energy">    -36.76493416 </i>
   </energy>
  </scstep>
  <scstep>
   <time name="dav">    6.26    6.32</time>
   <time name="total">    8.86    8.96</time>
   <energy>
    <i name="e_fr_energy">    -36.76789227 </i>
    <i name="e_wo_entrp">    -36.76183790 </i>
    <i name="e_0_energy">    -36.76587415 </i>
   </energy>
  </scstep>
  <scstep>
   <time name="dav">    6.01    6.10</time>
   <time name="total">    8.66    8.79</time>
   <energy>
    <i name="e_fr_energy">    -36.76785484 </i>
    <i name="e_wo_entrp">    -36.76212667 </i>
    <i name="e_0_energy">    -36.76594545 </i>
   </energy>
  </scstep>
  <scstep>
   <time name="dav">    5.61    5.70</time>
   <time name="total">    8.16    8.30</time>
   <energy>
    <i name="e_fr_energy">    -36.76815779 </i>
    <i name="e_wo_entrp">    -36.76212025 </i>
    <i name="e_0_energy">    -36.76614528 </i>
   </energy>
  </scstep>
  <scstep>
   <time name="dav">    5.61    5.70</time>
   <time name="total">    8.17    8.29</time>
   <energy>
    <i name="e_fr_energy">    -36.76802806 </i>
    <i name="e_wo_entrp">    -36.76223426 </i>
    <i name="e_0_energy">    -36.76609679 </i>
   </energy>
  </scstep>
  <scstep>
   <time name="dav">    5.81    5.87</time>
   <time name="total">    8.41    8.52</time>
   <energy>
    <i name="e_fr_energy">    -36.76823176 </i>
    <i name="e_wo_entrp">    -36.76256852 </i>
    <i name="e_0_energy">    -36.76634401 </i>
   </energy>
  </scstep>
  <scstep>
   <time name="dav">    4.18    4.24</time>
   <time name="total">    6.08    6.16</time>
   <energy>
    <i name="alphaZ">      4.78697369 </i>
    <i name="ewald">  13630.10086697 </i>
    <i name="hartreedc"> -23504.22611374 </i>
    <i name="XCdc">    301.77241455 </i>
    <i name="pawpsdc">  10850.78688001 </i>
    <i name="pawaedc"> -11531.70907953 </i>
    <i name="eentropy">     -0.00580237 </i>
    <i name="bandstr">   -564.91271277 </i>
    <i name="atom">  10776.63837129 </i>
    <i name="e_fr_energy">    -36.76820191 </i>
    <i name="e_wo_entrp">    -36.76239954 </i>
    <i name="e_0_energy">    -36.76626779 </i>
   </energy>
  </scstep>
  <structure>
   <crystal>
    <varray name="basis" >
     <v>      21.70314295       0.00000000       0.00000000 </v>
     <v>       0.00000000      22.02495500       0.00000000 </v>
     <v>       0.00000000       0.00000000      22.28775752 </v>
    </varray>
    <i name="volume">  10653.78761622 </i>
    <varray name="rec_basis" >
     <v>       0.04607628       0.00000000       0.00000000 </v>
     <v>       0.00000000       0.04540304       0.00000000 </v>
     <v>       0.00000000       0.00000000       0.04486768 </v>
    </varray>
   </crystal>
   <varray name="positions" >
    <v>       0.45049860       0.47174578       0.50681095 </v>
    <v>       0.45718925       0.42523084       0.41167258 </v>
    <v>       0.47896617       0.52413472       0.59343479 </v>
    <v>       0.45437410       0.52987961       0.41802015 </v>
    <v>       0.52160646       0.42973337       0.57763168 </v>
    <v>       0.46769345       0.58134269       0.50884719 </v>
    <v>       0.54955382       0.48323114       0.40980089 </v>
    <v>       0.54993107       0.50808681       0.51262538 </v>
    <v>       0.53437054       0.40472923       0.47921935 </v>
    <v>       0.54574885       0.58433677       0.43871662 </v>
   </varray>
  </structure>
  <varray name="forces" >
   <v>       0.10202310       0.01672315      -0.01695107 </v>
   <v>      -0.06303234      -0.02369492       0.00707952 </v>
   <v>      -0.10329711      -0.00655842       0.04595968 </v>
   <v>       0.03605985       0.03058112      -0.02262126 </v>
   <v>       0.10481875      -0.00812196       0.06798010 </v>
   <v>      -0.01432340       0.05303443      -0.04206996 </v>
   <v>      -0.06062657      -0.01383260      -0.00455515 </v>
   <v>      -0.06405897      -0.01228215       0.00408917 </v>
   <v>       0.01658292      -0.04885012      -0.06114245 </v>
   <v>       0.04585378       0.01300146       0.02223142 </v>
  </varray>
  <energy>
   <i name="e_fr_energy">    -36.76820191 </i>
   <i name="e_wo_entrp">    -36.76239954 </i>
   <i name="e_0_energy">    -36.76626779 </i>
  </energy>
  <time name="totalsc">  113.48  114.96</time>
 </calculation>
 <calculation>
  <scstep>
   <time name="dav">    5.73    5.83</time>
   <time name="total">    8.26    8.42</time>
   <energy>
    <i name="alphaZ">      4.78697369 </i>
    <i name="ewald">  13629.70422269 </i>
    <i name="hartreedc"> -23503.81652827 </i>
    <i name="XCdc">    301.77172687 </i>
    <i name="pawpsdc">  10850.77337299 </i>
    <i name="pawaedc"> -11531.69345560 </i>
    <i name="eentropy">     -0.00422023 </i>
    <i name="bandstr">   -564.92732308 </i>
    <i name="atom">  10776.63837129 </i>
    <i name="e_fr_energy">    -36.76685964 </i>
    <i name="e_wo_entrp">    -36.76263941 </i>
    <i name="e_0_energy">    -36.76545290 </i>
   </energy>
  </scstep>
  <scstep>
   <time name="dav">    6.97    6.99</time>
   <time name="total">    9.54    9.60</time>
   <energy>
    <i name="e_fr_energy">    -36.78181825 </i>
    <i name="e_wo_entrp">    -36.78162285 </i>
    <i name="e_0_energy">    -36.78175311 </i>
   </energy>
  </scstep>
  <scstep>
   <time name="dav">    9.19    9.20</time>
   <time name="total">   11.82   11.84</time>
   <energy>
    <i name="e_fr_energy">    -36.76348220 </i>
    <i name="e_wo_entrp">    -36.75847160 </i>
    <i name="e_0_energy">    -36.76181200 </i>
   </energy>
  </scstep>
  <scstep>
   <time name="dav">    6.60    6.65</time>
   <time name="total">    9.18    9.25</time>
   <energy>
    <i name="e_fr_energy">    -36.77032828 </i>
    <i name="e_wo_entrp">    -36.76968056 </i>
    <i name="e_0_energy">    -36.77011237 </i>
   </energy>
  </scstep>
  <scstep>
   <time name="dav">    5.58    5.60</time>
   <time name="total">    8.19    8.21</time>
   <energy>
    <i name="e_fr_energy">    -36.76819893 </i>
    <i name="e_wo_entrp">    -36.76495115 </i>
    <i name="e_0_energy">    -36.76711634 </i>
   </energy>
  </scstep>
  <scstep>
   <time name="dav">    5.83    5.88</time>
   <time name="total">    8.40    8.51</time>
   <energy>
    <i name="e_fr_energy">    -36.76888509 </i>
    <i name="e_wo_entrp">    -36.76530299 </i>
    <i name="e_0_energy">    -36.76769105 </i>
   </energy>
  </scstep>
  <scstep>
   <time name="dav">    4.82    4.83</time>
   <time name="total">    7.38    7.43</time>
   <energy>
    <i name="e_fr_energy">    -36.76927383 </i>
    <i name="e_wo_entrp">    -36.76629646 </i>
    <i name="e_0_energy">    -36.76828137 </i>
   </energy>
  </scstep>
  <scstep>
   <time name="dav">    4.78    4.79</time>
   <time name="total">    6.67    6.69</time>
   <energy>
    <i name="alphaZ">      4.78697369 </i>
    <i name="ewald">  13629.70422269 </i>
    <i name="hartreedc"> -23503.59865070 </i>
    <i name="XCdc">    301.76782793 </i>
    <i name="pawpsdc">  10850.66064261 </i>
    <i name="pawaedc"> -11531.57561495 </i>
    <i name="eentropy">     -0.00280384 </i>
    <i name="bandstr">   -565.15025139 </i>
    <i name="atom">  10776.63837129 </i>
    <i name="e_fr_energy">    -36.76928266 </i>
    <i name="e_wo_entrp">    -36.76647882 </i>
    <i name="e_0_energy">    -36.76834805 </i>
   </energy>
  </scstep>
  <structure>
   <crystal>
    <varray name="basis" >
     <v>      21.70314295       0.00000000       0.00000000 </v>
     <v>       0.00000000      22.02495500       0.00000000 </v>
     <v>       0.00000000       0.00000000      22.28775752 </v>
    </varray>
    <i name="volume">  10653.78761622 </i>
    <varray name="rec_basis" >
     <v>       0.04607628       0.00000000       0.00000000 </v>
     <v>       0.00000000       0.04540304       0.00000000 </v>
     <v>       0.00000000       0.00000000       0.04486768 </v>
    </varray>
   </crystal>
   <varray name="positions" >
    <v>       0.45060011       0.47185706       0.50694438 </v>
    <v>       0.45697706       0.42514460       0.41179848 </v>
    <v>       0.47858968       0.52407017       0.59316471 </v>
    <v>       0.45419561       0.52991642       0.41799960 </v>
    <v>       0.52200474       0.42987074       0.57742878 </v>
    <v>       0.46774476       0.58143901       0.50877187 </v>
    <v>       0.54967721       0.48321235       0.40985955 </v>
    <v>       0.54990705       0.50791626       0.51280674 </v>
    <v>       0.53435307       0.40462431       0.47913717 </v>
    <v>       0.54588301       0.58440004       0.43886831 </v>
   </varray>
  </structure>
  <varray name="forces" >
   <v>       0.06319875      -0.01816995      -0.07768569 </v>
   <v>      -0.02940628       0.02179320       0.02294402 </v>
   <v>      -0.09592958       0.01585396       0.11765594 </v>
   <v>       0.08715768       0.00745487      -0.01050784 </v>
   <v>       0.09149907      -0.05638197       0.12848355 </v>
   <v>      -0.01841192       0.04748460      -0.05590026 </v>
   <v>      -0.10705559      -0.00225413      -0.00165004 </v>
   <v>      -0.03596834       0.03912598      -0.05271715 </v>
   <v>       0.00808063      -0.03788170      -0.07962088 </v>
   <v>       0.03683558      -0.01702486       0.00899836 </v>
  </varray>
  <energy>
   <i name="e_fr_energy">    -36.76928266 </i>
   <i name="e_wo_entrp">    -36.76647882 </i>
   <i name="e_0_energy">    -36.76834805 </i>
  </energy>
  <time name="totalsc">   75.89   76.51</time>
 </calculation>
 <calculation>
  <scstep>
   <time name="dav">    5.95    6.01</time>
   <time name="total">    8.52    8.62</time>
   <energy>
    <i name="alphaZ">      4.78697369 </i>
    <i name="ewald">  13616.60059553 </i>
    <i name="hartreedc"> -23490.60342771 </i>
    <i name="XCdc">    301.74079726 </i>
    <i name="pawpsdc">  10850.66248451 </i>
    <i name="pawaedc"> -11531.57973260 </i>
    <i name="eentropy">     -0.00119142 </i>
    <i name="bandstr">   -565.01283514 </i>
    <i name="atom">  10776.63837129 </i>
    <i name="e_fr_energy">    -36.76796458 </i>
    <i name="e_wo_entrp">    -36.76677316 </i>
    <i name="e_0_energy">    -36.76756744 </i>
   </energy>
  </scstep>
  <scstep>
   <time name="dav">    7.18    7.30</time>
   <time name="total">   10.40   10.55</time>
   <energy>
    <i name="e_fr_energy">    -36.82738405 </i>
    <i name="e_wo_entrp">    -36.81641162 </i>
    <i name="e_0_energy">    -36.82372657 </i>
   </energy>
  </scstep>
  <scstep>
   <time name="dav">    6.43    6.54</time>
   <time name="total">    9.18    9.31</time>
   <energy>
    <i name="e_fr_energy">    -36.76028594 </i>
    <i name="e_wo_entrp">    -36.76000113 </i>
    <i name="e_0_energy">    -36.76019101 </i>
   </energy>
  </scstep>
  <scstep>
   <time name="dav">    6.97    6.98</time>
   <time name="total">    9.66    9.74</time>
   <energy>
    <i name="e_fr_energy">    -36.77628190 </i>
    <i name="e_wo_entrp">    -36.77341704 </i>
    <i name="e_0_energy">    -36.77532695 </i>
   </energy>
  </scstep>
  <scstep>
   <time name="dav">    6.26    6.27</time>
   <time name="total">    9.56    9.70</time>
   <energy>
    <i name="e_fr_energy">    -36.77452691 </i>
    <i name="e_wo_entrp">    -36.77437628 </i>
    <i name="e_0_energy">    -36.77447670 </i>
   </energy>
  </scstep>
  <scstep>
   <time name="dav">    5.63    5.64</time>
   <time name="total">    8.19    8.21</time>
   <energy>
    <i name="e_fr_energy">    -36.77322338 </i>
    <i name="e_wo_entrp">    -36.77172989 </i>
    <i name="e_0_energy">    -36.77272555 </i>
   </energy>
  </scstep>
  <scstep>
   <time name="dav">    6.46    6.49</time>
   <time name="total">    9.61    9.64</time>
   <energy>
    <i name="e_fr_energy">    -36.77395650 </i>
    <i name="e_wo_entrp">    -36.77172567 </i>
    <i name="e_0_energy">    -36.77321289 </i>
   </energy>
  </scstep>
  <scstep>
   <time name="dav">    5.74    5.75</time>
   <time name="total">    8.51    8.55</time>
   <energy>
    <i name="e_fr_energy">    -36.77469111 </i>
    <i name="e_wo_entrp">    -36.77288890 </i>
    <i name="e_0_energy">    -36.77409038 </i>
   </energy>
  </scstep>
  <scstep>
   <time name="dav">    6.00    6.04</time>
   <time name="total">    8.58    8.64</time>
   <energy>
    <i name="e_fr_energy">    -36.77438499 </i>
    <i name="e_wo_entrp">    -36.77201195 </i>
    <i name="e_0_energy">    -36.77359398 </i>
   </energy>
  </scstep>
  <scstep>
   <time name="dav">    5.42    5.45</time>
   <time name="total">    7.33    7.37</time>
   <energy>
[...]
       <r>    -1.6415     1.3075    60.0128 </r>
       <r>    -1.5950     0.4342    60.0330 </r>
       <r>    -1.5485    -0.0834    60.0292 </r>
       <r>    -1.5020    -0.3141    60.0146 </r>
       <r>    -1.4555    -0.3953    59.9962 </r>
       <r>    -1.4089    -0.4261    59.9763 </r>
       <r>    -1.3624    -0.4084    59.9574 </r>
       <r>    -1.3159    -0.2423    59.9461 </r>
       <r>    -1.2694     0.2310    59.9568 </r>
       <r>    -1.2229     1.1541    60.0105 </r>
       <r>    -1.1764     2.5757    60.1303 </r>
       <r>    -1.1299     4.4044    60.3352 </r>
       <r>    -1.0834     6.4058    60.6331 </r>
       <r>    -1.0368     8.2269    61.0158 </r>
       <r>    -0.9903     9.4478    61.4552 </r>
       <r>    -0.9438     9.6927    61.9060 </r>
       <r>    -0.8973     8.8115    62.3159 </r>
       <r>    -0.8508     7.0383    62.6433 </r>
       <r>    -0.8043     4.9756    62.8747 </r>
       <r>    -0.7578     3.3357    63.0298 </r>
       <r>    -0.7113     2.5784    63.1498 </r>
       <r>    -0.6647     2.6916    63.2750 </r>
       <r>    -0.6182     3.2776    63.4274 </r>
       <r>    -0.5717     3.8660    63.6072 </r>
       <r>    -0.5252     4.2050    63.8028 </r>
       <r>    -0.4787     4.3198    64.0037 </r>
       <r>    -0.4322     4.3476    64.2060 </r>
       <r>    -0.3857     4.3544    64.4085 </r>
       <r>    -0.3392     4.3137    64.6091 </r>
       <r>    -0.2926     4.2207    64.8055 </r>
       <r>    -0.2461     4.1586    64.9989 </r>
       <r>    -0.1996     4.2090    65.1947 </r>
       <r>    -0.1531     4.3087    65.3951 </r>
       <r>    -0.1066     4.2370    65.5921 </r>
       <r>    -0.0601     3.7781    65.7679 </r>
       <r>    -0.0136     2.9090    65.9032 </r>
       <r>     0.0329     1.8362    65.9886 </r>
       <r>     0.0795     0.8571    66.0284 </r>
       <r>     0.1260     0.1813    66.0369 </r>
       <r>     0.1725    -0.1520    66.0298 </r>
       <r>     0.2190    -0.2335    66.0190 </r>
       <r>     0.2655    -0.1903    66.0101 </r>
       <r>     0.3120    -0.1175    66.0046 </r>
       <r>     0.3585    -0.0597    66.0019 </r>
       <r>     0.4050    -0.0258    66.0007 </r>
       <r>     0.4516    -0.0097    66.0002 </r>
       <r>     0.4981    -0.0032    66.0001 </r>
       <r>     0.5446    -0.0009    66.0000 </r>
       <r>     0.5911    -0.0002    66.0000 </r>
       <r>     0.6376    -0.0001    66.0000 </r>
       <r>     0.6841    -0.0000    66.0000 </r>
       <r>     0.7306    -0.0000    66.0000 </r>
       <r>     0.7772    -0.0000    66.0000 </r>
       <r>     0.8237    -0.0000    66.0000 </r>
       <r>     0.8702    -0.0000    66.0000 </r>
       <r>     0.9167    -0.0000    66.0000 </r>
       <r>     0.9632    -0.0000    66.0000 </r>
       <r>     1.0097    -0.0000    66.0000 </r>
       <r>     1.0562    -0.0000    66.0000 </r>
       <r>     1.1027    -0.0000    66.0000 </r>
       <r>     1.1493     0.0000    66.0000 </r>
       <r>     1.1958     0.0000    66.0000 </r>
       <r>     1.2423     0.0000    66.0000 </r>
       <r>     1.2888     0.0000    66.0000 </r>
       <r>     1.3353     0.0000    66.0000 </r>
       <r>     1.3818     0.0000    66.0000 </r>
       <r>     1.4283     0.0000    66.0000 </r>
       <r>     1.4748     0.0000    66.0000 </r>
       <r>     1.5214     0.0000    66.0000 </r>
       <r>     1.5679     0.0000    66.0000 </r>
       <r>     1.6144     0.0000    66.0000 </r>
       <r>     1.6609     0.0000    66.0000 </r>
       <r>     1.7074     0.0000    66.0000 </r>
       <r>     1.7539     0.0000    66.0000 </r>
       <r>     1.8004     0.0000    66.0000 </r>
       <r>     1.8469     0.0000    66.0000 </r>
       <r>     1.8935     0.0000    66.0000 </r>
       <r>     1.9400     0.0000    66.0000 </r>
       <r>     1.9865     0.0000    66.0000 </r>
      </set>
      <set comment="spin 2">
       <r>   -11.9673     0.0000     0.0000 </r>
       <r>   -11.9208     0.0000     0.0000 </r>
       <r>   -11.8743     0.0000     0.0000 </r>
       <r>   -11.8278     0.0000     0.0000 </r>
       <r>   -11.7813     0.0000     0.0000 </r>
       <r>   -11.7348     0.0000     0.0000 </r>
       <r>   -11.6883     0.0000     0.0000 </r>
       <r>   -11.6417     0.0000     0.0000 </r>
       <r>   -11.5952    -0.0000    -0.0000 </r>
       <r>   -11.5487    -0.0000    -0.0000 </r>
       <r>   -11.5022    -0.0000    -0.0000 </r>
       <r>   -11.4557    -0.0000    -0.0000 </r>
       <r>   -11.4092    -0.0000    -0.0000 </r>
       <r>   -11.3627    -0.0000    -0.0000 </r>
       <r>   -11.3162    -0.0000    -0.0000 </r>
       <r>   -11.2696    -0.0000    -0.0000 </r>
       <r>   -11.2231    -0.0000    -0.0000 </r>
       <r>   -11.1766    -0.0000    -0.0000 </r>
       <r>   -11.1301    -0.0000    -0.0000 </r>
       <r>   -11.0836    -0.0000    -0.0000 </r>
       <r>   -11.0371    -0.0000    -0.0000 </r>
       <r>   -10.9906    -0.0000    -0.0000 </r>
       <r>   -10.9441    -0.0000    -0.0000 </r>
       <r>   -10.8975    -0.0000    -0.0000 </r>
       <r>   -10.8510    -0.0000    -0.0000 </r>
       <r>   -10.8045    -0.0000    -0.0000 </r>
       <r>   -10.7580    -0.0000    -0.0000 </r>
       <r>   -10.7115    -0.0000    -0.0000 </r>
       <r>   -10.6650    -0.0001    -0.0000 </r>
       <r>   -10.6185    -0.0003    -0.0000 </r>
       <r>   -10.5720    -0.0011    -0.0001 </r>
       <r>   -10.5254    -0.0037    -0.0002 </r>
       <r>   -10.4789    -0.0111    -0.0008 </r>
       <r>   -10.4324    -0.0290    -0.0021 </r>
       <r>   -10.3859    -0.0656    -0.0052 </r>
       <r>   -10.3394    -0.1258    -0.0110 </r>
       <r>   -10.2929    -0.1964    -0.0201 </r>
       <r>   -10.2464    -0.2242    -0.0306 </r>
       <r>   -10.1998    -0.1028    -0.0354 </r>
       <r>   -10.1533     0.3027    -0.0213 </r>
       <r>   -10.1068     1.0785     0.0289 </r>
       <r>   -10.0603     2.1576     0.1292 </r>
       <r>   -10.0138     3.2735     0.2815 </r>
       <r>    -9.9673     4.0418     0.4695 </r>
       <r>    -9.9208     4.1555     0.6628 </r>
       <r>    -9.8743     3.5669     0.8287 </r>
       <r>    -9.8277     2.5169     0.9458 </r>
       <r>    -9.7812     1.3893     1.0104 </r>
       <r>    -9.7347     0.5030     1.0338 </r>
       <r>    -9.6882    -0.0134     1.0331 </r>
       <r>    -9.6417    -0.2087     1.0234 </r>
       <r>    -9.5952    -0.2135     1.0135 </r>
       <r>    -9.5487    -0.1481     1.0066 </r>
       <r>    -9.5022    -0.0818     1.0028 </r>
       <r>    -9.4556    -0.0380     1.0010 </r>
       <r>    -9.4091    -0.0151     1.0003 </r>
       <r>    -9.3626    -0.0053     1.0001 </r>
       <r>    -9.3161    -0.0016     1.0000 </r>
       <r>    -9.2696    -0.0004     1.0000 </r>
       <r>    -9.2231    -0.0001     1.0000 </r>
       <r>    -9.1766    -0.0000     1.0000 </r>
       <r>    -9.1301    -0.0000     1.0000 </r>
       <r>    -9.0835    -0.0000     1.0000 </r>
       <r>    -9.0370    -0.0000     1.0000 </r>
       <r>    -8.9905    -0.0000     1.0000 </r>
       <r>    -8.9440    -0.0000     1.0000 </r>
       <r>    -8.8975    -0.0000     1.0000 </r>
       <r>    -8.8510    -0.0000     1.0000 </r>
       <r>    -8.8045    -0.0000     1.0000 </r>
       <r>    -8.7580    -0.0001     1.0000 </r>
       <r>    -8.7114    -0.0006     1.0000 </r>
       <r>    -8.6649    -0.0021     0.9999 </r>
       <r>    -8.6184    -0.0067     0.9996 </r>
       <r>    -8.5719    -0.0188     0.9987 </r>
       <r>    -8.5254    -0.0459     0.9965 </r>
       <r>    -8.4789    -0.0962     0.9921 </r>
       <r>    -8.4324    -0.1691     0.9842 </r>
       <r>    -8.3859    -0.2369     0.9732 </r>
       <r>    -8.3393    -0.2250     0.9627 </r>
       <r>    -8.2928    -0.0136     0.9621 </r>
       <r>    -8.2463     0.5178     0.9862 </r>
       <r>    -8.1998     1.4091     1.0517 </r>
       <r>    -8.1533     2.5557     1.1706 </r>
       <r>    -8.1068     3.7295     1.3441 </r>
       <r>    -8.0603     4.6905     1.5622 </r>
       <r>    -8.0138     5.3032     1.8089 </r>
       <r>    -7.9672     5.5536     2.0672 </r>
       <r>    -7.9207     5.4661     2.3214 </r>
       <r>    -7.8742     5.0281     2.5553 </r>
       <r>    -7.8277     4.2187     2.7515 </r>
       <r>    -7.7812     3.1032     2.8959 </r>
       <r>    -7.7347     1.8732     2.9830 </r>
       <r>    -7.6882     0.7753     3.0191 </r>
       <r>    -7.6417    -0.0027     3.0189 </r>
       <r>    -7.5951    -0.3791     3.0013 </r>
       <r>    -7.5486    -0.3380     2.9856 </r>
       <r>    -7.5021     0.1267     2.9915 </r>
       <r>    -7.4556     0.9950     3.0378 </r>
       <r>    -7.4091     2.1380     3.1372 </r>
       <r>    -7.3626     3.2606     3.2889 </r>
       <r>    -7.3161     3.9687     3.4735 </r>
       <r>    -7.2695     3.9569     3.6575 </r>
       <r>    -7.2230     3.1949     3.8061 </r>
       <r>    -7.1765     1.9799     3.8982 </r>
       <r>    -7.1300     0.8289     3.9367 </r>
       <r>    -7.0835     0.2943     3.9504 </r>
       <r>    -7.0370     0.7961     3.9875 </r>
       <r>    -6.9905     2.4875     4.1032 </r>
       <r>    -6.9440     5.1423     4.3423 </r>
       <r>    -6.8974     8.1127     4.7197 </r>
       <r>    -6.8509    10.4669     5.2065 </r>
       <r>    -6.8044    11.3468     5.7343 </r>
       <r>    -6.7579    10.4058     6.2183 </r>
       <r>    -6.7114     8.0529     6.5929 </r>
       <r>    -6.6649     5.3078     6.8397 </r>
       <r>    -6.6184     3.3209     6.9942 </r>
       <r>    -6.5719     2.8380     7.1262 </r>
       <r>    -6.5253     3.9253     7.3088 </r>
       <r>    -6.4788     6.0918     7.5921 </r>
       <r>    -6.4323     8.6791     7.9958 </r>
       <r>    -6.3858    11.2158     8.5175 </r>
       <r>    -6.3393    13.4817     9.1446 </r>
       <r>    -6.2928    15.3073     9.8566 </r>
       <r>    -6.2463    16.3977    10.6193 </r>
       <r>    -6.1998    16.4371    11.3838 </r>
       <r>    -6.1532    15.3920    12.0997 </r>
       <r>    -6.1067    13.6572    12.7350 </r>
       <r>    -6.0602    11.8264    13.2850 </r>
       <r>    -6.0137    10.2844    13.7634 </r>
       <r>    -5.9672     9.0224    14.1830 </r>
       <r>    -5.9207     7.8415    14.5478 </r>
       <r>    -5.8742     6.7043    14.8596 </r>
       <r>    -5.8277     5.8822    15.1332 </r>
       <r>    -5.7811     5.7944    15.4027 </r>
       <r>    -5.7346     6.7019    15.7144 </r>
       <r>    -5.6881     8.4697    16.1084 </r>
       <r>    -5.6416    10.5180    16.5976 </r>
       <r>    -5.5951    12.0127    17.1564 </r>
       <r>    -5.5486    12.2735    17.7272 </r>
       <r>    -5.5021    11.2085    18.2486 </r>
       <r>    -5.4556     9.4578    18.6885 </r>
       <r>    -5.4090     8.0659    19.0636 </r>
       <r>    -5.3625     7.8765    19.4300 </r>
       <r>    -5.3160     9.0893    19.8528 </r>
       <r>    -5.2695    11.2742    20.3772 </r>
       <r>    -5.2230    13.7424    21.0164 </r>
       <r>    -5.1765    15.9241    21.7570 </r>
       <r>    -5.1300    17.5036    22.5712 </r>
       <r>    -5.0835    18.3535    23.4248 </r>
       <r>    -5.0369    18.4601    24.2835 </r>
       <r>    -4.9904    17.9268    25.1173 </r>
       <r>    -4.9439    16.9682    25.9065 </r>
       <r>    -4.8974    15.8078    26.6418 </r>
       <r>    -4.8509    14.5490    27.3185 </r>
       <r>    -4.8044    13.1717    27.9312 </r>
       <r>    -4.7579    11.6828    28.4746 </r>
       <r>    -4.7113    10.2830    28.9528 </r>
       <r>    -4.6648     9.3894    29.3896 </r>
       <r>    -4.6183     9.4927    29.8311 </r>
       <r>    -4.5718    10.9429    30.3401 </r>
       <r>    -4.5253    13.7697    30.9806 </r>
       <r>    -4.4788    17.5849    31.7985 </r>
       <r>    -4.4323    21.6040    32.8033 </r>
       <r>    -4.3858    24.8313    33.9583 </r>
       <r>    -4.3392    26.4187    35.1871 </r>
       <r>    -4.2927    26.0759    36.4000 </r>
       <r>    -4.2462    24.2842    37.5295 </r>
       <r>    -4.1997    22.1098    38.5579 </r>
       <r>    -4.1532    20.6614    39.5189 </r>
       <r>    -4.1067    20.5105    40.4729 </r>
       <r>    -4.0602    21.4507    41.4706 </r>
       <r>    -4.0137    22.7458    42.5286 </r>
       <r>    -3.9671    23.6828    43.6302 </r>
       <r>    -3.9206    24.0374    44.7482 </r>
       <r>    -3.8741    24.1347    45.8708 </r>
       <r>    -3.8276    24.4835    47.0096 </r>
       <r>    -3.7811    25.2690    48.1849 </r>
       <r>    -3.7346    26.0788    49.3979 </r>
       <r>    -3.6881    26.0516    50.6096 </r>
       <r>    -3.6416    24.3510    51.7423 </r>
       <r>    -3.5950    20.6711    52.7037 </r>
       <r>    -3.5485    15.4714    53.4233 </r>
       <r>    -3.5020     9.7989    53.8791 </r>
       <r>    -3.4555     4.7995    54.1023 </r>
       <r>    -3.4090     1.2237    54.1593 </r>
       <r>    -3.3625    -0.7783    54.1231 </r>
       <r>    -3.3160    -1.4946    54.0535 </r>
       <r>    -3.2695    -1.3029    53.9930 </r>
       <r>    -3.2229    -0.4127    53.9738 </r>
       <r>    -3.1764     1.1308    54.0264 </r>
       <r>    -3.1299     3.2274    54.1765 </r>
       <r>    -3.0834     5.5018    54.4324 </r>
       <r>    -3.0369     7.3153    54.7726 </r>
       <r>    -2.9904     8.0675    55.1479 </r>
       <r>    -2.9439     7.5857    55.5007 </r>
       <r>    -2.8974     6.2784    55.7927 </r>
       <r>    -2.8508     4.8900    56.0202 </r>
       <r>    -2.8043     4.0201    56.2072 </r>
       <r>    -2.7578     3.7721    56.3826 </r>
       <r>    -2.7113     3.7817    56.5585 </r>
       <r>    -2.6648     3.5578    56.7240 </r>
       <r>    -2.6183     2.8454    56.8563 </r>
       <r>    -2.5718     1.7617    56.9383 </r>
       <r>    -2.5253     0.6852    56.9702 </r>
       <r>    -2.4787     0.0503    56.9725 </r>
       <r>    -2.4322     0.1906    56.9814 </r>
       <r>    -2.3857     1.2477    57.0394 </r>
       <r>    -2.3392     3.0945    57.1833 </r>
       <r>    -2.2927     5.2885    57.4293 </r>
       <r>    -2.2462     7.1491    57.7618 </r>
       <r>    -2.1997     8.0120    58.1345 </r>
       <r>    -2.1532     7.5520    58.4858 </r>
       <r>    -2.1066     5.9551    58.7627 </r>
       <r>    -2.0601     3.8066    58.9398 </r>
       <r>    -2.0136     1.7763    59.0224 </r>
       <r>    -1.9671     0.3301    59.0378 </r>
       <r>    -1.9206    -0.3590    59.0211 </r>
       <r>    -1.8741    -0.3222    59.0061 </r>
       <r>    -1.8276     0.3248    59.0212 </r>
       <r>    -1.7810     1.4102    59.0868 </r>
       <r>    -1.7345     2.6618    59.2106 </r>
       <r>    -1.6880     3.7034    59.3829 </r>
       <r>    -1.6415     4.1727    59.5769 </r>
       <r>    -1.5950     3.9019    59.7584 </r>
       <r>    -1.5485     3.0179    59.8988 </r>
       <r>    -1.5020     1.8659    59.9856 </r>
       <r>    -1.4555     0.8109    60.0233 </r>
       <r>    -1.4089     0.0646    60.0263 </r>
       <r>    -1.3624    -0.3534    60.0099 </r>
       <r>    -1.3159    -0.5264    59.9854 </r>
       <r>    -1.2694    -0.5132    59.9615 </r>
       <r>    -1.2229    -0.2715    59.9489 </r>
       <r>    -1.1764     0.3240    59.9640 </r>
       <r>    -1.1299     1.3896    60.0286 </r>
       <r>    -1.0834     2.9245    60.1646 </r>
       <r>    -1.0368     4.7592    60.3860 </r>
       <r>    -0.9903     6.5917    60.6926 </r>
       <r>    -0.9438     8.0817    61.0685 </r>
       <r>    -0.8973     8.9382    61.4842 </r>
       <r>    -0.8508     8.9735    61.9016 </r>
       <r>    -0.8043     8.1431    62.2803 </r>
       <r>    -0.7578     6.5941    62.5871 </r>
       <r>    -0.7113     4.6878    62.8051 </r>
       <r>    -0.6647     2.9338    62.9416 </r>
       <r>    -0.6182     1.8152    63.0260 </r>
       <r>    -0.5717     1.5786    63.0994 </r>
       <r>    -0.5252     2.1191    63.1980 </r>
       <r>    -0.4787     3.0506    63.3399 </r>
       <r>    -0.4322     3.9316    63.5227 </r>
       <r>    -0.3857     4.4978    63.7319 </r>
       <r>    -0.3392     4.7415    63.9525 </r>
       <r>    -0.2926     4.8079    64.1761 </r>
       <r>    -0.2461     4.8324    64.4009 </r>
       <r>    -0.1996     4.8677    64.6273 </r>
       <r>    -0.1531     4.9152    64.8559 </r>
       <r>    -0.1066     4.9582    65.0865 </r>
       <r>    -0.0601     4.9337    65.3160 </r>
       <r>    -0.0136     4.7081    65.5350 </r>
       <r>     0.0329     4.1428    65.7277 </r>
       <r>     0.0795     3.2204    65.8775 </r>
       <r>     0.1260     2.1041    65.9754 </r>
       <r>     0.1725     1.0586    66.0246 </r>
       <r>     0.2190     0.2987    66.0385 </r>
       <r>     0.2655    -0.1101    66.0334 </r>
       <r>     0.3120    -0.2385    66.0223 </r>
       <r>     0.3585    -0.2129    66.0124 </r>
       <r>     0.4050    -0.1392    66.0059 </r>
       <r>     0.4516    -0.0741    66.0024 </r>
       <r>     0.4981    -0.0334    66.0009 </r>
       <r>     0.5446    -0.0130    66.0003 </r>
       <r>     0.5911    -0.0044    66.0001 </r>
       <r>     0.6376    -0.0013    66.0000 </r>
       <r>     0.6841    -0.0003    66.0000 </r>
       <r>     0.7306    -0.0001    66.0000 </r>
       <r>     0.7772    -0.0000    66.0000 </r>
       <r>     0.8237    -0.0000    66.0000 </r>
       <r>     0.8702    -0.0000    66.0000 </r>
       <r>     0.9167    -0.0000    66.0000 </r>
       <r>     0.9632    -0.0000    66.0000 </r>
       <r>     1.0097    -0.0000    66.0000 </r>
       <r>     1.0562    -0.0000    66.0000 </r>
       <r>     1.1027    -0.0000    66.0000 </r>
       <r>     1.1493    -0.0000    66.0000 </r>
       <r>     1.1958    -0.0000    66.0000 </r>
       <r>     1.2423    -0.0000    66.0000 </r>
       <r>     1.2888     0.0000    66.0000 </r>
       <r>     1.3353     0.0000    66.0000 </r>
       <r>     1.3818     0.0000    66.0000 </r>
       <r>     1.4283     0.0000    66.0000 </r>
       <r>     1.4748     0.0000    66.0000 </r>
       <r>     1.5214     0.0000    66.0000 </r>
       <r>     1.5679     0.0000    66.0000 </r>
       <r>     1.6144     0.0000    66.0000 </r>
       <r>     1.6609     0.0000    66.0000 </r>
       <r>     1.7074     0.0000    66.0000 </r>
       <r>     1.7539     0.0000    66.0000 </r>
       <r>     1.8004     0.0000    66.0000 </r>
       <r>     1.8469     0.0000    66.0000 </r>
       <r>     1.8935     0.0000    66.0000 </r>
       <r>     1.9400     0.0000    66.0000 </r>
       <r>     1.9865     0.0000    66.0000 </r>
      </set>
     </set>
    </array>
   </total>
  </dos>
 </calculation>
 <structure name="finalpos" >
  <crystal>
   <varray name="basis" >
    <v>      21.70314295       0.00000000       0.00000000 </v>
    <v>       0.00000000      22.02495500       0.00000000 </v>
    <v>       0.00000000       0.00000000      22.28775752 </v>
   </varray>
   <i name="volume">  10653.78761622 </i>
   <varray name="rec_basis" >
    <v>       0.04607628       0.00000000       0.00000000 </v>
    <v>       0.00000000       0.04540304       0.00000000 </v>
    <v>       0.00000000       0.00000000       0.04486768 </v>
   </varray>
  </crystal>
  <varray name="positions" >
   <v>       0.45136758       0.47127946       0.50634730 </v>
   <v>       0.45558116       0.42510144       0.41182221 </v>
   <v>       0.47602205       0.52321811       0.59318685 </v>
   <v>       0.45474809       0.53050780       0.41791992 </v>
   <v>       0.52459157       0.43078718       0.57804354 </v>
   <v>       0.46789411       0.58136279       0.50840534 </v>
   <v>       0.54847314       0.48273997       0.41007429 </v>
   <v>       0.54978175       0.50879504       0.51286685 </v>
   <v>       0.53406856       0.40436204       0.47898571 </v>
   <v>       0.54740428       0.58429713       0.43912758 </v>
  </varray>
 </structure>
</modeling>
