unknown system                          
            1
    21.703143    0.000000    0.000000
     0.000000   22.024955    0.000000
     0.000000    0.000000   22.287758
   Ni
    10
Direct configuration=     1
   0.44839385  0.47041818  0.50698137
   0.45637540  0.42301942  0.40837031
   0.48081245  0.52549949  0.59856010
   0.45326483  0.53199556  0.41588014
   0.51952711  0.42693019  0.58196735
   0.46544178  0.58317091  0.51004899
   0.55107957  0.48189776  0.40635937
   0.55154390  0.50937682  0.51275480
   0.53643400  0.40276276  0.47950092
   0.54705942  0.58737986  0.43635623
Direct configuration=     2
   0.45064584  0.47121869  0.50682349
   0.45733546  0.42428592  0.40967924
   0.48087026  0.52471555  0.59648744
   0.45466785  0.53095123  0.41705650
   0.51949271  0.42832904  0.58027675
   0.46653319  0.58165983  0.50952153
   0.54960446  0.48250900  0.40791527
   0.54939271  0.50865549  0.51237913
   0.53534333  0.40435990  0.47952436
   0.54604650  0.58576631  0.43711588
Direct configuration=     3
   0.45173207  0.47160481  0.50674734
   0.45779853  0.42489680  0.41031059
   0.48089814  0.52433742  0.59548771
   0.45534458  0.53044750  0.41762390
   0.51947611  0.42900375  0.57946131
   0.46705963  0.58093098  0.50926712
   0.54889296  0.48280382  0.40866573
   0.54835510  0.50830757  0.51219792
   0.53481726  0.40513026  0.47953567
   0.54555793  0.58498803  0.43748229
Direct configuration=     4
   0.45122703  0.47157969  0.50667990
   0.45772592  0.42507319  0.41070781
   0.48046813  0.52430919  0.59494314
   0.45512140  0.53022167  0.41777801
   0.51996166  0.42916940  0.57895048
   0.46724938  0.58101177  0.50916926
   0.54904369  0.48296774  0.40902799
   0.54892913  0.50834441  0.51222696
   0.53467091  0.40505905  0.47947911
   0.54553505  0.58471485  0.43781693
Direct configuration=     5
   0.45030526  0.47153383  0.50655682
   0.45759340  0.42539511  0.41143278
   0.47968329  0.52425766  0.59394923
   0.45471407  0.52980950  0.41805929
   0.52084785  0.42947171  0.57801814
   0.46759570  0.58115922  0.50899067
   0.54931881  0.48326693  0.40968915
   0.54997681  0.50841165  0.51227996
   0.53440382  0.40492908  0.47937589
   0.54549329  0.58421625  0.43842769
Direct configuration=     6
   0.45049860  0.47174578  0.50681095
   0.45718925  0.42523084  0.41167258
   0.47896617  0.52413472  0.59343479
   0.45437410  0.52987961  0.41802015
   0.52160646  0.42973337  0.57763168
   0.46769345  0.58134269  0.50884719
   0.54955382  0.48323114  0.40980089
   0.54993107  0.50808681  0.51262538
   0.53437054  0.40472923  0.47921935
   0.54574885  0.58433677  0.43871662
Direct configuration=     7
   0.45060011  0.47185706  0.50694438
   0.45697706  0.42514460  0.41179848
   0.47858968  0.52407017  0.59316471
   0.45419561  0.52991642  0.41799960
   0.52200474  0.42987074  0.57742878
   0.46774476  0.58143901  0.50877187
   0.54967721  0.48321235  0.40985955
   0.54990705  0.50791626  0.51280674
   0.53435307  0.40462431  0.47913717
   0.54588301  0.58440004  0.43886831
Direct configuration=     8
   0.45094673  0.47191653  0.50681650
   0.45663005  0.42512644  0.41202237
   0.47781311  0.52405493  0.59328181
   0.45431507  0.52998487  0.41793885
   0.52278954  0.42982116  0.57766029
   0.46773485  0.58171948  0.50848695
   0.54942256  0.48318303  0.40991970
   0.54974778  0.50786597  0.51282221
   0.53436311  0.40436895  0.47875961
   0.54616949  0.58440960  0.43907132
Direct configuration=     9
   0.45114302  0.47195020  0.50674409
   0.45643355  0.42511616  0.41214915
   0.47737335  0.52404630  0.59334812
   0.45438271  0.53002363  0.41790445
   0.52323396  0.42979308  0.57779139
   0.46772924  0.58187831  0.50832560
   0.54927836  0.48316642  0.40995376
   0.54965759  0.50783749  0.51283097
   0.53436879  0.40422434  0.47854580
   0.54633172  0.58441502  0.43918628
Direct configuration=    10
   0.45123522  0.47174890  0.50670386
   0.45614571  0.42511055  0.41210403
   0.47706493  0.52384482  0.59329724
   0.45467228  0.53012085  0.41783199
   0.52355394  0.43003984  0.57779963
   0.46768628  0.58188233  0.50834663
   0.54886990  0.48316820  0.40996449
   0.54972024  0.50807180  0.51287506
   0.53439553  0.40413245  0.47863942
   0.54658827  0.58433121  0.43921725
Direct configuration=    11
   0.45131555  0.47157353  0.50666881
   0.45589495  0.42510567  0.41206471
   0.47679623  0.52366930  0.59325291
   0.45492455  0.53020555  0.41776887
   0.52383271  0.43025482  0.57780680
   0.46764884  0.58188583  0.50836495
   0.54851405  0.48316974  0.40997385
   0.54977482  0.50827593  0.51291348
   0.53441883  0.40405239  0.47872098
   0.54681177  0.58425819  0.43924423
Direct configuration=    12
   0.45138808  0.47138480  0.50652885
   0.45575492  0.42510463  0.41203321
   0.47649672  0.52345828  0.59320621
   0.45486502  0.53033383  0.41779239
   0.52413721  0.43051329  0.57784553
   0.46765262  0.58171337  0.50844812
   0.54842451  0.48290077  0.40995322
   0.54975525  0.50845523  0.51296034
   0.53427125  0.40418733  0.47884007
   0.54718672  0.58439942  0.43917165
Direct configuration=    13
   0.45140307  0.47134578  0.50649992
   0.45572597  0.42510441  0.41202670
   0.47643480  0.52341466  0.59319656
   0.45485272  0.53036035  0.41779725
   0.52420016  0.43056673  0.57785354
   0.46765340  0.58167772  0.50846531
   0.54840600  0.48284517  0.40994895
   0.54975121  0.50849230  0.51297003
   0.53424074  0.40421523  0.47886469
   0.54726424  0.58442862  0.43915664
Direct configuration=    14
   0.45137297  0.47128953  0.50637049
   0.45560316  0.42510189  0.41185328
   0.47608476  0.52324797  0.59318833
   0.45476399  0.53048540  0.41790129
   0.52453211  0.43075369  0.57801467
   0.46785754  0.58141063  0.50841445
   0.54846294  0.48275595  0.41005525
   0.54977711  0.50874905  0.51288253
   0.53409471  0.40433974  0.47896732
   0.54738301  0.58431711  0.43913200
Direct configuration=    15
   0.45136758  0.47127946  0.50634730
   0.45558116  0.42510144  0.41182221
   0.47602205  0.52321811  0.59318685
   0.45474809  0.53050780  0.41791992
   0.52459157  0.43078718  0.57804354
   0.46789411  0.58136279  0.50840534
   0.54847314  0.48273997  0.41007429
   0.54978175  0.50879504  0.51286685
   0.53406856  0.40436204  0.47898571
   0.54740428  0.58429713  0.43912758
