  10  10   0   0
  0.1229234E+04  0.2242213E-08  0.2259190E-08  0.2426638E-08  0.5000000E-15
   1.0000000000000000E-004
  CAR 
 unknown system                          
      1.76172275    -11.98026579  301     -3.97676287      1.00000000
    -11.980  0.0000E+00  0.0000E+00  0.0000E+00  0.0000E+00
    -11.934  0.0000E+00  0.0000E+00  0.0000E+00  0.0000E+00
    -11.889  0.0000E+00  0.0000E+00  0.0000E+00  0.0000E+00
    -11.843  0.0000E+00  0.0000E+00  0.0000E+00  0.0000E+00
    -11.797  0.0000E+00  0.0000E+00  0.0000E+00  0.0000E+00
    -11.751  0.0000E+00  0.0000E+00  0.0000E+00  0.0000E+00
    -11.705  0.0000E+00  0.0000E+00  0.0000E+00  0.0000E+00
    -11.660  0.0000E+00  0.0000E+00  0.0000E+00  0.0000E+00
    -11.614 -0.5357E-30  0.0000E+00 -0.2454E-31  0.0000E+00
    -11.568 -0.2029E-28  0.0000E+00 -0.9541E-30  0.0000E+00
    -11.522 -0.7078E-27 -0.9190E-30 -0.3337E-28 -0.4210E-31
    -11.476 -0.2220E-25 -0.3426E-28 -0.1050E-26 -0.1612E-29
    -11.431 -0.6260E-24 -0.1177E-26 -0.2973E-25 -0.5551E-28
    -11.385 -0.1587E-22 -0.3634E-25 -0.7569E-24 -0.1720E-26
    -11.339 -0.3619E-21 -0.1009E-23 -0.1733E-22 -0.4794E-25
    -11.293 -0.7415E-20 -0.2519E-22 -0.3570E-21 -0.1202E-23
    -11.247 -0.1366E-18 -0.5655E-21 -0.6613E-20 -0.2711E-22
    -11.202 -0.2260E-17 -0.1141E-19 -0.1101E-18 -0.5497E-21
    -11.156 -0.3239E-16 -0.2069E-18 -0.1594E-17 -0.1003E-19
    -11.110 -0.4355E-15 -0.3371E-17 -0.2154E-16 -0.1644E-18
    -11.064 -0.5202E-14 -0.4813E-16 -0.2598E-15 -0.2369E-17
    -11.018 -0.5584E-13 -0.6282E-15 -0.2818E-14 -0.3115E-16
    -10.973 -0.5377E-12 -0.7399E-14 -0.2745E-13 -0.3701E-15
    -10.927 -0.4643E-11 -0.7818E-13 -0.2401E-12 -0.3951E-14
    -10.881 -0.3593E-10 -0.7410E-12 -0.1886E-11 -0.3789E-13
    -10.835 -0.2490E-09 -0.6297E-11 -0.1329E-10 -0.3263E-12
    -10.789 -0.1544E-08 -0.4795E-10 -0.8401E-10 -0.2523E-11
    -10.743 -0.8558E-08 -0.3270E-09 -0.4760E-09 -0.1750E-10
    -10.698 -0.4236E-07 -0.1995E-08 -0.2416E-08 -0.1089E-09
    -10.652 -0.1869E-06 -0.1088E-07 -0.1098E-07 -0.6072E-09
    -10.606 -0.7336E-06 -0.5296E-07 -0.4458E-07 -0.3033E-08
    -10.560 -0.2555E-05 -0.2298E-06 -0.1616E-06 -0.1356E-07
    -10.514 -0.7861E-05 -0.8865E-06 -0.5217E-06 -0.5416E-07
    -10.469 -0.2125E-04 -0.3032E-05 -0.1495E-05 -0.1931E-06
    -10.423 -0.5005E-04 -0.9161E-05 -0.3788E-05 -0.6127E-06
    -10.377 -0.1011E-03 -0.2429E-04 -0.8420E-05 -0.1725E-05
    -10.331 -0.1704E-03 -0.5600E-04 -0.1623E-04 -0.4291E-05
    -10.285 -0.2240E-03 -0.1105E-03 -0.2649E-04 -0.9351E-05
    -10.240 -0.1800E-03 -0.1806E-03 -0.3473E-04 -0.1762E-04
    -10.194  0.8586E-04 -0.2263E-03 -0.3080E-04 -0.2799E-04
    -10.148  0.6879E-03 -0.1583E-03  0.7092E-06 -0.3524E-04
    -10.102  0.1637E-02  0.1507E-03  0.7571E-04 -0.2834E-04
    -10.056  0.2764E-02  0.8064E-03  0.2023E-03  0.8603E-05
    -10.011  0.3734E-02  0.1797E-02  0.3733E-03  0.9091E-04
     -9.965  0.4191E-02  0.2924E-02  0.5653E-03  0.2248E-03
     -9.919  0.3952E-02  0.3839E-02  0.7464E-03  0.4007E-03
     -9.873  0.3114E-02  0.4201E-02  0.8890E-03  0.5931E-03
     -9.827  0.1996E-02  0.3861E-02  0.9804E-03  0.7700E-03
     -9.782  0.9613E-03  0.2959E-02  0.1024E-02  0.9056E-03
     -9.736  0.2403E-03  0.1833E-02  0.1035E-02  0.9895E-03
     -9.690 -0.1248E-03  0.8338E-03  0.1030E-02  0.1028E-02
     -9.644 -0.2259E-03  0.1662E-03  0.1019E-02  0.1035E-02
     -9.598 -0.1924E-03 -0.1528E-03  0.1011E-02  0.1028E-02
     -9.553 -0.1224E-03 -0.2265E-03  0.1005E-02  0.1018E-02
     -9.507 -0.6397E-04 -0.1828E-03  0.1002E-02  0.1010E-02
     -9.461 -0.2849E-04 -0.1126E-03  0.1001E-02  0.1004E-02
     -9.415 -0.1102E-04 -0.5739E-04  0.1000E-02  0.1002E-02
     -9.369 -0.3795E-05 -0.2501E-04  0.1000E-02  0.1001E-02
     -9.323 -0.1407E-05 -0.9474E-05  0.1000E-02  0.1000E-02
     -9.278 -0.1405E-05 -0.3150E-05  0.9999E-03  0.1000E-02
     -9.232 -0.3786E-05 -0.9264E-06  0.9998E-03  0.1000E-02
     -9.186 -0.1099E-04 -0.2521E-06  0.9993E-03  0.1000E-02
     -9.140 -0.2843E-04 -0.1118E-06  0.9980E-03  0.1000E-02
     -9.094 -0.6386E-04 -0.2540E-06  0.9950E-03  0.1000E-02
     -9.049 -0.1222E-03 -0.9334E-06  0.9894E-03  0.9999E-03
     -9.003 -0.1922E-03 -0.3171E-05  0.9806E-03  0.9998E-03
     -8.957 -0.2259E-03 -0.9532E-05  0.9703E-03  0.9994E-03
     -8.911 -0.1252E-03 -0.2515E-04  0.9645E-03  0.9982E-03
     -8.865  0.2391E-03 -0.5765E-04  0.9755E-03  0.9956E-03
     -8.820  0.9592E-03 -0.1130E-03  0.1019E-02  0.9904E-03
     -8.774  0.1993E-02 -0.1832E-03  0.1111E-02  0.9820E-03
     -8.728  0.3111E-02 -0.2265E-03  0.1253E-02  0.9716E-03
     -8.682  0.3949E-02 -0.1518E-03  0.1434E-02  0.9647E-03
     -8.636  0.4185E-02  0.1690E-03  0.1626E-02  0.9724E-03
     -8.591  0.3718E-02  0.8388E-03  0.1796E-02  0.1011E-02
     -8.545  0.2723E-02  0.1839E-02  0.1921E-02  0.1095E-02
     -8.499  0.1549E-02  0.2965E-02  0.1992E-02  0.1231E-02
     -8.453  0.5295E-03  0.3865E-02  0.2016E-02  0.1408E-02
     -8.407 -0.1412E-03  0.4201E-02  0.2010E-02  0.1600E-02
     -8.362 -0.4071E-03  0.3835E-02  0.1991E-02  0.1776E-02
     -8.316 -0.2728E-03  0.2917E-02  0.1978E-02  0.1910E-02
     -8.270  0.2503E-03  0.1790E-02  0.1990E-02  0.1992E-02
     -8.224  0.1119E-02  0.7994E-03  0.2041E-02  0.2028E-02
     -8.178  0.2195E-02  0.1417E-03  0.2142E-02  0.2035E-02
     -8.133  0.3247E-02 -0.1768E-03  0.2290E-02  0.2027E-02
     -8.087  0.4048E-02 -0.2688E-03  0.2476E-02  0.2014E-02
     -8.041  0.4530E-02 -0.2690E-03  0.2683E-02  0.2002E-02
     -7.995  0.4840E-02 -0.2661E-03  0.2905E-02  0.1990E-02
     -7.949  0.5245E-02 -0.2743E-03  0.3145E-02  0.1977E-02
     -7.903  0.5943E-02 -0.2302E-03  0.3418E-02  0.1967E-02
     -7.858  0.6917E-02 -0.1222E-04  0.3734E-02  0.1966E-02
     -7.812  0.7927E-02  0.5049E-03  0.4097E-02  0.1989E-02
     -7.766  0.8609E-02  0.1358E-02  0.4492E-02  0.2052E-02
     -7.720  0.8631E-02  0.2412E-02  0.4887E-02  0.2162E-02
     -7.674  0.7844E-02  0.3366E-02  0.5246E-02  0.2316E-02
     -7.629  0.6408E-02  0.3889E-02  0.5540E-02  0.2494E-02
     -7.583  0.4813E-02  0.3832E-02  0.5760E-02  0.2670E-02
     -7.537  0.3730E-02  0.3363E-02  0.5931E-02  0.2824E-02
     -7.491  0.3696E-02  0.2887E-02  0.6101E-02  0.2956E-02
     -7.445  0.4806E-02  0.2813E-02  0.6321E-02  0.3085E-02
     -7.400  0.6608E-02  0.3304E-02  0.6623E-02  0.3236E-02
     -7.354  0.8310E-02  0.4206E-02  0.7004E-02  0.3429E-02
     -7.308  0.9195E-02  0.5168E-02  0.7425E-02  0.3666E-02
     -7.262  0.8997E-02  0.5830E-02  0.7837E-02  0.3933E-02
     -7.216  0.8025E-02  0.5967E-02  0.8205E-02  0.4206E-02
     -7.171  0.7008E-02  0.5539E-02  0.8526E-02  0.4460E-02
     -7.125  0.6766E-02  0.4693E-02  0.8836E-02  0.4675E-02
     -7.079  0.7859E-02  0.3729E-02  0.9196E-02  0.4846E-02
     -7.033  0.1033E-01  0.2999E-02  0.9669E-02  0.4983E-02
     -6.987  0.1365E-01  0.2736E-02  0.1029E-01  0.5108E-02
     -6.942  0.1685E-01  0.2923E-02  0.1107E-01  0.5242E-02
     -6.896  0.1897E-01  0.3332E-02  0.1194E-01  0.5395E-02
     -6.850  0.1945E-01  0.3725E-02  0.1283E-01  0.5566E-02
     -6.804  0.1839E-01  0.4079E-02  0.1367E-01  0.5752E-02
     -6.758  0.1645E-01  0.4597E-02  0.1442E-01  0.5963E-02
     -6.713  0.1446E-01  0.5495E-02  0.1508E-01  0.6215E-02
     -6.667  0.1302E-01  0.6742E-02  0.1568E-01  0.6523E-02
     -6.621  0.1223E-01  0.8006E-02  0.1624E-01  0.6890E-02
     -6.575  0.1183E-01  0.8870E-02  0.1678E-01  0.7296E-02
     -6.529  0.1152E-01  0.9120E-02  0.1731E-01  0.7714E-02
     -6.483  0.1112E-01  0.8878E-02  0.1782E-01  0.8121E-02
     -6.438  0.1071E-01  0.8489E-02  0.1831E-01  0.8510E-02
     -6.392  0.1044E-01  0.8301E-02  0.1879E-01  0.8890E-02
     -6.346  0.1040E-01  0.8503E-02  0.1927E-01  0.9280E-02
     -6.300  0.1054E-01  0.9085E-02  0.1975E-01  0.9696E-02
     -6.254  0.1060E-01  0.9904E-02  0.2023E-01  0.1015E-01
     -6.209  0.1024E-01  0.1077E-01  0.2070E-01  0.1064E-01
     -6.163  0.9229E-02  0.1153E-01  0.2113E-01  0.1117E-01
     -6.117  0.7706E-02  0.1211E-01  0.2148E-01  0.1173E-01
     -6.071  0.6189E-02  0.1251E-01  0.2176E-01  0.1230E-01
     -6.025  0.5360E-02  0.1275E-01  0.2201E-01  0.1288E-01
     -5.980  0.5665E-02  0.1283E-01  0.2227E-01  0.1347E-01
     -5.934  0.7042E-02  0.1269E-01  0.2259E-01  0.1405E-01
     -5.888  0.8995E-02  0.1234E-01  0.2300E-01  0.1462E-01
     -5.842  0.1096E-01  0.1189E-01  0.2350E-01  0.1516E-01
     -5.796  0.1265E-01  0.1153E-01  0.2408E-01  0.1569E-01
     -5.751  0.1416E-01  0.1145E-01  0.2473E-01  0.1621E-01
     -5.705  0.1572E-01  0.1169E-01  0.2545E-01  0.1675E-01
     -5.659  0.1744E-01  0.1209E-01  0.2625E-01  0.1730E-01
     -5.613  0.1920E-01  0.1234E-01  0.2713E-01  0.1787E-01
     -5.567  0.2078E-01  0.1222E-01  0.2808E-01  0.1843E-01
     -5.522  0.2205E-01  0.1165E-01  0.2909E-01  0.1896E-01
     -5.476  0.2305E-01  0.1083E-01  0.3015E-01  0.1946E-01
     -5.430  0.2399E-01  0.1010E-01  0.3125E-01  0.1992E-01
     -5.384  0.2513E-01  0.9743E-02  0.3240E-01  0.2037E-01
     -5.338  0.2657E-01  0.9838E-02  0.3362E-01  0.2082E-01
     -5.292  0.2821E-01  0.1019E-01  0.3491E-01  0.2128E-01
     -5.247  0.2975E-01  0.1047E-01  0.3627E-01  0.2176E-01
     -5.201  0.3087E-01  0.1040E-01  0.3768E-01  0.2224E-01
     -5.155  0.3145E-01  0.9929E-02  0.3912E-01  0.2270E-01
     -5.109  0.3165E-01  0.9244E-02  0.4057E-01  0.2312E-01
     -5.063  0.3185E-01  0.8788E-02  0.4203E-01  0.2352E-01
     -5.018  0.3236E-01  0.9102E-02  0.4352E-01  0.2394E-01
     -4.972  0.3317E-01  0.1057E-01  0.4503E-01  0.2442E-01
     -4.926  0.3381E-01  0.1316E-01  0.4658E-01  0.2503E-01
     -4.880  0.3349E-01  0.1638E-01  0.4812E-01  0.2578E-01
     -4.834  0.3144E-01  0.1944E-01  0.4956E-01  0.2667E-01
     -4.789  0.2735E-01  0.2168E-01  0.5081E-01  0.2766E-01
     -4.743  0.2159E-01  0.2284E-01  0.5180E-01  0.2871E-01
     -4.697  0.1517E-01  0.2312E-01  0.5249E-01  0.2976E-01
     -4.651  0.9375E-02  0.2301E-01  0.5292E-01  0.3082E-01
     -4.605  0.5209E-02  0.2291E-01  0.5316E-01  0.3187E-01
     -4.560  0.3031E-02  0.2305E-01  0.5330E-01  0.3292E-01
     -4.514  0.2471E-02  0.2340E-01  0.5341E-01  0.3400E-01
     -4.468  0.2715E-02  0.2383E-01  0.5354E-01  0.3509E-01
     -4.422  0.2970E-02  0.2417E-01  0.5367E-01  0.3619E-01
     -4.376  0.2845E-02  0.2420E-01  0.5381E-01  0.3730E-01
     -4.331  0.2449E-02  0.2366E-01  0.5392E-01  0.3839E-01
     -4.285  0.2177E-02  0.2237E-01  0.5402E-01  0.3941E-01
     -4.239  0.2347E-02  0.2043E-01  0.5412E-01  0.4035E-01
     -4.193  0.2948E-02  0.1831E-01  0.5426E-01  0.4119E-01
     -4.147  0.3639E-02  0.1668E-01  0.5443E-01  0.4195E-01
     -4.102  0.3975E-02  0.1613E-01  0.5461E-01  0.4269E-01
     -4.056  0.3695E-02  0.1692E-01  0.5478E-01  0.4346E-01
     -4.010  0.2861E-02  0.1886E-01  0.5491E-01  0.4433E-01
     -3.964  0.1780E-02  0.2150E-01  0.5499E-01  0.4531E-01
     -3.918  0.7959E-03  0.2435E-01  0.5503E-01  0.4643E-01
     -3.872  0.1136E-03  0.2687E-01  0.5503E-01  0.4766E-01
     -3.827 -0.2494E-03  0.2847E-01  0.5502E-01  0.4896E-01
     -3.781 -0.3900E-03  0.2850E-01  0.5500E-01  0.5027E-01
     -3.735 -0.4041E-03  0.2647E-01  0.5498E-01  0.5148E-01
     -3.689 -0.3057E-03  0.2240E-01  0.5497E-01  0.5251E-01
     -3.643 -0.1458E-04  0.1700E-01  0.5497E-01  0.5329E-01
     -3.598  0.5807E-03  0.1146E-01  0.5500E-01  0.5381E-01
     -3.552  0.1513E-02  0.7011E-02  0.5507E-01  0.5413E-01
     -3.506  0.2639E-02  0.4303E-02  0.5519E-01  0.5433E-01
     -3.460  0.3643E-02  0.3217E-02  0.5535E-01  0.5448E-01
     -3.414  0.4160E-02  0.3052E-02  0.5554E-01  0.5462E-01
     -3.369  0.3974E-02  0.3001E-02  0.5573E-01  0.5475E-01
     -3.323  0.3146E-02  0.2577E-02  0.5587E-01  0.5487E-01
     -3.277  0.1976E-02  0.1759E-02  0.5596E-01  0.5495E-01
     -3.231  0.8503E-03  0.8490E-03  0.5600E-01  0.5499E-01
     -3.185  0.7860E-04  0.2278E-03  0.5600E-01  0.5500E-01
     -3.140 -0.1706E-03  0.1621E-03  0.5600E-01  0.5501E-01
     -3.094  0.1430E-03  0.7201E-03  0.5600E-01  0.5504E-01
     -3.048  0.9477E-03  0.1753E-02  0.5605E-01  0.5512E-01
     -3.002  0.2045E-02  0.2924E-02  0.5614E-01  0.5526E-01
     -2.956  0.3116E-02  0.3803E-02  0.5628E-01  0.5543E-01
     -2.911  0.3826E-02  0.4041E-02  0.5646E-01  0.5562E-01
     -2.865  0.4002E-02  0.3546E-02  0.5664E-01  0.5578E-01
     -2.819  0.3760E-02  0.2547E-02  0.5681E-01  0.5589E-01
     -2.773  0.3443E-02  0.1495E-02  0.5697E-01  0.5596E-01
     -2.727  0.3375E-02  0.8543E-03  0.5712E-01  0.5600E-01
     -2.682  0.3621E-02  0.8956E-03  0.5729E-01  0.5604E-01
     -2.636  0.3934E-02  0.1584E-02  0.5747E-01  0.5612E-01
     -2.590  0.3942E-02  0.2600E-02  0.5765E-01  0.5623E-01
     -2.544  0.3421E-02  0.3486E-02  0.5781E-01  0.5639E-01
     -2.498  0.2441E-02  0.3883E-02  0.5792E-01  0.5657E-01
     -2.452  0.1312E-02  0.3733E-02  0.5798E-01  0.5674E-01
     -2.407  0.4041E-03  0.3307E-02  0.5800E-01  0.5689E-01
     -2.361 -0.9871E-05  0.3018E-02  0.5800E-01  0.5703E-01
     -2.315  0.1823E-03  0.3125E-02  0.5801E-01  0.5718E-01
     -2.269  0.9256E-03  0.3545E-02  0.5805E-01  0.5734E-01
     -2.223  0.2013E-02  0.3917E-02  0.5814E-01  0.5752E-01
     -2.178  0.3137E-02  0.3859E-02  0.5828E-01  0.5769E-01
     -2.132  0.4003E-02  0.3220E-02  0.5847E-01  0.5784E-01
     -2.086  0.4470E-02  0.2158E-02  0.5867E-01  0.5794E-01
     -2.040  0.4603E-02  0.1020E-02  0.5888E-01  0.5799E-01
     -1.994  0.4571E-02  0.1521E-03  0.5909E-01  0.5799E-01
     -1.949  0.4480E-02 -0.2111E-03  0.5930E-01  0.5799E-01
     -1.903  0.4296E-02  0.3650E-04  0.5950E-01  0.5799E-01
     -1.857  0.3945E-02  0.8956E-03  0.5968E-01  0.5803E-01
     -1.811  0.3479E-02  0.2257E-02  0.5984E-01  0.5813E-01
     -1.765  0.3105E-02  0.3881E-02  0.5998E-01  0.5831E-01
     -1.720  0.3039E-02  0.5412E-02  0.6012E-01  0.5856E-01
     -1.674  0.3309E-02  0.6468E-02  0.6027E-01  0.5885E-01
     -1.628  0.3728E-02  0.6768E-02  0.6044E-01  0.5916E-01
     -1.582  0.4053E-02  0.6253E-02  0.6062E-01  0.5945E-01
     -1.536  0.4183E-02  0.5137E-02  0.6082E-01  0.5968E-01
     -1.491  0.4204E-02  0.3853E-02  0.6101E-01  0.5986E-01
     -1.445  0.4227E-02  0.2883E-02  0.6120E-01  0.5999E-01
     -1.399  0.4225E-02  0.2536E-02  0.6140E-01  0.6011E-01
     -1.353  0.4035E-02  0.2789E-02  0.6158E-01  0.6024E-01
     -1.307  0.3544E-02  0.3326E-02  0.6174E-01  0.6039E-01
     -1.262  0.2864E-02  0.3758E-02  0.6187E-01  0.6056E-01
     -1.216  0.2320E-02  0.3885E-02  0.6198E-01  0.6074E-01
     -1.170  0.2235E-02  0.3794E-02  0.6208E-01  0.6091E-01
     -1.124  0.2671E-02  0.3716E-02  0.6221E-01  0.6108E-01
     -1.078  0.3350E-02  0.3786E-02  0.6236E-01  0.6126E-01
     -1.032  0.3807E-02  0.3929E-02  0.6253E-01  0.6144E-01
     -0.987  0.3683E-02  0.3976E-02  0.6270E-01  0.6162E-01
     -0.941  0.2947E-02  0.3864E-02  0.6284E-01  0.6180E-01
     -0.895  0.1912E-02  0.3716E-02  0.6292E-01  0.6197E-01
     -0.849  0.1062E-02  0.3705E-02  0.6297E-01  0.6214E-01
     -0.803  0.8160E-03  0.3846E-02  0.6301E-01  0.6231E-01
     -0.758  0.1352E-02  0.3933E-02  0.6307E-01  0.6249E-01
     -0.712  0.2558E-02  0.3708E-02  0.6319E-01  0.6266E-01
     -0.666  0.4095E-02  0.3104E-02  0.6338E-01  0.6280E-01
     -0.620  0.5533E-02  0.2358E-02  0.6363E-01  0.6291E-01
     -0.574  0.6484E-02  0.1878E-02  0.6393E-01  0.6300E-01
     -0.529  0.6709E-02  0.1985E-02  0.6423E-01  0.6309E-01
     -0.483  0.6163E-02  0.2717E-02  0.6452E-01  0.6321E-01
     -0.437  0.4998E-02  0.3826E-02  0.6475E-01  0.6339E-01
     -0.391  0.3508E-02  0.4940E-02  0.6491E-01  0.6362E-01
     -0.345  0.2040E-02  0.5741E-02  0.6500E-01  0.6388E-01
     -0.300  0.8706E-03  0.6049E-02  0.6504E-01  0.6416E-01
     -0.254  0.1294E-03  0.5811E-02  0.6505E-01  0.6442E-01
     -0.208 -0.2142E-03  0.5060E-02  0.6504E-01  0.6465E-01
     -0.162 -0.2870E-03  0.3924E-02  0.6502E-01  0.6483E-01
     -0.116 -0.2301E-03  0.2620E-02  0.6501E-01  0.6495E-01
     -0.071 -0.1437E-03  0.1410E-02  0.6501E-01  0.6502E-01
     -0.025 -0.7486E-04  0.5009E-03  0.6500E-01  0.6504E-01
      0.021 -0.3349E-04 -0.3084E-04  0.6500E-01  0.6504E-01
      0.067 -0.1305E-04 -0.2401E-03  0.6500E-01  0.6503E-01
      0.113 -0.4471E-05 -0.2504E-03  0.6500E-01  0.6502E-01
      0.158 -0.1353E-05 -0.1805E-03  0.6500E-01  0.6501E-01
      0.204 -0.3634E-06 -0.1045E-03  0.6500E-01  0.6500E-01
      0.250 -0.8678E-07 -0.5105E-04  0.6500E-01  0.6500E-01
      0.296 -0.1847E-07 -0.2152E-04  0.6500E-01  0.6500E-01
      0.342 -0.3510E-08 -0.7922E-05  0.6500E-01  0.6500E-01
      0.388 -0.5960E-09 -0.2567E-05  0.6500E-01  0.6500E-01
      0.433 -0.9056E-10 -0.7360E-06  0.6500E-01  0.6500E-01
      0.479 -0.1232E-10 -0.1873E-06  0.6500E-01  0.6500E-01
      0.525 -0.1502E-11 -0.4242E-07  0.6500E-01  0.6500E-01
      0.571 -0.1641E-12 -0.8566E-08  0.6500E-01  0.6500E-01
      0.617 -0.1608E-13 -0.1545E-08  0.6500E-01  0.6500E-01
      0.662 -0.1415E-14 -0.2491E-09  0.6500E-01  0.6500E-01
      0.708 -0.1115E-15 -0.3593E-10  0.6500E-01  0.6500E-01
      0.754 -0.9695E-17 -0.4644E-11  0.6500E-01  0.6500E-01
      0.800  0.0000E+00 -0.5378E-12  0.6500E-01  0.6500E-01
      0.846  0.0000E+00 -0.5585E-13  0.6500E-01  0.6500E-01
      0.891  0.0000E+00 -0.5201E-14  0.6500E-01  0.6500E-01
      0.937  0.0000E+00 -0.4363E-15  0.6500E-01  0.6500E-01
      0.983  0.0000E+00 -0.3393E-16  0.6500E-01  0.6500E-01
      1.029  0.0000E+00  0.0000E+00  0.6500E-01  0.6500E-01
      1.075  0.0000E+00  0.0000E+00  0.6500E-01  0.6500E-01
      1.120  0.0000E+00  0.0000E+00  0.6500E-01  0.6500E-01
      1.166  0.0000E+00  0.0000E+00  0.6500E-01  0.6500E-01
      1.212  0.0000E+00  0.0000E+00  0.6500E-01  0.6500E-01
      1.258  0.0000E+00  0.0000E+00  0.6500E-01  0.6500E-01
      1.304  0.0000E+00  0.0000E+00  0.6500E-01  0.6500E-01
      1.349  0.0000E+00  0.0000E+00  0.6500E-01  0.6500E-01
      1.395  0.0000E+00  0.0000E+00  0.6500E-01  0.6500E-01
      1.441  0.0000E+00  0.0000E+00  0.6500E-01  0.6500E-01
      1.487  0.0000E+00  0.0000E+00  0.6500E-01  0.6500E-01
      1.533  0.0000E+00  0.0000E+00  0.6500E-01  0.6500E-01
      1.578  0.0000E+00  0.0000E+00  0.6500E-01  0.6500E-01
      1.624  0.0000E+00  0.0000E+00  0.6500E-01  0.6500E-01
      1.670  0.0000E+00  0.0000E+00  0.6500E-01  0.6500E-01
      1.716  0.0000E+00  0.0000E+00  0.6500E-01  0.6500E-01
      1.762  0.0000E+00  0.0000E+00  0.6500E-01  0.6500E-01
