   10   10 1000    2
  0.1229234E+04  0.2242213E-08  0.2259190E-08  0.2426638E-08  0.5000000E-15
   1.0000000000000000E-004
  CAR 
 unknown system                          
    100      1     65
 
  0.1262379E-14  0.1262379E-14  0.1262379E-14  0.1000000E+01
    1       -9.980266     -9.895323   1.000000   1.000000
    2       -8.666591     -8.431264   1.000000   1.000000
    3       -8.093618     -7.634741   1.000000   1.000000
    4       -7.881219     -7.333525   1.000000   1.000000
    5       -7.756146     -7.169002   1.000000   1.000000
    6       -7.661105     -6.876756   1.000000   1.000000
    7       -7.362325     -6.636443   1.000000   1.000000
    8       -7.342558     -6.581628   1.000000   1.000000
    9       -7.197253     -6.440012   1.000000   1.000000
   10       -7.011631     -6.317995   1.000000   1.000000
   11       -6.960065     -6.211735   1.000000   1.000000
   12       -6.906808     -6.143772   1.000000   1.000000
   13       -6.878683     -6.052668   1.000000   1.000000
   14       -6.830838     -5.973792   1.000000   1.000000
   15       -6.783618     -5.901164   1.000000   1.000000
   16       -6.643955     -5.828164   1.000000   1.000000
   17       -6.615859     -5.689850   1.000000   1.000000
   18       -6.513671     -5.668417   1.000000   1.000000
   19       -6.420161     -5.531814   1.000000   1.000000
   20       -6.318913     -5.516110   1.000000   1.000000
   21       -6.209288     -5.337231   1.000000   1.000000
   22       -6.155846     -5.290265   1.000000   1.000000
   23       -5.897710     -5.167283   1.000000   1.000000
   24       -5.872749     -5.098675   1.000000   1.000000
   25       -5.775915     -4.936119   1.000000   1.000000
   26       -5.672655     -4.879097   1.000000   1.000000
   27       -5.651433     -4.839926   1.000000   1.000000
   28       -5.605711     -4.792766   1.000000   1.000000
   29       -5.543242     -4.770854   1.000000   1.000000
   30       -5.505236     -4.705316   1.000000   1.000002
   31       -5.459425     -4.685975   1.000000   1.000003
   32       -5.434709     -4.612165   1.000000   1.000034
   33       -5.376502     -4.552264   1.000000   1.000182
   34       -5.336545     -4.543225   1.000000   1.000231
   35       -5.293199     -4.514469   1.000000   1.000479
   36       -5.275005     -4.445298   1.000000   1.002272
   37       -5.228064     -4.384011   1.000000   1.007099
   38       -5.210174     -4.373234   1.000000   1.008460
   39       -5.191051     -4.330338   1.000000   1.015696
   40       -5.133105     -4.293233   1.000000   1.023883
   41       -5.121599     -4.226867   1.000000   1.035359
   42       -5.093108     -4.210942   1.000000   1.034977
   43       -5.039783     -4.103727   1.000000   0.935028
   44       -5.003317     -4.017424   1.000000   0.668170
   45       -4.995455     -4.006436   1.000000   0.624038
   46       -4.932502     -3.965869   1.000000   0.453978
   47       -4.930156     -3.909466   1.000000   0.232327
   48       -4.889574     -3.856540   1.000000   0.079486
   49       -4.864574     -3.829008   1.000000   0.027315
   50       -4.839615     -3.812271   1.000000   0.004428
   51       -4.802142     -3.770751   1.000000  -0.027972
   52       -4.794879     -3.724139   1.000000  -0.035243
   53       -4.729279     -3.719455   1.000001  -0.034918
   54       -4.455649     -3.677567   1.001832  -0.027830
   55       -4.123618     -3.413558   0.971272  -0.000252
   56       -3.425022     -2.940190  -0.000338  -0.000000
   57       -2.907231     -2.522288  -0.000000  -0.000000
   58       -2.621176     -2.221357  -0.000000  -0.000000
   59       -2.132321     -1.721180  -0.000000  -0.000000
   60       -1.900723     -1.586516  -0.000000  -0.000000
   61       -1.613711     -1.278955  -0.000000  -0.000000
   62       -1.369713     -1.016580  -0.000000  -0.000000
   63       -1.037807     -0.751658  -0.000000  -0.000000
   64       -0.635143     -0.410546  -0.000000  -0.000000
   65       -0.491597     -0.238277  -0.000000  -0.000000
