       N       E                     dE             d eps       ncg     rms          rms(c)
DAV:   1     0.639377128467E+03    0.63938E+03   -0.16038E+04   260   0.704E+02
DAV:   2     0.124882594038E+03   -0.51449E+03   -0.47597E+03   472   0.131E+02
DAV:   3    -0.268957232836E+02   -0.15178E+03   -0.14161E+03   320   0.136E+02
DAV:   4    -0.411348948816E+02   -0.14239E+02   -0.12711E+02   287   0.597E+01
DAV:   5    -0.414853581260E+02   -0.35046E+00   -0.33998E+00   318   0.779E+00    0.203E+01
DAV:   6    -0.451993542466E+02   -0.37140E+01   -0.53926E+01   304   0.102E+02    0.466E+01
DAV:   7    -0.401832325688E+02    0.50161E+01   -0.45729E+01   280   0.103E+02    0.287E+01
DAV:   8    -0.395237544349E+02    0.65948E+00   -0.28474E+01   311   0.771E+01    0.335E+01
DAV:   9    -0.360681476224E+02    0.34556E+01   -0.11038E+01   359   0.568E+01    0.153E+01
DAV:  10    -0.370942304645E+02   -0.10261E+01   -0.78357E+00   375   0.529E+01    0.268E+01
DAV:  11    -0.363450712171E+02    0.74916E+00   -0.69723E+00   351   0.417E+01    0.234E+01
DAV:  12    -0.354572311136E+02    0.88784E+00   -0.26745E+00   279   0.265E+01    0.991E+00
DAV:  13    -0.355667629669E+02   -0.10953E+00   -0.13803E+00   360   0.151E+01    0.100E+01
DAV:  14    -0.355958270193E+02   -0.29064E-01   -0.90347E-01   359   0.154E+01    0.918E+00
DAV:  15    -0.355848773318E+02    0.10950E-01   -0.63964E-01   288   0.122E+01    0.897E+00
DAV:  16    -0.355463393554E+02    0.38538E-01   -0.28206E-01   350   0.891E+00    0.646E+00
DAV:  17    -0.355256107601E+02    0.20729E-01   -0.17129E-01   336   0.660E+00    0.434E+00
DAV:  18    -0.355378405160E+02   -0.12230E-01   -0.94430E-02   367   0.501E+00    0.254E+00
DAV:  19    -0.355762268637E+02   -0.38386E-01   -0.90327E-02   320   0.531E+00    0.357E+00
DAV:  20    -0.356050084628E+02   -0.28782E-01   -0.82972E-02   326   0.435E+00    0.202E+00
DAV:  21    -0.356398167307E+02   -0.34808E-01   -0.85872E-02   359   0.428E+00    0.290E+00
DAV:  22    -0.356279479151E+02    0.11869E-01   -0.50487E-02   296   0.414E+00    0.172E+00
DAV:  23    -0.356373785918E+02   -0.94307E-02   -0.24271E-02   318   0.230E+00    0.735E-01
DAV:  24    -0.356489202653E+02   -0.11542E-01   -0.59847E-03   351   0.111E+00    0.574E-01
DAV:  25    -0.356551418697E+02   -0.62216E-02   -0.35455E-03   326   0.959E-01    0.395E-01
DAV:  26    -0.356603831040E+02   -0.52412E-02   -0.18202E-03   302   0.591E-01    0.278E-01
DAV:  27    -0.356648678509E+02   -0.44847E-02   -0.85446E-04   270   0.406E-01    0.147E-01
DAV:  28    -0.356674813266E+02   -0.26135E-02   -0.54235E-04   189   0.216E-01    0.135E-01
DAV:  29    -0.356685963599E+02   -0.11150E-02   -0.36380E-04   175   0.181E-01    0.776E-02
DAV:  30    -0.356694406511E+02   -0.84429E-03   -0.24398E-04   182   0.119E-01    0.345E-02
DAV:  31    -0.356699973331E+02   -0.55668E-03   -0.16894E-04   181   0.862E-02    0.379E-02
DAV:  32    -0.356701639843E+02   -0.16665E-03   -0.13742E-04   181   0.909E-02    0.443E-02
DAV:  33    -0.356706719195E+02   -0.50794E-03   -0.13321E-04   189   0.103E-01    0.310E-02
DAV:  34    -0.356712475868E+02   -0.57567E-03   -0.95385E-05   182   0.602E-02    0.193E-02
DAV:  35    -0.356719764603E+02   -0.72887E-03   -0.50220E-05   175   0.469E-02    0.192E-02
DAV:  36    -0.356728999939E+02   -0.92353E-03   -0.37414E-05   174   0.393E-02    0.119E-02
DAV:  37    -0.356735147568E+02   -0.61476E-03   -0.17389E-05   176   0.258E-02    0.106E-02
DAV:  38    -0.356743032450E+02   -0.78849E-03   -0.20129E-05   164   0.218E-02    0.691E-03
DAV:  39    -0.356749218153E+02   -0.61857E-03   -0.12239E-05   175   0.167E-02    0.554E-03
DAV:  40    -0.356754353020E+02   -0.51349E-03   -0.97553E-06   173   0.122E-02    0.499E-03
DAV:  41    -0.356758689532E+02   -0.43365E-03   -0.81988E-06   175   0.103E-02    0.322E-03
DAV:  42    -0.356762177259E+02   -0.34877E-03   -0.73904E-06   175   0.903E-03    0.308E-03
DAV:  43    -0.356763824519E+02   -0.16473E-03   -0.33659E-06   167   0.752E-03    0.257E-03
DAV:  44    -0.356764938418E+02   -0.11139E-03   -0.28051E-06   167   0.560E-03    0.179E-03
DAV:  45    -0.356765630438E+02   -0.69202E-04   -0.15494E-06   167   0.438E-03
   1 F= -.35676563E+02 E0= -.35673152E+02  d E =-.356766E+02  mag=     9.8261
       N       E                     dE             d eps       ncg     rms          rms(c)
DAV:   1    -0.358520476785E+02   -0.17555E+00   -0.10298E+02   260   0.404E+01    0.382E+00
DAV:   2    -0.372159136860E+02   -0.13639E+01   -0.35618E+00   367   0.333E+01    0.261E+01
DAV:   3    -0.358720753303E+02    0.13438E+01   -0.30715E+00   294   0.277E+01    0.672E+00
DAV:   4    -0.360445143350E+02   -0.17244E+00   -0.12712E+00   375   0.171E+01    0.669E+00
DAV:   5    -0.360094251118E+02    0.35089E-01   -0.59135E-01   303   0.116E+01    0.491E+00
DAV:   6    -0.359834028748E+02    0.26022E-01   -0.29447E-01   311   0.734E+00    0.211E+00
DAV:   7    -0.360174797982E+02   -0.34077E-01   -0.10084E-01   327   0.534E+00    0.337E+00
DAV:   8    -0.359986365698E+02    0.18843E-01   -0.97391E-02   294   0.500E+00    0.195E+00
DAV:   9    -0.360086534127E+02   -0.10017E-01   -0.51408E-02   343   0.409E+00    0.243E+00
DAV:  10    -0.359954479221E+02    0.13205E-01   -0.29775E-02   302   0.337E+00    0.116E+00
DAV:  11    -0.360026485302E+02   -0.72006E-02   -0.22147E-02   358   0.271E+00    0.164E+00
DAV:  12    -0.359969436083E+02    0.57049E-02   -0.16983E-02   286   0.240E+00    0.518E-01
DAV:  13    -0.360003591808E+02   -0.34156E-02   -0.81752E-03   368   0.141E+00    0.840E-01
DAV:  14    -0.359988108771E+02    0.15483E-02   -0.48001E-03   303   0.119E+00    0.274E-01
DAV:  15    -0.359996242056E+02   -0.81333E-03   -0.16474E-03   327   0.642E-01    0.324E-01
DAV:  16    -0.359995486073E+02    0.75598E-04   -0.78352E-04   240   0.504E-01
   2 F= -.35999549E+02 E0= -.35998376E+02  d E =-.322986E+00  mag=     9.8560
       N       E                     dE             d eps       ncg     rms          rms(c)
DAV:   1    -0.359985760867E+02    0.10481E-02   -0.26094E+01   260   0.200E+01    0.195E+00
DAV:   2    -0.363361422517E+02   -0.33757E+00   -0.99791E-01   398   0.171E+01    0.130E+01
DAV:   3    -0.359827768240E+02    0.35337E+00   -0.99595E-01   286   0.155E+01    0.315E+00
DAV:   4    -0.360508918081E+02   -0.68115E-01   -0.35736E-01   391   0.821E+00    0.369E+00
DAV:   5    -0.360425038140E+02    0.83880E-02   -0.21237E-01   326   0.628E+00    0.285E+00
DAV:   6    -0.360312456105E+02    0.11258E-01   -0.76796E-02   293   0.401E+00    0.941E-01
DAV:   7    -0.360437534364E+02   -0.12508E-01   -0.25507E-02   358   0.294E+00    0.181E+00
DAV:   8    -0.360411158079E+02    0.26376E-02   -0.34072E-02   294   0.289E+00    0.150E+00
DAV:   9    -0.360415667694E+02   -0.45096E-03   -0.16247E-02   326   0.253E+00    0.151E+00
DAV:  10    -0.360369484116E+02    0.46184E-02   -0.11247E-02   286   0.215E+00    0.765E-01
DAV:  11    -0.360376881686E+02   -0.73976E-03   -0.76297E-03   351   0.136E+00    0.675E-01
DAV:  12    -0.360374582121E+02    0.22996E-03   -0.35278E-03   326   0.949E-01    0.299E-01
DAV:  13    -0.360380176832E+02   -0.55947E-03   -0.89223E-04   254   0.566E-01    0.238E-01
DAV:  14    -0.360380753441E+02   -0.57661E-04   -0.53663E-04   191   0.410E-01
   3 F= -.36038075E+02 E0= -.36038339E+02  d E =-.361512E+00  mag=     9.8861
       N       E                     dE             d eps       ncg     rms          rms(c)
DAV:   1    -0.360383786633E+02   -0.36098E-03   -0.43393E-01   260   0.258E+00    0.294E-01
DAV:   2    -0.360475832991E+02   -0.92046E-02   -0.25030E-02   406   0.298E+00    0.201E+00
DAV:   3    -0.360363803977E+02    0.11203E-01   -0.20305E-02   326   0.282E+00    0.339E-01
DAV:   4    -0.360395195752E+02   -0.31392E-02   -0.71700E-03   381   0.106E+00    0.625E-01
DAV:   5    -0.360392642506E+02    0.25532E-03   -0.44604E-03   285   0.826E-01    0.303E-01
DAV:   6    -0.360395138801E+02   -0.24963E-03   -0.79077E-04   189   0.462E-01    0.117E-01
DAV:   7    -0.360402771675E+02   -0.76329E-03   -0.61474E-04   174   0.442E-01    0.295E-01
DAV:   8    -0.360405454703E+02   -0.26830E-03   -0.71666E-04   182   0.440E-01    0.220E-01
DAV:   9    -0.360408807283E+02   -0.33526E-03   -0.36489E-04   167   0.382E-01    0.233E-01
DAV:  10    -0.360410977123E+02   -0.21698E-03   -0.31573E-04   167   0.355E-01    0.805E-02
DAV:  11    -0.360412405445E+02   -0.14283E-03   -0.80863E-05   158   0.151E-01    0.702E-02
DAV:  12    -0.360414596058E+02   -0.21906E-03   -0.44838E-05   158   0.105E-01    0.368E-02
DAV:  13    -0.360415242534E+02   -0.64648E-04   -0.17630E-05   134   0.623E-02
   4 F= -.36041524E+02 E0= -.36041807E+02  d E =-.364961E+00  mag=     9.8992
       N       E                     dE             d eps       ncg     rms          rms(c)
DAV:   1    -0.360527603934E+02   -0.11301E-01   -0.52767E+00   260   0.895E+00    0.961E-01
DAV:   2    -0.361580950531E+02   -0.10533E+00   -0.39187E-01   334   0.966E+00    0.709E+00
DAV:   3    -0.360364736510E+02    0.12162E+00   -0.36140E-01   286   0.894E+00    0.161E+00
DAV:   4    -0.360619317691E+02   -0.25458E-01   -0.94973E-02   350   0.404E+00    0.182E+00
DAV:   5    -0.360598141453E+02    0.21176E-02   -0.37418E-02   310   0.275E+00    0.100E+00
DAV:   6    -0.360588299906E+02    0.98415E-03   -0.80756E-03   279   0.162E+00    0.314E-01
DAV:   7    -0.360611730566E+02   -0.23431E-02   -0.31246E-03   351   0.102E+00    0.575E-01
DAV:   8    -0.360609821345E+02    0.19092E-03   -0.20977E-03   311   0.860E-01    0.409E-01
DAV:   9    -0.360614853750E+02   -0.50324E-03   -0.21599E-03   312   0.779E-01    0.535E-01
DAV:  10    -0.360610243108E+02    0.46106E-03   -0.22231E-03   279   0.731E-01    0.169E-01
DAV:  11    -0.360616015823E+02   -0.57727E-03   -0.62848E-04   199   0.440E-01    0.269E-01
DAV:  12    -0.360615308998E+02    0.70683E-04   -0.56574E-04   175   0.412E-01
   5 F= -.36061531E+02 E0= -.36062094E+02  d E =-.200066E-01  mag=     9.9060
       N       E                     dE             d eps       ncg     rms          rms(c)
DAV:   1    -0.360665732748E+02   -0.49717E-02   -0.49835E+00   260   0.871E+00    0.980E-01
DAV:   2    -0.361858234517E+02   -0.11925E+00   -0.45618E-01   334   0.102E+01    0.757E+00
DAV:   3    -0.360452116188E+02    0.14061E+00   -0.42095E-01   302   0.933E+00    0.173E+00
DAV:   4    -0.360726704887E+02   -0.27459E-01   -0.91399E-02   358   0.401E+00    0.162E+00
DAV:   5    -0.360730983613E+02   -0.42787E-03   -0.32194E-02   310   0.256E+00    0.100E+00
DAV:   6    -0.360717009595E+02    0.13974E-02   -0.78546E-03   279   0.161E+00    0.315E-01
DAV:   7    -0.360738224144E+02   -0.21215E-02   -0.29547E-03   359   0.102E+00    0.560E-01
DAV:   8    -0.360736367440E+02    0.18567E-03   -0.22867E-03   303   0.863E-01    0.410E-01
DAV:   9    -0.360740251356E+02   -0.38839E-03   -0.20508E-03   312   0.762E-01    0.516E-01
DAV:  10    -0.360735627632E+02    0.46237E-03   -0.20542E-03   279   0.715E-01    0.156E-01
DAV:  11    -0.360741766257E+02   -0.61386E-03   -0.56830E-04   198   0.433E-01    0.248E-01
DAV:  12    -0.360741250890E+02    0.51537E-04   -0.53626E-04   175   0.402E-01
   6 F= -.36074125E+02 E0= -.36074808E+02  d E =-.326008E-01  mag=     9.9099
       N       E                     dE             d eps       ncg     rms          rms(c)
DAV:   1    -0.360488911033E+02    0.25286E-01   -0.19986E+01   260   0.175E+01    0.192E+00
DAV:   2    -0.364694386586E+02   -0.42055E+00   -0.15332E+00   310   0.197E+01    0.135E+01
DAV:   3    -0.360211526132E+02    0.44829E+00   -0.10970E+00   294   0.175E+01    0.385E+00
DAV:   4    -0.360741143828E+02   -0.52962E-01   -0.30479E-01   359   0.803E+00    0.285E+00
DAV:   5    -0.360814727225E+02   -0.73583E-02   -0.10879E-01   310   0.493E+00    0.212E+00
DAV:   6    -0.360719555986E+02    0.95171E-02   -0.37797E-02   287   0.340E+00    0.601E-01
DAV:   7    -0.360788401274E+02   -0.68845E-02   -0.10695E-02   359   0.205E+00    0.106E+00
DAV:   8    -0.360773279490E+02    0.15122E-02   -0.74933E-03   295   0.165E+00    0.608E-01
DAV:   9    -0.360792966697E+02   -0.19687E-02   -0.90588E-03   344   0.145E+00    0.959E-01
DAV:  10    -0.360773360439E+02    0.19606E-02   -0.73080E-03   294   0.138E+00    0.363E-01
DAV:  11    -0.360795414771E+02   -0.22054E-02   -0.50090E-03   343   0.997E-01    0.739E-01
DAV:  12    -0.360783232005E+02    0.12183E-02   -0.33516E-03   294   0.863E-01    0.192E-01
DAV:  13    -0.360790997217E+02   -0.77652E-03   -0.58111E-04   207   0.468E-01    0.228E-01
DAV:  14    -0.360791610138E+02   -0.61292E-04   -0.51893E-04   174   0.404E-01
   7 F= -.36079161E+02 E0= -.36079888E+02  d E =-.376368E-01  mag=     9.9098
       N       E                     dE             d eps       ncg     rms          rms(c)
DAV:   1    -0.360777466160E+02    0.13531E-02   -0.19279E+00   260   0.542E+00    0.592E-01
DAV:   2    -0.361205869959E+02   -0.42840E-01   -0.18538E-01   351   0.602E+00    0.466E+00
DAV:   3    -0.360651941218E+02    0.55393E-01   -0.15225E-01   302   0.566E+00    0.999E-01
DAV:   4    -0.360800082221E+02   -0.14814E-01   -0.29310E-02   366   0.247E+00    0.986E-01
DAV:   5    -0.360802643234E+02   -0.25610E-03   -0.12367E-02   294   0.151E+00    0.504E-01
DAV:   6    -0.360802147544E+02    0.49569E-04   -0.21474E-03   280   0.845E-01    0.221E-01
DAV:   7    -0.360809253762E+02   -0.71062E-03   -0.14505E-03   303   0.620E-01    0.361E-01
DAV:   8    -0.360809172452E+02    0.81310E-05   -0.13831E-03   248   0.535E-01    0.351E-01
DAV:   9    -0.360808724220E+02    0.44823E-04   -0.90773E-04   232   0.501E-01
   8 F= -.36080872E+02 E0= -.36081704E+02  d E =-.393482E-01  mag=     9.9103
       N       E                     dE             d eps       ncg     rms          rms(c)
DAV:   1    -0.360797395230E+02    0.11777E-02   -0.50108E+00   260   0.876E+00    0.872E-01
DAV:   2    -0.361515398607E+02   -0.71800E-01   -0.26266E-01   367   0.811E+00    0.573E+00
DAV:   3    -0.360659544016E+02    0.85585E-01   -0.21404E-01   286   0.796E+00    0.108E+00
DAV:   4    -0.360925983868E+02   -0.26644E-01   -0.81890E-02   390   0.356E+00    0.210E+00
DAV:   5    -0.360855128862E+02    0.70855E-02   -0.52259E-02   310   0.290E+00    0.112E+00
DAV:   6    -0.360860599835E+02   -0.54710E-03   -0.92886E-03   294   0.153E+00    0.350E-01
DAV:   7    -0.360878143303E+02   -0.17543E-02   -0.49360E-03   366   0.981E-01    0.615E-01
DAV:   8    -0.360875370589E+02    0.27727E-03   -0.38329E-03   294   0.965E-01    0.466E-01
DAV:   9    -0.360879065165E+02   -0.36946E-03   -0.22650E-03   311   0.953E-01    0.545E-01
DAV:  10    -0.360873934792E+02    0.51304E-03   -0.20120E-03   286   0.866E-01    0.265E-01
DAV:  11    -0.360877941391E+02   -0.40066E-03   -0.79403E-04   248   0.497E-01    0.296E-01
DAV:  12    -0.360876814527E+02    0.11269E-03   -0.52632E-04   183   0.448E-01    0.137E-01
DAV:  13    -0.360878204604E+02   -0.13901E-03   -0.14237E-04   159   0.204E-01    0.886E-02
DAV:  14    -0.360878922321E+02   -0.71772E-04   -0.93430E-05   167   0.153E-01
   9 F= -.36087892E+02 E0= -.36087613E+02  d E =-.701981E-02  mag=     9.9123
       N       E                     dE             d eps       ncg     rms          rms(c)
DAV:   1    -0.360876664321E+02    0.15403E-03   -0.37352E-01   260   0.239E+00    0.239E-01
DAV:   2    -0.360924744117E+02   -0.48080E-02   -0.19017E-02   366   0.217E+00    0.155E+00
DAV:   3    -0.360853336173E+02    0.71408E-02   -0.17856E-02   294   0.221E+00    0.314E-01
DAV:   4    -0.360884733265E+02   -0.31397E-02   -0.71074E-03   381   0.977E-01    0.631E-01
DAV:   5    -0.360875950502E+02    0.87828E-03   -0.40168E-03   285   0.788E-01    0.228E-01
DAV:   6    -0.360880413352E+02   -0.44629E-03   -0.47305E-04   181   0.372E-01    0.981E-02
DAV:   7    -0.360882297917E+02   -0.18846E-03   -0.31569E-04   166   0.270E-01    0.166E-01
DAV:   8    -0.360882198049E+02    0.99868E-05   -0.26965E-04   158   0.264E-01
  10 F= -.36088220E+02 E0= -.36087622E+02  d E =-.734738E-02  mag=     9.9132
       N       E                     dE             d eps       ncg     rms          rms(c)
DAV:   1    -0.360872634442E+02    0.96635E-03   -0.25233E+00   260   0.621E+00    0.577E-01
DAV:   2    -0.361112015404E+02   -0.23938E-01   -0.92302E-02   366   0.482E+00    0.332E+00
DAV:   3    -0.360810712930E+02    0.30130E-01   -0.81395E-02   286   0.492E+00    0.531E-01
DAV:   4    -0.360935803323E+02   -0.12509E-01   -0.17579E-02   382   0.219E+00    0.120E+00
DAV:   5    -0.360894802119E+02    0.41001E-02   -0.84334E-03   286   0.184E+00    0.350E-01
DAV:   6    -0.360906713684E+02   -0.11912E-02   -0.26184E-03   360   0.645E-01    0.304E-01
DAV:   7    -0.360913509324E+02   -0.67956E-03   -0.30850E-03   294   0.737E-01    0.468E-01
DAV:   8    -0.360910737725E+02    0.27716E-03   -0.18026E-03   262   0.632E-01    0.339E-01
DAV:   9    -0.360912092287E+02   -0.13546E-03   -0.10848E-03   254   0.603E-01    0.302E-01
DAV:  10    -0.360911550975E+02    0.54131E-04   -0.47928E-04   191   0.465E-01
  11 F= -.36091155E+02 E0= -.36090159E+02  d E =-.293529E-02  mag=     9.9135
       N       E                     dE             d eps       ncg     rms          rms(c)
DAV:   1    -0.360900155984E+02    0.11936E-02   -0.12225E+00   260   0.433E+00    0.477E-01
DAV:   2    -0.361132018001E+02   -0.23186E-01   -0.70962E-02   334   0.481E+00    0.326E+00
DAV:   3    -0.360834237249E+02    0.29778E-01   -0.66685E-02   286   0.454E+00    0.503E-01
DAV:   4    -0.360921040421E+02   -0.86803E-02   -0.15887E-02   406   0.184E+00    0.890E-01
DAV:   5    -0.360908936499E+02    0.12104E-02   -0.72995E-03   286   0.133E+00    0.366E-01
DAV:   6    -0.360913222212E+02   -0.42857E-03   -0.14376E-03   287   0.592E-01    0.175E-01
DAV:   7    -0.360917914778E+02   -0.46926E-03   -0.12367E-03   223   0.508E-01    0.327E-01
DAV:   8    -0.360916781644E+02    0.11331E-03   -0.13066E-03   198   0.472E-01    0.230E-01
DAV:   9    -0.360917610216E+02   -0.82857E-04   -0.53343E-04   158   0.354E-01
  12 F= -.36091761E+02 E0= -.36090408E+02  d E =-.354122E-02  mag=     9.9133
       N       E                     dE             d eps       ncg     rms          rms(c)
DAV:   1    -0.360905971331E+02    0.10810E-02   -0.14462E+00   260   0.467E+00    0.434E-01
DAV:   2    -0.361022302642E+02   -0.11633E-01   -0.44783E-02   374   0.341E+00    0.237E+00
DAV:   3    -0.360875697898E+02    0.14660E-01   -0.51318E-02   294   0.374E+00    0.597E-01
DAV:   4    -0.360953733959E+02   -0.78036E-02   -0.27782E-02   382   0.194E+00    0.135E+00
DAV:   5    -0.360907156202E+02    0.46578E-02   -0.16327E-02   294   0.156E+00    0.358E-01
DAV:   6    -0.360922436087E+02   -0.15280E-02   -0.15338E-03   285   0.602E-01    0.166E-01
DAV:   7    -0.360929092942E+02   -0.66569E-03   -0.97531E-04   270   0.522E-01    0.314E-01
DAV:   8    -0.360929068582E+02    0.24360E-05   -0.94245E-04   206   0.495E-01
  13 F= -.36092907E+02 E0= -.36091364E+02  d E =-.114584E-02  mag=     9.9158
       N       E                     dE             d eps       ncg     rms          rms(c)
DAV:   1    -0.360927788819E+02    0.13041E-03   -0.12801E-01   278   0.145E+00    0.208E-01
DAV:   2    -0.360969843029E+02   -0.42054E-02   -0.10740E-02   350   0.223E+00    0.130E+00
DAV:   3    -0.360910713316E+02    0.59130E-02   -0.86439E-03   294   0.212E+00    0.215E-01
DAV:   4    -0.360929922479E+02   -0.19209E-02   -0.29040E-03   341   0.618E-01    0.356E-01
DAV:   5    -0.360928363801E+02    0.15587E-03   -0.15203E-03   206   0.471E-01    0.179E-01
DAV:   6    -0.360929632393E+02   -0.12686E-03   -0.25913E-04   157   0.267E-01    0.585E-02
DAV:   7    -0.360930819707E+02   -0.11873E-03   -0.10966E-04   176   0.186E-01    0.103E-01
DAV:   8    -0.360931033299E+02   -0.21359E-04   -0.11367E-04   167   0.193E-01
  14 F= -.36093103E+02 E0= -.36091624E+02  d E =-.134231E-02  mag=     9.9184
       N       E                     dE             d eps       ncg     rms          rms(c)
DAV:   1    -0.360928458183E+02    0.23615E-03   -0.85145E-01   260   0.357E+00    0.350E-01
DAV:   2    -0.361017777610E+02   -0.89319E-02   -0.40958E-02   366   0.310E+00    0.204E+00
DAV:   3    -0.360892847960E+02    0.12493E-01   -0.34423E-02   286   0.314E+00    0.478E-01
DAV:   4    -0.360948232235E+02   -0.55384E-02   -0.10036E-02   390   0.152E+00    0.838E-01
DAV:   5    -0.360932743931E+02    0.15488E-02   -0.54695E-03   294   0.112E+00    0.362E-01
DAV:   6    -0.360934468544E+02   -0.17246E-03   -0.15599E-03   248   0.480E-01    0.137E-01
DAV:   7    -0.360937545485E+02   -0.30769E-03   -0.55518E-04   174   0.403E-01    0.209E-01
DAV:   8    -0.360937383641E+02    0.16184E-04   -0.53701E-04   165   0.367E-01
  15 F= -.36093738E+02 E0= -.36092698E+02  d E =-.635034E-03  mag=     9.9236
       N       E                     dE             d eps       ncg     rms          rms(c)
DAV:   1    -0.360931047054E+02    0.64984E-03   -0.50777E-01   260   0.278E+00    0.262E-01
DAV:   2    -0.360969859893E+02   -0.38813E-02   -0.13960E-02   390   0.203E+00    0.140E+00
DAV:   3    -0.360915591307E+02    0.54269E-02   -0.12218E-02   286   0.222E+00    0.357E-01
DAV:   4    -0.360943465474E+02   -0.27874E-02   -0.57823E-03   382   0.108E+00    0.658E-01
DAV:   5    -0.360931477849E+02    0.11988E-02   -0.41054E-03   286   0.893E-01    0.265E-01
DAV:   6    -0.360934340246E+02   -0.28624E-03   -0.76466E-04   205   0.394E-01    0.979E-02
DAV:   7    -0.360936402118E+02   -0.20619E-03   -0.43724E-04   174   0.344E-01    0.221E-01
DAV:   8    -0.360935118088E+02    0.12840E-03   -0.53919E-04   158   0.330E-01    0.176E-01
DAV:   9    -0.360935024358E+02    0.93730E-05   -0.26461E-04   159   0.271E-01
  16 F= -.36093502E+02 E0= -.36092620E+02  d E =-.399106E-03  mag=     9.9325
