 vasp.6.1.2 22Jul20 (build Aug  2 2021 21:04:21) gamma-only                      
 executed on             LinuxPGI date 2021.12.25  07:23:50
 running on   16 total cores
 distrk:  each k-point on   16 cores,    1 groups
 distr:  one band on NCORE=  16 cores,    1 groups


--------------------------------------------------------------------------------------------------------


 INCAR:
 POTCAR:    PAW_PBE Ni 02Aug2007                  
 -----------------------------------------------------------------------------
|                                                                             |
|           W    W    AA    RRRRR   N    N  II  N    N   GGGG   !!!           |
|           W    W   A  A   R    R  NN   N  II  NN   N  G    G  !!!           |
|           W    W  A    A  R    R  N N  N  II  N N  N  G       !!!           |
|           W WW W  AAAAAA  RRRRR   N  N N  II  N  N N  G  GGG   !            |
|           WW  WW  A    A  R   R   N   NN  II  N   NN  G    G                |
|           W    W  A    A  R    R  N    N  II  N    N   GGGG   !!!           |
|                                                                             |
|     You use a magnetic or noncollinear calculation, but did not specify     |
|     the initial magnetic moment with the MAGMOM tag. Note that a            |
|     default of 1 will be used for all atoms. This ferromagnetic setup       |
|     may break the symmetry of the crystal, in particular it may rule        |
|     out finding an antiferromagnetic solution. Thence, we recommend         |
|     setting the initial magnetic moment manually or verifying carefully     |
|     that this magnetic setup is desired.                                    |
|                                                                             |
 -----------------------------------------------------------------------------

 -----------------------------------------------------------------------------
|                                                                             |
|           W    W    AA    RRRRR   N    N  II  N    N   GGGG   !!!           |
|           W    W   A  A   R    R  NN   N  II  NN   N  G    G  !!!           |
|           W    W  A    A  R    R  N N  N  II  N N  N  G       !!!           |
|           W WW W  AAAAAA  RRRRR   N  N N  II  N  N N  G  GGG   !            |
|           WW  WW  A    A  R   R   N   NN  II  N   NN  G    G                |
|           W    W  A    A  R    R  N    N  II  N    N   GGGG   !!!           |
|                                                                             |
|     For optimal performance we recommend to set                             |
|       NCORE = 4 - approx SQRT(number of cores).                             |
|     NCORE specifies how many cores store one orbital (NPAR=cpu/NCORE).      |
|     This setting can greatly improve the performance of VASP for DFT.       |
|     The default, NCORE=1 might be grossly inefficient on modern             |
|     multi-core architectures or massively parallel machines. Do your        |
|     own testing!!!!                                                         |
|     Unfortunately you need to use the default for GW and RPA                |
|     calculations (for HF NCORE is supported but not extensively tested      |
|     yet).                                                                   |
|                                                                             |
 -----------------------------------------------------------------------------

 POTCAR:    PAW_PBE Ni 02Aug2007                  
   SHA256 =  0534bc51ca8003dfef23f56753fef9fdd3e22eac8d719fccacb59f3e6b7a69c7 Ni/POTCAR             
   COPYR  = (c) Copyright 02Aug2007 Georg Kresse                                                    
   COPYR  = This file is part of the software VASP. Any use, copying, and all other rights are regul
   COPYR  = If you do not have a valid VASP license, you may not use, copy or distribute this file. 
   VRHFIN =Ni:                                                                                      
   LEXCH  = PE                                                                                      
   EATOM  =  1077.6739 eV,   79.2068 Ry                                                             
                                                                                                    
   TITEL  = PAW_PBE Ni 02Aug2007                                                                    
   LULTRA =        F    use ultrasoft PP ?                                                          
   IUNSCR =        1    unscreen: 0-lin 1-nonlin 2-no                                               
   RPACOR =    2.000    partial core radius                                                         
   POMASS =   58.690; ZVAL   =   10.000    mass and valenz                                          
   RCORE  =    2.300    outmost cutoff radius                                                       
   RWIGS  =    2.430; RWIGS  =    1.286    wigner-seitz radius (au A)                               
   ENMAX  =  269.532; ENMIN  =  202.149 eV                                                          
   RCLOC  =    1.201    cutoff for local pot                                                        
   LCOR   =        T    correct aug charges                                                         
   LPAW   =        T    paw PP                                                                      
   EAUG   =  544.565                                                                                
   DEXC   =    0.000                                                                                
   RMAX   =    2.357    core radius for proj-oper                                                   
   RAUG   =    1.300    factor for augmentation sphere                                              
   RDEP   =    2.390    radius for radial grids                                                     
   RDEPT  =    1.838    core radius for aug-charge                                                  
                                                                                                    
   Atomic configuration                                                                             
    9 entries                                                                                       
     n  l   j            E        occ.                                                              
     1  0  0.50     -8206.4253   2.0000                                                             
     2  0  0.50      -976.1748   2.0000                                                             
     2  1  1.50      -839.0571   6.0000                                                             
     3  0  0.50      -105.9991   2.0000                                                             
     3  1  1.50       -66.4603   6.0000                                                             
     3  2  2.50        -4.6458   9.0000                                                             
     4  0  0.50        -4.4926   1.0000                                                             
     4  1  1.50        -4.0817   0.0000                                                             
     4  3  2.50        -1.3606   0.0000                                                             
   Description                                                                                      
     l       E           TYP  RCUT    TYP  RCUT                                                     
     2     -4.6457903     23  2.300                                                                 
     2     -6.0063729     23  2.300                                                                 
     0     -4.4925590     23  2.300                                                                 
     0      5.0102601     23  2.300                                                                 
     1     -2.7211652     23  2.300                                                                 
     1     16.5183231     23  2.300                                                                 
  local pseudopotential read in
  partial core-charges read in
  partial kinetic energy density read in
  atomic valenz-charges read in
  non local Contribution for L=            2  read in
    real space projection operators read in
  non local Contribution for L=            2  read in
    real space projection operators read in
  non local Contribution for L=            0  read in
    real space projection operators read in
  non local Contribution for L=            0  read in
    real space projection operators read in
  non local Contribution for L=            1  read in
    real space projection operators read in
  non local Contribution for L=            1  read in
    real space projection operators read in
    PAW grid and wavefunctions read in
 
   number of l-projection  operators is LMAX  =            6
   number of lm-projection operators is LMMAX =           18
 
  PAW_PBE Ni 02Aug2007                  :
 energy of atom  1       EATOM=-1077.6739
 kinetic energy error for atom=    0.0101 (will be added to EATOM!!)
 
 
 POSCAR: Ni
  positions in cartesian coordinates
  No initial velocities read in
 exchange correlation table for  LEXCH =        8
   RHO(1)=    0.500       N(1)  =     2000
   RHO(2)=  100.500       N(2)  =     4000
 


--------------------------------------------------------------------------------------------------------


 ion  position               nearest neighbor table
   1  0.538  0.590  0.489-   6 2.39   4 2.43   7 2.44   2 2.45  10 2.46   3 2.51
   2  0.464  0.526  0.533-   5 2.40   7 2.42   3 2.43   1 2.45   8 2.47   9 2.47  10 2.55
   3  0.525  0.485  0.460-   6 2.40   2 2.43   4 2.43   8 2.45  10 2.47   1 2.51
   4  0.623  0.531  0.460-   6 2.38  10 2.43   3 2.43   1 2.43
   5  0.415  0.452  0.588-   8 2.38   9 2.39   2 2.40
   6  0.549  0.560  0.395-   4 2.38   1 2.39   3 2.40
   7  0.523  0.594  0.588-   2 2.42   9 2.42  10 2.43   1 2.44
   8  0.507  0.427  0.544-   5 2.38  10 2.43   3 2.45   9 2.46   2 2.47
   9  0.505  0.495  0.623-   5 2.39   7 2.42  10 2.44   8 2.46   2 2.47
  10  0.575  0.510  0.548-   7 2.43   4 2.43   8 2.43   9 2.44   1 2.46   3 2.47   2 2.55
 

IMPORTANT INFORMATION: All symmetrisations will be switched off!
NOSYMM: (Re-)initialisation of all symmetry stuff for point group C_1.


----------------------------------------------------------------------------------------

                                     Primitive cell                                     

  volume of cell :   12292.3406

  direct lattice vectors                    reciprocal lattice vectors
    22.422125487  0.000000000  0.000000000     0.044598805  0.000000000  0.000000000
     0.000000000 22.591903159  0.000000000     0.000000000  0.044263646  0.000000000
     0.000000000  0.000000000 24.266379733     0.000000000  0.000000000  0.041209278

  length of vectors
    22.422125487 22.591903159 24.266379733     0.044598805  0.044263646  0.041209278

  position of ions in fractional coordinates (direct lattice)
     0.537507665  0.590496493  0.488792266
     0.463525353  0.526431526  0.533301269
     0.524789142  0.484516446  0.460324703
     0.622564816  0.531275435  0.459676657
     0.415318017  0.451984925  0.587959659
     0.548659874  0.560217654  0.394811324
     0.522727069  0.593601211  0.588213258
     0.506729934  0.426676087  0.543834436
     0.505039950  0.494640679  0.622843657
     0.575068162  0.510174115  0.547520550

  ion indices of the primitive-cell ions
   primitive index   ion index
                 1           1
                 2           2
                 3           3
                 4           4
                 5           5
                 6           6
                 7           7
                 8           8
                 9           9
                10          10

----------------------------------------------------------------------------------------

 
 
 KPOINTS: KPOINTS created by Atomic Simulation Env

Automatic generation of k-mesh.
Space group operators:
 irot       det(A)        alpha          n_x          n_y          n_z        tau_x        tau_y        tau_z
    1     1.000000     0.000000     1.000000     0.000000     0.000000     0.000000     0.000000     0.000000
 
 Subroutine IBZKPT returns following result:
 ===========================================
 
 Found      1 irreducible k-points:
 
 Following reciprocal coordinates:
            Coordinates               Weight
  0.000000  0.000000  0.000000      1.000000
 
 Following cartesian coordinates:
            Coordinates               Weight
  0.000000  0.000000  0.000000      1.000000
 


--------------------------------------------------------------------------------------------------------




 Dimension of arrays:
   k-points           NKPTS =      1   k-points in BZ     NKDIM =      1   number of bands    NBANDS=     65
   number of dos      NEDOS =    301   number of ions     NIONS =     10
   non local maximal  LDIM  =      6   non local SUM 2l+1 LMDIM =     18
   total plane-waves  NPLWV = ******
   max r-space proj   IRMAX =      1   max aug-charges    IRDMAX=   4168
   dimension x,y,z NGX =   112 NGY =  112 NGZ =  120
   dimension x,y,z NGXF=   224 NGYF=  224 NGZF=  240
   support grid    NGXF=   224 NGYF=  224 NGZF=  240
   ions per type =              10
   NGX,Y,Z   is equivalent  to a cutoff of   8.30,  8.24,  8.22 a.u.
   NGXF,Y,Z  is equivalent  to a cutoff of  16.61, 16.48, 16.44 a.u.

 SYSTEM =  unknown system                          
 POSCAR =  Ni                                      

 Startparameter for this run:
   NWRITE =      2    write-flag & timer
   PREC   = normal    normal or accurate (medium, high low for compatibility)
   ISTART =      0    job   : 0-new  1-cont  2-samecut
   ICHARG =      2    charge: 1-file 2-atom 10-const
   ISPIN  =      2    spin polarized calculation?
   LNONCOLLINEAR =      F non collinear calculations
   LSORBIT =      F    spin-orbit coupling
   INIWAV =      1    electr: 0-lowe 1-rand  2-diag
   LASPH  =      F    aspherical Exc in radial PAW
   METAGGA=      F    non-selfconsistent MetaGGA calc.

 Electronic Relaxation 1
   ENCUT  =  400.0 eV  29.40 Ry    5.42 a.u.  36.56 36.84 39.57*2*pi/ulx,y,z
   ENINI  =  400.0     initial cutoff
   ENAUG  =  544.6 eV  augmentation charge cutoff
   NELM   =     60;   NELMIN=  2; NELMDL=  0     # of ELM steps 
   EDIFF  = 0.1E-03   stopping-criterion for ELM
   LREAL  =      F    real-space projection
   NLSPLINE    = F    spline interpolate recip. space projectors
   LCOMPAT=      F    compatible to vasp.4.4
   GGA_COMPAT  = T    GGA compatible to vasp.4.4-vasp.4.6
   LMAXPAW     = -100 max onsite density
   LMAXMIX     =    2 max onsite mixed and CHGCAR
   VOSKOWN=      0    Vosko Wilk Nusair interpolation
   ROPT   =    0.00000
 Ionic relaxation
   EDIFFG = 0.1E-02   stopping-criterion for IOM
   NSW    =   1000    number of steps for IOM
   NBLOCK =      1;   KBLOCK =   1000    inner block; outer block 
   IBRION =      2    ionic relax: 0-MD 1-quasi-New 2-CG
   NFREE  =      1    steps in history (QN), initial steepest desc. (CG)
   ISIF   =      0    stress and relaxation
   IWAVPR =     11    prediction:  0-non 1-charg 2-wave 3-comb
   ISYM   =      0    0-nonsym 1-usesym 2-fastsym
   LCORR  =      T    Harris-Foulkes like correction to forces

   POTIM  = 0.5000    time-step for ionic-motion
   TEIN   =    0.0    initial temperature
   TEBEG  =    0.0;   TEEND  =   0.0 temperature during run
   SMASS  =  -3.00    Nose mass-parameter (am)
   estimated Nose-frequenzy (Omega)   =  0.10E-29 period in steps = 0.13E+47 mass=  -0.115E-25a.u.
   SCALEE = 1.0000    scale energy and forces
   NPACO  =    256;   APACO  = 16.0  distance and # of slots for P.C.
   PSTRESS=    0.0 pullay stress

  Mass of Ions in am
   POMASS =  58.69
  Ionic Valenz
   ZVAL   =  10.00
  Atomic Wigner-Seitz radii
   RWIGS  =  -1.00
  virtual crystal weights 
   VCA    =   1.00
   NELECT =     100.0000    total number of electrons
   NUPDOWN=      -1.0000    fix difference up-down

 DOS related values:
   EMIN   =  10.00;   EMAX   =-10.00  energy-range for DOS
   EFERMI =   0.00
   ISMEAR =     1;   SIGMA  =   0.20  broadening in eV -4-tet -1-fermi 0-gaus

 Electronic relaxation 2 (details)
   IALGO  =     38    algorithm
   LDIAG  =      T    sub-space diagonalisation (order eigenvalues)
   LSUBROT=      F    optimize rotation matrix (better conditioning)
   TURBO    =      0    0=normal 1=particle mesh
   IRESTART =      0    0=no restart 2=restart with 2 vectors
   NREBOOT  =      0    no. of reboots
   NMIN     =      0    reboot dimension
   EREF     =   0.00    reference energy to select bands
   IMIX   =      4    mixing-type and parameters
     AMIX     =   0.40;   BMIX     =  1.00
     AMIX_MAG =   1.60;   BMIX_MAG =  1.00
     AMIN     =   0.10
     WC   =   100.;   INIMIX=   1;  MIXPRE=   1;  MAXMIX= -45

 Intra band minimization:
   WEIMIN = 0.0010     energy-eigenvalue tresh-hold
   EBREAK =  0.38E-06  absolut break condition
   DEPER  =   0.30     relativ break condition  

   TIME   =   0.40     timestep for ELM

  volume/ion in A,a.u.               =    1229.23      8295.28
  Fermi-wavevector in a.u.,A,eV,Ry     =   0.329253  0.622198  1.474976  0.108408
  Thomas-Fermi vector in A             =   1.223542
 
 Write flags
   LWAVE        =      F    write WAVECAR
   LDOWNSAMPLE  =      F    k-point downsampling of WAVECAR
   LCHARG       =      F    write CHGCAR
   LVTOT        =      F    write LOCPOT, total local potential
   LVHAR        =      F    write LOCPOT, Hartree potential only
   LELF         =      F    write electronic localiz. function (ELF)
   LORBIT       =      0    0 simple, 1 ext, 2 COOP (PROOUT), +10 PAW based schemes


 Dipole corrections
   LMONO  =      F    monopole corrections only (constant potential shift)
   LDIPOL =      F    correct potential (dipole corrections)
   IDIPOL =      0    1-x, 2-y, 3-z, 4-all directions 
   EPSILON=  1.0000000 bulk dielectric constant

 Exchange correlation treatment:
   GGA     =    PE    GGA type
   LEXCH   =     8    internal setting for exchange type
   VOSKOWN=      0    Vosko Wilk Nusair interpolation
   LHFCALC =     F    Hartree Fock is set to
   LHFONE  =     F    Hartree Fock one center treatment
   AEXX    =    0.0000 exact exchange contribution

 Linear response parameters
   LEPSILON=     F    determine dielectric tensor
   LRPA    =     F    only Hartree local field effects (RPA)
   LNABLA  =     F    use nabla operator in PAW spheres
   LVEL    =     F    velocity operator in full k-point grid
   LINTERFAST=   F  fast interpolation
   KINTER  =     0    interpolate to denser k-point grid
   CSHIFT  =0.1000    complex shift for real part using Kramers Kronig
   OMEGAMAX=  -1.0    maximum frequency
   DEG_THRESHOLD= 0.2000000E-02 threshold for treating states as degnerate
   RTIME   =   -0.100 relaxation time in fs
  (WPLASMAI=    0.000 imaginary part of plasma frequency in eV, 0.658/RTIME)
   DFIELD  = 0.0000000 0.0000000 0.0000000 field for delta impulse in time
 
 Orbital magnetization related:
   ORBITALMAG=     F  switch on orbital magnetization
   LCHIMAG   =     F  perturbation theory with respect to B field
   DQ        =  0.001000  dq finite difference perturbation B field
   LLRAUG    =     F  two centre corrections for induced B field



--------------------------------------------------------------------------------------------------------


 conjugate gradient relaxation of ions
 charge density and potential will be updated during run
 spin polarized calculation
 Variant of blocked Davidson
 Davidson routine will perform the subspace rotation
 perform sub-space diagonalisation
    after iterative eigenvector-optimisation
 modified Broyden-mixing scheme, WC =      100.0
 initial mixing is a Kerker type mixing with AMIX =  0.4000 and BMIX =      1.0000
 Hartree-type preconditioning will be used
 using additional bands            15
 reciprocal scheme for non local part
 use partial core corrections
 calculate Harris-corrections to forces 
   (improved forces if not selfconsistent)
 use gradient corrections 
 use of overlap-Matrix (Vanderbilt PP)
 Methfessel and Paxton  Order N= 1 SIGMA  =   0.20


--------------------------------------------------------------------------------------------------------


  energy-cutoff  :      400.00
  volume of cell :    12292.34
      direct lattice vectors                 reciprocal lattice vectors
    22.422125487  0.000000000  0.000000000     0.044598805  0.000000000  0.000000000
     0.000000000 22.591903159  0.000000000     0.000000000  0.044263646  0.000000000
     0.000000000  0.000000000 24.266379733     0.000000000  0.000000000  0.041209278

  length of vectors
    22.422125487 22.591903159 24.266379733     0.044598805  0.044263646  0.041209278


 
 k-points in units of 2pi/SCALE and weight: KPOINTS created by Atomic Simulation Env
   0.00000000  0.00000000  0.00000000       1.000
 
 k-points in reciprocal lattice and weights: KPOINTS created by Atomic Simulation Env
   0.00000000  0.00000000  0.00000000       1.000
 
 position of ions in fractional coordinates (direct lattice) 
   0.53750766  0.59049649  0.48879227
   0.46352535  0.52643153  0.53330127
   0.52478914  0.48451645  0.46032470
   0.62256482  0.53127544  0.45967666
   0.41531802  0.45198493  0.58795966
   0.54865987  0.56021765  0.39481132
   0.52272707  0.59360121  0.58821326
   0.50672993  0.42667609  0.54383444
   0.50503995  0.49464068  0.62284366
   0.57506816  0.51017411  0.54752055
 
 position of ions in cartesian coordinates  (Angst):
  12.05206431 13.34043958 11.86121875
  10.39322362 11.89309005 12.94129111
  11.76688799 10.94614862 11.17041405
  13.95922642 12.00252319 11.15468831
   9.31231269 10.21119966 14.26765235
  12.30212054 12.65638299  9.58064150
  11.72065193 13.41058107 14.27380628
  11.36196217  9.63942484 13.19689293
  11.32406913 11.17487432 15.11416070
  12.89425050 11.52580420 13.28634157
 


--------------------------------------------------------------------------------------------------------


 use parallel FFT for orbitals z direction half grid
 k-point   1 :   0.0000 0.0000 0.0000  plane waves:  111638

 maximum and minimum number of plane-waves per node :      6985     6971

 maximum number of plane-waves:    111638
 maximum index in each direction: 
   IXMAX=   36   IYMAX=   36   IZMAX=   39
   IXMIN=  -36   IYMIN=  -36   IZMIN=    0


 parallel 3D FFT for wavefunctions:
    minimum data exchange during FFTs selected (reduces bandwidth)
 parallel 3D FFT for charge:
    minimum data exchange during FFTs selected (reduces bandwidth)


 total amount of memory used by VASP MPI-rank0   136235. kBytes
=======================================================================

   base      :      30000. kBytes
   nonl-proj :       2122. kBytes
   fftplans  :      27467. kBytes
   grid      :      62092. kBytes
   one-center:         15. kBytes
   wavefun   :      14539. kBytes
 
     INWAV:  cpu time    0.0000: real time    0.0000
 Broyden mixing: mesh for mixing (old mesh)
   NGX = 73   NGY = 73   NGZ = 79
  (NGX  =224   NGY  =224   NGZ  =240)
  gives a total of 420991 points

 initial charge density was supplied:
 charge density of overlapping atoms calculated
 number of electron     100.0000000 magnetization      10.0000000
 keeping initial charge density in first step


--------------------------------------------------------------------------------------------------------


 Maximum index for augmentation-charges           293 (set IRDMAX)


--------------------------------------------------------------------------------------------------------


 First call to EWALD:  gamma=   0.077
 Maximum number of real-space cells 3x 3x 3
 Maximum number of reciprocal cells 3x 3x 3

    FEWALD:  cpu time    0.0011: real time    0.0011


--------------------------------------- Iteration      1(   1)  ---------------------------------------


    POTLOK:  cpu time    2.4267: real time    2.4502
    SETDIJ:  cpu time    0.0244: real time    0.0244
     EDDAV:  cpu time    4.8972: real time    4.9028
       DOS:  cpu time    0.0077: real time    0.0077
    --------------------------------------------
      LOOP:  cpu time    7.3560: real time    7.3851

 eigenvalue-minimisations  :   260
 total energy-change (2. order) : 0.6393771E+03  (-0.1603791E+04)
 number of electron     100.0000000 magnetization      10.0000000
 augmentation part      100.0000000 magnetization      10.0000000

 Free energy of the ion-electron system (eV)
  ---------------------------------------------------
  alpha Z        PSCENC =         4.14887633
  Ewald energy   TEWEN  =     12700.11004743
  -Hartree energ DENC   =    -22550.99200906
  -exchange      EXHF   =         0.00000000
  -V(xc)+E(xc)   XCENC  =       304.70611085
  PAW double counting   =      9628.33173603   -10296.70712275
  entropy T*S    EENTRO =         0.01035031
  eigenvalues    EBANDS =        73.13076803
  atomic energy  EATOM  =     10776.63837129
  Solvation  Ediel_sol  =         0.00000000
  ---------------------------------------------------
  free energy    TOTEN  =       639.37712847 eV

  energy without entropy =      639.36677816  energy(sigma->0) =      639.37367837


--------------------------------------------------------------------------------------------------------




--------------------------------------- Iteration      1(   2)  ---------------------------------------


     EDDAV:  cpu time    7.6183: real time    7.6296
       DOS:  cpu time    0.0061: real time    0.0061
    --------------------------------------------
      LOOP:  cpu time    7.6244: real time    7.6357

 eigenvalue-minimisations  :   472
 total energy-change (2. order) :-0.5144945E+03  (-0.4759742E+03)
 number of electron     100.0000000 magnetization      10.0000000
 augmentation part      100.0000000 magnetization      10.0000000

 Free energy of the ion-electron system (eV)
  ---------------------------------------------------
  alpha Z        PSCENC =         4.14887633
  Ewald energy   TEWEN  =     12700.11004743
  -Hartree energ DENC   =    -22550.99200906
  -exchange      EXHF   =         0.00000000
  -V(xc)+E(xc)   XCENC  =       304.70611085
  PAW double counting   =      9628.33173603   -10296.70712275
  entropy T*S    EENTRO =        -0.00045179
  eigenvalues    EBANDS =      -441.35296430
  atomic energy  EATOM  =     10776.63837129
  Solvation  Ediel_sol  =         0.00000000
  ---------------------------------------------------
  free energy    TOTEN  =       124.88259404 eV

  energy without entropy =      124.88304583  energy(sigma->0) =      124.88274463


--------------------------------------------------------------------------------------------------------




--------------------------------------- Iteration      1(   3)  ---------------------------------------


     EDDAV:  cpu time    5.6247: real time    5.6342
       DOS:  cpu time    0.0075: real time    0.0075
    --------------------------------------------
      LOOP:  cpu time    5.6323: real time    5.6417

 eigenvalue-minimisations  :   320
 total energy-change (2. order) :-0.1517783E+03  (-0.1416140E+03)
 number of electron     100.0000000 magnetization      10.0000000
 augmentation part      100.0000000 magnetization      10.0000000

 Free energy of the ion-electron system (eV)
  ---------------------------------------------------
  alpha Z        PSCENC =         4.14887633
  Ewald energy   TEWEN  =     12700.11004743
  -Hartree energ DENC   =    -22550.99200906
  -exchange      EXHF   =         0.00000000
  -V(xc)+E(xc)   XCENC  =       304.70611085
  PAW double counting   =      9628.33173603   -10296.70712275
  entropy T*S    EENTRO =        -0.00580590
  eigenvalues    EBANDS =      -593.12592752
  atomic energy  EATOM  =     10776.63837129
  Solvation  Ediel_sol  =         0.00000000
  ---------------------------------------------------
  free energy    TOTEN  =       -26.89572328 eV

  energy without entropy =      -26.88991739  energy(sigma->0) =      -26.89378798


--------------------------------------------------------------------------------------------------------




--------------------------------------- Iteration      1(   4)  ---------------------------------------


     EDDAV:  cpu time    5.1865: real time    5.1954
       DOS:  cpu time    0.0057: real time    0.0057
    --------------------------------------------
      LOOP:  cpu time    5.1922: real time    5.2011

 eigenvalue-minimisations  :   287
 total energy-change (2. order) :-0.1423917E+02  (-0.1271147E+02)
 number of electron     100.0000000 magnetization      10.0000000
 augmentation part      100.0000000 magnetization      10.0000000

 Free energy of the ion-electron system (eV)
  ---------------------------------------------------
  alpha Z        PSCENC =         4.14887633
  Ewald energy   TEWEN  =     12700.11004743
  -Hartree energ DENC   =    -22550.99200906
  -exchange      EXHF   =         0.00000000
  -V(xc)+E(xc)   XCENC  =       304.70611085
  PAW double counting   =      9628.33173603   -10296.70712275
  entropy T*S    EENTRO =        -0.01098474
  eigenvalues    EBANDS =      -607.35992027
  atomic energy  EATOM  =     10776.63837129
  Solvation  Ediel_sol  =         0.00000000
  ---------------------------------------------------
  free energy    TOTEN  =       -41.13489488 eV

  energy without entropy =      -41.12391014  energy(sigma->0) =      -41.13123330


--------------------------------------------------------------------------------------------------------




--------------------------------------- Iteration      1(   5)  ---------------------------------------


     EDDAV:  cpu time    5.5388: real time    5.5511
       DOS:  cpu time    0.0052: real time    0.0052
    CHARGE:  cpu time    0.6447: real time    0.6454
    MIXING:  cpu time    0.0451: real time    0.0451
    --------------------------------------------
      LOOP:  cpu time    6.2338: real time    6.2468

 eigenvalue-minimisations  :   318
 total energy-change (2. order) :-0.3504632E+00  (-0.3399842E+00)
 number of electron      99.9999937 magnetization       9.9963543
 augmentation part       59.3008353 magnetization       7.6664048

 Broyden mixing:
  rms(total) = 0.20341E+01    rms(broyden)= 0.20331E+01
  rms(prec ) = 0.21358E+01
  weight for this iteration     100.00

 Free energy of the ion-electron system (eV)
  ---------------------------------------------------
  alpha Z        PSCENC =         4.14887633
  Ewald energy   TEWEN  =     12700.11004743
  -Hartree energ DENC   =    -22550.99200906
  -exchange      EXHF   =         0.00000000
  -V(xc)+E(xc)   XCENC  =       304.70611085
  PAW double counting   =      9628.33173603   -10296.70712275
  entropy T*S    EENTRO =        -0.00646429
  eigenvalues    EBANDS =      -607.71490396
  atomic energy  EATOM  =     10776.63837129
  Solvation  Ediel_sol  =         0.00000000
  ---------------------------------------------------
  free energy    TOTEN  =       -41.48535813 eV

  energy without entropy =      -41.47889383  energy(sigma->0) =      -41.48320336


--------------------------------------------------------------------------------------------------------




--------------------------------------- Iteration      1(   6)  ---------------------------------------


    POTLOK:  cpu time    2.3914: real time    2.3949
    SETDIJ:  cpu time    0.0244: real time    0.0244
     EDDAV:  cpu time    5.3796: real time    5.3882
       DOS:  cpu time    0.0073: real time    0.0073
    CHARGE:  cpu time    0.6317: real time    0.6348
    MIXING:  cpu time    0.0468: real time    0.0469
    --------------------------------------------
      LOOP:  cpu time    8.4813: real time    8.4965

 eigenvalue-minimisations  :   304
 total energy-change (2. order) :-0.3713996E+01  (-0.5392642E+01)
 number of electron      99.9999914 magnetization       9.9381857
 augmentation part       63.9325710 magnetization       8.5462122

 Broyden mixing:
  rms(total) = 0.46585E+01    rms(broyden)= 0.46579E+01
  rms(prec ) = 0.48953E+01
  weight for this iteration     100.00

 eigenvalues of (default mixing * dielectric matrix)
  average eigenvalue GAMMA=   0.2041
  0.2041

 Free energy of the ion-electron system (eV)
  ---------------------------------------------------
  alpha Z        PSCENC =         4.14887633
  Ewald energy   TEWEN  =     12700.11004743
  -Hartree energ DENC   =    -22443.87148609
  -exchange      EXHF   =         0.00000000
  -V(xc)+E(xc)   XCENC  =       297.96008439
  PAW double counting   =      9934.78833451   -10577.44252504
  entropy T*S    EENTRO =         0.00673818
  eigenvalues    EBANDS =      -737.53779524
  atomic energy  EATOM  =     10776.63837129
  Solvation  Ediel_sol  =         0.00000000
  ---------------------------------------------------
  free energy    TOTEN  =       -45.19935425 eV

  energy without entropy =      -45.20609242  energy(sigma->0) =      -45.20160031


--------------------------------------------------------------------------------------------------------




--------------------------------------- Iteration      1(   7)  ---------------------------------------


    POTLOK:  cpu time    2.4441: real time    2.4536
    SETDIJ:  cpu time    0.0240: real time    0.0240
     EDDAV:  cpu time    5.0921: real time    5.0982
       DOS:  cpu time    0.0088: real time    0.0088
    CHARGE:  cpu time    0.6287: real time    0.6294
    MIXING:  cpu time    0.0453: real time    0.0453
    --------------------------------------------
      LOOP:  cpu time    8.2431: real time    8.2594

 eigenvalue-minimisations  :   280
 total energy-change (2. order) : 0.5016122E+01  (-0.4572902E+01)
 number of electron      99.9999913 magnetization       9.8550183
 augmentation part       64.6631307 magnetization       8.4719021

 Broyden mixing:
  rms(total) = 0.28699E+01    rms(broyden)= 0.28685E+01
  rms(prec ) = 0.30115E+01
  weight for this iteration     100.00

 eigenvalues of (default mixing * dielectric matrix)
  average eigenvalue GAMMA=   0.2527
  0.3429  0.1626

 Free energy of the ion-electron system (eV)
  ---------------------------------------------------
  alpha Z        PSCENC =         4.14887633
  Ewald energy   TEWEN  =     12700.11004743
  -Hartree energ DENC   =    -22460.64413407
  -exchange      EXHF   =         0.00000000
  -V(xc)+E(xc)   XCENC  =       298.50122839
  PAW double counting   =     10021.15760307   -10670.65116817
  entropy T*S    EENTRO =        -0.01220051
  eigenvalues    EBANDS =      -709.43185632
  atomic energy  EATOM  =     10776.63837129
  Solvation  Ediel_sol  =         0.00000000
  ---------------------------------------------------
  free energy    TOTEN  =       -40.18323257 eV

  energy without entropy =      -40.17103205  energy(sigma->0) =      -40.17916573


--------------------------------------------------------------------------------------------------------




--------------------------------------- Iteration      1(   8)  ---------------------------------------


    POTLOK:  cpu time    2.4526: real time    2.4554
    SETDIJ:  cpu time    0.0235: real time    0.0236
     EDDAV:  cpu time    5.4803: real time    5.4867
       DOS:  cpu time    0.0091: real time    0.0091
    CHARGE:  cpu time    0.6242: real time    0.6249
    MIXING:  cpu time    0.0477: real time    0.0477
    --------------------------------------------
      LOOP:  cpu time    8.6374: real time    8.6474

 eigenvalue-minimisations  :   311
 total energy-change (2. order) : 0.6594781E+00  (-0.2847380E+01)
 number of electron      99.9999983 magnetization       9.8138150
 augmentation part       62.9471532 magnetization       7.7235125

 Broyden mixing:
  rms(total) = 0.33501E+01    rms(broyden)= 0.33496E+01
  rms(prec ) = 0.35359E+01
  weight for this iteration     100.00

 eigenvalues of (default mixing * dielectric matrix)
  average eigenvalue GAMMA=   0.2895
  0.5684  0.1500  0.1500

 Free energy of the ion-electron system (eV)
  ---------------------------------------------------
  alpha Z        PSCENC =         4.14887633
  Ewald energy   TEWEN  =     12700.11004743
  -Hartree energ DENC   =    -22508.22981927
  -exchange      EXHF   =         0.00000000
  -V(xc)+E(xc)   XCENC  =       299.72713494
  PAW double counting   =     10156.53016285   -10817.92291578
  entropy T*S    EENTRO =        -0.05031995
  eigenvalues    EBANDS =      -650.47529227
  atomic energy  EATOM  =     10776.63837129
  Solvation  Ediel_sol  =         0.00000000
  ---------------------------------------------------
  free energy    TOTEN  =       -39.52375443 eV

  energy without entropy =      -39.47343449  energy(sigma->0) =      -39.50698112


--------------------------------------------------------------------------------------------------------




--------------------------------------- Iteration      1(   9)  ---------------------------------------


    POTLOK:  cpu time    2.4483: real time    2.4581
    SETDIJ:  cpu time    0.0237: real time    0.0237
     EDDAV:  cpu time    6.0715: real time    6.0819
       DOS:  cpu time    0.0076: real time    0.0076
    CHARGE:  cpu time    0.6382: real time    0.6389
    MIXING:  cpu time    0.0579: real time    0.0580
    --------------------------------------------
      LOOP:  cpu time    9.2471: real time    9.2682

 eigenvalue-minimisations  :   359
 total energy-change (2. order) : 0.3455607E+01  (-0.1103773E+01)
 number of electron      99.9999949 magnetization       9.7926633
 augmentation part       62.6271630 magnetization       7.5577654

 Broyden mixing:
  rms(total) = 0.15294E+01    rms(broyden)= 0.15285E+01
  rms(prec ) = 0.16218E+01
  weight for this iteration     100.00

 eigenvalues of (default mixing * dielectric matrix)
  average eigenvalue GAMMA=   0.2911
  0.6324  0.2129  0.1597  0.1597

 Free energy of the ion-electron system (eV)
  ---------------------------------------------------
  alpha Z        PSCENC =         4.14887633
  Ewald energy   TEWEN  =     12700.11004743
  -Hartree energ DENC   =    -22535.74792688
  -exchange      EXHF   =         0.00000000
  -V(xc)+E(xc)   XCENC  =       300.31997042
  PAW double counting   =     10258.03568183   -10927.20132421
  entropy T*S    EENTRO =        -0.04335561
  eigenvalues    EBANDS =      -612.32848822
  atomic energy  EATOM  =     10776.63837129
  Solvation  Ediel_sol  =         0.00000000
  ---------------------------------------------------
  free energy    TOTEN  =       -36.06814762 eV

  energy without entropy =      -36.02479201  energy(sigma->0) =      -36.05369575


--------------------------------------------------------------------------------------------------------




--------------------------------------- Iteration      1(  10)  ---------------------------------------


    POTLOK:  cpu time    2.4545: real time    2.4587
    SETDIJ:  cpu time    0.0239: real time    0.0240
     EDDAV:  cpu time    6.2722: real time    6.2842
       DOS:  cpu time    0.0079: real time    0.0079
    CHARGE:  cpu time    0.6339: real time    0.6346
    MIXING:  cpu time    0.0570: real time    0.0571
    --------------------------------------------
      LOOP:  cpu time    9.4495: real time    9.4665

 eigenvalue-minimisations  :   375
 total energy-change (2. order) :-0.1026083E+01  (-0.7835704E+00)
 number of electron      99.9999901 magnetization       9.7468674
 augmentation part       62.3718927 magnetization       7.5962689

 Broyden mixing:
  rms(total) = 0.26784E+01    rms(broyden)= 0.26773E+01
  rms(prec ) = 0.28348E+01
  weight for this iteration     100.00

 eigenvalues of (default mixing * dielectric matrix)
  average eigenvalue GAMMA=   0.3778
  1.0169  0.4681  0.1494  0.1494  0.1051

 Free energy of the ion-electron system (eV)
  ---------------------------------------------------
  alpha Z        PSCENC =         4.14887633
  Ewald energy   TEWEN  =     12700.11004743
  -Hartree energ DENC   =    -22544.68577161
  -exchange      EXHF   =         0.00000000
  -V(xc)+E(xc)   XCENC  =       300.44321217
  PAW double counting   =     10318.01987707   -10990.15856700
  entropy T*S    EENTRO =         0.01239310
  eigenvalues    EBANDS =      -601.62266924
  atomic energy  EATOM  =     10776.63837129
  Solvation  Ediel_sol  =         0.00000000
  ---------------------------------------------------
  free energy    TOTEN  =       -37.09423046 eV

  energy without entropy =      -37.10662357  energy(sigma->0) =      -37.09836150


--------------------------------------------------------------------------------------------------------




--------------------------------------- Iteration      1(  11)  ---------------------------------------


    POTLOK:  cpu time    2.4427: real time    2.4505
    SETDIJ:  cpu time    0.0258: real time    0.0258
     EDDAV:  cpu time    5.9920: real time    6.0039
       DOS:  cpu time    0.0037: real time    0.0037
    CHARGE:  cpu time    0.6260: real time    0.6266
    MIXING:  cpu time    0.0641: real time    0.0641
    --------------------------------------------
      LOOP:  cpu time    9.1543: real time    9.1746

 eigenvalue-minimisations  :   351
 total energy-change (2. order) : 0.7491592E+00  (-0.6972300E+00)
 number of electron      99.9999917 magnetization       9.7425118
 augmentation part       61.9246259 magnetization       7.3809439

 Broyden mixing:
  rms(total) = 0.23445E+01    rms(broyden)= 0.23434E+01
  rms(prec ) = 0.24795E+01
  weight for this iteration     100.00

 eigenvalues of (default mixing * dielectric matrix)
  average eigenvalue GAMMA=   0.3498
  1.0997  0.4956  0.1550  0.1550  0.1209  0.0723

 Free energy of the ion-electron system (eV)
  ---------------------------------------------------
  alpha Z        PSCENC =         4.14887633
  Ewald energy   TEWEN  =     12700.11004743
  -Hartree energ DENC   =    -22557.63228449
  -exchange      EXHF   =         0.00000000
  -V(xc)+E(xc)   XCENC  =       300.69024319
  PAW double counting   =     10427.36601281   -11104.40735355
  entropy T*S    EENTRO =        -0.03411522
  eigenvalues    EBANDS =      -583.22486901
  atomic energy  EATOM  =     10776.63837129
  Solvation  Ediel_sol  =         0.00000000
  ---------------------------------------------------
  free energy    TOTEN  =       -36.34507122 eV

  energy without entropy =      -36.31095600  energy(sigma->0) =      -36.33369948


--------------------------------------------------------------------------------------------------------




--------------------------------------- Iteration      1(  12)  ---------------------------------------


    POTLOK:  cpu time    2.4461: real time    2.4514
    SETDIJ:  cpu time    0.0240: real time    0.0240
     EDDAV:  cpu time    5.0269: real time    5.0334
       DOS:  cpu time    0.0037: real time    0.0037
    CHARGE:  cpu time    0.6265: real time    0.6272
    MIXING:  cpu time    0.0715: real time    0.0715
    --------------------------------------------
      LOOP:  cpu time    8.1987: real time    8.2113

 eigenvalue-minimisations  :   279
 total energy-change (2. order) : 0.8878401E+00  (-0.2674549E+00)
 number of electron      99.9999953 magnetization       9.7401508
 augmentation part       62.0569590 magnetization       7.4861123

 Broyden mixing:
  rms(total) = 0.99093E+00    rms(broyden)= 0.98992E+00
  rms(prec ) = 0.10503E+01
  weight for this iteration     100.00

 eigenvalues of (default mixing * dielectric matrix)
  average eigenvalue GAMMA=   0.3289
  1.1574  0.4292  0.1769  0.1769  0.1735  0.0954  0.0928

 Free energy of the ion-electron system (eV)
  ---------------------------------------------------
  alpha Z        PSCENC =         4.14887633
  Ewald energy   TEWEN  =     12700.11004743
  -Hartree energ DENC   =    -22555.68989953
  -exchange      EXHF   =         0.00000000
  -V(xc)+E(xc)   XCENC  =       300.59013550
  PAW double counting   =     10447.39233669   -11124.79927963
  entropy T*S    EENTRO =        -0.05991359
  eigenvalues    EBANDS =      -583.78790561
  atomic energy  EATOM  =     10776.63837129
  Solvation  Ediel_sol  =         0.00000000
  ---------------------------------------------------
  free energy    TOTEN  =       -35.45723111 eV

  energy without entropy =      -35.39731752  energy(sigma->0) =      -35.43725992


--------------------------------------------------------------------------------------------------------




--------------------------------------- Iteration      1(  13)  ---------------------------------------


    POTLOK:  cpu time    2.4384: real time    2.4452
    SETDIJ:  cpu time    0.0246: real time    0.0246
     EDDAV:  cpu time    6.0523: real time    6.0596
       DOS:  cpu time    0.0057: real time    0.0057
    CHARGE:  cpu time    0.6288: real time    0.6295
    MIXING:  cpu time    0.0840: real time    0.0841
    --------------------------------------------
      LOOP:  cpu time    9.2336: real time    9.2485

 eigenvalue-minimisations  :   360
 total energy-change (2. order) :-0.1095319E+00  (-0.1380276E+00)
 number of electron      99.9999917 magnetization       9.7287865
 augmentation part       62.1026241 magnetization       7.5183882

 Broyden mixing:
  rms(total) = 0.10019E+01    rms(broyden)= 0.10014E+01
  rms(prec ) = 0.10566E+01
  weight for this iteration     100.00

 eigenvalues of (default mixing * dielectric matrix)
  average eigenvalue GAMMA=   0.3936
  1.4393  0.5669  0.5669  0.1538  0.1538  0.1148  0.0869  0.0664

 Free energy of the ion-electron system (eV)
  ---------------------------------------------------
  alpha Z        PSCENC =         4.14887633
  Ewald energy   TEWEN  =     12700.11004743
  -Hartree energ DENC   =    -22555.03307566
  -exchange      EXHF   =         0.00000000
  -V(xc)+E(xc)   XCENC  =       300.48730756
  PAW double counting   =     10458.99338931   -11136.57006929
  entropy T*S    EENTRO =        -0.01800123
  eigenvalues    EBANDS =      -584.32360870
  atomic energy  EATOM  =     10776.63837129
  Solvation  Ediel_sol  =         0.00000000
  ---------------------------------------------------
  free energy    TOTEN  =       -35.56676297 eV

  energy without entropy =      -35.54876173  energy(sigma->0) =      -35.56076256


--------------------------------------------------------------------------------------------------------




--------------------------------------- Iteration      1(  14)  ---------------------------------------


    POTLOK:  cpu time    2.4371: real time    2.4435
    SETDIJ:  cpu time    0.0248: real time    0.0248
     EDDAV:  cpu time    6.0291: real time    6.0360
       DOS:  cpu time    0.0057: real time    0.0057
    CHARGE:  cpu time    0.6271: real time    0.6277
    MIXING:  cpu time    0.0847: real time    0.0848
    --------------------------------------------
      LOOP:  cpu time    9.2085: real time    9.2226

 eigenvalue-minimisations  :   359
 total energy-change (2. order) :-0.2906405E-01  (-0.9034716E-01)
 number of electron      99.9999945 magnetization       9.7237471
 augmentation part       62.2730897 magnetization       7.5568981

 Broyden mixing:
  rms(total) = 0.91813E+00    rms(broyden)= 0.91759E+00
  rms(prec ) = 0.96722E+00
  weight for this iteration     100.00

 eigenvalues of (default mixing * dielectric matrix)
  average eigenvalue GAMMA=   0.3752
  1.5258  0.5584  0.5584  0.1579  0.1579  0.1460  0.1208  0.0848  0.0671

 Free energy of the ion-electron system (eV)
  ---------------------------------------------------
  alpha Z        PSCENC =         4.14887633
  Ewald energy   TEWEN  =     12700.11004743
  -Hartree energ DENC   =    -22553.92520020
  -exchange      EXHF   =         0.00000000
  -V(xc)+E(xc)   XCENC  =       300.24261354
  PAW double counting   =     10498.21792505   -11176.19656758
  entropy T*S    EENTRO =        -0.00906121
  eigenvalues    EBANDS =      -584.82283167
  atomic energy  EATOM  =     10776.63837129
  Solvation  Ediel_sol  =         0.00000000
  ---------------------------------------------------
  free energy    TOTEN  =       -35.59582702 eV

  energy without entropy =      -35.58676581  energy(sigma->0) =      -35.59280662


--------------------------------------------------------------------------------------------------------




--------------------------------------- Iteration      1(  15)  ---------------------------------------


    POTLOK:  cpu time    2.4374: real time    2.4429
    SETDIJ:  cpu time    0.0241: real time    0.0242
     EDDAV:  cpu time    5.1667: real time    5.1726
       DOS:  cpu time    0.0014: real time    0.0014
    CHARGE:  cpu time    0.6216: real time    0.6223
    MIXING:  cpu time    0.0862: real time    0.0863
    --------------------------------------------
      LOOP:  cpu time    8.3375: real time    8.3497

 eigenvalue-minimisations  :   288
 total energy-change (2. order) : 0.1094969E-01  (-0.6396364E-01)
 number of electron      99.9999922 magnetization       9.7144155
 augmentation part       62.3183349 magnetization       7.5762767

 Broyden mixing:
  rms(total) = 0.89736E+00    rms(broyden)= 0.89706E+00
  rms(prec ) = 0.95216E+00
  weight for this iteration     100.00

 eigenvalues of (default mixing * dielectric matrix)
  average eigenvalue GAMMA=   0.3761
  1.5703  0.5740  0.5740  0.3928  0.1574  0.1574  0.1133  0.0799  0.0799  0.0615

 Free energy of the ion-electron system (eV)
  ---------------------------------------------------
  alpha Z        PSCENC =         4.14887633
  Ewald energy   TEWEN  =     12700.11004743
  -Hartree energ DENC   =    -22554.47921331
  -exchange      EXHF   =         0.00000000
  -V(xc)+E(xc)   XCENC  =       300.21189837
  PAW double counting   =     10506.05414440   -11184.12391875
  entropy T*S    EENTRO =        -0.02894788
  eigenvalues    EBANDS =      -584.11613522
  atomic energy  EATOM  =     10776.63837129
  Solvation  Ediel_sol  =         0.00000000
  ---------------------------------------------------
  free energy    TOTEN  =       -35.58487733 eV

  energy without entropy =      -35.55592945  energy(sigma->0) =      -35.57522804


--------------------------------------------------------------------------------------------------------




--------------------------------------- Iteration      1(  16)  ---------------------------------------


    POTLOK:  cpu time    2.4232: real time    2.4338
    SETDIJ:  cpu time    0.0239: real time    0.0239
     EDDAV:  cpu time    5.9896: real time    5.9988
       DOS:  cpu time    0.0042: real time    0.0042
    CHARGE:  cpu time    0.6306: real time    0.6313
    MIXING:  cpu time    0.0929: real time    0.0930
    --------------------------------------------
      LOOP:  cpu time    9.1644: real time    9.1850

 eigenvalue-minimisations  :   350
 total energy-change (2. order) : 0.3853798E-01  (-0.2820573E-01)
 number of electron      99.9999917 magnetization       9.7118495
 augmentation part       62.3680585 magnetization       7.5327191

 Broyden mixing:
  rms(total) = 0.64582E+00    rms(broyden)= 0.64552E+00
  rms(prec ) = 0.67846E+00
  weight for this iteration     100.00

 eigenvalues of (default mixing * dielectric matrix)
  average eigenvalue GAMMA=   0.3603
  1.6117  0.5988  0.5988  0.3946  0.1547  0.1547  0.1156  0.0985  0.0985  0.0689
  0.0689

 Free energy of the ion-electron system (eV)
  ---------------------------------------------------
  alpha Z        PSCENC =         4.14887633
  Ewald energy   TEWEN  =     12700.11004743
  -Hartree energ DENC   =    -22556.09746431
  -exchange      EXHF   =         0.00000000
  -V(xc)+E(xc)   XCENC  =       300.12474794
  PAW double counting   =     10514.25990970   -11192.28850249
  entropy T*S    EENTRO =        -0.02584111
  eigenvalues    EBANDS =      -582.41648412
  atomic energy  EATOM  =     10776.63837129
  Solvation  Ediel_sol  =         0.00000000
  ---------------------------------------------------
  free energy    TOTEN  =       -35.54633936 eV

  energy without entropy =      -35.52049824  energy(sigma->0) =      -35.53772565


--------------------------------------------------------------------------------------------------------




--------------------------------------- Iteration      1(  17)  ---------------------------------------


    POTLOK:  cpu time    2.4275: real time    2.4333
    SETDIJ:  cpu time    0.0243: real time    0.0243
     EDDAV:  cpu time    5.7564: real time    5.7662
       DOS:  cpu time    0.0042: real time    0.0042
    CHARGE:  cpu time    0.6247: real time    0.6254
    MIXING:  cpu time    0.1047: real time    0.1048
    --------------------------------------------
      LOOP:  cpu time    8.9418: real time    8.9582

 eigenvalue-minimisations  :   336
 total energy-change (2. order) : 0.2072860E-01  (-0.1712943E-01)
 number of electron      99.9999921 magnetization       9.7080675
 augmentation part       62.3943520 magnetization       7.5258315

 Broyden mixing:
  rms(total) = 0.43422E+00    rms(broyden)= 0.43399E+00
  rms(prec ) = 0.45601E+00
  weight for this iteration     100.00

 eigenvalues of (default mixing * dielectric matrix)
  average eigenvalue GAMMA=   0.3805
  1.6932  0.6672  0.6672  0.4052  0.4052  0.1573  0.1573  0.1122  0.0899  0.0737
  0.0737  0.0632

 Free energy of the ion-electron system (eV)
  ---------------------------------------------------
  alpha Z        PSCENC =         4.14887633
  Ewald energy   TEWEN  =     12700.11004743
  -Hartree energ DENC   =    -22556.74822585
  -exchange      EXHF   =         0.00000000
  -V(xc)+E(xc)   XCENC  =       300.09910357
  PAW double counting   =     10518.10082873   -11196.16356133
  entropy T*S    EENTRO =        -0.02880081
  eigenvalues    EBANDS =      -581.68225011
  atomic energy  EATOM  =     10776.63837129
  Solvation  Ediel_sol  =         0.00000000
  ---------------------------------------------------
  free energy    TOTEN  =       -35.52561076 eV

  energy without entropy =      -35.49680995  energy(sigma->0) =      -35.51601049


--------------------------------------------------------------------------------------------------------




--------------------------------------- Iteration      1(  18)  ---------------------------------------


    POTLOK:  cpu time    2.4273: real time    2.4337
    SETDIJ:  cpu time    0.0239: real time    0.0239
     EDDAV:  cpu time    6.1784: real time    6.1876
       DOS:  cpu time    0.0050: real time    0.0050
    CHARGE:  cpu time    0.6218: real time    0.6224
    MIXING:  cpu time    0.1068: real time    0.1069
    --------------------------------------------
      LOOP:  cpu time    9.3632: real time    9.3796

 eigenvalue-minimisations  :   367
 total energy-change (2. order) :-0.1222976E-01  (-0.9442994E-02)
 number of electron      99.9999923 magnetization       9.7051252
 augmentation part       62.4168153 magnetization       7.5311118

 Broyden mixing:
  rms(total) = 0.25421E+00    rms(broyden)= 0.25401E+00
  rms(prec ) = 0.26649E+00
  weight for this iteration     100.00

 eigenvalues of (default mixing * dielectric matrix)
  average eigenvalue GAMMA=   0.3857
  1.7415  0.7468  0.7468  0.3613  0.3613  0.3291  0.1569  0.1569  0.1120  0.0861
  0.0830  0.0665  0.0665

 Free energy of the ion-electron system (eV)
  ---------------------------------------------------
  alpha Z        PSCENC =         4.14887633
  Ewald energy   TEWEN  =     12700.11004743
  -Hartree energ DENC   =    -22558.29315873
  -exchange      EXHF   =         0.00000000
  -V(xc)+E(xc)   XCENC  =       300.05407035
  PAW double counting   =     10525.96419162   -11204.08019690
  entropy T*S    EENTRO =        -0.03190059
  eigenvalues    EBANDS =      -580.04814131
  atomic energy  EATOM  =     10776.63837129
  Solvation  Ediel_sol  =         0.00000000
  ---------------------------------------------------
  free energy    TOTEN  =       -35.53784052 eV

  energy without entropy =      -35.50593993  energy(sigma->0) =      -35.52720699


--------------------------------------------------------------------------------------------------------




--------------------------------------- Iteration      1(  19)  ---------------------------------------


    POTLOK:  cpu time    2.4201: real time    2.4245
    SETDIJ:  cpu time    0.0241: real time    0.0241
     EDDAV:  cpu time    5.6129: real time    5.6200
       DOS:  cpu time    0.0049: real time    0.0049
    CHARGE:  cpu time    0.6286: real time    0.6293
    MIXING:  cpu time    0.1177: real time    0.1179
    --------------------------------------------
      LOOP:  cpu time    8.8083: real time    8.8206

 eigenvalue-minimisations  :   320
 total energy-change (2. order) :-0.3838635E-01  (-0.9032666E-02)
 number of electron      99.9999922 magnetization       9.6967497
 augmentation part       62.4189497 magnetization       7.5223623

 Broyden mixing:
  rms(total) = 0.35737E+00    rms(broyden)= 0.35714E+00
  rms(prec ) = 0.37504E+00
  weight for this iteration     100.00

 eigenvalues of (default mixing * dielectric matrix)
  average eigenvalue GAMMA=   0.4247
  1.9894  0.8538  0.7062  0.7062  0.4348  0.4348  0.1570  0.1570  0.1116  0.0943
  0.0840  0.0840  0.0675  0.0656

 Free energy of the ion-electron system (eV)
  ---------------------------------------------------
  alpha Z        PSCENC =         4.14887633
  Ewald energy   TEWEN  =     12700.11004743
  -Hartree energ DENC   =    -22559.93294890
  -exchange      EXHF   =         0.00000000
  -V(xc)+E(xc)   XCENC  =       300.04394050
  PAW double counting   =     10529.32503940   -11207.51462474
  entropy T*S    EENTRO =        -0.02043899
  eigenvalues    EBANDS =      -578.37448918
  atomic energy  EATOM  =     10776.63837129
  Solvation  Ediel_sol  =         0.00000000
  ---------------------------------------------------
  free energy    TOTEN  =       -35.57622686 eV

  energy without entropy =      -35.55578788  energy(sigma->0) =      -35.56941387


--------------------------------------------------------------------------------------------------------




--------------------------------------- Iteration      1(  20)  ---------------------------------------


    POTLOK:  cpu time    2.4185: real time    2.4254
    SETDIJ:  cpu time    0.0244: real time    0.0244
     EDDAV:  cpu time    5.6025: real time    5.6095
       DOS:  cpu time    0.0044: real time    0.0044
    CHARGE:  cpu time    0.6209: real time    0.6216
    MIXING:  cpu time    0.1215: real time    0.1217
    --------------------------------------------
      LOOP:  cpu time    8.7922: real time    8.8069

 eigenvalue-minimisations  :   326
 total energy-change (2. order) :-0.2878160E-01  (-0.8297231E-02)
 number of electron      99.9999925 magnetization       9.6996159
 augmentation part       62.4187473 magnetization       7.5005683

 Broyden mixing:
  rms(total) = 0.20220E+00    rms(broyden)= 0.20194E+00
  rms(prec ) = 0.21263E+00
  weight for this iteration     100.00

 eigenvalues of (default mixing * dielectric matrix)
  average eigenvalue GAMMA=   0.4616
  2.1493  0.9047  0.9047  0.5385  0.5385  0.5332  0.5332  0.1571  0.1571  0.1120
  0.0936  0.0845  0.0845  0.0671  0.0657

 Free energy of the ion-electron system (eV)
  ---------------------------------------------------
  alpha Z        PSCENC =         4.14887633
  Ewald energy   TEWEN  =     12700.11004743
  -Hartree energ DENC   =    -22564.53554130
  -exchange      EXHF   =         0.00000000
  -V(xc)+E(xc)   XCENC  =       300.05880669
  PAW double counting   =     10536.34699692   -11214.67687351
  entropy T*S    EENTRO =        -0.02809046
  eigenvalues    EBANDS =      -573.66760185
  atomic energy  EATOM  =     10776.63837129
  Solvation  Ediel_sol  =         0.00000000
  ---------------------------------------------------
  free energy    TOTEN  =       -35.60500846 eV

  energy without entropy =      -35.57691800  energy(sigma->0) =      -35.59564498


--------------------------------------------------------------------------------------------------------




--------------------------------------- Iteration      1(  21)  ---------------------------------------


    POTLOK:  cpu time    2.4171: real time    2.4324
    SETDIJ:  cpu time    0.0240: real time    0.0240
     EDDAV:  cpu time    6.0934: real time    6.1052
       DOS:  cpu time    0.0042: real time    0.0042
    CHARGE:  cpu time    0.6237: real time    0.6244
    MIXING:  cpu time    0.1351: real time    0.1352
    --------------------------------------------
      LOOP:  cpu time    9.2975: real time    9.3255

 eigenvalue-minimisations  :   359
 total energy-change (2. order) :-0.3480827E-01  (-0.8587200E-02)
 number of electron      99.9999928 magnetization       9.7004206
 augmentation part       62.4625068 magnetization       7.5349550

 Broyden mixing:
  rms(total) = 0.29041E+00    rms(broyden)= 0.29020E+00
  rms(prec ) = 0.30475E+00
  weight for this iteration     100.00

 eigenvalues of (default mixing * dielectric matrix)
  average eigenvalue GAMMA=   0.4507
  2.1910  0.9345  0.9345  0.5617  0.5617  0.5411  0.5411  0.1571  0.1571  0.1212
  0.1116  0.0961  0.0845  0.0845  0.0671  0.0657

 Free energy of the ion-electron system (eV)
  ---------------------------------------------------
  alpha Z        PSCENC =         4.14887633
  Ewald energy   TEWEN  =     12700.11004743
  -Hartree energ DENC   =    -22566.20905605
  -exchange      EXHF   =         0.00000000
  -V(xc)+E(xc)   XCENC  =       300.03627950
  PAW double counting   =     10536.23975384   -11214.48350246
  entropy T*S    EENTRO =        -0.02275185
  eigenvalues    EBANDS =      -572.09783475
  atomic energy  EATOM  =     10776.63837129
  Solvation  Ediel_sol  =         0.00000000
  ---------------------------------------------------
  free energy    TOTEN  =       -35.63981673 eV

  energy without entropy =      -35.61706488  energy(sigma->0) =      -35.63223278


--------------------------------------------------------------------------------------------------------




--------------------------------------- Iteration      1(  22)  ---------------------------------------


    POTLOK:  cpu time    2.4219: real time    2.4249
    SETDIJ:  cpu time    0.0240: real time    0.0240
     EDDAV:  cpu time    5.2100: real time    5.2162
       DOS:  cpu time    0.0042: real time    0.0043
    CHARGE:  cpu time    0.6169: real time    0.6176
    MIXING:  cpu time    0.1407: real time    0.1409
    --------------------------------------------
      LOOP:  cpu time    8.4178: real time    8.4278

 eigenvalue-minimisations  :   296
 total energy-change (2. order) : 0.1186882E-01  (-0.5048666E-02)
 number of electron      99.9999924 magnetization       9.7039048
 augmentation part       62.4793190 magnetization       7.5235108

 Broyden mixing:
  rms(total) = 0.17161E+00    rms(broyden)= 0.17145E+00
  rms(prec ) = 0.18120E+00
  weight for this iteration     100.00

 eigenvalues of (default mixing * dielectric matrix)
  average eigenvalue GAMMA=   0.5078
  2.5769  1.3567  0.8266  0.8266  0.5688  0.5688  0.4939  0.4939  0.1571  0.1571
  0.1120  0.0657  0.0671  0.0845  0.0845  0.0952  0.0978

 Free energy of the ion-electron system (eV)
  ---------------------------------------------------
  alpha Z        PSCENC =         4.14887633
  Ewald energy   TEWEN  =     12700.11004743
  -Hartree energ DENC   =    -22566.68966901
  -exchange      EXHF   =         0.00000000
  -V(xc)+E(xc)   XCENC  =       300.03430704
  PAW double counting   =     10535.41871710   -11213.63287284
  entropy T*S    EENTRO =        -0.02627288
  eigenvalues    EBANDS =      -571.62945237
  atomic energy  EATOM  =     10776.63837129
  Solvation  Ediel_sol  =         0.00000000
  ---------------------------------------------------
  free energy    TOTEN  =       -35.62794792 eV

  energy without entropy =      -35.60167504  energy(sigma->0) =      -35.61919029


--------------------------------------------------------------------------------------------------------




--------------------------------------- Iteration      1(  23)  ---------------------------------------


    POTLOK:  cpu time    2.4199: real time    2.4257
    SETDIJ:  cpu time    0.0239: real time    0.0239
     EDDAV:  cpu time    5.5758: real time    5.5873
       DOS:  cpu time    0.0042: real time    0.0042
    CHARGE:  cpu time    0.6296: real time    0.6310
    MIXING:  cpu time    0.1602: real time    0.1604
    --------------------------------------------
      LOOP:  cpu time    8.8135: real time    8.8325

 eigenvalue-minimisations  :   318
 total energy-change (2. order) :-0.9430677E-02  (-0.2427138E-02)
 number of electron      99.9999924 magnetization       9.7096623
 augmentation part       62.4697029 magnetization       7.5310874

 Broyden mixing:
  rms(total) = 0.73532E-01    rms(broyden)= 0.73314E-01
  rms(prec ) = 0.77539E-01
  weight for this iteration     100.00

 eigenvalues of (default mixing * dielectric matrix)
  average eigenvalue GAMMA=   0.5489
  2.7601  1.6757  0.8928  0.8928  0.5960  0.5691  0.5691  0.5016  0.5016  0.1571
  0.1571  0.1120  0.0657  0.0671  0.0845  0.0845  0.0947  0.0990

 Free energy of the ion-electron system (eV)
  ---------------------------------------------------
  alpha Z        PSCENC =         4.14887633
  Ewald energy   TEWEN  =     12700.11004743
  -Hartree energ DENC   =    -22569.85253597
  -exchange      EXHF   =         0.00000000
  -V(xc)+E(xc)   XCENC  =       300.06053246
  PAW double counting   =     10533.95858684   -11212.29250851
  entropy T*S    EENTRO =        -0.01757031
  eigenvalues    EBANDS =      -568.39117815
  atomic energy  EATOM  =     10776.63837129
  Solvation  Ediel_sol  =         0.00000000
  ---------------------------------------------------
  free energy    TOTEN  =       -35.63737859 eV

  energy without entropy =      -35.61980828  energy(sigma->0) =      -35.63152182


--------------------------------------------------------------------------------------------------------




--------------------------------------- Iteration      1(  24)  ---------------------------------------


    POTLOK:  cpu time    2.4184: real time    2.4231
    SETDIJ:  cpu time    0.0240: real time    0.0240
     EDDAV:  cpu time    5.9239: real time    5.9310
       DOS:  cpu time    0.0102: real time    0.0102
    CHARGE:  cpu time    0.6222: real time    0.6253
    MIXING:  cpu time    0.1613: real time    0.1615
    --------------------------------------------
      LOOP:  cpu time    9.1600: real time    9.1752

 eigenvalue-minimisations  :   351
 total energy-change (2. order) :-0.1154167E-01  (-0.5984733E-03)
 number of electron      99.9999925 magnetization       9.7159782
 augmentation part       62.4480630 magnetization       7.5325273

 Broyden mixing:
  rms(total) = 0.57374E-01    rms(broyden)= 0.57304E-01
  rms(prec ) = 0.60841E-01
  weight for this iteration     100.00

 eigenvalues of (default mixing * dielectric matrix)
  average eigenvalue GAMMA=   0.5737
  2.9165  1.6542  0.9264  0.9264  0.7188  0.7188  0.5532  0.5532  0.5050  0.5050
  0.1571  0.1571  0.1120  0.0657  0.0671  0.0845  0.0845  0.0947  0.0991

 Free energy of the ion-electron system (eV)
  ---------------------------------------------------
  alpha Z        PSCENC =         4.14887633
  Ewald energy   TEWEN  =     12700.11004743
  -Hartree energ DENC   =    -22572.30993023
  -exchange      EXHF   =         0.00000000
  -V(xc)+E(xc)   XCENC  =       300.09004500
  PAW double counting   =     10530.14242383   -11208.53910993
  entropy T*S    EENTRO =        -0.01579369
  eigenvalues    EBANDS =      -565.91385028
  atomic energy  EATOM  =     10776.63837129
  Solvation  Ediel_sol  =         0.00000000
  ---------------------------------------------------
  free energy    TOTEN  =       -35.64892027 eV

  energy without entropy =      -35.63312657  energy(sigma->0) =      -35.64365570


--------------------------------------------------------------------------------------------------------




--------------------------------------- Iteration      1(  25)  ---------------------------------------


    POTLOK:  cpu time    2.4110: real time    2.4176
    SETDIJ:  cpu time    0.0237: real time    0.0237
     EDDAV:  cpu time    5.6342: real time    5.6430
       DOS:  cpu time    0.0094: real time    0.0094
    CHARGE:  cpu time    0.6320: real time    0.6327
    MIXING:  cpu time    0.1825: real time    0.1827
    --------------------------------------------
      LOOP:  cpu time    8.8929: real time    8.9092

 eigenvalue-minimisations  :   326
 total energy-change (2. order) :-0.6221604E-02  (-0.3545536E-03)
 number of electron      99.9999924 magnetization       9.7245623
 augmentation part       62.4415056 magnetization       7.5374647

 Broyden mixing:
  rms(total) = 0.39481E-01    rms(broyden)= 0.39440E-01
  rms(prec ) = 0.41996E-01
  weight for this iteration     100.00

 eigenvalues of (default mixing * dielectric matrix)
  average eigenvalue GAMMA=   0.6018
  2.9585  1.4877  1.3380  0.9358  0.9358  0.6427  0.6427  0.5840  0.5840  0.5020
  0.5020  0.1571  0.1571  0.1120  0.0657  0.0671  0.0845  0.0845  0.0947  0.0991

 Free energy of the ion-electron system (eV)
  ---------------------------------------------------
  alpha Z        PSCENC =         4.14887633
  Ewald energy   TEWEN  =     12700.11004743
  -Hartree energ DENC   =    -22573.73908312
  -exchange      EXHF   =         0.00000000
  -V(xc)+E(xc)   XCENC  =       300.10055488
  PAW double counting   =     10528.23854747   -11206.69717357
  entropy T*S    EENTRO =        -0.01433385
  eigenvalues    EBANDS =      -564.44094872
  atomic energy  EATOM  =     10776.63837129
  Solvation  Ediel_sol  =         0.00000000
  ---------------------------------------------------
  free energy    TOTEN  =       -35.65514187 eV

  energy without entropy =      -35.64080802  energy(sigma->0) =      -35.65036392


--------------------------------------------------------------------------------------------------------




--------------------------------------- Iteration      1(  26)  ---------------------------------------


    POTLOK:  cpu time    2.4165: real time    2.4202
    SETDIJ:  cpu time    0.0239: real time    0.0239
     EDDAV:  cpu time    5.3081: real time    5.3146
       DOS:  cpu time    0.0012: real time    0.0012
    CHARGE:  cpu time    0.6269: real time    0.6275
    MIXING:  cpu time    0.1937: real time    0.1939
    --------------------------------------------
      LOOP:  cpu time    8.5703: real time    8.5814

 eigenvalue-minimisations  :   302
 total energy-change (2. order) :-0.5241234E-02  (-0.1820223E-03)
 number of electron      99.9999925 magnetization       9.7335121
 augmentation part       62.4469278 magnetization       7.5476092

 Broyden mixing:
  rms(total) = 0.27829E-01    rms(broyden)= 0.27790E-01
  rms(prec ) = 0.29944E-01
  weight for this iteration     100.00

 eigenvalues of (default mixing * dielectric matrix)
  average eigenvalue GAMMA=   0.6323
  2.8941  1.7502  1.7502  0.9739  0.9739  0.5846  0.6097  0.6097  0.6019  0.6019
  0.5032  0.5032  0.1571  0.1571  0.1120  0.0657  0.0671  0.0845  0.0845  0.0947
  0.0991

 Free energy of the ion-electron system (eV)
  ---------------------------------------------------
  alpha Z        PSCENC =         4.14887633
  Ewald energy   TEWEN  =     12700.11004743
  -Hartree energ DENC   =    -22574.61890686
  -exchange      EXHF   =         0.00000000
  -V(xc)+E(xc)   XCENC  =       300.09574468
  PAW double counting   =     10525.74381333   -11204.18883996
  entropy T*S    EENTRO =        -0.01280649
  eigenvalues    EBANDS =      -563.57668286
  atomic energy  EATOM  =     10776.63837129
  Solvation  Ediel_sol  =         0.00000000
  ---------------------------------------------------
  free energy    TOTEN  =       -35.66038310 eV

  energy without entropy =      -35.64757661  energy(sigma->0) =      -35.65611427


--------------------------------------------------------------------------------------------------------




--------------------------------------- Iteration      1(  27)  ---------------------------------------


    POTLOK:  cpu time    2.3998: real time    2.4117
    SETDIJ:  cpu time    0.0237: real time    0.0237
     EDDAV:  cpu time    4.8870: real time    4.8957
       DOS:  cpu time    0.0017: real time    0.0017
    CHARGE:  cpu time    0.6260: real time    0.6266
    MIXING:  cpu time    0.2028: real time    0.2030
    --------------------------------------------
      LOOP:  cpu time    8.1410: real time    8.1624

 eigenvalue-minimisations  :   270
 total energy-change (2. order) :-0.4484747E-02  (-0.8544555E-04)
 number of electron      99.9999924 magnetization       9.7425613
 augmentation part       62.4446407 magnetization       7.5507798

 Broyden mixing:
  rms(total) = 0.14735E-01    rms(broyden)= 0.14715E-01
  rms(prec ) = 0.16261E-01
  weight for this iteration     100.00

 eigenvalues of (default mixing * dielectric matrix)
  average eigenvalue GAMMA=   0.6626
  3.1344  2.0646  1.6025  1.0029  1.0029  0.7188  0.7188  0.6232  0.6232  0.5788
  0.5788  0.5034  0.5034  0.1571  0.1571  0.1120  0.0657  0.0671  0.0845  0.0845
  0.0947  0.0991

 Free energy of the ion-electron system (eV)
  ---------------------------------------------------
  alpha Z        PSCENC =         4.14887633
  Ewald energy   TEWEN  =     12700.11004743
  -Hartree energ DENC   =    -22576.01631647
  -exchange      EXHF   =         0.00000000
  -V(xc)+E(xc)   XCENC  =       300.10101887
  PAW double counting   =     10523.59334158   -11202.04416378
  entropy T*S    EENTRO =        -0.01276934
  eigenvalues    EBANDS =      -562.18327375
  atomic energy  EATOM  =     10776.63837129
  Solvation  Ediel_sol  =         0.00000000
  ---------------------------------------------------
  free energy    TOTEN  =       -35.66486785 eV

  energy without entropy =      -35.65209851  energy(sigma->0) =      -35.66061140


--------------------------------------------------------------------------------------------------------




--------------------------------------- Iteration      1(  28)  ---------------------------------------


    POTLOK:  cpu time    2.4116: real time    2.4213
    SETDIJ:  cpu time    0.0244: real time    0.0245
     EDDAV:  cpu time    3.9114: real time    3.9186
       DOS:  cpu time    0.0016: real time    0.0016
    CHARGE:  cpu time    0.6289: real time    0.6296
    MIXING:  cpu time    0.2237: real time    0.2239
    --------------------------------------------
      LOOP:  cpu time    7.2016: real time    7.2194

 eigenvalue-minimisations  :   189
 total energy-change (2. order) :-0.2613476E-02  (-0.5423531E-04)
 number of electron      99.9999924 magnetization       9.7509191
 augmentation part       62.4453345 magnetization       7.5557960

 Broyden mixing:
  rms(total) = 0.13513E-01    rms(broyden)= 0.13488E-01
  rms(prec ) = 0.14658E-01
  weight for this iteration     100.00

 eigenvalues of (default mixing * dielectric matrix)
  average eigenvalue GAMMA=   0.6891
  3.4061  2.1426  1.5714  0.9873  0.9873  0.8460  0.8460  0.6666  0.6666  0.6015
  0.5993  0.5993  0.5036  0.5036  0.1571  0.1571  0.1120  0.0657  0.0671  0.0845
  0.0845  0.0947  0.0991

 Free energy of the ion-electron system (eV)
  ---------------------------------------------------
  alpha Z        PSCENC =         4.14887633
  Ewald energy   TEWEN  =     12700.11004743
  -Hartree energ DENC   =    -22577.23356375
  -exchange      EXHF   =         0.00000000
  -V(xc)+E(xc)   XCENC  =       300.10616095
  PAW double counting   =     10522.23612049   -11200.69028932
  entropy T*S    EENTRO =        -0.01224310
  eigenvalues    EBANDS =      -560.97096164
  atomic energy  EATOM  =     10776.63837129
  Solvation  Ediel_sol  =         0.00000000
  ---------------------------------------------------
  free energy    TOTEN  =       -35.66748133 eV

  energy without entropy =      -35.65523823  energy(sigma->0) =      -35.66340029


--------------------------------------------------------------------------------------------------------




--------------------------------------- Iteration      1(  29)  ---------------------------------------


    POTLOK:  cpu time    2.4145: real time    2.4183
    SETDIJ:  cpu time    0.0233: real time    0.0233
     EDDAV:  cpu time    3.6786: real time    3.6850
       DOS:  cpu time    0.0017: real time    0.0017
    CHARGE:  cpu time    0.6233: real time    0.6241
    MIXING:  cpu time    0.2285: real time    0.2287
    --------------------------------------------
      LOOP:  cpu time    6.9699: real time    6.9812

 eigenvalue-minimisations  :   175
 total energy-change (2. order) :-0.1115033E-02  (-0.3638045E-04)
 number of electron      99.9999925 magnetization       9.7605821
 augmentation part       62.4443101 magnetization       7.5625369

 Broyden mixing:
  rms(total) = 0.77604E-02    rms(broyden)= 0.77495E-02
  rms(prec ) = 0.87108E-02
  weight for this iteration     100.00

 eigenvalues of (default mixing * dielectric matrix)
  average eigenvalue GAMMA=   0.7149
  3.6428  2.1966  1.8112  1.0046  1.0046  0.8858  0.8858  0.6988  0.6988  0.5036
  0.5036  0.6084  0.6084  0.5914  0.5914  0.1571  0.1571  0.1120  0.0657  0.0671
  0.0845  0.0845  0.0947  0.0991

 Free energy of the ion-electron system (eV)
  ---------------------------------------------------
  alpha Z        PSCENC =         4.14887633
  Ewald energy   TEWEN  =     12700.11004743
  -Hartree energ DENC   =    -22578.15379931
  -exchange      EXHF   =         0.00000000
  -V(xc)+E(xc)   XCENC  =       300.11182147
  PAW double counting   =     10521.43990588   -11199.90726249
  entropy T*S    EENTRO =        -0.01164301
  eigenvalues    EBANDS =      -560.04491394
  atomic energy  EATOM  =     10776.63837129
  Solvation  Ediel_sol  =         0.00000000
  ---------------------------------------------------
  free energy    TOTEN  =       -35.66859636 eV

  energy without entropy =      -35.65695335  energy(sigma->0) =      -35.66471536


--------------------------------------------------------------------------------------------------------




--------------------------------------- Iteration      1(  30)  ---------------------------------------


    POTLOK:  cpu time    2.4203: real time    2.4247
    SETDIJ:  cpu time    0.0235: real time    0.0235
     EDDAV:  cpu time    3.7542: real time    3.7654
       DOS:  cpu time    0.0033: real time    0.0033
    CHARGE:  cpu time    0.6209: real time    0.6216
    MIXING:  cpu time    0.2425: real time    0.2428
    --------------------------------------------
      LOOP:  cpu time    7.0647: real time    7.0813

 eigenvalue-minimisations  :   182
 total energy-change (2. order) :-0.8442913E-03  (-0.2439813E-04)
 number of electron      99.9999925 magnetization       9.7693276
 augmentation part       62.4453470 magnetization       7.5680707

 Broyden mixing:
  rms(total) = 0.34547E-02    rms(broyden)= 0.34386E-02
  rms(prec ) = 0.42731E-02
  weight for this iteration     100.00

 eigenvalues of (default mixing * dielectric matrix)
  average eigenvalue GAMMA=   0.7352
  3.8209  2.2694  1.9629  1.0620  1.0620  0.8918  0.8918  0.5035  0.5035  0.7180
  0.7180  0.5881  0.5881  0.6250  0.6250  0.6281  0.1571  0.1571  0.1120  0.0657
  0.0671  0.0845  0.0845  0.0947  0.0991

 Free energy of the ion-electron system (eV)
  ---------------------------------------------------
  alpha Z        PSCENC =         4.14887633
  Ewald energy   TEWEN  =     12700.11004743
  -Hartree energ DENC   =    -22579.01655190
[...]
      LOOP:  cpu time    5.9558: real time    5.9722

 eigenvalue-minimisations  :   159
 total energy-change (2. order) : 0.9373016E-05  (-0.2646063E-04)
 number of electron     100.0000082 magnetization       9.9311128
 augmentation part       62.2714530 magnetization       7.6470354

 Free energy of the ion-electron system (eV)
  ---------------------------------------------------
  alpha Z        PSCENC =         4.14887633
  Ewald energy   TEWEN  =     13396.07209589
  -Hartree energ DENC   =    -23255.95946011
  -exchange      EXHF   =         0.00000000
  -V(xc)+E(xc)   XCENC  =       301.28186795
  PAW double counting   =     10796.80473268   -11478.85879553
  entropy T*S    EENTRO =        -0.00264705
  eigenvalues    EBANDS =      -576.21854389
  atomic energy  EATOM  =     10776.63837129
  Solvation  Ediel_sol  =         0.00000000
  ---------------------------------------------------
  free energy    TOTEN  =       -36.09350244 eV

  energy without entropy =      -36.09085538  energy(sigma->0) =      -36.09262009


--------------------------------------------------------------------------------------------------------




 average (electrostatic) potential at core
  the test charge radii are     0.9791
  (the norm of the test charge is              1.0000)
       1 -95.2228       2 -95.2571       3 -95.1654       4 -95.0697       5 -94.9107
       6 -94.8671       7 -94.9667       8 -95.1222       9 -95.1014      10 -95.1981
 
 
 
 E-fermi :  -3.9768     XC(G=0):  -0.2741     alpha+bet : -0.1457


 spin component 1

 k-point     1 :       0.0000    0.0000    0.0000
  band No.  band energies     occupation 
      1      -9.9803      1.00000
      2      -8.6666      1.00000
      3      -8.0936      1.00000
      4      -7.8812      1.00000
      5      -7.7561      1.00000
      6      -7.6611      1.00000
      7      -7.3623      1.00000
      8      -7.3426      1.00000
      9      -7.1973      1.00000
     10      -7.0116      1.00000
     11      -6.9601      1.00000
     12      -6.9068      1.00000
     13      -6.8787      1.00000
     14      -6.8308      1.00000
     15      -6.7836      1.00000
     16      -6.6440      1.00000
     17      -6.6159      1.00000
     18      -6.5137      1.00000
     19      -6.4202      1.00000
     20      -6.3189      1.00000
     21      -6.2093      1.00000
     22      -6.1558      1.00000
     23      -5.8977      1.00000
     24      -5.8727      1.00000
     25      -5.7759      1.00000
     26      -5.6727      1.00000
     27      -5.6514      1.00000
     28      -5.6057      1.00000
     29      -5.5432      1.00000
     30      -5.5052      1.00000
     31      -5.4594      1.00000
     32      -5.4347      1.00000
     33      -5.3765      1.00000
     34      -5.3365      1.00000
     35      -5.2932      1.00000
     36      -5.2750      1.00000
     37      -5.2281      1.00000
     38      -5.2102      1.00000
     39      -5.1911      1.00000
     40      -5.1331      1.00000
     41      -5.1216      1.00000
     42      -5.0931      1.00000
     43      -5.0398      1.00000
     44      -5.0033      1.00000
     45      -4.9955      1.00000
     46      -4.9325      1.00000
     47      -4.9302      1.00000
     48      -4.8896      1.00000
     49      -4.8646      1.00000
     50      -4.8396      1.00000
     51      -4.8021      1.00000
     52      -4.7949      1.00000
     53      -4.7293      1.00000
     54      -4.4556      1.00183
     55      -4.1236      0.97127
     56      -3.4250     -0.00034
     57      -2.9072     -0.00000
     58      -2.6212     -0.00000
     59      -2.1323     -0.00000
     60      -1.9007     -0.00000
     61      -1.6137     -0.00000
     62      -1.3697     -0.00000
     63      -1.0378     -0.00000
     64      -0.6351     -0.00000
     65      -0.4916     -0.00000

 spin component 2

 k-point     1 :       0.0000    0.0000    0.0000
  band No.  band energies     occupation 
      1      -9.8953      1.00000
      2      -8.4313      1.00000
      3      -7.6347      1.00000
      4      -7.3335      1.00000
      5      -7.1690      1.00000
      6      -6.8768      1.00000
      7      -6.6364      1.00000
      8      -6.5816      1.00000
      9      -6.4400      1.00000
     10      -6.3180      1.00000
     11      -6.2117      1.00000
     12      -6.1438      1.00000
     13      -6.0527      1.00000
     14      -5.9738      1.00000
     15      -5.9012      1.00000
     16      -5.8282      1.00000
     17      -5.6898      1.00000
     18      -5.6684      1.00000
     19      -5.5318      1.00000
     20      -5.5161      1.00000
     21      -5.3372      1.00000
     22      -5.2903      1.00000
     23      -5.1673      1.00000
     24      -5.0987      1.00000
     25      -4.9361      1.00000
     26      -4.8791      1.00000
     27      -4.8399      1.00000
     28      -4.7928      1.00000
     29      -4.7709      1.00000
     30      -4.7053      1.00000
     31      -4.6860      1.00000
     32      -4.6122      1.00003
     33      -4.5523      1.00018
     34      -4.5432      1.00023
     35      -4.5145      1.00048
     36      -4.4453      1.00227
     37      -4.3840      1.00710
     38      -4.3732      1.00846
     39      -4.3303      1.01570
     40      -4.2932      1.02388
     41      -4.2269      1.03536
     42      -4.2109      1.03498
     43      -4.1037      0.93503
     44      -4.0174      0.66817
     45      -4.0064      0.62404
     46      -3.9659      0.45398
     47      -3.9095      0.23233
     48      -3.8565      0.07949
     49      -3.8290      0.02732
     50      -3.8123      0.00443
     51      -3.7708     -0.02797
     52      -3.7241     -0.03524
     53      -3.7195     -0.03492
     54      -3.6776     -0.02783
     55      -3.4136     -0.00025
     56      -2.9402     -0.00000
     57      -2.5223     -0.00000
     58      -2.2214     -0.00000
     59      -1.7212     -0.00000
     60      -1.5865     -0.00000
     61      -1.2790     -0.00000
     62      -1.0166     -0.00000
     63      -0.7517     -0.00000
     64      -0.4105     -0.00000
     65      -0.2383     -0.00000


--------------------------------------------------------------------------------------------------------


 soft charge-density along one line, spin component            1
         0         1         2         3         4         5         6         7         8         9
 total charge-density along one line
 
 soft charge-density along one line, spin component            2
         0         1         2         3         4         5         6         7         8         9
 total charge-density along one line
 
 pseudopotential strength for first ion, spin component:            1
-10.067   0.010  -0.049  -0.029   0.068 -10.347   0.010  -0.047
  0.010 -10.090  -0.033   0.044   0.045   0.010 -10.369  -0.031
 -0.049  -0.033 -10.309   0.033  -0.028  -0.047  -0.031 -10.577
 -0.029   0.044   0.033 -10.046   0.118  -0.028   0.042   0.032
  0.068   0.045  -0.028   0.118 -10.033   0.065   0.043  -0.027
-10.347   0.010  -0.047  -0.028   0.065 -10.572   0.009  -0.045
  0.010 -10.369  -0.031   0.042   0.043   0.009 -10.593  -0.030
 -0.047  -0.031 -10.577   0.032  -0.027  -0.045  -0.030 -10.792
 -0.028   0.042   0.032 -10.326   0.112  -0.026   0.041   0.030
  0.065   0.043  -0.027   0.112 -10.314   0.063   0.041  -0.026
 -0.010   0.012   0.023  -0.018  -0.003  -0.010   0.012   0.022
 -0.016   0.021   0.040  -0.032  -0.005  -0.016   0.021   0.039
  0.002  -0.003  -0.003  -0.000  -0.011   0.002  -0.003  -0.002
 -0.000   0.014  -0.007   0.002  -0.000  -0.000   0.013  -0.007
  0.007  -0.000  -0.002  -0.003   0.003   0.006  -0.000  -0.001
  0.002  -0.002   0.000  -0.001  -0.009   0.002  -0.002   0.000
 -0.001   0.013  -0.008   0.002  -0.000  -0.001   0.011  -0.007
  0.003  -0.001  -0.002  -0.003   0.004   0.003  -0.001  -0.002
 pseudopotential strength for first ion, spin component:            2
 -9.284   0.064  -0.033  -0.018  -0.034  -9.600   0.061  -0.031
  0.064  -9.425  -0.010   0.026   0.023   0.061  -9.735  -0.010
 -0.033  -0.010  -9.340   0.019  -0.005  -0.031  -0.010  -9.653
 -0.018   0.026   0.019  -9.396   0.011  -0.017   0.025   0.018
 -0.034   0.023  -0.005   0.011  -9.299  -0.032   0.022  -0.005
 -9.600   0.061  -0.031  -0.017  -0.032  -9.860   0.059  -0.030
  0.061  -9.735  -0.010   0.025   0.022   0.059  -9.990  -0.009
 -0.031  -0.010  -9.653   0.018  -0.005  -0.030  -0.009  -9.910
 -0.017   0.025   0.018  -9.707   0.010  -0.017   0.023   0.017
 -0.032   0.022  -0.005   0.010  -9.615  -0.031   0.021  -0.005
 -0.008   0.004   0.010  -0.008  -0.000  -0.007   0.004   0.010
 -0.013   0.007   0.017  -0.014  -0.000  -0.013   0.007   0.016
  0.001  -0.004  -0.012   0.000  -0.019   0.001  -0.004  -0.011
  0.000   0.019  -0.004   0.000   0.000   0.001   0.017  -0.003
  0.020   0.000  -0.000  -0.003   0.001   0.018   0.001  -0.001
  0.001  -0.004  -0.013   0.000  -0.021   0.001  -0.004  -0.012
  0.000   0.020  -0.003   0.000   0.001   0.001   0.018  -0.003
  0.022   0.000  -0.000  -0.003   0.001   0.020   0.001  -0.000
 total augmentation occupancy for first ion, spin component:            1
  2.844  -0.149   0.003   0.054   0.148  -1.072   0.136  -0.049  -0.027  -0.024   0.218  -0.044  -0.058  -0.052   0.221   0.008
 -0.149   3.112  -0.081  -0.089   0.153   0.133  -1.322   0.011   0.123  -0.073  -0.090  -0.011   0.006   0.336  -0.044  -0.005
  0.003  -0.081   2.307  -0.151   0.281  -0.046   0.013  -1.016   0.162  -0.264  -0.400  -0.008  -0.087  -0.084   0.012  -0.010
  0.054  -0.089  -0.151   2.914   0.219  -0.030   0.125   0.167  -1.054  -0.010   0.402  -0.030  -0.020  -0.069  -0.010   0.008
  0.148   0.153   0.281   0.219   2.805  -0.025  -0.070  -0.269  -0.019  -0.962   0.253  -0.071  -0.209   0.006  -0.043   0.001
 -1.072   0.133  -0.046  -0.030  -0.025   1.057  -0.147   0.067  -0.000  -0.027  -0.173   0.040   0.058   0.049  -0.315  -0.008
  0.136  -1.322   0.013   0.125  -0.070  -0.147   1.353   0.041  -0.146   0.014   0.104   0.004   0.014  -0.356   0.036  -0.000
 -0.049   0.011  -1.016   0.167  -0.269   0.067   0.041   1.337  -0.173   0.252   0.462  -0.023   0.147   0.072  -0.022  -0.008
 -0.027   0.123   0.162  -1.054  -0.019  -0.000  -0.146  -0.173   1.025  -0.108  -0.396   0.042   0.021   0.071   0.032  -0.007
 -0.024  -0.073  -0.264  -0.010  -0.962  -0.027   0.014   0.252  -0.108   0.913  -0.213   0.060   0.256   0.003   0.055  -0.027
  0.218  -0.090  -0.400   0.402   0.253  -0.173   0.104   0.462  -0.396  -0.213   2.031  -0.221  -0.331   0.060   0.041   0.058
 -0.044  -0.011  -0.008  -0.030  -0.071   0.040   0.004  -0.023   0.042   0.060  -0.221   0.033   0.057  -0.008  -0.014  -0.008
 -0.058   0.006  -0.087  -0.020  -0.209   0.058   0.014   0.147   0.021   0.256  -0.331   0.057   0.175   0.010  -0.013  -0.021
 -0.052   0.336  -0.084  -0.069   0.006   0.049  -0.356   0.072   0.071   0.003   0.060  -0.008   0.010   0.279  -0.042   0.000
  0.221  -0.044   0.012  -0.010  -0.043  -0.315   0.036  -0.022   0.032   0.055   0.041  -0.014  -0.013  -0.042   0.165   0.002
  0.008  -0.005  -0.010   0.008   0.001  -0.008  -0.000  -0.008  -0.007  -0.027   0.058  -0.008  -0.021   0.000   0.002   0.003
  0.006  -0.011   0.007   0.004   0.000  -0.006   0.035  -0.011  -0.005  -0.001  -0.010   0.001   0.000  -0.023   0.004  -0.000
  0.003   0.007  -0.002  -0.003   0.001   0.027  -0.006   0.003  -0.003  -0.003  -0.008   0.001   0.002   0.004  -0.014  -0.000
 total augmentation occupancy for first ion, spin component:            2
  0.972   0.117  -0.007   0.060  -0.252  -0.443  -0.050   0.023  -0.038   0.109  -0.074  -0.017  -0.008  -0.017   0.064  -0.001
  0.117   0.734   0.089  -0.051  -0.081  -0.047  -0.340  -0.046   0.023   0.042  -0.032  -0.010  -0.019   0.001   0.019  -0.001
 -0.007   0.089   1.740  -0.074   0.083   0.020  -0.047  -0.855   0.047  -0.042  -0.080  -0.031  -0.067   0.035   0.002  -0.008
  0.060  -0.051  -0.074   0.685  -0.330  -0.033   0.022   0.041  -0.320   0.153   0.027   0.012   0.020  -0.008   0.002   0.002
 -0.252  -0.081   0.083  -0.330   0.841   0.107   0.039  -0.043   0.167  -0.383  -0.039  -0.011  -0.022   0.000  -0.005  -0.009
 -0.443  -0.047   0.020  -0.033   0.107   0.123   0.019  -0.022   0.018  -0.037   0.038   0.003   0.002   0.011  -0.017   0.000
 -0.050  -0.340  -0.047   0.022   0.039   0.019   0.069   0.019  -0.011  -0.015   0.013   0.006   0.008   0.006  -0.008   0.000
  0.023  -0.046  -0.855   0.041  -0.043  -0.022   0.019   0.303  -0.024   0.022   0.029   0.019   0.027  -0.019   0.005   0.004
 -0.038   0.023   0.047  -0.320   0.167   0.018  -0.011  -0.024   0.062  -0.066  -0.013  -0.009  -0.011   0.002  -0.003  -0.001
  0.109   0.042  -0.042   0.153  -0.383  -0.037  -0.015   0.022  -0.066   0.099   0.021   0.002   0.001  -0.001  -0.006   0.005
 -0.074  -0.032  -0.080   0.027  -0.039   0.038   0.013   0.029  -0.013   0.021  -0.114   0.048   0.036  -0.002  -0.031  -0.003
 -0.017  -0.010  -0.031   0.012  -0.011   0.003   0.006   0.019  -0.009   0.002   0.048  -0.006  -0.005   0.001  -0.001   0.002
 -0.008  -0.019  -0.067   0.020  -0.022   0.002   0.008   0.027  -0.011   0.001   0.036  -0.005  -0.004  -0.005  -0.002   0.002
 -0.017   0.001   0.035  -0.008   0.000   0.011   0.006  -0.019   0.002  -0.001  -0.002   0.001  -0.005  -0.017  -0.003   0.000
  0.064   0.019   0.002   0.002  -0.005  -0.017  -0.008   0.005  -0.003  -0.006  -0.031  -0.001  -0.002  -0.003   0.004  -0.000
 -0.001  -0.001  -0.008   0.002  -0.009   0.000   0.000   0.004  -0.001   0.005  -0.003   0.002   0.002   0.000  -0.000  -0.000
  0.001   0.007  -0.002  -0.001  -0.000  -0.000  -0.005   0.002   0.001   0.000   0.001  -0.000   0.000   0.003  -0.000  -0.000
  0.009   0.000   0.000  -0.001  -0.002  -0.005   0.000  -0.000   0.001   0.001   0.002  -0.000  -0.000  -0.000   0.001   0.000


------------------------ aborting loop because EDIFF is reached ----------------------------------------


    CHARGE:  cpu time    0.6236: real time    0.6248
    FORLOC:  cpu time    0.0693: real time    0.0693
    FORNL :  cpu time    2.7410: real time    2.7479
    FORCOR:  cpu time    2.3698: real time    2.3788
    FORHAR:  cpu time    0.3099: real time    0.3103
    MIXING:  cpu time    0.0719: real time    0.0720
    OFIELD:  cpu time    0.0000: real time    0.0000

 VOLUME and BASIS-vectors are now :
 -----------------------------------------------------------------------------
  energy-cutoff  :      400.00
  volume of cell :    12292.34
      direct lattice vectors                 reciprocal lattice vectors
    22.422125487  0.000000000  0.000000000     0.044598805  0.000000000  0.000000000
     0.000000000 22.591903159  0.000000000     0.000000000  0.044263646  0.000000000
     0.000000000  0.000000000 24.266379733     0.000000000  0.000000000  0.041209278

  length of vectors
    22.422125487 22.591903159 24.266379733     0.044598805  0.044263646  0.041209278


 FORCES acting on ions
    electron-ion (+dipol)            ewald-force                    non-local-force                 convergence-correction
 -----------------------------------------------------------------------------------------------
   0.607E+02 -.948E+03 0.274E+03   -.609E+02 0.944E+03 -.273E+03   0.269E+00 0.384E+01 -.831E+00   0.541E-02 0.369E-01 0.147E-01
   0.904E+03 -.294E+03 0.135E+03   -.901E+03 0.293E+03 -.135E+03   -.272E+01 0.976E+00 -.234E+00   0.717E-01 0.310E+00 0.458E-01
   0.184E+03 0.602E+03 0.750E+03   -.184E+03 -.600E+03 -.746E+03   -.877E+00 -.250E+01 -.367E+01   0.704E-01 0.269E+00 -.604E-01
   -.101E+04 0.362E+01 0.344E+03   0.100E+04 -.320E+01 -.344E+03   0.766E+01 -.534E+00 -.468E+00   0.229E-01 0.113E+00 -.792E-02
   0.858E+03 0.450E+03 -.382E+03   -.850E+03 -.447E+03 0.380E+03   -.815E+01 -.313E+01 0.188E+01   0.751E-01 0.212E+00 0.746E-01
   -.121E+01 -.309E+03 0.987E+03   0.308E+01 0.307E+03 -.979E+03   -.199E+01 0.238E+01 -.822E+01   0.103E+00 0.103E+00 -.197E-02
   -.548E+02 -.891E+03 -.649E+03   0.544E+02 0.884E+03 0.644E+03   0.494E+00 0.685E+01 0.487E+01   -.165E-01 -.771E-01 -.455E-01
   -.180E+02 0.106E+04 0.164E+02   0.169E+02 -.106E+04 -.168E+02   0.100E+01 -.608E+01 0.352E+00   0.112E+00 0.181E+00 0.396E-01
   -.520E+02 0.141E+03 -.106E+04   0.502E+02 -.140E+03 0.106E+04   0.165E+01 -.521E+00 0.545E+01   0.152E+00 0.248E+00 0.802E-01
   -.874E+03 0.182E+03 -.412E+03   0.872E+03 -.182E+03 0.410E+03   0.214E+01 -.416E+00 0.137E+01   0.232E-01 0.211E+00 0.504E-01
 -----------------------------------------------------------------------------------------------
   -.135E+00 -.250E+01 -.699E+00   -.114E-12 -.227E-12 0.341E-12   -.521E+00 0.870E+00 0.489E+00   0.619E+00 0.161E+01 0.190E+00
 
 
 POSITION                                       TOTAL-FORCE (eV/Angst)
 -----------------------------------------------------------------------------------
     11.97524     13.24072     11.87399         0.001245     -0.025251     -0.001222
     10.37052     11.86965     12.98114         0.032352     -0.005299      0.007242
     11.77359     10.98510     11.19852         0.000105      0.041650     -0.006035
     13.89485     11.99605     11.20312         0.012704     -0.003975      0.022080
      9.40298     10.21725     14.29037        -0.005330     -0.014517      0.028858
     12.36462     12.64679      9.69143        -0.001368      0.007431     -0.019854
     11.76252     13.35312     14.18251        -0.007791     -0.001618     -0.011962
     11.32744      9.75534     13.12460        -0.011118     -0.006284     -0.002870
     11.31121     11.20039     15.03522         0.017089      0.003072     -0.006244
     12.90380     11.53606     13.26621        -0.037888      0.004790     -0.009993
 -----------------------------------------------------------------------------------
    total drift:                               -0.037822     -0.020349     -0.020393


--------------------------------------------------------------------------------------------------------



  FREE ENERGIE OF THE ION-ELECTRON SYSTEM (eV)
  ---------------------------------------------------
  free  energy   TOTEN  =       -36.09350244 eV

  energy  without entropy=      -36.09085538  energy(sigma->0) =      -36.09262009
 
 d Force = 0.3349153E-03[ 0.176E-03, 0.494E-03]  d Energy =-0.2359283E-03 0.571E-03
 d Force = 0.7798375E+01[ 0.781E+01, 0.779E+01]  d Ewald  = 0.7798383E+01-0.790E-05


--------------------------------------------------------------------------------------------------------


    POTLOK:  cpu time    2.4755: real time    2.4867


--------------------------------------------------------------------------------------------------------




--------------------------------------------------------------------------------------------------------


  
 reached required accuracy - stopping structural energy minimisation
     LOOP+:  cpu time   78.7724: real time   79.0142
    4ORBIT:  cpu time    0.0000: real time    0.0000

 total amount of memory used by VASP MPI-rank0   136235. kBytes
=======================================================================

   base      :      30000. kBytes
   nonl-proj :       2122. kBytes
   fftplans  :      27467. kBytes
   grid      :      62092. kBytes
   one-center:         15. kBytes
   wavefun   :      14539. kBytes
 
  
  
 General timing and accounting informations for this job:
 ========================================================
  
                  Total CPU time used (sec):     1842.779
                            User time (sec):     1827.141
                          System time (sec):       15.638
                         Elapsed time (sec):     1850.278
  
                   Maximum memory used (kb):      319716.
                   Average memory used (kb):           0.
  
                          Minor page faults:      4156434
                          Major page faults:        71756
                 Voluntary context switches:         4732
