<?xml version="1.0" encoding="ISO-8859-1"?>
<modeling>
 <generator>
  <i name="program" type="string">vasp </i>
  <i name="version" type="string">6.1.2  </i>
  <i name="subversion" type="string">22Jul20 (build Aug  2 2021 21:04:21) gamma-only                       parallel </i>
  <i name="platform" type="string">LinuxPGI </i>
  <i name="date" type="string">2021 12 25 </i>
  <i name="time" type="string">07:23:50 </i>
 </generator>
 <incar>
  <i type="int" name="ISPIN">     2</i>
  <i type="int" name="IBRION">     2</i>
  <i type="int" name="NSW">  1000</i>
  <i type="int" name="ISIF">     0</i>
  <i type="int" name="ISYM">     0</i>
  <i name="ENCUT">    400.00000000</i>
  <i type="logical" name="LREAL"> F  </i>
  <i type="int" name="ISMEAR">     1</i>
  <i name="SIGMA">      0.20000000</i>
  <i type="logical" name="LWAVE"> F  </i>
  <i type="logical" name="LCHARG"> F  </i>
  <i type="int" name="KPAR">     1</i>
  <i type="int" name="NCORE">    16</i>
  <i type="string" name="GGA"> PE</i>
  <i type="int" name="ISPIN">     2</i>
 </incar>
 <structure name="primitive_cell" >
  <crystal>
   <varray name="basis" >
    <v>      22.42212549       0.00000000       0.00000000 </v>
    <v>       0.00000000      22.59190316       0.00000000 </v>
    <v>       0.00000000       0.00000000      24.26637973 </v>
   </varray>
   <i name="volume">  12292.34061714 </i>
   <varray name="rec_basis" >
    <v>       0.04459880       0.00000000       0.00000000 </v>
    <v>       0.00000000       0.04426365       0.00000000 </v>
    <v>       0.00000000       0.00000000       0.04120928 </v>
   </varray>
  </crystal>
  <varray name="positions" >
   <v>       0.53750766       0.59049649       0.48879227 </v>
   <v>       0.46352535       0.52643153       0.53330127 </v>
   <v>       0.52478914       0.48451645       0.46032470 </v>
   <v>       0.62256482       0.53127544       0.45967666 </v>
   <v>       0.41531802       0.45198493       0.58795966 </v>
   <v>       0.54865987       0.56021765       0.39481132 </v>
   <v>       0.52272707       0.59360121       0.58821326 </v>
   <v>       0.50672993       0.42667609       0.54383444 </v>
   <v>       0.50503995       0.49464068       0.62284366 </v>
   <v>       0.57506816       0.51017411       0.54752055 </v>
  </varray>
 </structure>
 <varray name="primitive_index" >
  <v type="int" >        1 </v>
  <v type="int" >        2 </v>
  <v type="int" >        3 </v>
  <v type="int" >        4 </v>
  <v type="int" >        5 </v>
  <v type="int" >        6 </v>
  <v type="int" >        7 </v>
  <v type="int" >        8 </v>
  <v type="int" >        9 </v>
  <v type="int" >       10 </v>
 </varray>
 <kpoints>
  <generation param="Gamma">
   <v type="int" name="divisions">       1        1        1 </v>
   <v name="usershift">      0.00000000       0.00000000       0.00000000 </v>
   <v name="genvec1">      1.00000000       0.00000000       0.00000000 </v>
   <v name="genvec2">      0.00000000       1.00000000       0.00000000 </v>
   <v name="genvec3">      0.00000000       0.00000000       1.00000000 </v>
   <v name="shift">      0.00000000       0.00000000       0.00000000 </v>
  </generation>
  <varray name="kpointlist" >
   <v>       0.00000000       0.00000000       0.00000000 </v>
  </varray>
  <varray name="weights" >
   <v>       1.00000000 </v>
  </varray>
 </kpoints>
 <parameters>
  <separator name="general" >
   <i type="string" name="SYSTEM">unknown system</i>
   <i type="logical" name="LCOMPAT"> F  </i>
  </separator>
  <separator name="electronic" >
   <i type="string" name="PREC">normal</i>
   <i name="ENMAX">    400.00000000</i>
   <i name="ENAUG">    544.56500000</i>
   <i name="EDIFF">      0.00010000</i>
   <i type="int" name="IALGO">    38</i>
   <i type="int" name="IWAVPR">    11</i>
   <i type="int" name="NBANDS">    65</i>
   <i type="int" name="NBANDSLOW">    -1</i>
   <i type="int" name="NBANDSHIGH">    -1</i>
   <i name="NELECT">    100.00000000</i>
   <i type="int" name="TURBO">     0</i>
   <i type="int" name="IRESTART">     0</i>
   <i type="int" name="NREBOOT">     0</i>
   <i type="int" name="NMIN">     0</i>
   <i name="EREF">      0.00000000</i>
   <separator name="electronic smearing" >
    <i type="int" name="ISMEAR">     1</i>
    <i name="SIGMA">      0.20000000</i>
    <i name="KSPACING">      0.50000000</i>
    <i type="logical" name="KGAMMA"> T  </i>
    <i type="logical" name="KBLOWUP"> T  </i>
   </separator>
   <separator name="electronic projectors" >
    <i type="logical" name="LREAL"> F  </i>
    <v name="ROPT">      0.00000000</v>
    <i type="int" name="LMAXPAW">  -100</i>
    <i type="int" name="LMAXMIX">     2</i>
    <i type="logical" name="NLSPLINE"> F  </i>
   </separator>
   <separator name="electronic startup" >
    <i type="int" name="ISTART">     0</i>
    <i type="int" name="ICHARG">     2</i>
    <i type="int" name="INIWAV">     1</i>
   </separator>
   <separator name="electronic spin" >
    <i type="int" name="ISPIN">     2</i>
    <i type="logical" name="LNONCOLLINEAR"> F  </i>
    <v name="MAGMOM">      1.00000000      1.00000000      1.00000000      1.00000000      1.00000000      1.00000000      1.00000000      1.00000000      1.00000000      1.00000000</v>
    <i name="NUPDOWN">     -1.00000000</i>
    <i type="logical" name="LSORBIT"> F  </i>
    <v name="SAXIS">      0.00000000      0.00000000      1.00000000</v>
    <i type="logical" name="LSPIRAL"> F  </i>
    <v name="QSPIRAL">      0.00000000      0.00000000      0.00000000</v>
    <i type="logical" name="LZEROZ"> F  </i>
   </separator>
   <separator name="electronic exchange-correlation" >
    <i type="logical" name="LASPH"> F  </i>
    <i type="logical" name="LMETAGGA"> F  </i>
   </separator>
   <separator name="electronic convergence" >
    <i type="int" name="NELM">    60</i>
    <i type="int" name="NELMDL">     0</i>
    <i type="int" name="NELMIN">     2</i>
    <i name="ENINI">    400.00000000</i>
    <separator name="electronic convergence detail" >
     <i type="logical" name="LDIAG"> T  </i>
     <i type="logical" name="LSUBROT"> F  </i>
     <i name="WEIMIN">      0.00100000</i>
     <i name="EBREAK">      0.00000038</i>
     <i name="DEPER">      0.30000000</i>
     <i type="int" name="NRMM">     4</i>
     <i name="TIME">      0.40000000</i>
    </separator>
   </separator>
   <separator name="electronic mixer" >
    <i name="AMIX">      0.40000000</i>
    <i name="BMIX">      1.00000000</i>
    <i name="AMIN">      0.10000000</i>
    <i name="AMIX_MAG">      1.60000000</i>
    <i name="BMIX_MAG">      1.00000000</i>
    <separator name="electronic mixer details" >
     <i type="int" name="IMIX">     4</i>
     <i type="logical" name="MIXFIRST"> F  </i>
     <i type="int" name="MAXMIX">   -45</i>
     <i name="WC">    100.00000000</i>
     <i type="int" name="INIMIX">     1</i>
     <i type="int" name="MIXPRE">     1</i>
     <i type="int" name="MREMOVE">     5</i>
    </separator>
   </separator>
   <separator name="electronic dipolcorrection" >
    <i type="logical" name="LDIPOL"> F  </i>
    <i type="logical" name="LMONO"> F  </i>
    <i type="int" name="IDIPOL">     0</i>
    <i name="EPSILON">      1.00000000</i>
    <v name="DIPOL">   -100.00000000   -100.00000000   -100.00000000</v>
    <i name="EFIELD">      0.00000000</i>
   </separator>
  </separator>
  <separator name="grids" >
   <i type="int" name="NGX">   112</i>
   <i type="int" name="NGY">   112</i>
   <i type="int" name="NGZ">   120</i>
   <i type="int" name="NGXF">   224</i>
   <i type="int" name="NGYF">   224</i>
   <i type="int" name="NGZF">   240</i>
   <i type="logical" name="ADDGRID"> F  </i>
  </separator>
  <separator name="ionic" >
   <i type="int" name="NSW">  1000</i>
   <i type="int" name="IBRION">     2</i>
   <i type="int" name="MDALGO">     0</i>
   <i type="int" name="ISIF">     0</i>
   <i name="PSTRESS">      0.00000000</i>
   <i name="EDIFFG">      0.00100000</i>
   <i type="int" name="NFREE">     1</i>
   <i name="POTIM">      0.50000000</i>
   <i name="SMASS">     -3.00000000</i>
   <i name="SCALEE">      1.00000000</i>
  </separator>
  <separator name="ionic md" >
   <i name="TEBEG">      0.00010000</i>
   <i name="TEEND">      0.00010000</i>
   <i type="int" name="NBLOCK">     1</i>
   <i type="int" name="KBLOCK">  1000</i>
   <i type="int" name="NPACO">   256</i>
   <i name="APACO">     16.00000000</i>
  </separator>
  <separator name="symmetry" >
   <i type="int" name="ISYM">     0</i>
   <i name="SYMPREC">      0.00001000</i>
  </separator>
  <separator name="dos" >
   <i type="int" name="LORBIT">     0</i>
   <v name="RWIGS">     -1.00000000</v>
   <i type="int" name="NEDOS">   301</i>
   <i name="EMIN">     10.00000000</i>
   <i name="EMAX">    -10.00000000</i>
   <i name="EFERMI">      0.00000000</i>
  </separator>
  <separator name="writing" >
   <i type="int" name="NWRITE">     2</i>
   <i type="logical" name="LWAVE"> F  </i>
   <i type="logical" name="LDOWNSAMPLE"> F  </i>
   <i type="logical" name="LCHARG"> F  </i>
   <i type="logical" name="LPARD"> F  </i>
   <i type="logical" name="LVTOT"> F  </i>
   <i type="logical" name="LVHAR"> F  </i>
   <i type="logical" name="LELF"> F  </i>
   <i type="logical" name="LOPTICS"> F  </i>
   <v name="STM">      0.00000000      0.00000000      0.00000000      0.00000000      0.00000000      0.00000000      0.00000000</v>
  </separator>
  <separator name="performance" >
   <i type="int" name="NPAR">     1</i>
   <i type="int" name="NSIM">     4</i>
   <i type="int" name="NBLK">    -1</i>
   <i type="logical" name="LPLANE"> T  </i>
   <i type="logical" name="LSCALAPACK"> T  </i>
   <i type="logical" name="LSCAAWARE"> F  </i>
   <i type="logical" name="LSCALU"> F  </i>
   <i type="logical" name="LASYNC"> F  </i>
   <i type="logical" name="LORBITALREAL"> F  </i>
  </separator>
  <separator name="miscellaneous" >
   <i type="int" name="IDIOT">     3</i>
   <i type="int" name="PHON_NSTRUCT">    -1</i>
   <i type="logical" name="LMUSIC"> F  </i>
   <v name="POMASS">     58.69000000</v>
   <v name="DARWINR">      0.00000000</v>
   <v name="DARWINV">      1.00000000</v>
   <i type="logical" name="LCORR"> T  </i>
  </separator>
  <i type="logical" name="GGA_COMPAT"> T  </i>
  <i type="logical" name="LBERRY"> F  </i>
  <i type="int" name="ICORELEVEL">     0</i>
  <i type="logical" name="LDAU"> F  </i>
  <i type="int" name="I_CONSTRAINED_M">     0</i>
  <separator name="electronic exchange-correlation" >
   <i type="string" name="GGA">PE</i>
   <i type="int" name="VOSKOWN">     0</i>
   <i type="logical" name="LHFCALC"> F  </i>
   <i type="string" name="PRECFOCK"></i>
   <i type="logical" name="LSYMGRAD"> F  </i>
   <i type="logical" name="LHFONE"> F  </i>
   <i type="logical" name="LRHFCALC"> F  </i>
   <i type="logical" name="LTHOMAS"> F  </i>
   <i type="logical" name="LMODELHF"> F  </i>
   <i type="logical" name="LFOCKACE"> F  </i>
   <i name="ENCUT4O">     -1.00000000</i>
   <i type="int" name="EXXOEP">     0</i>
   <i type="int" name="FOURORBIT">     0</i>
   <i name="AEXX">      0.00000000</i>
   <i name="HFALPHA">      0.00000000</i>
   <i name="MCALPHA">      0.00000000</i>
   <i name="ALDAX">      1.00000000</i>
   <i name="AGGAX">      1.00000000</i>
   <i name="ALDAC">      1.00000000</i>
   <i name="AGGAC">      1.00000000</i>
   <i type="int" name="NKREDX">     1</i>
   <i type="int" name="NKREDY">     1</i>
   <i type="int" name="NKREDZ">     1</i>
   <i type="logical" name="SHIFTRED"> F  </i>
   <i type="logical" name="ODDONLY"> F  </i>
   <i type="logical" name="EVENONLY"> F  </i>
   <i type="int" name="LMAXFOCK">     0</i>
   <i type="int" name="NMAXFOCKAE">     0</i>
   <i type="logical" name="LFOCKAEDFT"> F  </i>
   <i name="HFSCREEN">      0.00000000</i>
   <i name="HFSCREENC">      0.00000000</i>
   <i type="int" name="NBANDSGWLOW">     0</i>
  </separator>
  <separator name="vdW DFT" >
   <i type="logical" name="LUSE_VDW"> F  </i>
   <i name="Zab_VDW">     -0.84910000</i>
   <i name="PARAM1">      0.12340000</i>
   <i name="PARAM2">      1.00000000</i>
   <i name="PARAM3">      0.00000000</i>
  </separator>
  <separator name="model GW" >
   <i type="int" name="MODEL_GW">     0</i>
   <i name="MODEL_EPS0">    737.54043703</i>
   <i name="MODEL_ALPHA">      1.00000000</i>
  </separator>
  <separator name="linear response parameters" >
   <i type="logical" name="LEPSILON"> F  </i>
   <i type="logical" name="LRPA"> F  </i>
   <i type="logical" name="LNABLA"> F  </i>
   <i type="logical" name="LVEL"> F  </i>
   <i type="int" name="KINTER">     0</i>
   <i name="CSHIFT">      0.10000000</i>
   <i name="OMEGAMAX">     -1.00000000</i>
   <i name="DEG_THRESHOLD">      0.00200000</i>
   <i name="RTIME">     -0.10000000</i>
   <i name="WPLASMAI">      0.00000000</i>
   <v name="DFIELD">      0.00000000      0.00000000      0.00000000</v>
   <v name="WPLASMA">      0.00000000      0.00000000      0.00000000      0.00000000      0.00000000      0.00000000      0.00000000      0.00000000      0.00000000</v>
  </separator>
  <separator name="orbital magnetization" >
   <i type="logical" name="NUCIND"> F  </i>
   <v name="MAGPOS">      0.00000000      0.00000000      0.00000000</v>
   <i type="logical" name="LNICSALL"> T  </i>
   <i type="logical" name="ORBITALMAG"> F  </i>
   <i type="logical" name="LMAGBLOCH"> F  </i>
   <i type="logical" name="LCHIMAG"> F  </i>
   <i type="logical" name="LGAUGE"> T  </i>
   <i type="int" name="MAGATOM">     0</i>
   <v name="MAGDIPOL">      0.00000000      0.00000000      0.00000000</v>
   <v name="AVECCONST">      0.00000000      0.00000000      0.00000000</v>
  </separator>
  <separator name="response functions" >
   <i type="logical" name="LFINITE_TEMPERATURE"> F  </i>
   <i type="logical" name="LADDER"> F  </i>
   <i type="logical" name="LRPAFORCE"> F  </i>
   <i type="logical" name="LFXC"> F  </i>
   <i type="logical" name="LHARTREE"> T  </i>
   <i type="int" name="IBSE">     0</i>
   <v type="int" name="KPOINT">    -1     0     0     0</v>
   <i type="logical" name="LTCTC"> F  </i>
   <i type="logical" name="LTCTE"> F  </i>
   <i type="logical" name="LTETE"> F  </i>
   <i type="logical" name="LTRIPLET"> F  </i>
   <i type="logical" name="LFXCEPS"> F  </i>
   <i type="logical" name="LFXHEG"> F  </i>
   <i type="int" name="NATURALO">     2</i>
   <i type="logical" name="LHOLEGF"> F  </i>
   <i type="logical" name="L2ORDER"> F  </i>
   <i type="logical" name="LDMP1"> F  </i>
   <i type="logical" name="LMP2LT"> F  </i>
   <i type="logical" name="LSMP2LT"> F  </i>
   <i type="logical" name="LGWLF"> F  </i>
   <i name="ENCUTGW">     -2.00000000</i>
   <i name="ENCUTGWSOFT">     -2.00000000</i>
   <i name="ENCUTLF">     -1.00000000</i>
   <i type="logical" name="LESF_SPLINES"> F  </i>
   <i type="int" name="LMAXMP2">    -1</i>
   <i name="SCISSOR">      0.00000000</i>
   <i type="int" name="NOMEGA">     0</i>
   <i type="int" name="NOMEGAR">     0</i>
   <i type="int" name="NBANDSGW">    -1</i>
   <i type="int" name="NBANDSO">    -1</i>
   <i type="int" name="NBANDSV">    -1</i>
   <i type="int" name="NELM">     1</i>
   <i type="int" name="NELMHF">     1</i>
   <i type="int" name="DIM">     3</i>
   <i type="int" name="IESPILON">     4</i>
   <i type="int" name="ANTIRES">     0</i>
   <i name="OMEGAMAX">    -30.00000000</i>
   <i name="OMEGAMIN">    -30.00000000</i>
   <i name="OMEGATL">   -200.00000000</i>
   <i type="int" name="OMEGAGRID">     0</i>
   <i name="CSHIFT">     -0.10000000</i>
   <i type="logical" name="LSELFENERGY"> F  </i>
   <i type="logical" name="LSPECTRAL"> F  </i>
   <i type="logical" name="LSPECTRALGW"> F  </i>
   <i type="logical" name="LSINGLES"> F  </i>
   <i type="logical" name="LFERMIGW"> F  </i>
   <i type="logical" name="ODDONLYGW"> F  </i>
   <i type="logical" name="EVENONLYGW"> F  </i>
   <i type="int" name="NKREDLFX">     1</i>
   <i type="int" name="NKREDLFY">     1</i>
   <i type="int" name="NKREDLFZ">     1</i>
   <i type="int" name="MAXMEM">  2800</i>
   <i type="int" name="TELESCOPE">     0</i>
   <i type="int" name="NTAUPAR">    -1</i>
   <i type="int" name="NOMEGAPAR">    -1</i>
   <i name="LAMBDA">      1.00000000</i>
  </separator>
  <separator name="External order field" >
   <i name="OFIELD_KAPPA">      0.00000000</i>
   <v name="OFIELD_K">      0.00000000      0.00000000      0.00000000</v>
   <i name="OFIELD_Q6_NEAR">      0.00000000</i>
   <i name="OFIELD_Q6_FAR">      0.00000000</i>
   <i name="OFIELD_A">      0.00000000</i>
  </separator>
 </parameters>
 <atominfo>
  <atoms>      10 </atoms>
  <types>       1 </types>
  <array name="atoms" >
   <dimension dim="1">ion</dimension>
   <field type="string">element</field>
   <field type="int">atomtype</field>
   <set>
    <rc><c>Ni</c><c>   1</c></rc>
    <rc><c>Ni</c><c>   1</c></rc>
    <rc><c>Ni</c><c>   1</c></rc>
    <rc><c>Ni</c><c>   1</c></rc>
    <rc><c>Ni</c><c>   1</c></rc>
    <rc><c>Ni</c><c>   1</c></rc>
    <rc><c>Ni</c><c>   1</c></rc>
    <rc><c>Ni</c><c>   1</c></rc>
    <rc><c>Ni</c><c>   1</c></rc>
    <rc><c>Ni</c><c>   1</c></rc>
   </set>
  </array>
  <array name="atomtypes" >
   <dimension dim="1">type</dimension>
   <field type="int">atomspertype</field>
   <field type="string">element</field>
   <field>mass</field>
   <field>valence</field>
   <field type="string">pseudopotential</field>
   <set>
    <rc><c>  10</c><c>Ni</c><c>     58.69000000</c><c>     10.00000000</c><c>  PAW_PBE Ni 02Aug2007                  </c></rc>
   </set>
  </array>
 </atominfo>
 <structure name="initialpos" >
  <crystal>
   <varray name="basis" >
    <v>      22.42212549       0.00000000       0.00000000 </v>
    <v>       0.00000000      22.59190316       0.00000000 </v>
    <v>       0.00000000       0.00000000      24.26637973 </v>
   </varray>
   <i name="volume">  12292.34061714 </i>
   <varray name="rec_basis" >
    <v>       0.04459880       0.00000000       0.00000000 </v>
    <v>       0.00000000       0.04426365       0.00000000 </v>
    <v>       0.00000000       0.00000000       0.04120928 </v>
   </varray>
  </crystal>
  <varray name="positions" >
   <v>       0.53750766       0.59049649       0.48879227 </v>
   <v>       0.46352535       0.52643153       0.53330127 </v>
   <v>       0.52478914       0.48451645       0.46032470 </v>
   <v>       0.62256482       0.53127544       0.45967666 </v>
   <v>       0.41531802       0.45198493       0.58795966 </v>
   <v>       0.54865987       0.56021765       0.39481132 </v>
   <v>       0.52272707       0.59360121       0.58821326 </v>
   <v>       0.50672993       0.42667609       0.54383444 </v>
   <v>       0.50503995       0.49464068       0.62284366 </v>
   <v>       0.57506816       0.51017411       0.54752055 </v>
  </varray>
 </structure>
 <calculation>
  <scstep>
   <time name="dav">    4.90    4.90</time>
   <time name="total">    7.36    7.39</time>
   <energy>
    <i name="alphaZ">      4.14887633 </i>
    <i name="ewald">  12700.11004743 </i>
    <i name="hartreedc"> -22550.99200906 </i>
    <i name="XCdc">    304.70611085 </i>
    <i name="pawpsdc">   9628.33173603 </i>
    <i name="pawaedc"> -10296.70712275 </i>
    <i name="eentropy">      0.01035031 </i>
    <i name="bandstr">     73.13076803 </i>
    <i name="atom">  10776.63837129 </i>
    <i name="e_fr_energy">    639.37712847 </i>
    <i name="e_wo_entrp">    639.36677816 </i>
    <i name="e_0_energy">    639.37367837 </i>
   </energy>
  </scstep>
  <scstep>
   <time name="dav">    7.62    7.63</time>
   <time name="total">    7.62    7.64</time>
   <energy>
    <i name="e_fr_energy">    124.88259404 </i>
    <i name="e_wo_entrp">    124.88304583 </i>
    <i name="e_0_energy">    124.88274463 </i>
   </energy>
  </scstep>
  <scstep>
   <time name="dav">    5.62    5.63</time>
   <time name="total">    5.63    5.64</time>
   <energy>
    <i name="e_fr_energy">    -26.89572328 </i>
    <i name="e_wo_entrp">    -26.88991739 </i>
    <i name="e_0_energy">    -26.89378798 </i>
   </energy>
  </scstep>
  <scstep>
   <time name="dav">    5.19    5.20</time>
   <time name="total">    5.19    5.20</time>
   <energy>
    <i name="e_fr_energy">    -41.13489488 </i>
    <i name="e_wo_entrp">    -41.12391014 </i>
    <i name="e_0_energy">    -41.13123330 </i>
   </energy>
  </scstep>
  <scstep>
   <time name="dav">    5.54    5.55</time>
   <time name="total">    6.23    6.25</time>
   <energy>
    <i name="e_fr_energy">    -41.48535813 </i>
    <i name="e_wo_entrp">    -41.47889383 </i>
    <i name="e_0_energy">    -41.48320336 </i>
   </energy>
  </scstep>
  <scstep>
   <time name="dav">    5.38    5.39</time>
   <time name="total">    8.48    8.50</time>
   <energy>
    <i name="e_fr_energy">    -45.19935425 </i>
    <i name="e_wo_entrp">    -45.20609242 </i>
    <i name="e_0_energy">    -45.20160031 </i>
   </energy>
  </scstep>
  <scstep>
   <time name="dav">    5.09    5.10</time>
   <time name="total">    8.24    8.26</time>
   <energy>
    <i name="e_fr_energy">    -40.18323257 </i>
    <i name="e_wo_entrp">    -40.17103205 </i>
    <i name="e_0_energy">    -40.17916573 </i>
   </energy>
  </scstep>
  <scstep>
   <time name="dav">    5.48    5.49</time>
   <time name="total">    8.64    8.65</time>
   <energy>
    <i name="e_fr_energy">    -39.52375443 </i>
    <i name="e_wo_entrp">    -39.47343449 </i>
    <i name="e_0_energy">    -39.50698112 </i>
   </energy>
  </scstep>
  <scstep>
   <time name="dav">    6.07    6.08</time>
   <time name="total">    9.25    9.27</time>
   <energy>
    <i name="e_fr_energy">    -36.06814762 </i>
    <i name="e_wo_entrp">    -36.02479201 </i>
    <i name="e_0_energy">    -36.05369575 </i>
   </energy>
  </scstep>
  <scstep>
   <time name="dav">    6.27    6.28</time>
   <time name="total">    9.45    9.47</time>
   <energy>
    <i name="e_fr_energy">    -37.09423046 </i>
    <i name="e_wo_entrp">    -37.10662357 </i>
    <i name="e_0_energy">    -37.09836150 </i>
   </energy>
  </scstep>
  <scstep>
   <time name="dav">    5.99    6.00</time>
   <time name="total">    9.15    9.17</time>
   <energy>
    <i name="e_fr_energy">    -36.34507122 </i>
    <i name="e_wo_entrp">    -36.31095600 </i>
    <i name="e_0_energy">    -36.33369948 </i>
   </energy>
  </scstep>
  <scstep>
   <time name="dav">    5.03    5.03</time>
   <time name="total">    8.20    8.21</time>
   <energy>
    <i name="e_fr_energy">    -35.45723111 </i>
    <i name="e_wo_entrp">    -35.39731752 </i>
    <i name="e_0_energy">    -35.43725992 </i>
   </energy>
  </scstep>
  <scstep>
   <time name="dav">    6.05    6.06</time>
   <time name="total">    9.23    9.25</time>
   <energy>
    <i name="e_fr_energy">    -35.56676297 </i>
    <i name="e_wo_entrp">    -35.54876173 </i>
    <i name="e_0_energy">    -35.56076256 </i>
   </energy>
  </scstep>
  <scstep>
   <time name="dav">    6.03    6.04</time>
   <time name="total">    9.21    9.22</time>
   <energy>
    <i name="e_fr_energy">    -35.59582702 </i>
    <i name="e_wo_entrp">    -35.58676581 </i>
    <i name="e_0_energy">    -35.59280662 </i>
   </energy>
  </scstep>
  <scstep>
   <time name="dav">    5.17    5.17</time>
   <time name="total">    8.34    8.35</time>
   <energy>
    <i name="e_fr_energy">    -35.58487733 </i>
    <i name="e_wo_entrp">    -35.55592945 </i>
    <i name="e_0_energy">    -35.57522804 </i>
   </energy>
  </scstep>
  <scstep>
   <time name="dav">    5.99    6.00</time>
   <time name="total">    9.16    9.19</time>
   <energy>
    <i name="e_fr_energy">    -35.54633936 </i>
    <i name="e_wo_entrp">    -35.52049824 </i>
    <i name="e_0_energy">    -35.53772565 </i>
   </energy>
  </scstep>
  <scstep>
   <time name="dav">    5.76    5.77</time>
   <time name="total">    8.94    8.96</time>
   <energy>
    <i name="e_fr_energy">    -35.52561076 </i>
    <i name="e_wo_entrp">    -35.49680995 </i>
    <i name="e_0_energy">    -35.51601049 </i>
   </energy>
  </scstep>
  <scstep>
   <time name="dav">    6.18    6.19</time>
   <time name="total">    9.36    9.38</time>
   <energy>
    <i name="e_fr_energy">    -35.53784052 </i>
    <i name="e_wo_entrp">    -35.50593993 </i>
    <i name="e_0_energy">    -35.52720699 </i>
   </energy>
  </scstep>
  <scstep>
   <time name="dav">    5.61    5.62</time>
   <time name="total">    8.81    8.82</time>
   <energy>
    <i name="e_fr_energy">    -35.57622686 </i>
    <i name="e_wo_entrp">    -35.55578788 </i>
    <i name="e_0_energy">    -35.56941387 </i>
   </energy>
  </scstep>
  <scstep>
   <time name="dav">    5.60    5.61</time>
   <time name="total">    8.79    8.81</time>
   <energy>
    <i name="e_fr_energy">    -35.60500846 </i>
    <i name="e_wo_entrp">    -35.57691800 </i>
    <i name="e_0_energy">    -35.59564498 </i>
   </energy>
  </scstep>
  <scstep>
   <time name="dav">    6.09    6.11</time>
   <time name="total">    9.30    9.33</time>
   <energy>
    <i name="e_fr_energy">    -35.63981673 </i>
    <i name="e_wo_entrp">    -35.61706488 </i>
    <i name="e_0_energy">    -35.63223278 </i>
   </energy>
  </scstep>
  <scstep>
   <time name="dav">    5.21    5.22</time>
   <time name="total">    8.42    8.43</time>
   <energy>
    <i name="e_fr_energy">    -35.62794792 </i>
    <i name="e_wo_entrp">    -35.60167504 </i>
    <i name="e_0_energy">    -35.61919029 </i>
   </energy>
  </scstep>
  <scstep>
   <time name="dav">    5.58    5.59</time>
   <time name="total">    8.81    8.83</time>
   <energy>
    <i name="e_fr_energy">    -35.63737859 </i>
    <i name="e_wo_entrp">    -35.61980828 </i>
    <i name="e_0_energy">    -35.63152182 </i>
   </energy>
  </scstep>
  <scstep>
   <time name="dav">    5.92    5.93</time>
   <time name="total">    9.16    9.18</time>
   <energy>
    <i name="e_fr_energy">    -35.64892027 </i>
    <i name="e_wo_entrp">    -35.63312657 </i>
    <i name="e_0_energy">    -35.64365570 </i>
   </energy>
  </scstep>
  <scstep>
   <time name="dav">    5.63    5.64</time>
   <time name="total">    8.89    8.91</time>
   <energy>
    <i name="e_fr_energy">    -35.65514187 </i>
    <i name="e_wo_entrp">    -35.64080802 </i>
    <i name="e_0_energy">    -35.65036392 </i>
   </energy>
  </scstep>
  <scstep>
   <time name="dav">    5.31    5.31</time>
   <time name="total">    8.57    8.58</time>
   <energy>
    <i name="e_fr_energy">    -35.66038310 </i>
    <i name="e_wo_entrp">    -35.64757661 </i>
    <i name="e_0_energy">    -35.65611427 </i>
   </energy>
  </scstep>
  <scstep>
   <time name="dav">    4.89    4.90</time>
   <time name="total">    8.14    8.16</time>
   <energy>
    <i name="e_fr_energy">    -35.66486785 </i>
    <i name="e_wo_entrp">    -35.65209851 </i>
    <i name="e_0_energy">    -35.66061140 </i>
   </energy>
  </scstep>
  <scstep>
   <time name="dav">    3.91    3.92</time>
   <time name="total">    7.20    7.22</time>
   <energy>
    <i name="e_fr_energy">    -35.66748133 </i>
    <i name="e_wo_entrp">    -35.65523823 </i>
    <i name="e_0_energy">    -35.66340029 </i>
   </energy>
  </scstep>
  <scstep>
   <time name="dav">    3.68    3.68</time>
   <time name="total">    6.97    6.98</time>
   <energy>
    <i name="e_fr_energy">    -35.66859636 </i>
    <i name="e_wo_entrp">    -35.65695335 </i>
    <i name="e_0_energy">    -35.66471536 </i>
   </energy>
  </scstep>
  <scstep>
   <time name="dav">    3.75    3.77</time>
   <time name="total">    7.06    7.08</time>
   <energy>
    <i name="e_fr_energy">    -35.66944065 </i>
    <i name="e_wo_entrp">    -35.65814809 </i>
    <i name="e_0_energy">    -35.66567647 </i>
   </energy>
  </scstep>
  <scstep>
   <time name="dav">    3.77    3.77</time>
   <time name="total">    7.10    7.11</time>
   <energy>
    <i name="e_fr_energy">    -35.66999733 </i>
    <i name="e_wo_entrp">    -35.65892690 </i>
    <i name="e_0_energy">    -35.66630719 </i>
   </energy>
  </scstep>
  <scstep>
   <time name="dav">    3.74    3.74</time>
   <time name="total">    7.08    7.10</time>
   <energy>
    <i name="e_fr_energy">    -35.67016398 </i>
    <i name="e_wo_entrp">    -35.65940899 </i>
    <i name="e_0_energy">    -35.66657899 </i>
   </energy>
  </scstep>
  <scstep>
   <time name="dav">    3.84    3.85</time>
   <time name="total">    7.19    7.20</time>
   <energy>
    <i name="e_fr_energy">    -35.67067192 </i>
    <i name="e_wo_entrp">    -35.65996397 </i>
    <i name="e_0_energy">    -35.66710260 </i>
   </energy>
  </scstep>
  <scstep>
   <time name="dav">    3.76    3.77</time>
   <time name="total">    7.14    7.15</time>
   <energy>
    <i name="e_fr_energy">    -35.67124759 </i>
    <i name="e_wo_entrp">    -35.66067338 </i>
    <i name="e_0_energy">    -35.66772285 </i>
   </energy>
  </scstep>
  <scstep>
   <time name="dav">    3.69    3.70</time>
   <time name="total">    7.10    7.11</time>
   <energy>
    <i name="e_fr_energy">    -35.67197646 </i>
    <i name="e_wo_entrp">    -35.66146073 </i>
    <i name="e_0_energy">    -35.66847122 </i>
   </energy>
  </scstep>
  <scstep>
   <time name="dav">    3.67    3.67</time>
   <time name="total">    7.07    7.09</time>
   <energy>
    <i name="e_fr_energy">    -35.67289999 </i>
    <i name="e_wo_entrp">    -35.66249097 </i>
    <i name="e_0_energy">    -35.66943032 </i>
   </energy>
  </scstep>
  <scstep>
   <time name="dav">    3.69    3.70</time>
   <time name="total">    7.11    7.12</time>
   <energy>
    <i name="e_fr_energy">    -35.67351476 </i>
    <i name="e_wo_entrp">    -35.66311187 </i>
    <i name="e_0_energy">    -35.67004713 </i>
   </energy>
  </scstep>
  <scstep>
   <time name="dav">    3.54    3.54</time>
   <time name="total">    6.99    7.00</time>
   <energy>
    <i name="e_fr_energy">    -35.67430325 </i>
    <i name="e_wo_entrp">    -35.66395708 </i>
    <i name="e_0_energy">    -35.67085452 </i>
   </energy>
  </scstep>
  <scstep>
   <time name="dav">    3.70    3.70</time>
   <time name="total">    7.18    7.19</time>
   <energy>
    <i name="e_fr_energy">    -35.67492182 </i>
    <i name="e_wo_entrp">    -35.66458728 </i>
    <i name="e_0_energy">    -35.67147697 </i>
   </energy>
  </scstep>
  <scstep>
   <time name="dav">    3.65    3.66</time>
   <time name="total">    7.13    7.15</time>
   <energy>
    <i name="e_fr_energy">    -35.67543530 </i>
    <i name="e_wo_entrp">    -35.66512742 </i>
    <i name="e_0_energy">    -35.67199934 </i>
   </energy>
  </scstep>
  <scstep>
   <time name="dav">    3.67    3.67</time>
   <time name="total">    7.19    7.19</time>
   <energy>
    <i name="e_fr_energy">    -35.67586895 </i>
    <i name="e_wo_entrp">    -35.66558698 </i>
    <i name="e_0_energy">    -35.67244163 </i>
   </energy>
  </scstep>
  <scstep>
   <time name="dav">    3.69    3.70</time>
   <time name="total">    7.23    7.24</time>
   <energy>
    <i name="e_fr_energy">    -35.67621773 </i>
    <i name="e_wo_entrp">    -35.66595201 </i>
    <i name="e_0_energy">    -35.67279582 </i>
   </energy>
  </scstep>
  <scstep>
   <time name="dav">    3.63    3.64</time>
   <time name="total">    7.21    7.22</time>
   <energy>
    <i name="e_fr_energy">    -35.67638245 </i>
    <i name="e_wo_entrp">    -35.66613519 </i>
    <i name="e_0_energy">    -35.67296670 </i>
   </energy>
  </scstep>
  <scstep>
   <time name="dav">    3.57    3.57</time>
   <time name="total">    7.14    7.15</time>
   <energy>
    <i name="e_fr_energy">    -35.67649384 </i>
    <i name="e_wo_entrp">    -35.66625205 </i>
    <i name="e_0_energy">    -35.67307991 </i>
   </energy>
  </scstep>
  <scstep>
   <time name="dav">    3.58    3.58</time>
   <time name="total">    6.05    6.05</time>
   <energy>
    <i name="alphaZ">      4.14887633 </i>
    <i name="ewald">  12700.11004743 </i>
    <i name="hartreedc"> -22581.50919595 </i>
    <i name="XCdc">    300.12025415 </i>
    <i name="pawpsdc">  10519.38117875 </i>
    <i name="pawaedc"> -11197.85137585 </i>
    <i name="eentropy">     -0.01023205 </i>
    <i name="bandstr">   -556.70448714 </i>
    <i name="atom">  10776.63837129 </i>
    <i name="e_fr_energy">    -35.67656304 </i>
    <i name="e_wo_entrp">    -35.66633099 </i>
    <i name="e_0_energy">    -35.67315236 </i>
   </energy>
  </scstep>
  <structure>
   <crystal>
    <varray name="basis" >
     <v>      22.42212549       0.00000000       0.00000000 </v>
     <v>       0.00000000      22.59190316       0.00000000 </v>
     <v>       0.00000000       0.00000000      24.26637973 </v>
    </varray>
    <i name="volume">  12292.34061714 </i>
    <varray name="rec_basis" >
     <v>       0.04459880       0.00000000       0.00000000 </v>
     <v>       0.00000000       0.04426365       0.00000000 </v>
     <v>       0.00000000       0.00000000       0.04120928 </v>
    </varray>
   </crystal>
   <varray name="positions" >
    <v>       0.53750766       0.59049649       0.48879227 </v>
    <v>       0.46352535       0.52643153       0.53330127 </v>
    <v>       0.52478914       0.48451645       0.46032470 </v>
    <v>       0.62256482       0.53127544       0.45967666 </v>
    <v>       0.41531802       0.45198493       0.58795966 </v>
    <v>       0.54865987       0.56021765       0.39481132 </v>
    <v>       0.52272707       0.59360121       0.58821326 </v>
    <v>       0.50672993       0.42667609       0.54383444 </v>
    <v>       0.50503995       0.49464068       0.62284366 </v>
    <v>       0.57506816       0.51017411       0.54752055 </v>
   </varray>
  </structure>
  <varray name="forces" >
   <v>      -0.01432988      -0.96678962       0.07083054 </v>
   <v>       0.61225912      -0.47379640       0.41900451 </v>
   <v>       0.36279900       0.66242450       0.47601778 </v>
   <v>      -1.07297326       0.08903447       0.00007353 </v>
   <v>       1.02508042       0.38657505      -0.18231242 </v>
   <v>       0.32499142      -0.29771786       1.08600512 </v>
   <v>       0.05228470      -0.74553005      -0.62778807 </v>
   <v>      -0.37628132       0.99805617      -0.05846505 </v>
   <v>      -0.38782182       0.04043152      -0.82774715 </v>
   <v>      -0.52600838       0.30731222      -0.35561880 </v>
  </varray>
  <energy>
   <i name="e_fr_energy">    -35.67656304 </i>
   <i name="e_wo_entrp">    -35.66633099 </i>
   <i name="e_0_energy">    -35.67315236 </i>
  </energy>
  <time name="totalsc">  363.26  364.01</time>
 </calculation>
 <calculation>
  <scstep>
   <time name="dav">    4.80    4.80</time>
   <time name="total">    7.96    7.97</time>
   <energy>
    <i name="alphaZ">      4.14887633 </i>
    <i name="ewald">  13140.77237778 </i>
    <i name="hartreedc"> -23015.91525535 </i>
    <i name="XCdc">    301.25375059 </i>
    <i name="pawpsdc">  10519.38192776 </i>
    <i name="pawaedc"> -11197.85208165 </i>
    <i name="eentropy">      0.00687542 </i>
    <i name="bandstr">   -564.28688986 </i>
    <i name="atom">  10776.63837129 </i>
    <i name="e_fr_energy">    -35.85204768 </i>
    <i name="e_wo_entrp">    -35.85892310 </i>
    <i name="e_0_energy">    -35.85433949 </i>
   </energy>
  </scstep>
  <scstep>
   <time name="dav">    6.15    6.16</time>
   <time name="total">    9.27    9.29</time>
   <energy>
    <i name="e_fr_energy">    -37.21591369 </i>
    <i name="e_wo_entrp">    -37.21023348 </i>
    <i name="e_0_energy">    -37.21402028 </i>
   </energy>
  </scstep>
  <scstep>
   <time name="dav">    5.18    5.19</time>
   <time name="total">    8.32    8.33</time>
   <energy>
    <i name="e_fr_energy">    -35.87207533 </i>
    <i name="e_wo_entrp">    -35.86444069 </i>
    <i name="e_0_energy">    -35.86953045 </i>
   </energy>
  </scstep>
  <scstep>
   <time name="dav">    6.24    6.25</time>
   <time name="total">    9.37    9.38</time>
   <energy>
    <i name="e_fr_energy">    -36.04451434 </i>
    <i name="e_wo_entrp">    -36.04343382 </i>
    <i name="e_0_energy">    -36.04415416 </i>
   </energy>
  </scstep>
  <scstep>
   <time name="dav">    5.33    5.33</time>
   <time name="total">    8.48    8.49</time>
   <energy>
    <i name="e_fr_energy">    -36.00942511 </i>
    <i name="e_wo_entrp">    -35.99849370 </i>
    <i name="e_0_energy">    -36.00578131 </i>
   </energy>
  </scstep>
  <scstep>
   <time name="dav">    5.41    5.42</time>
   <time name="total">    8.57    8.58</time>
   <energy>
    <i name="e_fr_energy">    -35.98340287 </i>
    <i name="e_wo_entrp">    -35.98173308 </i>
    <i name="e_0_energy">    -35.98284628 </i>
   </energy>
  </scstep>
  <scstep>
   <time name="dav">    5.63    5.63</time>
   <time name="total">    8.78    8.79</time>
   <energy>
    <i name="e_fr_energy">    -36.01747980 </i>
    <i name="e_wo_entrp">    -36.00851321 </i>
    <i name="e_0_energy">    -36.01449094 </i>
   </energy>
  </scstep>
  <scstep>
   <time name="dav">    5.23    5.23</time>
   <time name="total">    8.38    8.39</time>
   <energy>
    <i name="e_fr_energy">    -35.99863657 </i>
    <i name="e_wo_entrp">    -35.98999869 </i>
    <i name="e_0_energy">    -35.99575728 </i>
   </energy>
  </scstep>
  <scstep>
   <time name="dav">    5.83    5.84</time>
   <time name="total">    8.99    9.00</time>
   <energy>
    <i name="e_fr_energy">    -36.00865341 </i>
    <i name="e_wo_entrp">    -35.99669385 </i>
    <i name="e_0_energy">    -36.00466689 </i>
   </energy>
  </scstep>
  <scstep>
   <time name="dav">    5.33    5.33</time>
   <time name="total">    8.50    8.52</time>
   <energy>
    <i name="e_fr_energy">    -35.99544792 </i>
    <i name="e_wo_entrp">    -35.99069269 </i>
    <i name="e_0_energy">    -35.99386285 </i>
   </energy>
  </scstep>
  <scstep>
   <time name="dav">    6.02    6.03</time>
   <time name="total">    9.21    9.22</time>
   <energy>
    <i name="e_fr_energy">    -36.00264853 </i>
    <i name="e_wo_entrp">    -35.99987050 </i>
    <i name="e_0_energy">    -36.00172252 </i>
   </energy>
  </scstep>
  <scstep>
   <time name="dav">    5.09    5.10</time>
   <time name="total">    8.29    8.30</time>
   <energy>
    <i name="e_fr_energy">    -35.99694361 </i>
    <i name="e_wo_entrp">    -35.99357834 </i>
    <i name="e_0_energy">    -35.99582185 </i>
   </energy>
  </scstep>
  <scstep>
   <time name="dav">    6.15    6.16</time>
   <time name="total">    9.34    9.35</time>
   <energy>
    <i name="e_fr_energy">    -36.00035918 </i>
    <i name="e_wo_entrp">    -35.99752265 </i>
    <i name="e_0_energy">    -35.99941367 </i>
   </energy>
  </scstep>
  <scstep>
   <time name="dav">    5.33    5.34</time>
   <time name="total">    8.54    8.56</time>
   <energy>
    <i name="e_fr_energy">    -35.99881088 </i>
    <i name="e_wo_entrp">    -35.99428593 </i>
    <i name="e_0_energy">    -35.99730256 </i>
   </energy>
  </scstep>
  <scstep>
   <time name="dav">    5.67    5.68</time>
   <time name="total">    8.91    8.93</time>
   <energy>
    <i name="e_fr_energy">    -35.99962421 </i>
    <i name="e_wo_entrp">    -35.99579873 </i>
    <i name="e_0_energy">    -35.99834905 </i>
   </energy>
  </scstep>
  <scstep>
   <time name="dav">    4.51    4.51</time>
   <time name="total">    6.99    7.00</time>
   <energy>
    <i name="alphaZ">      4.14887633 </i>
    <i name="ewald">  13140.77237778 </i>
    <i name="hartreedc"> -23009.90836744 </i>
    <i name="XCdc">    300.89499794 </i>
    <i name="pawpsdc">  10699.86871096 </i>
    <i name="pawaedc"> -11380.61398565 </i>
    <i name="eentropy">     -0.00351792 </i>
    <i name="bandstr">   -567.79701190 </i>
    <i name="atom">  10776.63837129 </i>
    <i name="e_fr_energy">    -35.99954861 </i>
    <i name="e_wo_entrp">    -35.99603068 </i>
    <i name="e_0_energy">    -35.99837597 </i>
   </energy>
  </scstep>
  <structure>
   <crystal>
    <varray name="basis" >
     <v>      22.42212549       0.00000000       0.00000000 </v>
     <v>       0.00000000      22.59190316       0.00000000 </v>
     <v>       0.00000000       0.00000000      24.26637973 </v>
    </varray>
    <i name="volume">  12292.34061714 </i>
    <varray name="rec_basis" >
     <v>       0.04459880       0.00000000       0.00000000 </v>
     <v>       0.00000000       0.04426365       0.00000000 </v>
     <v>       0.00000000       0.00000000       0.04120928 </v>
    </varray>
   </crystal>
   <varray name="positions" >
    <v>       0.53747683       0.58843201       0.48893308 </v>
    <v>       0.46484267       0.52541978       0.53413427 </v>
    <v>       0.52556973       0.48593098       0.46127105 </v>
    <v>       0.62025624       0.53146556       0.45967680 </v>
    <v>       0.41752354       0.45281042       0.58759721 </v>
    <v>       0.54935911       0.55958191       0.39697035 </v>
    <v>       0.52283956       0.59200921       0.58696519 </v>
    <v>       0.50592034       0.42880733       0.54371820 </v>
    <v>       0.50420553       0.49472702       0.62119806 </v>
    <v>       0.57393642       0.51083035       0.54681356 </v>
   </varray>
  </structure>
  <varray name="forces" >
   <v>      -0.16332141      -0.36923291       0.09237414 </v>
   <v>       0.11502826      -0.16019798       0.16355580 </v>
   <v>       0.06376036       0.16884660       0.18622793 </v>
   <v>      -0.32640771       0.00597725       0.06272775 </v>
   <v>       0.39696001       0.15727524      -0.03885652 </v>
   <v>       0.13622155      -0.08744402       0.47383540 </v>
   <v>       0.07415822      -0.29413431      -0.37817344 </v>
   <v>      -0.12110969       0.42216066      -0.20979044 </v>
   <v>      -0.15155909       0.04463739      -0.27076023 </v>
   <v>      -0.02373049       0.11211208      -0.08114039 </v>
  </varray>
  <energy>
   <i name="e_fr_energy">    -35.99954861 </i>
   <i name="e_wo_entrp">    -35.99603068 </i>
   <i name="e_0_energy">    -35.99837597 </i>
  </energy>
  <time name="totalsc">  147.07  147.35</time>
 </calculation>
 <calculation>
  <scstep>
   <time name="dav">    4.77    4.77</time>
   <time name="total">    7.92    7.93</time>
   <energy>
    <i name="alphaZ">      4.14887633 </i>
    <i name="ewald">  13371.07283748 </i>
    <i name="hartreedc"> -23236.18630050 </i>
    <i name="XCdc">    301.49328695 </i>
    <i name="pawpsdc">  10699.62148625 </i>
    <i name="pawaedc"> -11380.35578834 </i>
    <i name="eentropy">      0.00539148 </i>
    <i name="bandstr">   -572.43673704 </i>
    <i name="atom">  10776.63837129 </i>
    <i name="e_fr_energy">    -35.99857609 </i>
    <i name="e_wo_entrp">    -36.00396757 </i>
    <i name="e_0_energy">    -36.00037325 </i>
   </energy>
  </scstep>
  <scstep>
   <time name="dav">    6.54    6.55</time>
   <time name="total">    9.68    9.69</time>
   <energy>
    <i name="e_fr_energy">    -36.33614225 </i>
    <i name="e_wo_entrp">    -36.30802967 </i>
    <i name="e_0_energy">    -36.32677139 </i>
   </energy>
  </scstep>
  <scstep>
   <time name="dav">    5.12    5.13</time>
   <time name="total">    8.27    8.28</time>
   <energy>
    <i name="e_fr_energy">    -35.98277682 </i>
    <i name="e_wo_entrp">    -35.98451697 </i>
    <i name="e_0_energy">    -35.98335687 </i>
   </energy>
  </scstep>
  <scstep>
   <time name="dav">    6.51    6.52</time>
   <time name="total">    9.67    9.68</time>
   <energy>
    <i name="e_fr_energy">    -36.05089181 </i>
    <i name="e_wo_entrp">    -36.05499672 </i>
    <i name="e_0_energy">    -36.05226011 </i>
   </energy>
  </scstep>
  <scstep>
   <time name="dav">    5.61    5.61</time>
   <time name="total">    8.76    8.77</time>
   <energy>
    <i name="e_fr_energy">    -36.04250381 </i>
    <i name="e_wo_entrp">    -36.03827705 </i>
    <i name="e_0_energy">    -36.04109489 </i>
   </energy>
  </scstep>
  <scstep>
   <time name="dav">    5.18    5.19</time>
   <time name="total">    8.33    8.34</time>
   <energy>
    <i name="e_fr_energy">    -36.03124561 </i>
    <i name="e_wo_entrp">    -36.03357833 </i>
    <i name="e_0_energy">    -36.03202318 </i>
   </energy>
  </scstep>
  <scstep>
   <time name="dav">    6.02    6.03</time>
   <time name="total">    9.17    9.18</time>
   <energy>
    <i name="e_fr_energy">    -36.04375344 </i>
    <i name="e_wo_entrp">    -36.04291016 </i>
    <i name="e_0_energy">    -36.04347234 </i>
   </energy>
  </scstep>
  <scstep>
   <time name="dav">    5.20    5.21</time>
   <time name="total">    8.37    8.39</time>
   <energy>
    <i name="e_fr_energy">    -36.04111581 </i>
    <i name="e_wo_entrp">    -36.03847150 </i>
    <i name="e_0_energy">    -36.04023437 </i>
   </energy>
  </scstep>
  <scstep>
   <time name="dav">    5.61    5.62</time>
   <time name="total">    8.78    8.80</time>
   <energy>
    <i name="e_fr_energy">    -36.04156677 </i>
    <i name="e_wo_entrp">    -36.03869892 </i>
    <i name="e_0_energy">    -36.04061082 </i>
   </energy>
  </scstep>
  <scstep>
   <time name="dav">    5.13    5.14</time>
   <time name="total">    8.31    8.32</time>
   <energy>
    <i name="e_fr_energy">    -36.03694841 </i>
    <i name="e_wo_entrp">    -36.03717352 </i>
    <i name="e_0_energy">    -36.03702345 </i>
   </energy>
  </scstep>
  <scstep>
   <time name="dav">    5.94    5.95</time>
   <time name="total">    9.12    9.14</time>
   <energy>
    <i name="e_fr_energy">    -36.03768817 </i>
    <i name="e_wo_entrp">    -36.03917506 </i>
    <i name="e_0_energy">    -36.03818380 </i>
   </energy>
  </scstep>
  <scstep>
   <time name="dav">    5.60    5.61</time>
   <time name="total">    8.79    8.81</time>
   <energy>
    <i name="e_fr_energy">    -36.03745821 </i>
    <i name="e_wo_entrp">    -36.03876341 </i>
    <i name="e_0_energy">    -36.03789328 </i>
   </energy>
  </scstep>
  <scstep>
   <time name="dav">    4.67    4.68</time>
   <time name="total">    7.88    7.89</time>
   <energy>
    <i name="e_fr_energy">    -36.03801768 </i>
    <i name="e_wo_entrp">    -36.03943094 </i>
    <i name="e_0_energy">    -36.03848877 </i>
   </energy>
  </scstep>
  <scstep>
   <time name="dav">    3.88    3.89</time>
   <time name="total">    6.36    6.38</time>
   <energy>
    <i name="alphaZ">      4.14887633 </i>
    <i name="ewald">  13371.07283748 </i>
    <i name="hartreedc"> -23233.04120256 </i>
    <i name="XCdc">    301.32238456 </i>
    <i name="pawpsdc">  10804.64952032 </i>
    <i name="pawaedc"> -11486.71057127 </i>
    <i name="eentropy">      0.00079080 </i>
    <i name="bandstr">   -574.11908230 </i>
    <i name="atom">  10776.63837129 </i>
    <i name="e_fr_energy">    -36.03807534 </i>
    <i name="e_wo_entrp">    -36.03886614 </i>
    <i name="e_0_energy">    -36.03833894 </i>
   </energy>
  </scstep>
  <structure>
   <crystal>
    <varray name="basis" >
     <v>      22.42212549       0.00000000       0.00000000 </v>
     <v>       0.00000000      22.59190316       0.00000000 </v>
     <v>       0.00000000       0.00000000      24.26637973 </v>
    </varray>
    <i name="volume">  12292.34061714 </i>
    <varray name="rec_basis" >
     <v>       0.04459880       0.00000000       0.00000000 </v>
     <v>       0.00000000       0.04426365       0.00000000 </v>
     <v>       0.00000000       0.00000000       0.04120928 </v>
    </varray>
   </crystal>
   <varray name="positions" >
    <v>       0.53746124       0.58738813       0.48900428 </v>
    <v>       0.46550875       0.52490821       0.53455547 </v>
    <v>       0.52596442       0.48664623       0.46174956 </v>
    <v>       0.61908894       0.53156169       0.45967688 </v>
    <v>       0.41863875       0.45322782       0.58741395 </v>
    <v>       0.54971268       0.55926045       0.39806204 </v>
    <v>       0.52289644       0.59120423       0.58633411 </v>
    <v>       0.50551098       0.42988497       0.54365943 </v>
    <v>       0.50378361       0.49477067       0.62036598 </v>
    <v>       0.57336417       0.51116217       0.54645608 </v>
   </varray>
  </structure>
  <varray name="forces" >
   <v>      -0.26687922       0.01640027       0.11453800 </v>
   <v>      -0.17608288       0.05779495      -0.01523689 </v>
   <v>      -0.14182334      -0.15411423       0.01630385 </v>
   <v>       0.17587030      -0.05796058       0.12103533 </v>
   <v>      -0.05256562      -0.00823881       0.06750345 </v>
   <v>       0.00384642       0.03706992       0.07700540 </v>
   <v>       0.08966310      -0.00242248      -0.21379160 </v>
   <v>       0.05448024       0.06562534      -0.31623767 </v>
   <v>       0.01550513       0.06776889       0.05162678 </v>
   <v>       0.29798587      -0.02192327       0.09725334 </v>
  </varray>
  <energy>
   <i name="e_fr_energy">    -36.03807534 </i>
   <i name="e_wo_entrp">    -36.03886614 </i>
   <i name="e_0_energy">    -36.03833894 </i>
  </energy>
  <time name="totalsc">  128.58  128.82</time>
 </calculation>
 <calculation>
  <scstep>
   <time name="dav">    4.77    4.78</time>
   <time name="total">    7.93    7.95</time>
   <energy>
    <i name="alphaZ">      4.14887633 </i>
    <i name="ewald">  13341.07496531 </i>
    <i name="hartreedc"> -23203.60894225 </i>
    <i name="XCdc">    301.24559528 </i>
    <i name="pawpsdc">  10804.44226621 </i>
    <i name="pawaedc"> -11486.49957412 </i>
    <i name="eentropy">     -0.00034755 </i>
    <i name="bandstr">   -573.47958915 </i>
    <i name="atom">  10776.63837129 </i>
    <i name="e_fr_energy">    -36.03837866 </i>
    <i name="e_wo_entrp">    -36.03803111 </i>
    <i name="e_0_energy">    -36.03826281 </i>
   </energy>
  </scstep>
  <scstep>
   <time name="dav">    6.69    6.70</time>
   <time name="total">    9.84    9.85</time>
   <energy>
    <i name="e_fr_energy">    -36.04758330 </i>
    <i name="e_wo_entrp">    -36.05258514 </i>
    <i name="e_0_energy">    -36.04925058 </i>
   </energy>
  </scstep>
  <scstep>
   <time name="dav">    5.62    5.63</time>
   <time name="total">    8.76    8.78</time>
   <energy>
    <i name="e_fr_energy">    -36.03638040 </i>
    <i name="e_wo_entrp">    -36.03695846 </i>
    <i name="e_0_energy">    -36.03657308 </i>
   </energy>
  </scstep>
  <scstep>
   <time name="dav">    6.31    6.32</time>
   <time name="total">    9.45    9.47</time>
   <energy>
    <i name="e_fr_energy">    -36.03951958 </i>
    <i name="e_wo_entrp">    -36.03935488 </i>
    <i name="e_0_energy">    -36.03946468 </i>
   </energy>
  </scstep>
  <scstep>
   <time name="dav">    5.08    5.10</time>
   <time name="total">    8.24    8.26</time>
   <energy>
    <i name="e_fr_energy">    -36.03926425 </i>
    <i name="e_wo_entrp">    -36.03997671 </i>
    <i name="e_0_energy">    -36.03950174 </i>
   </energy>
  </scstep>
  <scstep>
   <time name="dav">    3.85    3.86</time>
   <time name="total">    7.01    7.03</time>
   <energy>
    <i name="e_fr_energy">    -36.03951388 </i>
    <i name="e_wo_entrp">    -36.03983160 </i>
    <i name="e_0_energy">    -36.03961979 </i>
   </energy>
  </scstep>
  <scstep>
   <time name="dav">    3.66    3.67</time>
   <time name="total">    6.81    6.82</time>
   <energy>
    <i name="e_fr_energy">    -36.04027717 </i>
    <i name="e_wo_entrp">    -36.04139871 </i>
    <i name="e_0_energy">    -36.04065101 </i>
   </energy>
  </scstep>
  <scstep>
   <time name="dav">    3.77    3.78</time>
   <time name="total">    6.94    6.95</time>
   <energy>
    <i name="e_fr_energy">    -36.04054547 </i>
    <i name="e_wo_entrp">    -36.04190099 </i>
    <i name="e_0_energy">    -36.04099731 </i>
   </energy>
  </scstep>
  <scstep>
   <time name="dav">    3.62    3.62</time>
   <time name="total">    6.78    6.79</time>
   <energy>
    <i name="e_fr_energy">    -36.04088073 </i>
    <i name="e_wo_entrp">    -36.04175406 </i>
    <i name="e_0_energy">    -36.04117184 </i>
   </energy>
  </scstep>
  <scstep>
   <time name="dav">    3.58    3.59</time>
   <time name="total">    6.75    6.77</time>
   <energy>
    <i name="e_fr_energy">    -36.04109771 </i>
    <i name="e_wo_entrp">    -36.04194753 </i>
    <i name="e_0_energy">    -36.04138099 </i>
   </energy>
  </scstep>
  <scstep>
   <time name="dav">    3.46    3.46</time>
   <time name="total">    6.63    6.65</time>
   <energy>
    <i name="e_fr_energy">    -36.04124054 </i>
    <i name="e_wo_entrp">    -36.04193686 </i>
    <i name="e_0_energy">    -36.04147265 </i>
   </energy>
  </scstep>
  <scstep>
   <time name="dav">    3.46    3.46</time>
   <time name="total">    6.65    6.66</time>
   <energy>
    <i name="e_fr_energy">    -36.04145961 </i>
    <i name="e_wo_entrp">    -36.04223118 </i>
    <i name="e_0_energy">    -36.04171680 </i>
   </energy>
  </scstep>
  <scstep>
   <time name="dav">    3.14    3.15</time>
   <time name="total">    5.63    5.64</time>
   <energy>
    <i name="alphaZ">      4.14887633 </i>
    <i name="ewald">  13341.07496531 </i>
    <i name="hartreedc"> -23203.87956404 </i>
    <i name="XCdc">    301.26428557 </i>
    <i name="pawpsdc">  10789.88281087 </i>
    <i name="pawaedc"> -11471.73448562 </i>
    <i name="eentropy">      0.00084883 </i>
    <i name="bandstr">   -573.43763278 </i>
    <i name="atom">  10776.63837129 </i>
    <i name="e_fr_energy">    -36.04152425 </i>
    <i name="e_wo_entrp">    -36.04237308 </i>
    <i name="e_0_energy">    -36.04180720 </i>
   </energy>
  </scstep>
  <structure>
   <crystal>
    <varray name="basis" >
     <v>      22.42212549       0.00000000       0.00000000 </v>
     <v>       0.00000000      22.59190316       0.00000000 </v>
     <v>       0.00000000       0.00000000      24.26637973 </v>
    </varray>
    <i name="volume">  12292.34061714 </i>
    <varray name="rec_basis" >
     <v>       0.04459880       0.00000000       0.00000000 </v>
     <v>       0.00000000       0.04426365       0.00000000 </v>
     <v>       0.00000000       0.00000000       0.04120928 </v>
    </varray>
   </crystal>
   <varray name="positions" >
    <v>       0.53746325       0.58752278       0.48899510 </v>
    <v>       0.46542284       0.52497419       0.53450114 </v>
    <v>       0.52591351       0.48655397       0.46168784 </v>
    <v>       0.61923951       0.53154929       0.45967687 </v>
    <v>       0.41849490       0.45317398       0.58743759 </v>
    <v>       0.54966707       0.55930191       0.39792123 </v>
    <v>       0.52288911       0.59130806       0.58641551 </v>
    <v>       0.50556378       0.42974597       0.54366701 </v>
    <v>       0.50383803       0.49476504       0.62047331 </v>
    <v>       0.57343798       0.51111937       0.54650219 </v>
   </varray>
  </structure>
  <varray name="forces" >
   <v>      -0.25250220      -0.03981181       0.11209905 </v>
   <v>      -0.13917874       0.02838821       0.00988441 </v>
   <v>      -0.11306850      -0.10633035       0.04204423 </v>
   <v>       0.10512771      -0.04855673       0.11148454 </v>
   <v>       0.00958118       0.01450186       0.05173128 </v>
   <v>       0.02238324       0.02039267       0.12938878 </v>
   <v>       0.08709843      -0.04430979      -0.23889953 </v>
   <v>       0.02908295       0.11768514      -0.29982951 </v>
   <v>      -0.00792165       0.06258061       0.00651045 </v>
   <v>       0.25939758      -0.00453982       0.07558629 </v>
  </varray>
  <energy>
   <i name="e_fr_energy">    -36.04152425 </i>
   <i name="e_wo_entrp">    -36.04237308 </i>
   <i name="e_0_energy">    -36.04180720 </i>
  </energy>
  <time name="totalsc">  106.57  106.80</time>
 </calculation>
 <calculation>
  <scstep>
   <time name="dav">    4.76    4.77</time>
   <time name="total">    7.93    7.94</time>
   <energy>
    <i name="alphaZ">      4.14887633 </i>
    <i name="ewald">  13359.42510527 </i>
    <i name="hartreedc"> -23222.29703032 </i>
    <i name="XCdc">    301.29407130 </i>
    <i name="pawpsdc">  10789.85418248 </i>
    <i name="pawaedc"> -11471.70699123 </i>
    <i name="eentropy">      0.00425646 </i>
    <i name="bandstr">   -573.41360197 </i>
    <i name="atom">  10776.63837129 </i>
    <i name="e_fr_energy">    -36.05276039 </i>
    <i name="e_wo_entrp">    -36.05701685 </i>
    <i name="e_0_energy">    -36.05417921 </i>
   </energy>
  </scstep>
  <scstep>
   <time name="dav">    5.70    5.70</time>
   <time name="total">    8.84    8.85</time>
   <energy>
    <i name="e_fr_energy">    -36.15809505 </i>
    <i name="e_wo_entrp">    -36.14853225 </i>
    <i name="e_0_energy">    -36.15490745 </i>
   </energy>
  </scstep>
  <scstep>
   <time name="dav">    5.09    5.10</time>
   <time name="total">    8.24    8.26</time>
   <energy>
    <i name="e_fr_energy">    -36.03647365 </i>
    <i name="e_wo_entrp">    -36.03612843 </i>
    <i name="e_0_energy">    -36.03635858 </i>
   </energy>
  </scstep>
  <scstep>
   <time name="dav">    5.97    5.98</time>
   <time name="total">    9.13    9.14</time>
   <energy>
    <i name="e_fr_energy">    -36.06193177 </i>
    <i name="e_wo_entrp">    -36.06544131 </i>
    <i name="e_0_energy">    -36.06310162 </i>
   </energy>
  </scstep>
  <scstep>
   <time name="dav">    5.41    5.42</time>
   <time name="total">    8.57    8.59</time>
   <energy>
    <i name="e_fr_energy">    -36.05981415 </i>
    <i name="e_wo_entrp">    -36.06002918 </i>
    <i name="e_0_energy">    -36.05988582 </i>
   </energy>
  </scstep>
  <scstep>
   <time name="dav">    5.00    5.01</time>
   <time name="total">    8.16    8.17</time>
   <energy>
    <i name="e_fr_energy">    -36.05882999 </i>
    <i name="e_wo_entrp">    -36.06119409 </i>
    <i name="e_0_energy">    -36.05961802 </i>
   </energy>
  </scstep>
  <scstep>
   <time name="dav">    5.94    5.95</time>
   <time name="total">    9.11    9.13</time>
   <energy>
    <i name="e_fr_energy">    -36.06117306 </i>
    <i name="e_wo_entrp">    -36.06177226 </i>
    <i name="e_0_energy">    -36.06137279 </i>
   </energy>
  </scstep>
  <scstep>
   <time name="dav">    5.42    5.43</time>
   <time name="total">    8.59    8.60</time>
   <energy>
    <i name="e_fr_energy">    -36.06098213 </i>
    <i name="e_wo_entrp">    -36.06157289 </i>
    <i name="e_0_energy">    -36.06117905 </i>
   </energy>
  </scstep>
  <scstep>
   <time name="dav">    5.44    5.44</time>
   <time name="total">    8.62    8.63</time>
   <energy>
    <i name="e_fr_energy">    -36.06148538 </i>
    <i name="e_wo_entrp">    -36.06249931 </i>
    <i name="e_0_energy">    -36.06182335 </i>
   </energy>
  </scstep>
  <scstep>
   <time name="dav">    5.04    5.05</time>
   <time name="total">    8.24    8.25</time>
   <energy>
    <i name="e_fr_energy">    -36.06102431 </i>
    <i name="e_wo_entrp">    -36.06278987 </i>
    <i name="e_0_energy">    -36.06161283 </i>
   </energy>
  </scstep>
  <scstep>
   <time name="dav">    3.99    4.00</time>
   <time name="total">    7.18    7.20</time>
   <energy>
    <i name="e_fr_energy">    -36.06160158 </i>
    <i name="e_wo_entrp">    -36.06392749 </i>
    <i name="e_0_energy">    -36.06237689 </i>
   </energy>
  </scstep>
  <scstep>
   <time name="dav">    3.68    3.69</time>
   <time name="total">    6.16    6.18</time>
   <energy>
    <i name="alphaZ">      4.14887633 </i>
    <i name="ewald">  13359.42510527 </i>
    <i name="hartreedc"> -23221.58187739 </i>
    <i name="XCdc">    301.27289809 </i>
    <i name="pawpsdc">  10792.31446119 </i>
    <i name="pawaedc"> -11474.21614117 </i>
    <i name="eentropy">      0.00168823 </i>
    <i name="bandstr">   -574.06491275 </i>
    <i name="atom">  10776.63837129 </i>
    <i name="e_fr_energy">    -36.06153090 </i>
    <i name="e_wo_entrp">    -36.06321913 </i>
    <i name="e_0_energy">    -36.06209364 </i>
   </energy>
  </scstep>
  <structure>
   <crystal>
    <varray name="basis" >
     <v>      22.42212549       0.00000000       0.00000000 </v>
     <v>       0.00000000      22.59190316       0.00000000 </v>
     <v>       0.00000000       0.00000000      24.26637973 </v>
    </varray>
    <i name="volume">  12292.34061714 </i>
    <varray name="rec_basis" >
     <v>       0.04459880       0.00000000       0.00000000 </v>
     <v>       0.00000000       0.04426365       0.00000000 </v>
     <v>       0.00000000       0.00000000       0.04120928 </v>
    </varray>
   </crystal>
   <varray name="positions" >
    <v>       0.53687082       0.58734304       0.48924354 </v>
    <v>       0.46515268       0.52499740       0.53455772 </v>
    <v>       0.52568180       0.48636669       0.46181878 </v>
    <v>       0.61938806       0.53144451       0.45991803 </v>
    <v>       0.41861053       0.45324256       0.58753417 </v>
    <v>       0.54974902       0.55932243       0.39829235 </v>
    <v>       0.52309777       0.59113783       0.58584599 </v>
    <v>       0.50559765       0.43010948       0.54301352 </v>
    <v>       0.50378422       0.49491409       0.62041785 </v>
    <v>       0.57399743       0.51113655       0.54663582 </v>
   </varray>
  </structure>
  <varray name="forces" >
   <v>      -0.18077107      -0.05814240       0.05226932 </v>
   <v>      -0.14787868       0.02933714      -0.01097058 </v>
   <v>      -0.06316326      -0.06362131       0.01821326 </v>
   <v>       0.05365670      -0.03597389       0.11285220 </v>
   <v>       0.00607555      -0.00871895       0.04292349 </v>
   <v>       0.02087846       0.01451347       0.11385342 </v>
   <v>       0.07959500      -0.00847523      -0.15616161 </v>
   <v>       0.01689885       0.10586029      -0.21207618 </v>
   <v>       0.01714400       0.04890056       0.00183748 </v>
   <v>       0.19756444      -0.02367968       0.03725920 </v>
  </varray>
  <energy>
   <i name="e_fr_energy">    -36.06153090 </i>
   <i name="e_wo_entrp">    -36.06321913 </i>
   <i name="e_0_energy">    -36.06209364 </i>
  </energy>
  <time name="totalsc">  107.91  108.15</time>
 </calculation>
 <calculation>
  <scstep>
   <time name="dav">    4.75    4.76</time>
   <time name="total">    7.91    7.93</time>
   <energy>
    <i name="alphaZ">      4.14887633 </i>
    <i name="ewald">  13377.28560610 </i>
    <i name="hartreedc"> -23239.48428651 </i>
    <i name="XCdc">    301.30311233 </i>
    <i name="pawpsdc">  10792.34896923 </i>
    <i name="pawaedc"> -11474.25243625 </i>
    <i name="eentropy">      0.00451842 </i>
    <i name="bandstr">   -574.05930422 </i>
    <i name="atom">  10776.63837129 </i>
    <i name="e_fr_energy">    -36.06657327 </i>
    <i name="e_wo_entrp">    -36.07109169 </i>
    <i name="e_0_energy">    -36.06807941 </i>
   </energy>
  </scstep>
  <scstep>
   <time name="dav">    5.71    5.72</time>
   <time name="total">    8.84    8.86</time>
   <energy>
    <i name="e_fr_energy">    -36.18582345 </i>
    <i name="e_wo_entrp">    -36.18111991 </i>
    <i name="e_0_energy">    -36.18425561 </i>
   </energy>
  </scstep>
  <scstep>
   <time name="dav">    5.29    5.29</time>
   <time name="total">    8.42    8.43</time>
   <energy>
    <i name="e_fr_energy">    -36.04521162 </i>
    <i name="e_wo_entrp">    -36.04514160 </i>
    <i name="e_0_energy">    -36.04518828 </i>
   </energy>
  </scstep>
  <scstep>
   <time name="dav">    6.04    6.05</time>
   <time name="total">    9.18    9.20</time>
   <energy>
    <i name="e_fr_energy">    -36.07267049 </i>
    <i name="e_wo_entrp">    -36.07586034 </i>
    <i name="e_0_energy">    -36.07373377 </i>
   </energy>
  </scstep>
  <scstep>
   <time name="dav">    5.43    5.44</time>
   <time name="total">    8.58    8.59</time>
   <energy>
    <i name="e_fr_energy">    -36.07309836 </i>
    <i name="e_wo_entrp">    -36.07376875 </i>
    <i name="e_0_energy">    -36.07332183 </i>
   </energy>
  </scstep>
  <scstep>
   <time name="dav">    5.01    5.02</time>
   <time name="total">    8.16    8.17</time>
   <energy>
    <i name="e_fr_energy">    -36.07170096 </i>
    <i name="e_wo_entrp">    -36.07457890 </i>
    <i name="e_0_energy">    -36.07266027 </i>
   </energy>
  </scstep>
  <scstep>
   <time name="dav">    6.05    6.05</time>
   <time name="total">    9.20    9.22</time>
   <energy>
    <i name="e_fr_energy">    -36.07382241 </i>
    <i name="e_wo_entrp">    -36.07482979 </i>
    <i name="e_0_energy">    -36.07415821 </i>
   </energy>
  </scstep>
  <scstep>
   <time name="dav">    5.33    5.33</time>
   <time name="total">    8.49    8.51</time>
   <energy>
    <i name="e_fr_energy">    -36.07363674 </i>
    <i name="e_wo_entrp">    -36.07473467 </i>
    <i name="e_0_energy">    -36.07400272 </i>
   </energy>
  </scstep>
  <scstep>
   <time name="dav">    5.44    5.45</time>
   <time name="total">    8.62    8.64</time>
   <energy>
    <i name="e_fr_energy">    -36.07402514 </i>
    <i name="e_wo_entrp">    -36.07567419 </i>
    <i name="e_0_energy">    -36.07457482 </i>
   </energy>
  </scstep>
  <scstep>
   <time name="dav">    5.01    5.01</time>
   <time name="total">    8.19    8.20</time>
   <energy>
    <i name="e_fr_energy">    -36.07356276 </i>
    <i name="e_wo_entrp">    -36.07575431 </i>
    <i name="e_0_energy">    -36.07429328 </i>
   </energy>
  </scstep>
  <scstep>
   <time name="dav">    3.97    3.98</time>
   <time name="total">    7.15    7.17</time>
   <energy>
    <i name="e_fr_energy">    -36.07417663 </i>
    <i name="e_wo_entrp">    -36.07685640 </i>
    <i name="e_0_energy">    -36.07506988 </i>
   </energy>
  </scstep>
  <scstep>
   <time name="dav">    3.70    3.71</time>
   <time name="total">    6.19    6.20</time>
   <energy>
    <i name="alphaZ">      4.14887633 </i>
    <i name="ewald">  13377.28560610 </i>
    <i name="hartreedc"> -23238.81029091 </i>
    <i name="XCdc">    301.28375698 </i>
    <i name="pawpsdc">  10795.29461199 </i>
    <i name="pawaedc"> -11477.25570299 </i>
    <i name="eentropy">      0.00204952 </i>
    <i name="bandstr">   -574.66140340 </i>
    <i name="atom">  10776.63837129 </i>
    <i name="e_fr_energy">    -36.07412509 </i>
    <i name="e_wo_entrp">    -36.07617461 </i>
    <i name="e_0_energy">    -36.07480826 </i>
   </energy>
  </scstep>
  <structure>
   <crystal>
    <varray name="basis" >
     <v>      22.42212549       0.00000000       0.00000000 </v>
     <v>       0.00000000      22.59190316       0.00000000 </v>
     <v>       0.00000000       0.00000000      24.26637973 </v>
    </varray>
    <i name="volume">  12292.34061714 </i>
    <varray name="rec_basis" >
     <v>       0.04459880       0.00000000       0.00000000 </v>
     <v>       0.00000000       0.04426365       0.00000000 </v>
     <v>       0.00000000       0.00000000       0.04120928 </v>
    </varray>
   </crystal>
   <varray name="positions" >
    <v>       0.53629486       0.58716829       0.48948507 </v>
    <v>       0.46489003       0.52501996       0.53461273 </v>
    <v>       0.52545652       0.48618462       0.46194607 </v>
    <v>       0.61953249       0.53134263       0.46015249 </v>
    <v>       0.41872295       0.45330923       0.58762807 </v>
    <v>       0.54982869       0.55934238       0.39865316 </v>
    <v>       0.52330062       0.59097234       0.58529231 </v>
    <v>       0.50563059       0.43046287       0.54237820 </v>
    <v>       0.50373191       0.49505900       0.62036393 </v>
    <v>       0.57454132       0.51115325       0.54676574 </v>
   </varray>
  </structure>
  <varray name="forces" >
   <v>      -0.11361557      -0.07053123      -0.01955016 </v>
   <v>      -0.15933903       0.02805875      -0.03138372 </v>
   <v>      -0.00993377      -0.00944088      -0.00697934 </v>
   <v>       0.00774731      -0.02567484       0.10819239 </v>
   <v>      -0.00306374      -0.03574863       0.03445406 </v>
   <v>       0.01990779       0.00806598       0.10001681 </v>
   <v>       0.07161551       0.03351291      -0.05653175 </v>
   <v>       0.00584203       0.08337565      -0.12640540 </v>
   <v>       0.04252686       0.03458236      -0.00583830 </v>
   <v>       0.13831261      -0.04620009       0.00402541 </v>
  </varray>
  <energy>
   <i name="e_fr_energy">    -36.07412509 </i>
   <i name="e_wo_entrp">    -36.07617461 </i>
   <i name="e_0_energy">    -36.07480826 </i>
  </energy>
  <time name="totalsc">  108.10  108.32</time>
 </calculation>
 <calculation>
  <scstep>
   <time name="dav">    4.75    4.76</time>
   <time name="total">    7.90    7.92</time>
   <energy>
    <i name="alphaZ">      4.14887633 </i>
    <i name="ewald">  13413.08359140 </i>
    <i name="hartreedc"> -23274.64515124 </i>
    <i name="XCdc">    301.35425817 </i>
    <i name="pawpsdc">  10795.33034730 </i>
    <i name="pawaedc"> -11477.29267686 </i>
    <i name="eentropy">      0.00645246 </i>
    <i name="bandstr">   -574.67295996 </i>
    <i name="atom">  10776.63837129 </i>
    <i name="e_fr_energy">    -36.04889110 </i>
    <i name="e_wo_entrp">    -36.05534356 </i>
    <i name="e_0_energy">    -36.05104192 </i>
   </energy>
  </scstep>
  <scstep>
   <time name="dav">    5.40    5.41</time>
   <time name="total">    8.52    8.54</time>
   <energy>
    <i name="e_fr_energy">    -36.46943866 </i>
    <i name="e_wo_entrp">    -36.46974503 </i>
    <i name="e_0_energy">    -36.46954078 </i>
   </energy>
  </scstep>
  <scstep>
   <time name="dav">    5.19    5.20</time>
   <time name="total">    8.32    8.34</time>
   <energy>
    <i name="e_fr_energy">    -36.02115261 </i>
    <i name="e_wo_entrp">    -36.01993341 </i>
    <i name="e_0_energy">    -36.02074621 </i>
   </energy>
  </scstep>
  <scstep>
   <time name="dav">    6.03    6.04</time>
   <time name="total">    9.18    9.19</time>
   <energy>
    <i name="e_fr_energy">    -36.07411438 </i>
    <i name="e_wo_entrp">    -36.07446044 </i>
    <i name="e_0_energy">    -36.07422974 </i>
   </energy>
  </scstep>
  <scstep>
   <time name="dav">    5.39    5.40</time>
   <time name="total">    8.54    8.55</time>
   <energy>
    <i name="e_fr_energy">    -36.08147272 </i>
    <i name="e_wo_entrp">    -36.07943687 </i>
    <i name="e_0_energy">    -36.08079410 </i>
   </energy>
  </scstep>
  <scstep>
   <time name="dav">    5.12    5.13</time>
   <time name="total">    8.27    8.29</time>
   <energy>
    <i name="e_fr_energy">    -36.07195560 </i>
    <i name="e_wo_entrp">    -36.07574090 </i>
    <i name="e_0_energy">    -36.07321736 </i>
   </energy>
  </scstep>
  <scstep>
   <time name="dav">    6.09    6.10</time>
   <time name="total">    9.25    9.26</time>
   <energy>
    <i name="e_fr_energy">    -36.07884013 </i>
    <i name="e_wo_entrp">    -36.07911583 </i>
    <i name="e_0_energy">    -36.07893203 </i>
   </energy>
  </scstep>
  <scstep>
   <time name="dav">    5.21    5.22</time>
   <time name="total">    8.37    8.39</time>
   <energy>
    <i name="e_fr_energy">    -36.07732795 </i>
    <i name="e_wo_entrp">    -36.07859771 </i>
    <i name="e_0_energy">    -36.07775120 </i>
   </energy>
  </scstep>
  <scstep>
   <time name="dav">    5.85    5.85</time>
   <time name="total">    9.01    9.03</time>
   <energy>
    <i name="e_fr_energy">    -36.07929667 </i>
    <i name="e_wo_entrp">    -36.08107745 </i>
    <i name="e_0_energy">    -36.07989026 </i>
   </energy>
  </scstep>
  <scstep>
   <time name="dav">    5.20    5.20</time>
   <time name="total">    8.37    8.38</time>
   <energy>
    <i name="e_fr_energy">    -36.07733604 </i>
    <i name="e_wo_entrp">    -36.08000929 </i>
    <i name="e_0_energy">    -36.07822712 </i>
   </energy>
  </scstep>
  <scstep>
   <time name="dav">    5.84    5.85</time>
   <time name="total">    9.02    9.04</time>
   <energy>
    <i name="e_fr_energy">    -36.07954148 </i>
    <i name="e_wo_entrp">    -36.08136344 </i>
    <i name="e_0_energy">    -36.08014880 </i>
   </energy>
  </scstep>
  <scstep>
   <time name="dav">    5.20    5.21</time>
   <time name="total">    8.41    8.42</time>
   <energy>
    <i name="e_fr_energy">    -36.07832320 </i>
    <i name="e_wo_entrp">    -36.08052131 </i>
    <i name="e_0_energy">    -36.07905590 </i>
   </energy>
  </scstep>
  <scstep>
   <time name="dav">    4.13    4.13</time>
   <time name="total">    7.32    7.32</time>
   <energy>
    <i name="e_fr_energy">    -36.07909972 </i>
    <i name="e_wo_entrp">    -36.08132142 </i>
    <i name="e_0_energy">    -36.07984029 </i>
   </energy>
  </scstep>
  <scstep>
   <time name="dav">    3.68    3.69</time>
   <time name="total">    6.17    6.19</time>
   <energy>
    <i name="alphaZ">      4.14887633 </i>
    <i name="ewald">  13413.08359140 </i>
    <i name="hartreedc"> -23273.25658381 </i>
    <i name="XCdc">    301.31054173 </i>
    <i name="pawpsdc">  10802.92596517 </i>
    <i name="pawaedc"> -11485.03237403 </i>
    <i name="eentropy">      0.00218009 </i>
    <i name="bandstr">   -575.89972918 </i>
    <i name="atom">  10776.63837129 </i>
    <i name="e_fr_energy">    -36.07916101 </i>
    <i name="e_wo_entrp">    -36.08134110 </i>
    <i name="e_0_energy">    -36.07988771 </i>
   </energy>
  </scstep>
  <structure>
   <crystal>
    <varray name="basis" >
     <v>      22.42212549       0.00000000       0.00000000 </v>
     <v>       0.00000000      22.59190316       0.00000000 </v>
     <v>       0.00000000       0.00000000      24.26637973 </v>
    </varray>
    <i name="volume">  12292.34061714 </i>
    <varray name="rec_basis" >
     <v>       0.04459880       0.00000000       0.00000000 </v>
     <v>       0.00000000       0.04426365       0.00000000 </v>
     <v>       0.00000000       0.00000000       0.04120928 </v>
    </varray>
   </crystal>
   <varray name="positions" >
    <v>       0.53514295       0.58681880       0.48996813 </v>
    <v>       0.46436473       0.52506508       0.53472275 </v>
    <v>       0.52500598       0.48582047       0.46220067 </v>
    <v>       0.61982134       0.53113889       0.46062141 </v>
    <v>       0.41894778       0.45344257       0.58781588 </v>
    <v>       0.54998804       0.55938227       0.39937477 </v>
    <v>       0.52370633       0.59064135       0.58418494 </v>
    <v>       0.50569645       0.43116966       0.54110756 </v>
    <v>       0.50362729       0.49534882       0.62025610 </v>
    <v>       0.57562909       0.51118666       0.54702556 </v>
   </varray>
  </structure>
  <varray name="forces" >
   <v>       0.02260550      -0.09633814      -0.19820155 </v>
   <v>      -0.19340063       0.02308060      -0.07256114 </v>
   <v>       0.10172223       0.11530093      -0.09008656 </v>
   <v>      -0.09156166      -0.00983581       0.09137791 </v>
   <v>      -0.01670028      -0.08980441       0.01293275 </v>
   <v>       0.01787662      -0.00696680       0.07906034 </v>
   <v>       0.05643802       0.14834160       0.18544100 </v>
   <v>      -0.01638276       0.00492600       0.06903376 </v>
   <v>       0.09813294       0.00629481      -0.01916458 </v>
   <v>       0.02127003      -0.09499878      -0.05783194 </v>
  </varray>
  <energy>
   <i name="e_fr_energy">    -36.07916101 </i>
   <i name="e_wo_entrp">    -36.08134110 </i>
   <i name="e_0_energy">    -36.07988771 </i>
  </energy>
  <time name="totalsc">  125.81  126.07</time>
 </calculation>
 <calculation>
  <scstep>
   <time name="dav">    4.75    4.76</time>
   <time name="total">    7.89    7.90</time>
   <energy>
    <i name="alphaZ">      4.14887633 </i>
    <i name="ewald">  13401.93711255 </i>
    <i name="hartreedc"> -23262.14317765 </i>
    <i name="XCdc">    301.29260151 </i>
    <i name="pawpsdc">  10803.01593436 </i>
    <i name="pawaedc"> -11485.12529569 </i>
    <i name="eentropy">      0.00087423 </i>
    <i name="bandstr">   -575.84304355 </i>
    <i name="atom">  10776.63837129 </i>
    <i name="e_fr_energy">    -36.07774662 </i>
    <i name="e_wo_entrp">    -36.07862085 </i>
    <i name="e_0_energy">    -36.07803803 </i>
   </energy>
  </scstep>
  <scstep>
   <time name="dav">    5.93    5.93</time>
   <time name="total">    9.07    9.08</time>
   <energy>
    <i name="e_fr_energy">    -36.12058700 </i>
    <i name="e_wo_entrp">    -36.13102400 </i>
    <i name="e_0_energy">    -36.12406600 </i>
   </energy>
  </scstep>
  <scstep>
   <time name="dav">    5.31    5.32</time>
   <time name="total">    8.45    8.47</time>
   <energy>
    <i name="e_fr_energy">    -36.06519412 </i>
    <i name="e_wo_entrp">    -36.06847335 </i>
    <i name="e_0_energy">    -36.06628720 </i>
   </energy>
  </scstep>
  <scstep>
   <time name="dav">    6.12    6.13</time>
   <time name="total">    9.27    9.28</time>
   <energy>
    <i name="e_fr_energy">    -36.08000822 </i>
    <i name="e_wo_entrp">    -36.07964475 </i>
    <i name="e_0_energy">    -36.07988706 </i>
   </energy>
  </scstep>
  <scstep>
   <time name="dav">    5.20    5.21</time>
   <time name="total">    8.38    8.39</time>
   <energy>
    <i name="e_fr_energy">    -36.08026432 </i>
    <i name="e_wo_entrp">    -36.08239445 </i>
    <i name="e_0_energy">    -36.08097437 </i>
   </energy>
  </scstep>
  <scstep>
   <time name="dav">    5.06    5.07</time>
   <time name="total">    8.22    8.24</time>
   <energy>
    <i name="e_fr_energy">    -36.08021475 </i>
    <i name="e_wo_entrp">    -36.08212197 </i>
    <i name="e_0_energy">    -36.08085049 </i>
   </energy>
  </scstep>
  <scstep>
   <time name="dav">    5.32    5.33</time>
   <time name="total">    8.47    8.48</time>
   <energy>
    <i name="e_fr_energy">    -36.08092538 </i>
    <i name="e_wo_entrp">    -36.08379235 </i>
    <i name="e_0_energy">    -36.08188103 </i>
   </energy>
  </scstep>
  <scstep>
   <time name="dav">    4.62    4.62</time>
   <time name="total">    7.78    7.79</time>
   <energy>
    <i name="e_fr_energy">    -36.08091725 </i>
    <i name="e_wo_entrp">    -36.08348055 </i>
    <i name="e_0_energy">    -36.08177168 </i>
   </energy>
  </scstep>
  <scstep>
   <time name="dav">    4.41    4.42</time>
   <time name="total">    6.88    6.89</time>
   <energy>
    <i name="alphaZ">      4.14887633 </i>
    <i name="ewald">  13401.93711255 </i>
    <i name="hartreedc"> -23262.45119224 </i>
    <i name="XCdc">    301.30074732 </i>
    <i name="pawpsdc">  10800.96453201 </i>
    <i name="pawaedc"> -11483.02811234 </i>
    <i name="eentropy">      0.00249389 </i>
    <i name="bandstr">   -575.59370125 </i>
    <i name="atom">  10776.63837129 </i>
    <i name="e_fr_energy">    -36.08087242 </i>
    <i name="e_wo_entrp">    -36.08336632 </i>
    <i name="e_0_energy">    -36.08170372 </i>
   </energy>
  </scstep>
  <structure>
   <crystal>
    <varray name="basis" >
     <v>      22.42212549       0.00000000       0.00000000 </v>
     <v>       0.00000000      22.59190316       0.00000000 </v>
     <v>       0.00000000       0.00000000      24.26637973 </v>
    </varray>
    <i name="volume">  12292.34061714 </i>
    <varray name="rec_basis" >
     <v>       0.04459880       0.00000000       0.00000000 </v>
     <v>       0.00000000       0.04426365       0.00000000 </v>
     <v>       0.00000000       0.00000000       0.04120928 </v>
    </varray>
   </crystal>
   <varray name="positions" >
    <v>       0.53550122       0.58692750       0.48981788 </v>
    <v>       0.46452811       0.52505104       0.53468853 </v>
    <v>       0.52514611       0.48593373       0.46212149 </v>
    <v>       0.61973150       0.53120226       0.46047556 </v>
    <v>       0.41887785       0.45340110       0.58775746 </v>
    <v>       0.54993848       0.55936986       0.39915033 </v>
    <v>       0.52358015       0.59074429       0.58452936 </v>
    <v>       0.50567596       0.43094983       0.54150276 </v>
    <v>       0.50365983       0.49525868       0.62028964 </v>
    <v>       0.57529077       0.51117627       0.54694475 </v>
   </varray>
  </structure>
  <varray name="forces" >
   <v>      -0.01457401      -0.09973781      -0.13044264 </v>
   <v>      -0.18612979       0.03177456      -0.06075231 </v>
   <v>       0.06608954       0.07211170      -0.06315422 </v>
   <v>      -0.05161853      -0.00866507       0.09764599 </v>
   <v>      -0.02412433      -0.07308936       0.02705961 </v>
   <v>       0.02032802       0.00309378       0.07986816 </v>
   <v>       0.05967730       0.08253782       0.08932133 </v>
   <v>      -0.00954382       0.04662805       0.00855895 </v>
   <v>       0.08064769       0.01924907      -0.00915262 </v>
   <v>       0.05924794      -0.07390273      -0.03895225 </v>
  </varray>
  <energy>
   <i name="e_fr_energy">    -36.08087242 </i>
[...]
       <r>    -1.8112     3.4790    59.8352 </r>
       <r>    -1.7654     3.1053    59.9774 </r>
       <r>    -1.7196     3.0386    60.1166 </r>
       <r>    -1.6738     3.3090    60.2682 </r>
       <r>    -1.6280     3.7282    60.4389 </r>
       <r>    -1.5822     4.0525    60.6246 </r>
       <r>    -1.5364     4.1835    60.8162 </r>
       <r>    -1.4905     4.2039    61.0088 </r>
       <r>    -1.4447     4.2266    61.2024 </r>
       <r>    -1.3989     4.2246    61.3959 </r>
       <r>    -1.3531     4.0355    61.5807 </r>
       <r>    -1.3073     3.5444    61.7431 </r>
       <r>    -1.2615     2.8636    61.8743 </r>
       <r>    -1.2157     2.3198    61.9805 </r>
       <r>    -1.1699     2.2346    62.0829 </r>
       <r>    -1.1241     2.6709    62.2052 </r>
       <r>    -1.0783     3.3496    62.3587 </r>
       <r>    -1.0325     3.8067    62.5331 </r>
       <r>    -0.9867     3.6833    62.7018 </r>
       <r>    -0.9409     2.9473    62.8368 </r>
       <r>    -0.8951     1.9117    62.9243 </r>
       <r>    -0.8493     1.0617    62.9730 </r>
       <r>    -0.8034     0.8160    63.0104 </r>
       <r>    -0.7576     1.3521    63.0723 </r>
       <r>    -0.7118     2.5576    63.1894 </r>
       <r>    -0.6660     4.0951    63.3770 </r>
       <r>    -0.6202     5.5329    63.6305 </r>
       <r>    -0.5744     6.4840    63.9275 </r>
       <r>    -0.5286     6.7085    64.2348 </r>
       <r>    -0.4828     6.1628    64.5171 </r>
       <r>    -0.4370     4.9976    64.7460 </r>
       <r>    -0.3912     3.5081    64.9067 </r>
       <r>    -0.3454     2.0396    65.0001 </r>
       <r>    -0.2996     0.8706    65.0400 </r>
       <r>    -0.2538     0.1294    65.0459 </r>
       <r>    -0.2080    -0.2142    65.0361 </r>
       <r>    -0.1622    -0.2870    65.0230 </r>
       <r>    -0.1163    -0.2301    65.0124 </r>
       <r>    -0.0705    -0.1437    65.0058 </r>
       <r>    -0.0247    -0.0749    65.0024 </r>
       <r>     0.0211    -0.0335    65.0009 </r>
       <r>     0.0669    -0.0131    65.0003 </r>
       <r>     0.1127    -0.0045    65.0001 </r>
       <r>     0.1585    -0.0014    65.0000 </r>
       <r>     0.2043    -0.0004    65.0000 </r>
       <r>     0.2501    -0.0001    65.0000 </r>
       <r>     0.2959    -0.0000    65.0000 </r>
       <r>     0.3417    -0.0000    65.0000 </r>
       <r>     0.3875    -0.0000    65.0000 </r>
       <r>     0.4333    -0.0000    65.0000 </r>
       <r>     0.4791    -0.0000    65.0000 </r>
       <r>     0.5249    -0.0000    65.0000 </r>
       <r>     0.5708    -0.0000    65.0000 </r>
       <r>     0.6166    -0.0000    65.0000 </r>
       <r>     0.6624    -0.0000    65.0000 </r>
       <r>     0.7082    -0.0000    65.0000 </r>
       <r>     0.7540    -0.0000    65.0000 </r>
       <r>     0.7998     0.0000    65.0000 </r>
       <r>     0.8456     0.0000    65.0000 </r>
       <r>     0.8914     0.0000    65.0000 </r>
       <r>     0.9372     0.0000    65.0000 </r>
       <r>     0.9830     0.0000    65.0000 </r>
       <r>     1.0288     0.0000    65.0000 </r>
       <r>     1.0746     0.0000    65.0000 </r>
       <r>     1.1204     0.0000    65.0000 </r>
       <r>     1.1662     0.0000    65.0000 </r>
       <r>     1.2120     0.0000    65.0000 </r>
       <r>     1.2578     0.0000    65.0000 </r>
       <r>     1.3037     0.0000    65.0000 </r>
       <r>     1.3495     0.0000    65.0000 </r>
       <r>     1.3953     0.0000    65.0000 </r>
       <r>     1.4411     0.0000    65.0000 </r>
       <r>     1.4869     0.0000    65.0000 </r>
       <r>     1.5327     0.0000    65.0000 </r>
       <r>     1.5785     0.0000    65.0000 </r>
       <r>     1.6243     0.0000    65.0000 </r>
       <r>     1.6701     0.0000    65.0000 </r>
       <r>     1.7159     0.0000    65.0000 </r>
       <r>     1.7617     0.0000    65.0000 </r>
      </set>
      <set comment="spin 2">
       <r>   -11.9803     0.0000     0.0000 </r>
       <r>   -11.9345     0.0000     0.0000 </r>
       <r>   -11.8887     0.0000     0.0000 </r>
       <r>   -11.8428     0.0000     0.0000 </r>
       <r>   -11.7970     0.0000     0.0000 </r>
       <r>   -11.7512     0.0000     0.0000 </r>
       <r>   -11.7054     0.0000     0.0000 </r>
       <r>   -11.6596     0.0000     0.0000 </r>
       <r>   -11.6138     0.0000     0.0000 </r>
       <r>   -11.5680     0.0000     0.0000 </r>
       <r>   -11.5222    -0.0000    -0.0000 </r>
       <r>   -11.4764    -0.0000    -0.0000 </r>
       <r>   -11.4306    -0.0000    -0.0000 </r>
       <r>   -11.3848    -0.0000    -0.0000 </r>
       <r>   -11.3390    -0.0000    -0.0000 </r>
       <r>   -11.2932    -0.0000    -0.0000 </r>
       <r>   -11.2474    -0.0000    -0.0000 </r>
       <r>   -11.2016    -0.0000    -0.0000 </r>
       <r>   -11.1557    -0.0000    -0.0000 </r>
       <r>   -11.1099    -0.0000    -0.0000 </r>
       <r>   -11.0641    -0.0000    -0.0000 </r>
       <r>   -11.0183    -0.0000    -0.0000 </r>
       <r>   -10.9725    -0.0000    -0.0000 </r>
       <r>   -10.9267    -0.0000    -0.0000 </r>
       <r>   -10.8809    -0.0000    -0.0000 </r>
       <r>   -10.8351    -0.0000    -0.0000 </r>
       <r>   -10.7893    -0.0000    -0.0000 </r>
       <r>   -10.7435    -0.0000    -0.0000 </r>
       <r>   -10.6977    -0.0000    -0.0000 </r>
       <r>   -10.6519    -0.0000    -0.0000 </r>
       <r>   -10.6061    -0.0001    -0.0000 </r>
       <r>   -10.5603    -0.0002    -0.0000 </r>
       <r>   -10.5145    -0.0009    -0.0001 </r>
       <r>   -10.4686    -0.0030    -0.0002 </r>
       <r>   -10.4228    -0.0092    -0.0006 </r>
       <r>   -10.3770    -0.0243    -0.0017 </r>
       <r>   -10.3312    -0.0560    -0.0043 </r>
       <r>   -10.2854    -0.1105    -0.0094 </r>
       <r>   -10.2396    -0.1806    -0.0176 </r>
       <r>   -10.1938    -0.2263    -0.0280 </r>
       <r>   -10.1480    -0.1583    -0.0352 </r>
       <r>   -10.1022     0.1507    -0.0283 </r>
       <r>   -10.0564     0.8064     0.0086 </r>
       <r>   -10.0106     1.7968     0.0909 </r>
       <r>    -9.9648     2.9240     0.2248 </r>
       <r>    -9.9190     3.8395     0.4007 </r>
       <r>    -9.8732     4.2007     0.5931 </r>
       <r>    -9.8274     3.8613     0.7700 </r>
       <r>    -9.7815     2.9590     0.9056 </r>
       <r>    -9.7357     1.8328     0.9895 </r>
       <r>    -9.6899     0.8338     1.0277 </r>
       <r>    -9.6441     0.1662     1.0353 </r>
       <r>    -9.5983    -0.1528     1.0283 </r>
       <r>    -9.5525    -0.2265     1.0179 </r>
       <r>    -9.5067    -0.1828     1.0096 </r>
       <r>    -9.4609    -0.1126     1.0044 </r>
       <r>    -9.4151    -0.0574     1.0018 </r>
       <r>    -9.3693    -0.0250     1.0006 </r>
       <r>    -9.3235    -0.0095     1.0002 </r>
       <r>    -9.2777    -0.0031     1.0001 </r>
       <r>    -9.2319    -0.0009     1.0000 </r>
       <r>    -9.1861    -0.0003     1.0000 </r>
       <r>    -9.1403    -0.0001     1.0000 </r>
       <r>    -9.0944    -0.0003     1.0000 </r>
       <r>    -9.0486    -0.0009     0.9999 </r>
       <r>    -9.0028    -0.0032     0.9998 </r>
       <r>    -8.9570    -0.0095     0.9994 </r>
       <r>    -8.9112    -0.0251     0.9982 </r>
       <r>    -8.8654    -0.0577     0.9956 </r>
       <r>    -8.8196    -0.1130     0.9904 </r>
       <r>    -8.7738    -0.1832     0.9820 </r>
       <r>    -8.7280    -0.2265     0.9716 </r>
       <r>    -8.6822    -0.1518     0.9647 </r>
       <r>    -8.6364     0.1690     0.9724 </r>
       <r>    -8.5906     0.8388     1.0108 </r>
       <r>    -8.5448     1.8393     1.0951 </r>
       <r>    -8.4990     2.9654     1.2309 </r>
       <r>    -8.4532     3.8652     1.4080 </r>
       <r>    -8.4073     4.2006     1.6004 </r>
       <r>    -8.3615     3.8354     1.7761 </r>
       <r>    -8.3157     2.9175     1.9097 </r>
       <r>    -8.2699     1.7897     1.9917 </r>
       <r>    -8.2241     0.7994     2.0283 </r>
       <r>    -8.1783     0.1417     2.0348 </r>
       <r>    -8.1325    -0.1768     2.0267 </r>
       <r>    -8.0867    -0.2688     2.0144 </r>
       <r>    -8.0409    -0.2690     2.0021 </r>
       <r>    -7.9951    -0.2661     1.9899 </r>
       <r>    -7.9493    -0.2743     1.9773 </r>
       <r>    -7.9035    -0.2302     1.9668 </r>
       <r>    -7.8577    -0.0122     1.9662 </r>
       <r>    -7.8119     0.5049     1.9893 </r>
       <r>    -7.7661     1.3581     2.0516 </r>
       <r>    -7.7202     2.4125     2.1621 </r>
       <r>    -7.6744     3.3660     2.3163 </r>
       <r>    -7.6286     3.8886     2.4944 </r>
       <r>    -7.5828     3.8324     2.6699 </r>
       <r>    -7.5370     3.3629     2.8240 </r>
       <r>    -7.4912     2.8873     2.9562 </r>
       <r>    -7.4454     2.8128     3.0851 </r>
       <r>    -7.3996     3.3035     3.2364 </r>
       <r>    -7.3538     4.2063     3.4291 </r>
       <r>    -7.3080     5.1683     3.6658 </r>
       <r>    -7.2622     5.8303     3.9329 </r>
       <r>    -7.2164     5.9671     4.2062 </r>
       <r>    -7.1706     5.5389     4.4599 </r>
       <r>    -7.1248     4.6927     4.6749 </r>
       <r>    -7.0790     3.7290     4.8457 </r>
       <r>    -7.0331     2.9987     4.9831 </r>
       <r>    -6.9873     2.7356     5.1084 </r>
       <r>    -6.9415     2.9235     5.2423 </r>
       <r>    -6.8957     3.3317     5.3949 </r>
       <r>    -6.8499     3.7248     5.5655 </r>
       <r>    -6.8041     4.0788     5.7524 </r>
       <r>    -6.7583     4.5974     5.9629 </r>
       <r>    -6.7125     5.4954     6.2147 </r>
       <r>    -6.6667     6.7415     6.5235 </r>
       <r>    -6.6209     8.0056     6.8902 </r>
       <r>    -6.5751     8.8698     7.2965 </r>
       <r>    -6.5293     9.1205     7.7143 </r>
       <r>    -6.4835     8.8780     8.1209 </r>
       <r>    -6.4377     8.4886     8.5098 </r>
       <r>    -6.3919     8.3013     8.8900 </r>
       <r>    -6.3461     8.5030     9.2795 </r>
       <r>    -6.3002     9.0851     9.6957 </r>
       <r>    -6.2544     9.9043    10.1493 </r>
       <r>    -6.2086    10.7716    10.6428 </r>
       <r>    -6.1628    11.5315    11.1710 </r>
       <r>    -6.1170    12.1096    11.7257 </r>
       <r>    -6.0712    12.5076    12.2986 </r>
       <r>    -6.0254    12.7495    12.8826 </r>
       <r>    -5.9796    12.8253    13.4701 </r>
       <r>    -5.9338    12.6920    14.0515 </r>
       <r>    -5.8880    12.3441    14.6169 </r>
       <r>    -5.8422    11.8871    15.1614 </r>
       <r>    -5.7964    11.5258    15.6894 </r>
       <r>    -5.7506    11.4495    16.2139 </r>
       <r>    -5.7048    11.6930    16.7495 </r>
       <r>    -5.6590    12.0876    17.3032 </r>
       <r>    -5.6131    12.3442    17.8686 </r>
       <r>    -5.5673    12.2165    18.4282 </r>
       <r>    -5.5215    11.6502    18.9619 </r>
       <r>    -5.4757    10.8315    19.4580 </r>
       <r>    -5.4299    10.0979    19.9206 </r>
       <r>    -5.3841     9.7432    20.3669 </r>
       <r>    -5.3383     9.8375    20.8175 </r>
       <r>    -5.2925    10.1887    21.2842 </r>
       <r>    -5.2467    10.4681    21.7637 </r>
       <r>    -5.2009    10.4040    22.2403 </r>
       <r>    -5.1551     9.9291    22.6951 </r>
       <r>    -5.1093     9.2436    23.1185 </r>
       <r>    -5.0635     8.7880    23.5211 </r>
       <r>    -5.0177     9.1016    23.9380 </r>
       <r>    -4.9719    10.5685    24.4221 </r>
       <r>    -4.9260    13.1634    25.0251 </r>
       <r>    -4.8802    16.3813    25.7754 </r>
       <r>    -4.8344    19.4448    26.6661 </r>
       <r>    -4.7886    21.6824    27.6593 </r>
       <r>    -4.7428    22.8384    28.7055 </r>
       <r>    -4.6970    23.1234    29.7647 </r>
       <r>    -4.6512    23.0060    30.8185 </r>
       <r>    -4.6054    22.9136    31.8681 </r>
       <r>    -4.5596    23.0486    32.9239 </r>
       <r>    -4.5138    23.3955    33.9956 </r>
       <r>    -4.4680    23.8273    35.0870 </r>
       <r>    -4.4222    24.1715    36.1942 </r>
       <r>    -4.3764    24.2033    37.3029 </r>
       <r>    -4.3306    23.6604    38.3867 </r>
       <r>    -4.2848    22.3694    39.4114 </r>
       <r>    -4.2389    20.4319    40.3473 </r>
       <r>    -4.1931    18.3076    41.1859 </r>
       <r>    -4.1473    16.6762    41.9498 </r>
       <r>    -4.1015    16.1333    42.6888 </r>
       <r>    -4.0557    16.9186    43.4638 </r>
       <r>    -4.0099    18.8555    44.3275 </r>
       <r>    -3.9641    21.5037    45.3125 </r>
       <r>    -3.9183    24.3501    46.4279 </r>
       <r>    -3.8725    26.8690    47.6587 </r>
       <r>    -3.8267    28.4675    48.9627 </r>
       <r>    -3.7809    28.4971    50.2680 </r>
       <r>    -3.7351    26.4714    51.4806 </r>
       <r>    -3.6893    22.4040    52.5068 </r>
       <r>    -3.6435    16.9975    53.2854 </r>
       <r>    -3.5977    11.4635    53.8105 </r>
       <r>    -3.5518     7.0112    54.1317 </r>
       <r>    -3.5060     4.3029    54.3288 </r>
       <r>    -3.4602     3.2172    54.4762 </r>
       <r>    -3.4144     3.0521    54.6160 </r>
       <r>    -3.3686     3.0007    54.7534 </r>
       <r>    -3.3228     2.5772    54.8715 </r>
       <r>    -3.2770     1.7589    54.9520 </r>
       <r>    -3.2312     0.8490    54.9909 </r>
       <r>    -3.1854     0.2278    55.0014 </r>
       <r>    -3.1396     0.1621    55.0088 </r>
       <r>    -3.0938     0.7201    55.0418 </r>
       <r>    -3.0480     1.7534    55.1221 </r>
       <r>    -3.0022     2.9243    55.2560 </r>
       <r>    -2.9564     3.8031    55.4302 </r>
       <r>    -2.9106     4.0410    55.6153 </r>
       <r>    -2.8647     3.5457    55.7778 </r>
       <r>    -2.8189     2.5466    55.8944 </r>
       <r>    -2.7731     1.4949    55.9629 </r>
       <r>    -2.7273     0.8543    56.0020 </r>
       <r>    -2.6815     0.8956    56.0430 </r>
       <r>    -2.6357     1.5845    56.1156 </r>
       <r>    -2.5899     2.6000    56.2347 </r>
       <r>    -2.5441     3.4856    56.3944 </r>
       <r>    -2.4983     3.8827    56.5722 </r>
       <r>    -2.4525     3.7326    56.7432 </r>
       <r>    -2.4067     3.3069    56.8947 </r>
       <r>    -2.3609     3.0180    57.0329 </r>
       <r>    -2.3151     3.1247    57.1761 </r>
       <r>    -2.2693     3.5450    57.3385 </r>
       <r>    -2.2235     3.9175    57.5179 </r>
       <r>    -2.1776     3.8590    57.6947 </r>
       <r>    -2.1318     3.2198    57.8422 </r>
       <r>    -2.0860     2.1581    57.9410 </r>
       <r>    -2.0402     1.0198    57.9877 </r>
       <r>    -1.9944     0.1521    57.9947 </r>
       <r>    -1.9486    -0.2111    57.9850 </r>
       <r>    -1.9028     0.0365    57.9867 </r>
       <r>    -1.8570     0.8956    58.0277 </r>
       <r>    -1.8112     2.2570    58.1311 </r>
       <r>    -1.7654     3.8806    58.3089 </r>
       <r>    -1.7196     5.4118    58.5568 </r>
       <r>    -1.6738     6.4675    58.8530 </r>
       <r>    -1.6280     6.7675    59.1630 </r>
       <r>    -1.5822     6.2527    59.4494 </r>
       <r>    -1.5364     5.1371    59.6847 </r>
       <r>    -1.4905     3.8530    59.8612 </r>
       <r>    -1.4447     2.8831    59.9933 </r>
       <r>    -1.3989     2.5358    60.1095 </r>
       <r>    -1.3531     2.7894    60.2372 </r>
       <r>    -1.3073     3.3264    60.3896 </r>
       <r>    -1.2615     3.7577    60.5617 </r>
       <r>    -1.2157     3.8845    60.7397 </r>
       <r>    -1.1699     3.7937    60.9134 </r>
       <r>    -1.1241     3.7159    61.0837 </r>
       <r>    -1.0783     3.7857    61.2571 </r>
       <r>    -1.0325     3.9293    61.4371 </r>
       <r>    -0.9867     3.9760    61.6192 </r>
       <r>    -0.9409     3.8637    61.7962 </r>
       <r>    -0.8951     3.7156    61.9664 </r>
       <r>    -0.8493     3.7049    62.1361 </r>
       <r>    -0.8034     3.8458    62.3122 </r>
       <r>    -0.7576     3.9332    62.4924 </r>
       <r>    -0.7118     3.7080    62.6623 </r>
       <r>    -0.6660     3.1045    62.8045 </r>
       <r>    -0.6202     2.3583    62.9125 </r>
       <r>    -0.5744     1.8783    62.9985 </r>
       <r>    -0.5286     1.9853    63.0895 </r>
       <r>    -0.4828     2.7169    63.2139 </r>
       <r>    -0.4370     3.8259    63.3892 </r>
       <r>    -0.3912     4.9399    63.6155 </r>
       <r>    -0.3454     5.7408    63.8784 </r>
       <r>    -0.2996     6.0494    64.1555 </r>
       <r>    -0.2538     5.8107    64.4217 </r>
       <r>    -0.2080     5.0603    64.6535 </r>
       <r>    -0.1622     3.9240    64.8332 </r>
       <r>    -0.1163     2.6202    64.9533 </r>
       <r>    -0.0705     1.4101    65.0178 </r>
       <r>    -0.0247     0.5009    65.0408 </r>
       <r>     0.0211    -0.0308    65.0394 </r>
       <r>     0.0669    -0.2401    65.0284 </r>
       <r>     0.1127    -0.2504    65.0169 </r>
       <r>     0.1585    -0.1805    65.0086 </r>
       <r>     0.2043    -0.1045    65.0038 </r>
       <r>     0.2501    -0.0510    65.0015 </r>
       <r>     0.2959    -0.0215    65.0005 </r>
       <r>     0.3417    -0.0079    65.0002 </r>
       <r>     0.3875    -0.0026    65.0000 </r>
       <r>     0.4333    -0.0007    65.0000 </r>
       <r>     0.4791    -0.0002    65.0000 </r>
       <r>     0.5249    -0.0000    65.0000 </r>
       <r>     0.5708    -0.0000    65.0000 </r>
       <r>     0.6166    -0.0000    65.0000 </r>
       <r>     0.6624    -0.0000    65.0000 </r>
       <r>     0.7082    -0.0000    65.0000 </r>
       <r>     0.7540    -0.0000    65.0000 </r>
       <r>     0.7998    -0.0000    65.0000 </r>
       <r>     0.8456    -0.0000    65.0000 </r>
       <r>     0.8914    -0.0000    65.0000 </r>
       <r>     0.9372    -0.0000    65.0000 </r>
       <r>     0.9830    -0.0000    65.0000 </r>
       <r>     1.0288     0.0000    65.0000 </r>
       <r>     1.0746     0.0000    65.0000 </r>
       <r>     1.1204     0.0000    65.0000 </r>
       <r>     1.1662     0.0000    65.0000 </r>
       <r>     1.2120     0.0000    65.0000 </r>
       <r>     1.2578     0.0000    65.0000 </r>
       <r>     1.3037     0.0000    65.0000 </r>
       <r>     1.3495     0.0000    65.0000 </r>
       <r>     1.3953     0.0000    65.0000 </r>
       <r>     1.4411     0.0000    65.0000 </r>
       <r>     1.4869     0.0000    65.0000 </r>
       <r>     1.5327     0.0000    65.0000 </r>
       <r>     1.5785     0.0000    65.0000 </r>
       <r>     1.6243     0.0000    65.0000 </r>
       <r>     1.6701     0.0000    65.0000 </r>
       <r>     1.7159     0.0000    65.0000 </r>
       <r>     1.7617     0.0000    65.0000 </r>
      </set>
     </set>
    </array>
   </total>
  </dos>
 </calculation>
 <structure name="finalpos" >
  <crystal>
   <varray name="basis" >
    <v>      22.42212549       0.00000000       0.00000000 </v>
    <v>       0.00000000      22.59190316       0.00000000 </v>
    <v>       0.00000000       0.00000000      24.26637973 </v>
   </varray>
   <i name="volume">  12292.34061714 </i>
   <varray name="rec_basis" >
    <v>       0.04459880       0.00000000       0.00000000 </v>
    <v>       0.00000000       0.04426365       0.00000000 </v>
    <v>       0.00000000       0.00000000       0.04120928 </v>
   </varray>
  </crystal>
  <varray name="positions" >
   <v>       0.53408122       0.58608247       0.48931852 </v>
   <v>       0.46251290       0.52539418       0.53494350 </v>
   <v>       0.52508784       0.48624074       0.46148290 </v>
   <v>       0.61969366       0.53098881       0.46167231 </v>
   <v>       0.41936167       0.45225286       0.58889600 </v>
   <v>       0.55144720       0.55979303       0.39937675 </v>
   <v>       0.52459447       0.59105771       0.58445109 </v>
   <v>       0.50519024       0.43180687       0.54085522 </v>
   <v>       0.50446663       0.49576993       0.61959073 </v>
   <v>       0.57549417       0.51062797       0.54669076 </v>
  </varray>
 </structure>
</modeling>
