unknown system                          
            1
    22.422125    0.000000    0.000000
     0.000000   22.591903    0.000000
     0.000000    0.000000   24.266380
   Ni
    10
Direct configuration=     1
   0.53750766  0.59049649  0.48879227
   0.46352535  0.52643153  0.53330127
   0.52478914  0.48451645  0.46032470
   0.62256482  0.53127544  0.45967666
   0.41531802  0.45198493  0.58795966
   0.54865987  0.56021765  0.39481132
   0.52272707  0.59360121  0.58821326
   0.50672993  0.42667609  0.54383444
   0.50503995  0.49464068  0.62284366
   0.57506816  0.51017411  0.54752055
Direct configuration=     2
   0.53747683  0.58843201  0.48893308
   0.46484267  0.52541978  0.53413427
   0.52556973  0.48593098  0.46127105
   0.62025624  0.53146556  0.45967680
   0.41752354  0.45281042  0.58759721
   0.54935911  0.55958191  0.39697035
   0.52283956  0.59200921  0.58696519
   0.50592034  0.42880733  0.54371820
   0.50420553  0.49472702  0.62119806
   0.57393642  0.51083035  0.54681356
Direct configuration=     3
   0.53746124  0.58738813  0.48900428
   0.46550875  0.52490821  0.53455547
   0.52596442  0.48664623  0.46174956
   0.61908894  0.53156169  0.45967688
   0.41863875  0.45322782  0.58741395
   0.54971268  0.55926045  0.39806204
   0.52289644  0.59120423  0.58633411
   0.50551098  0.42988497  0.54365943
   0.50378361  0.49477067  0.62036598
   0.57336417  0.51116217  0.54645608
Direct configuration=     4
   0.53746325  0.58752278  0.48899510
   0.46542284  0.52497419  0.53450114
   0.52591351  0.48655397  0.46168784
   0.61923951  0.53154929  0.45967687
   0.41849490  0.45317398  0.58743759
   0.54966707  0.55930191  0.39792123
   0.52288911  0.59130806  0.58641551
   0.50556378  0.42974597  0.54366701
   0.50383803  0.49476504  0.62047331
   0.57343798  0.51111937  0.54650219
Direct configuration=     5
   0.53687082  0.58734304  0.48924354
   0.46515268  0.52499740  0.53455772
   0.52568180  0.48636669  0.46181878
   0.61938806  0.53144451  0.45991803
   0.41861053  0.45324256  0.58753417
   0.54974902  0.55932243  0.39829235
   0.52309777  0.59113783  0.58584599
   0.50559765  0.43010948  0.54301352
   0.50378422  0.49491409  0.62041785
   0.57399743  0.51113655  0.54663582
Direct configuration=     6
   0.53629486  0.58716829  0.48948507
   0.46489003  0.52501996  0.53461273
   0.52545652  0.48618462  0.46194607
   0.61953249  0.53134263  0.46015249
   0.41872295  0.45330923  0.58762807
   0.54982869  0.55934238  0.39865316
   0.52330062  0.59097234  0.58529231
   0.50563059  0.43046287  0.54237820
   0.50373191  0.49505900  0.62036393
   0.57454132  0.51115325  0.54676574
Direct configuration=     7
   0.53514295  0.58681880  0.48996813
   0.46436473  0.52506508  0.53472275
   0.52500598  0.48582047  0.46220067
   0.61982134  0.53113889  0.46062141
   0.41894778  0.45344257  0.58781588
   0.54998804  0.55938227  0.39937477
   0.52370633  0.59064135  0.58418494
   0.50569645  0.43116966  0.54110756
   0.50362729  0.49534882  0.62025610
   0.57562909  0.51118666  0.54702556
Direct configuration=     8
   0.53550122  0.58692750  0.48981788
   0.46452811  0.52505104  0.53468853
   0.52514611  0.48593373  0.46212149
   0.61973150  0.53120226  0.46047556
   0.41887785  0.45340110  0.58775746
   0.54993848  0.55936986  0.39915033
   0.52358015  0.59074429  0.58452936
   0.50567596  0.43094983  0.54150276
   0.50365983  0.49525868  0.62028964
   0.57529077  0.51117627  0.54694475
Direct configuration=     9
   0.53518331  0.58650729  0.48951765
   0.46376867  0.52516950  0.53452195
   0.52526754  0.48609402  0.46198095
   0.61962199  0.53112541  0.46089356
   0.41884758  0.45318378  0.58788676
   0.55004514  0.55938966  0.39957088
   0.52387885  0.59094773  0.58455426
   0.50565861  0.43127272  0.54123420
   0.50391159  0.49539152  0.62023560
   0.57574670  0.51093294  0.54688199
Direct configuration=    10
   0.53509642  0.58639244  0.48943559
   0.46356110  0.52520188  0.53447642
   0.52530073  0.48613784  0.46194253
   0.61959206  0.53110441  0.46100780
   0.41883930  0.45312438  0.58792210
   0.55007430  0.55939507  0.39968583
   0.52396050  0.59100333  0.58456107
   0.50565387  0.43136097  0.54116079
   0.50398040  0.49542783  0.62022083
   0.57587132  0.51086643  0.54686483
Direct configuration=    11
   0.53475904  0.58618131  0.48948806
   0.46309546  0.52528652  0.53448269
   0.52532824  0.48618880  0.46187063
   0.61976559  0.53101382  0.46133316
   0.41902293  0.45290191  0.58804152
   0.55021870  0.55953049  0.39951736
   0.52420999  0.59097734  0.58456301
   0.50553595  0.43168016  0.54118616
   0.50421116  0.49555726  0.61989233
   0.57578291  0.51069695  0.54690285
Direct configuration=    12
   0.53452415  0.58603432  0.48952459
   0.46277127  0.52534544  0.53448705
   0.52534739  0.48622428  0.46182057
   0.61988642  0.53095075  0.46155969
   0.41915078  0.45274702  0.58812467
   0.55031924  0.55962478  0.39940006
   0.52438369  0.59095925  0.58456436
   0.50545385  0.43190240  0.54120383
   0.50437183  0.49564738  0.61966362
   0.57572136  0.51057894  0.54692932
Direct configuration=    13
   0.53429789  0.58592600  0.48951343
   0.46256521  0.52548090  0.53458140
   0.52535642  0.48630350  0.46167724
   0.61972147  0.53094740  0.46164538
   0.41920931  0.45248629  0.58838246
   0.55074211  0.55966339  0.39940330
   0.52454426  0.59095496  0.58454078
   0.50537987  0.43193827  0.54114689
   0.50452938  0.49575269  0.61950742
   0.57558406  0.51056118  0.54687949
Direct configuration=    14
   0.53423072  0.58589384  0.48951011
   0.46250404  0.52552111  0.53460941
   0.52535910  0.48632701  0.46163469
   0.61967250  0.53094641  0.46167082
   0.41922669  0.45240889  0.58845898
   0.55086765  0.55967485  0.39940426
   0.52459193  0.59095368  0.58453378
   0.50535791  0.43194892  0.54112998
   0.50457615  0.49578396  0.61946104
   0.57554330  0.51055591  0.54686470
Direct configuration=    15
   0.53414637  0.58600027  0.48940202
   0.46250904  0.52544950  0.53479790
   0.52520606  0.48627834  0.46154905
   0.61968444  0.53097033  0.46167166
   0.41930284  0.45232086  0.58870555
   0.55119463  0.55974153  0.39938874
   0.52459336  0.59101238  0.58448713
   0.50526331  0.43186877  0.54097496
   0.50451436  0.49577604  0.61953421
   0.57551558  0.51059657  0.54676656
Direct configuration=    16
   0.53408122  0.58608247  0.48931852
   0.46251290  0.52539418  0.53494350
   0.52508784  0.48624074  0.46148290
   0.61969366  0.53098881  0.46167231
   0.41936167  0.45225286  0.58889600
   0.55144720  0.55979303  0.39937675
   0.52459447  0.59105771  0.58445109
   0.50519024  0.43180687  0.54085522
   0.50446663  0.49576993  0.61959073
   0.57549417  0.51062797  0.54669076
