    8    8 1000    2
  0.1390437E+04  0.2161721E-08  0.2265703E-08  0.2271113E-08  0.5000000E-15
   1.0000000000000000E-004
  CAR 
 unknown system                          
     88      1     56
 
  0.1262379E-14  0.1262379E-14  0.1262379E-14  0.1000000E+01
    1      -10.767855    -10.767855   1.000000   1.000000
    2      -10.088851    -10.088851   1.000000   1.000000
    3       -9.809618     -9.809618   1.000000   1.000000
    4       -9.518299     -9.518299   1.000000   1.000000
    5       -9.315479     -9.315479   1.000000   1.000000
    6       -8.985700     -8.985700   1.000000   1.000000
    7       -8.945131     -8.945131   1.000000   1.000000
    8       -8.880000     -8.880000   1.000000   1.000000
    9       -8.656250     -8.656250   1.000000   1.000000
   10       -8.508524     -8.508524   1.000000   1.000000
   11       -8.431021     -8.431021   1.000000   1.000000
   12       -8.270817     -8.270817   1.000000   1.000000
   13       -8.083208     -8.083208   1.000000   1.000000
   14       -8.031902     -8.031902   1.000000   1.000000
   15       -7.849390     -7.849390   1.000000   1.000000
   16       -7.810885     -7.810885   1.000000   1.000000
   17       -7.670394     -7.670394   1.000000   1.000000
   18       -7.653261     -7.653261   1.000000   1.000000
   19       -7.582220     -7.582220   1.000000   1.000000
   20       -7.545601     -7.545601   1.000000   1.000000
   21       -7.373314     -7.373314   1.000000   1.000000
   22       -7.311583     -7.311583   1.000000   1.000000
   23       -7.291586     -7.291586   1.000000   1.000000
   24       -7.235754     -7.235754   1.000000   1.000000
   25       -7.157404     -7.157404   1.000000   1.000000
   26       -7.019670     -7.019670   1.000000   1.000000
   27       -6.880442     -6.880442   1.000000   1.000000
   28       -6.854894     -6.854894   1.000000   1.000000
   29       -6.797613     -6.797613   1.000000   1.000000
   30       -6.731114     -6.731114   1.000000   1.000000
   31       -6.667848     -6.667848   1.000000   1.000000
   32       -6.634881     -6.634881   1.000000   1.000000
   33       -6.629812     -6.629812   1.000000   1.000000
   34       -6.551433     -6.551433   1.000000   1.000000
   35       -6.433253     -6.433253   1.000000   1.000000
   36       -6.368249     -6.368249   1.000000   1.000000
   37       -6.281405     -6.281405   1.000000   1.000000
   38       -6.195241     -6.195241   1.000000   1.000000
   39       -6.156905     -6.156905   1.000000   1.000000
   40       -6.058757     -6.058757   1.000000   1.000000
   41       -5.924731     -5.924731   1.000000   1.000000
   42       -5.907122     -5.907122   1.000000   1.000000
   43       -5.863227     -5.863227   1.000000   1.000000
   44       -5.155034     -5.155034   1.000000   1.000000
   45       -3.911601     -3.911601  -0.000000  -0.000000
   46       -3.673453     -3.673453  -0.000000  -0.000000
   47       -3.526325     -3.526325  -0.000000  -0.000000
   48       -3.462843     -3.462843  -0.000000  -0.000000
   49       -1.588548     -1.588548  -0.000000  -0.000000
   50       -1.543567     -1.543567  -0.000000  -0.000000
   51       -1.375107     -1.375107  -0.000000  -0.000000
   52       -1.227536     -1.227536  -0.000000  -0.000000
   53       -0.818335     -0.818335  -0.000000  -0.000000
   54       -0.568240     -0.568240  -0.000000  -0.000000
   55       -0.336314     -0.336313  -0.000000  -0.000000
   56        0.095471      0.095475  -0.000000  -0.000000
