       N       E                     dE             d eps       ncg     rms          rms(c)
DAV:   1     0.750062957333E+03    0.75006E+03   -0.13262E+04   224   0.704E+02
DAV:   2     0.452039279028E+03   -0.29802E+03   -0.27770E+03   424   0.755E+01
DAV:   3     0.129089683124E+03   -0.32295E+03   -0.30099E+03   408   0.693E+01
DAV:   4     0.109938520056E+02   -0.11810E+03   -0.10931E+03   304   0.520E+01
DAV:   5    -0.121954309704E+02   -0.23189E+02   -0.20555E+02   320   0.203E+01    0.226E+01
DAV:   6    -0.490358339109E+01    0.72918E+01   -0.77056E+01   240   0.204E+01    0.158E+01
DAV:   7    -0.509972558164E+01   -0.19614E+00   -0.36282E+00   256   0.958E+00    0.705E+00
DAV:   8    -0.716820757524E+01   -0.20685E+01   -0.12154E+00   240   0.402E+00    0.205E+00
DAV:   9    -0.916218844000E+01   -0.19940E+01   -0.41768E-01   240   0.239E+00    0.156E+00
DAV:  10    -0.993198465885E+01   -0.76980E+00   -0.14184E-01   256   0.156E+00    0.132E+00
DAV:  11    -0.108295192060E+02   -0.89753E+00   -0.14151E-01   248   0.115E+00    0.120E+00
DAV:  12    -0.123754562419E+02   -0.15459E+01   -0.56600E-01   240   0.259E+00    0.782E-01
DAV:  13    -0.135165909663E+02   -0.11411E+01   -0.47555E-01   240   0.179E+00    0.535E-01
DAV:  14    -0.139757873121E+02   -0.45920E+00   -0.93876E-02   248   0.735E-01    0.409E-01
DAV:  15    -0.144890840664E+02   -0.51330E+00   -0.93519E-02   224   0.747E-01    0.302E-01
DAV:  16    -0.149822803818E+02   -0.49320E+00   -0.52609E-02   248   0.579E-01    0.164E-01
DAV:  17    -0.152045441577E+02   -0.22226E+00   -0.96266E-03   256   0.272E-01    0.115E-01
DAV:  18    -0.153954240769E+02   -0.19088E+00   -0.64376E-03   240   0.240E-01    0.624E-02
DAV:  19    -0.154536727899E+02   -0.58249E-01   -0.11694E-03   216   0.937E-02    0.390E-02
DAV:  20    -0.154736841653E+02   -0.20011E-01   -0.38087E-04   176   0.506E-02    0.219E-02
DAV:  21    -0.154876116254E+02   -0.13927E-01   -0.15516E-04   168   0.368E-02    0.134E-02
DAV:  22    -0.154935625608E+02   -0.59509E-02   -0.11026E-04   176   0.246E-02    0.787E-03
DAV:  23    -0.154961367164E+02   -0.25742E-02   -0.40465E-05   176   0.156E-02    0.620E-03
DAV:  24    -0.154973840360E+02   -0.12473E-02   -0.20204E-05   168   0.109E-02    0.392E-03
DAV:  25    -0.154985647217E+02   -0.11807E-02   -0.13706E-05   176   0.854E-03    0.258E-03
DAV:  26    -0.154994915638E+02   -0.92684E-03   -0.90395E-06   168   0.628E-03    0.143E-03
DAV:  27    -0.154997831372E+02   -0.29157E-03   -0.18822E-06   168   0.344E-03    0.827E-04
DAV:  28    -0.154999125653E+02   -0.12943E-03   -0.11054E-06   160   0.228E-03    0.479E-04
DAV:  29    -0.154999356199E+02   -0.23055E-04   -0.47066E-07   160   0.146E-03
   1 F= -.15499936E+02 E0= -.15512563E+02  d E =-.154999E+02  mag=    -0.0001
       N       E                     dE             d eps       ncg     rms          rms(c)
DAV:   1    -0.158307852072E+02   -0.33087E+00   -0.50158E+02   224   0.791E+01    0.516E+00
DAV:   2    -0.162821627900E+02   -0.45138E+00   -0.48167E+00   240   0.105E+01    0.351E+00
DAV:   3    -0.162565764104E+02    0.25586E-01   -0.31881E-01   240   0.224E+00    0.184E+00
DAV:   4    -0.162591696318E+02   -0.25932E-02   -0.32377E-02   240   0.101E+00    0.355E-01
DAV:   5    -0.162539728795E+02    0.51968E-02   -0.17186E-02   240   0.499E-01    0.141E-01
DAV:   6    -0.162537115070E+02    0.26137E-03   -0.33154E-03   240   0.176E-01    0.392E-02
DAV:   7    -0.162537917068E+02   -0.80200E-04   -0.73368E-05   160   0.409E-02
   2 F= -.16253792E+02 E0= -.16270357E+02  d E =-.753856E+00  mag=    -0.0000
       N       E                     dE             d eps       ncg     rms          rms(c)
DAV:   1    -0.162523210732E+02    0.13904E-02   -0.14416E+01   224   0.131E+01    0.729E-01
DAV:   2    -0.162668665259E+02   -0.14545E-01   -0.15826E-01   256   0.189E+00    0.432E-01
DAV:   3    -0.162660618050E+02    0.80472E-03   -0.92429E-03   240   0.391E-01    0.268E-01
DAV:   4    -0.162662203380E+02   -0.15853E-03   -0.14402E-03   256   0.169E-01    0.556E-02
DAV:   5    -0.162661084267E+02    0.11191E-03   -0.45226E-04   240   0.754E-02    0.219E-02
DAV:   6    -0.162661298407E+02   -0.21414E-04   -0.10297E-04   160   0.331E-02
   3 F= -.16266130E+02 E0= -.16282868E+02  d E =-.766194E+00  mag=    -0.0000
       N       E                     dE             d eps       ncg     rms          rms(c)
DAV:   1    -0.162914289861E+02   -0.25321E-01   -0.16237E+01   224   0.140E+01    0.408E-01
DAV:   2    -0.163082439572E+02   -0.16815E-01   -0.18144E-01   256   0.205E+00    0.290E-01
DAV:   3    -0.163074684123E+02    0.77554E-03   -0.60678E-03   240   0.350E-01    0.187E-01
DAV:   4    -0.163068916485E+02    0.57676E-03   -0.21416E-03   240   0.179E-01    0.725E-02
DAV:   5    -0.163068654376E+02    0.26211E-04   -0.24937E-04   176   0.717E-02
   4 F= -.16306865E+02 E0= -.16314999E+02  d E =-.407356E-01  mag=    -0.0000
       N       E                     dE             d eps       ncg     rms          rms(c)
DAV:   1    -0.162467517554E+02    0.60140E-01   -0.10699E+02   224   0.361E+01    0.108E+00
DAV:   2    -0.163582535484E+02   -0.11150E+00   -0.12019E+00   240   0.527E+00    0.797E-01
DAV:   3    -0.163543943633E+02    0.38592E-02   -0.38418E-02   240   0.896E-01    0.497E-01
DAV:   4    -0.163515602264E+02    0.28341E-02   -0.10971E-02   256   0.407E-01    0.207E-01
DAV:   5    -0.163518234777E+02   -0.26325E-03   -0.14464E-03   240   0.156E-01    0.794E-02
DAV:   6    -0.163517665970E+02    0.56881E-04   -0.66050E-04   240   0.891E-02
   5 F= -.16351767E+02 E0= -.16355835E+02  d E =-.856368E-01  mag=    -0.0000
       N       E                     dE             d eps       ncg     rms          rms(c)
DAV:   1    -0.163625815437E+02   -0.10758E-01   -0.21489E+01   224   0.161E+01    0.445E-01
DAV:   2    -0.163852478355E+02   -0.22666E-01   -0.24277E-01   224   0.236E+00    0.331E-01
DAV:   3    -0.163845972698E+02    0.65057E-03   -0.74036E-03   256   0.400E-01    0.212E-01
DAV:   4    -0.163841236046E+02    0.47367E-03   -0.19365E-03   224   0.162E-01    0.867E-02
DAV:   5    -0.163842453963E+02   -0.12179E-03   -0.30153E-04   176   0.707E-02    0.316E-02
DAV:   6    -0.163842654244E+02   -0.20028E-04   -0.93060E-05   144   0.367E-02
   6 F= -.16384265E+02 E0= -.16388206E+02  d E =-.324988E-01  mag=    -0.0000
       N       E                     dE             d eps       ncg     rms          rms(c)
DAV:   1    -0.163750147276E+02    0.92307E-02   -0.24739E+01   224   0.173E+01    0.511E-01
DAV:   2    -0.164010096019E+02   -0.25995E-01   -0.28023E-01   224   0.254E+00    0.379E-01
DAV:   3    -0.164002222806E+02    0.78732E-03   -0.87187E-03   256   0.434E-01    0.237E-01
DAV:   4    -0.163996577186E+02    0.56456E-03   -0.23494E-03   224   0.179E-01    0.938E-02
DAV:   5    -0.163997444693E+02   -0.86751E-04   -0.27658E-04   176   0.714E-02
   7 F= -.16399744E+02 E0= -.16403642E+02  d E =-.479779E-01  mag=    -0.0000
       N       E                     dE             d eps       ncg     rms          rms(c)
DAV:   1    -0.164046625906E+02   -0.50049E-02   -0.10278E+01   224   0.110E+01    0.312E-01
DAV:   2    -0.164153736461E+02   -0.10711E-01   -0.11556E-01   240   0.161E+00    0.204E-01
DAV:   3    -0.164150456880E+02    0.32796E-03   -0.35039E-03   256   0.271E-01    0.136E-01
DAV:   4    -0.164148640385E+02    0.18165E-03   -0.92361E-04   224   0.115E-01    0.490E-02
DAV:   5    -0.164149049293E+02   -0.40891E-04   -0.80170E-05   144   0.421E-02
   8 F= -.16414905E+02 E0= -.16418798E+02  d E =-.151605E-01  mag=    -0.0000
       N       E                     dE             d eps       ncg     rms          rms(c)
DAV:   1    -0.163933295352E+02    0.21535E-01   -0.32526E+01   224   0.195E+01    0.545E-01
DAV:   2    -0.164269620126E+02   -0.33632E-01   -0.36270E-01   240   0.284E+00    0.360E-01
DAV:   3    -0.164259204694E+02    0.10415E-02   -0.10881E-02   256   0.476E-01    0.241E-01
DAV:   4    -0.164252333816E+02    0.68709E-03   -0.29711E-03   224   0.205E-01    0.866E-02
DAV:   5    -0.164253020821E+02   -0.68700E-04   -0.28030E-04   192   0.747E-02
   9 F= -.16425302E+02 E0= -.16429189E+02  d E =-.255576E-01  mag=    -0.0000
       N       E                     dE             d eps       ncg     rms          rms(c)
DAV:   1    -0.164229553345E+02    0.22780E-02   -0.15700E+01   224   0.135E+01    0.291E-01
DAV:   2    -0.164396294615E+02   -0.16674E-01   -0.17257E-01   256   0.196E+00    0.221E-01
DAV:   3    -0.164391576568E+02    0.47180E-03   -0.47481E-03   240   0.311E-01    0.158E-01
DAV:   4    -0.164387185508E+02    0.43911E-03   -0.12887E-03   256   0.129E-01    0.634E-02
DAV:   5    -0.164387613242E+02   -0.42773E-04   -0.40645E-04   224   0.720E-02
  10 F= -.16438761E+02 E0= -.16442641E+02  d E =-.134592E-01  mag=    -0.0000
       N       E                     dE             d eps       ncg     rms          rms(c)
DAV:   1    -0.163157954457E+02    0.12292E+00   -0.13950E+02   224   0.405E+01    0.894E-01
DAV:   2    -0.164603568409E+02   -0.14456E+00   -0.14895E+00   240   0.578E+00    0.663E-01
DAV:   3    -0.164562548421E+02    0.41020E-02   -0.40940E-02   256   0.912E-01    0.469E-01
DAV:   4    -0.164521038743E+02    0.41510E-02   -0.12359E-02   256   0.403E-01    0.186E-01
DAV:   5    -0.164523011498E+02   -0.19728E-03   -0.28362E-03   240   0.197E-01    0.875E-02
DAV:   6    -0.164521665125E+02    0.13464E-03   -0.53663E-04   224   0.837E-02    0.408E-02
DAV:   7    -0.164521954721E+02   -0.28960E-04   -0.81271E-05   144   0.362E-02
  11 F= -.16452195E+02 E0= -.16456065E+02  d E =-.268934E-01  mag=    -0.0000
       N       E                     dE             d eps       ncg     rms          rms(c)
DAV:   1    -0.164466895979E+02    0.54769E-02   -0.61257E+00   224   0.846E+00    0.187E-01
DAV:   2    -0.164532133304E+02   -0.65237E-02   -0.67227E-02   256   0.123E+00    0.137E-01
DAV:   3    -0.164530358839E+02    0.17745E-03   -0.18807E-03   240   0.195E-01    0.983E-02
DAV:   4    -0.164528961833E+02    0.13970E-03   -0.54066E-04   256   0.826E-02    0.363E-02
DAV:   5    -0.164529256205E+02   -0.29437E-04   -0.10862E-04   144   0.399E-02
  12 F= -.16452926E+02 E0= -.16456796E+02  d E =-.276235E-01  mag=    -0.0000
       N       E                     dE             d eps       ncg     rms          rms(c)
DAV:   1    -0.164457322246E+02    0.71640E-02   -0.19097E+01   224   0.150E+01    0.287E-01
DAV:   2    -0.164661658251E+02   -0.20434E-01   -0.20979E-01   240   0.217E+00    0.221E-01
DAV:   3    -0.164655873604E+02    0.57846E-03   -0.56910E-03   256   0.341E-01    0.165E-01
DAV:   4    -0.164649800820E+02    0.60728E-03   -0.13195E-03   224   0.128E-01    0.675E-02
DAV:   5    -0.164649671201E+02    0.12962E-04   -0.61364E-04   240   0.827E-02
  13 F= -.16464967E+02 E0= -.16468837E+02  d E =-.120415E-01  mag=    -0.0000
       N       E                     dE             d eps       ncg     rms          rms(c)
DAV:   1    -0.163031007962E+02    0.16188E+00   -0.17342E+02   224   0.454E+01    0.102E+00
DAV:   2    -0.164857579292E+02   -0.18266E+00   -0.18824E+00   240   0.647E+00    0.656E-01
DAV:   3    -0.164802660635E+02    0.54919E-02   -0.52860E-02   256   0.102E+00    0.468E-01
DAV:   4    -0.164752781020E+02    0.49880E-02   -0.14187E-02   256   0.417E-01    0.157E-01
DAV:   5    -0.164753362778E+02   -0.58176E-04   -0.21630E-03   256   0.166E-01    0.671E-02
DAV:   6    -0.164753472757E+02   -0.10998E-04   -0.36268E-04   224   0.679E-02
  14 F= -.16475347E+02 E0= -.16479219E+02  d E =-.224217E-01  mag=    -0.0000
       N       E                     dE             d eps       ncg     rms          rms(c)
DAV:   1    -0.164630344840E+02    0.12302E-01   -0.13775E+01   224   0.127E+01    0.252E-01
DAV:   2    -0.164777509916E+02   -0.14717E-01   -0.15061E-01   256   0.183E+00    0.198E-01
DAV:   3    -0.164773719601E+02    0.37903E-03   -0.40646E-03   240   0.289E-01    0.148E-01
DAV:   4    -0.164769830350E+02    0.38893E-03   -0.11027E-03   240   0.117E-01    0.566E-02
DAV:   5    -0.164770244419E+02   -0.41407E-04   -0.37716E-04   224   0.658E-02
  15 F= -.16477024E+02 E0= -.16480895E+02  d E =-.240988E-01  mag=    -0.0000
       N       E                     dE             d eps       ncg     rms          rms(c)
DAV:   1    -0.164760919806E+02    0.89105E-03   -0.84353E+00   224   0.994E+00    0.218E-01
DAV:   2    -0.164850982605E+02   -0.90063E-02   -0.92841E-02   240   0.145E+00    0.178E-01
DAV:   3    -0.164847936661E+02    0.30459E-03   -0.25943E-03   256   0.230E-01    0.128E-01
DAV:   4    -0.164845043616E+02    0.28930E-03   -0.87934E-04   240   0.107E-01    0.486E-02
DAV:   5    -0.164845278751E+02   -0.23514E-04   -0.22470E-04   176   0.537E-02
  16 F= -.16484528E+02 E0= -.16488400E+02  d E =-.750343E-02  mag=    -0.0000
       N       E                     dE             d eps       ncg     rms          rms(c)
DAV:   1    -0.164166334058E+02    0.67871E-01   -0.76115E+01   224   0.301E+01    0.693E-01
DAV:   2    -0.164977238460E+02   -0.81090E-01   -0.83954E-01   240   0.432E+00    0.538E-01
DAV:   3    -0.164951064241E+02    0.26174E-02   -0.23685E-02   256   0.686E-01    0.376E-01
DAV:   4    -0.164925822803E+02    0.25241E-02   -0.79256E-03   256   0.321E-01    0.139E-01
DAV:   5    -0.164927475972E+02   -0.16532E-03   -0.16299E-03   256   0.140E-01    0.702E-02
DAV:   6    -0.164926513170E+02    0.96280E-04   -0.54998E-04   224   0.781E-02
  17 F= -.16492651E+02 E0= -.16496530E+02  d E =-.156269E-01  mag=    -0.0000
       N       E                     dE             d eps       ncg     rms          rms(c)
DAV:   1    -0.164894125117E+02    0.33351E-02   -0.34582E+00   224   0.636E+00    0.147E-01
DAV:   2    -0.164931289573E+02   -0.37164E-02   -0.38240E-02   256   0.924E-01    0.114E-01
DAV:   3    -0.164930219487E+02    0.10701E-03   -0.10839E-03   256   0.147E-01    0.795E-02
DAV:   4    -0.164929472439E+02    0.74705E-04   -0.34038E-04   224   0.672E-02
  18 F= -.16492947E+02 E0= -.16496824E+02  d E =-.159228E-01  mag=    -0.0000
       N       E                     dE             d eps       ncg     rms          rms(c)
DAV:   1    -0.164929714144E+02    0.50534E-04   -0.84648E+00   224   0.100E+01    0.233E-01
DAV:   2    -0.165019790571E+02   -0.90076E-02   -0.92029E-02   240   0.144E+00    0.195E-01
DAV:   3    -0.165016293571E+02    0.34970E-03   -0.25551E-03   256   0.225E-01    0.141E-01
DAV:   4    -0.165013184189E+02    0.31094E-03   -0.11962E-03   240   0.121E-01    0.465E-02
DAV:   5    -0.165013507945E+02   -0.32376E-04   -0.15192E-04   160   0.477E-02
  19 F= -.16501351E+02 E0= -.16505230E+02  d E =-.840355E-02  mag=    -0.0000
       N       E                     dE             d eps       ncg     rms          rms(c)
DAV:   1    -0.164342854719E+02    0.67033E-01   -0.76509E+01   224   0.302E+01    0.700E-01
DAV:   2    -0.165152623017E+02   -0.80977E-01   -0.82965E-01   240   0.431E+00    0.575E-01
DAV:   3    -0.165126155528E+02    0.26467E-02   -0.22850E-02   256   0.671E-01    0.414E-01
DAV:   4    -0.165099117902E+02    0.27038E-02   -0.95526E-03   224   0.342E-01    0.138E-01
DAV:   5    -0.165101552821E+02   -0.24349E-03   -0.15157E-03   256   0.135E-01    0.798E-02
DAV:   6    -0.165100110962E+02    0.14419E-03   -0.62162E-04   224   0.843E-02    0.235E-02
DAV:   7    -0.165100334802E+02   -0.22384E-04   -0.54764E-05   144   0.289E-02
  20 F= -.16510033E+02 E0= -.16513923E+02  d E =-.170862E-01  mag=    -0.0000
       N       E                     dE             d eps       ncg     rms          rms(c)
DAV:   1    -0.165011084603E+02    0.89026E-02   -0.17533E+01   224   0.145E+01    0.258E-01
DAV:   2    -0.165199633335E+02   -0.18855E-01   -0.19295E-01   256   0.210E+00    0.234E-01
DAV:   3    -0.165194756001E+02    0.48773E-03   -0.49414E-03   256   0.326E-01    0.174E-01
DAV:   4    -0.165188006901E+02    0.67491E-03   -0.12182E-03   240   0.126E-01    0.853E-02
DAV:   5    -0.165187775037E+02    0.23186E-04   -0.10098E-03   240   0.106E-01    0.371E-02
DAV:   6    -0.165187772151E+02    0.28863E-06   -0.59507E-05   144   0.307E-02
  21 F= -.16518777E+02 E0= -.16522659E+02  d E =-.874373E-02  mag=    -0.0000
       N       E                     dE             d eps       ncg     rms          rms(c)
DAV:   1    -0.163830295304E+02    0.13575E+00   -0.14330E+02   224   0.416E+01    0.780E-01
DAV:   2    -0.165350590623E+02   -0.15203E+00   -0.15534E+00   256   0.596E+00    0.654E-01
DAV:   3    -0.165310667745E+02    0.39923E-02   -0.40195E-02   256   0.922E-01    0.481E-01
DAV:   4    -0.165255376155E+02    0.55292E-02   -0.10925E-02   256   0.375E-01    0.212E-01
DAV:   5    -0.165252934662E+02    0.24415E-03   -0.55557E-03   256   0.249E-01    0.928E-02
DAV:   6    -0.165252665438E+02    0.26922E-04   -0.53579E-04   240   0.840E-02
  22 F= -.16525267E+02 E0= -.16529137E+02  d E =-.152331E-01  mag=    -0.0000
       N       E                     dE             d eps       ncg     rms          rms(c)
DAV:   1    -0.165139053295E+02    0.11388E-01   -0.12228E+01   224   0.121E+01    0.210E-01
DAV:   2    -0.165270335946E+02   -0.13128E-01   -0.13392E-01   256   0.175E+00    0.192E-01
DAV:   3    -0.165267463236E+02    0.28727E-03   -0.34264E-03   240   0.272E-01    0.144E-01
DAV:   4    -0.165263358487E+02    0.41047E-03   -0.79556E-04   240   0.103E-01    0.718E-02
DAV:   5    -0.165263503577E+02   -0.14509E-04   -0.72567E-04   240   0.903E-02
  23 F= -.16526350E+02 E0= -.16530223E+02  d E =-.163169E-01  mag=    -0.0000
       N       E                     dE             d eps       ncg     rms          rms(c)
DAV:   1    -0.165097458053E+02    0.16590E-01   -0.31549E+01   224   0.195E+01    0.434E-01
DAV:   2    -0.165432594433E+02   -0.33514E-01   -0.35016E-01   240   0.283E+00    0.356E-01
DAV:   3    -0.165422658027E+02    0.99364E-03   -0.94812E-03   256   0.451E-01    0.248E-01
DAV:   4    -0.165411200977E+02    0.11457E-02   -0.31290E-03   240   0.205E-01    0.100E-01
DAV:   5    -0.165411674998E+02   -0.47402E-04   -0.86638E-04   240   0.101E-01
  24 F= -.16541167E+02 E0= -.16545035E+02  d E =-.148171E-01  mag=    -0.0000
       N       E                     dE             d eps       ncg     rms          rms(c)
DAV:   1    -0.164979135064E+02    0.43207E-01   -0.45964E+01   224   0.235E+01    0.533E-01
DAV:   2    -0.165470610535E+02   -0.49148E-01   -0.51384E-01   256   0.343E+00    0.425E-01
DAV:   3    -0.165456488119E+02    0.14122E-02   -0.14011E-02   240   0.547E-01    0.293E-01
DAV:   4    -0.165440410822E+02    0.16077E-02   -0.43884E-03   256   0.244E-01    0.118E-01
DAV:   5    -0.165441231278E+02   -0.82046E-04   -0.11897E-03   240   0.119E-01    0.542E-02
DAV:   6    -0.165441025880E+02    0.20540E-04   -0.23287E-04   176   0.547E-02
  25 F= -.16544103E+02 E0= -.16547968E+02  d E =-.177522E-01  mag=    -0.0000
       N       E                     dE             d eps       ncg     rms          rms(c)
DAV:   1    -0.165409282381E+02    0.31949E-02   -0.39218E+00   224   0.686E+00    0.152E-01
DAV:   2    -0.165451404349E+02   -0.42122E-02   -0.43594E-02   256   0.998E-01    0.123E-01
DAV:   3    -0.165450442795E+02    0.96155E-04   -0.11830E-03   256   0.159E-01    0.853E-02
DAV:   4    -0.165449528242E+02    0.91455E-04   -0.35967E-04   224   0.704E-02
  26 F= -.16544953E+02 E0= -.16548819E+02  d E =-.186025E-01  mag=    -0.0000
       N       E                     dE             d eps       ncg     rms          rms(c)
DAV:   1    -0.165391842524E+02    0.58600E-02   -0.16226E+01   224   0.140E+01    0.259E-01
DAV:   2    -0.165565923425E+02   -0.17408E-01   -0.17802E-01   256   0.203E+00    0.237E-01
DAV:   3    -0.165560988496E+02    0.49349E-03   -0.46314E-03   240   0.316E-01    0.179E-01
DAV:   4    -0.165554061774E+02    0.69267E-03   -0.14119E-03   240   0.133E-01    0.793E-02
DAV:   5    -0.165553947440E+02    0.11433E-04   -0.81866E-04   256   0.958E-02
  27 F= -.16555395E+02 E0= -.16559260E+02  d E =-.104419E-01  mag=    -0.0000
       N       E                     dE             d eps       ncg     rms          rms(c)
DAV:   1    -0.164210527597E+02    0.13435E+00   -0.14706E+02   224   0.423E+01    0.817E-01
DAV:   2    -0.165774569251E+02   -0.15640E+00   -0.15986E+00   256   0.605E+00    0.700E-01
DAV:   3    -0.165734073620E+02    0.40496E-02   -0.41797E-02   240   0.941E-01    0.515E-01
DAV:   4    -0.165675334788E+02    0.58739E-02   -0.12486E-02   256   0.397E-01    0.222E-01
DAV:   5    -0.165674040513E+02    0.12943E-03   -0.53737E-03   256   0.246E-01    0.104E-01
DAV:   6    -0.165673523600E+02    0.51691E-04   -0.64992E-04   240   0.916E-02
  28 F= -.16567352E+02 E0= -.16571218E+02  d E =-.223995E-01  mag=    -0.0000
       N       E                     dE             d eps       ncg     rms          rms(c)
DAV:   1    -0.165527836584E+02    0.14620E-01   -0.26682E+01   224   0.179E+01    0.300E-01
DAV:   2    -0.165812187536E+02   -0.28435E-01   -0.28975E-01   240   0.258E+00    0.287E-01
DAV:   3    -0.165804870635E+02    0.73169E-03   -0.73424E-03   256   0.399E-01    0.219E-01
DAV:   4    -0.165793572685E+02    0.11298E-02   -0.18458E-03   240   0.154E-01    0.109E-01
DAV:   5    -0.165792827289E+02    0.74540E-04   -0.17903E-03   240   0.141E-01    0.489E-02
DAV:   6    -0.165793100781E+02   -0.27349E-04   -0.93690E-05   144   0.387E-02
  29 F= -.16579310E+02 E0= -.16583176E+02  d E =-.119577E-01  mag=    -0.0000
       N       E                     dE             d eps       ncg     rms          rms(c)
DAV:   1    -0.163649492683E+02    0.21433E+00   -0.24373E+02   224   0.546E+01    0.937E-01
DAV:   2    -0.166169058806E+02   -0.25196E+00   -0.25611E+00   240   0.767E+00    0.872E-01
DAV:   3    -0.166105215446E+02    0.63843E-02   -0.64690E-02   256   0.117E+00    0.658E-01
DAV:   4    -0.166000555288E+02    0.10466E-01   -0.18163E-02   256   0.478E-01    0.321E-01
DAV:   5    -0.165990501574E+02    0.10054E-02   -0.11602E-02   256   0.361E-01    0.141E-01
DAV:   6    -0.165990985892E+02   -0.48432E-04   -0.59694E-04   256   0.938E-02
  30 F= -.16599099E+02 E0= -.16602965E+02  d E =-.317462E-01  mag=    -0.0000
       N       E                     dE             d eps       ncg     rms          rms(c)
DAV:   1    -0.165858525638E+02    0.13198E-01   -0.14580E+01   224   0.132E+01    0.227E-01
DAV:   2    -0.166014619503E+02   -0.15609E-01   -0.15847E-01   240   0.191E+00    0.211E-01
DAV:   3    -0.166010321297E+02    0.42982E-03   -0.40081E-03   256   0.295E-01    0.162E-01
DAV:   4    -0.166004366341E+02    0.59550E-03   -0.11850E-03   240   0.122E-01    0.732E-02
DAV:   5    -0.166004771479E+02   -0.40514E-04   -0.88546E-04   256   0.986E-02
  31 F= -.16600477E+02 E0= -.16604344E+02  d E =-.331248E-01  mag=    -0.0000
       N       E                     dE             d eps       ncg     rms          rms(c)
DAV:   1    -0.165787766976E+02    0.21660E-01   -0.40229E+01   224   0.219E+01    0.430E-01
DAV:   2    -0.166212811478E+02   -0.42504E-01   -0.43647E-01   240   0.317E+00    0.350E-01
DAV:   3    -0.166199715011E+02    0.13096E-02   -0.11370E-02   256   0.500E-01    0.254E-01
DAV:   4    -0.166184046697E+02    0.15668E-02   -0.32520E-03   256   0.202E-01    0.108E-01
DAV:   5    -0.166184057442E+02   -0.10745E-05   -0.16352E-03   256   0.134E-01    0.486E-02
DAV:   6    -0.166184225092E+02   -0.16765E-04   -0.15214E-04   176   0.458E-02
  32 F= -.16618423E+02 E0= -.16622290E+02  d E =-.179454E-01  mag=    -0.0000
       N       E                     dE             d eps       ncg     rms          rms(c)
DAV:   1    -0.163022482134E+02    0.31616E+00   -0.37052E+02   224   0.676E+01    0.149E+00
DAV:   2    -0.166797435896E+02   -0.37750E+00   -0.38777E+00   240   0.937E+00    0.103E+00
DAV:   3    -0.166670888336E+02    0.12655E-01   -0.10277E-01   256   0.147E+00    0.715E-01
DAV:   4    -0.166535244859E+02    0.13564E-01   -0.33024E-02   256   0.635E-01    0.261E-01
DAV:   5    -0.166533134903E+02    0.21100E-03   -0.62696E-03   256   0.269E-01    0.116E-01
DAV:   6    -0.166534495190E+02   -0.13603E-03   -0.66456E-04   256   0.916E-02    0.352E-02
DAV:   7    -0.166535657919E+02   -0.11627E-03   -0.22748E-05   176   0.238E-02    0.129E-02
DAV:   8    -0.166536662263E+02   -0.10043E-03   -0.13811E-05   176   0.129E-02    0.485E-03
DAV:   9    -0.166537725372E+02   -0.10631E-03   -0.96900E-06   176   0.822E-03    0.242E-03
DAV:  10    -0.166538346538E+02   -0.62117E-04   -0.55181E-06   160   0.544E-03
  33 F= -.16653835E+02 E0= -.16657702E+02  d E =-.533575E-01  mag=    -0.0000
       N       E                     dE             d eps       ncg     rms          rms(c)
DAV:   1    -0.152324526840E+02    0.14213E+01   -0.15826E+03   224   0.145E+02    0.454E+00
DAV:   2    -0.167409195648E+02   -0.15085E+01   -0.15395E+01   256   0.185E+01    0.233E+00
DAV:   3    -0.167029047411E+02    0.38015E-01   -0.39320E-01   256   0.288E+00    0.150E+00
DAV:   4    -0.166643540751E+02    0.38551E-01   -0.75686E-02   256   0.987E-01    0.798E-01
DAV:   5    -0.166602030076E+02    0.41511E-02   -0.25764E-02   224   0.549E-01    0.291E-01
DAV:   6    -0.166606956770E+02   -0.49267E-03   -0.11143E-03   240   0.138E-01    0.113E-01
DAV:   7    -0.166609297299E+02   -0.23405E-03   -0.74152E-05   160   0.429E-02    0.441E-02
DAV:   8    -0.166611135648E+02   -0.18383E-03   -0.28257E-05   144   0.193E-02    0.162E-02
DAV:   9    -0.166612518954E+02   -0.13833E-03   -0.12432E-05   160   0.102E-02    0.638E-03
DAV:  10    -0.166613927535E+02   -0.14086E-03   -0.14279E-05   144   0.854E-03    0.347E-03
DAV:  11    -0.166615404884E+02   -0.14773E-03   -0.16856E-05   144   0.821E-03    0.170E-03
DAV:  12    -0.166615953509E+02   -0.54862E-04   -0.70953E-06   160   0.583E-03
  34 F= -.16661595E+02 E0= -.16665462E+02  d E =-.611182E-01  mag=    -0.0000
       N       E                     dE             d eps       ncg     rms          rms(c)
DAV:   1    -0.164117846670E+02    0.24976E+00   -0.26715E+02   224   0.570E+01    0.956E-01
DAV:   2    -0.166875065545E+02   -0.27572E+00   -0.27960E+00   240   0.802E+00    0.934E-01
DAV:   3    -0.166810827325E+02    0.64238E-02   -0.69757E-02   240   0.123E+00    0.707E-01
DAV:   4    -0.166695361075E+02    0.11547E-01   -0.18113E-02   224   0.488E-01    0.366E-01
DAV:   5    -0.166679107057E+02    0.16254E-02   -0.13865E-02   240   0.389E-01    0.158E-01
DAV:   6    -0.166679583213E+02   -0.47616E-04   -0.48017E-04   224   0.881E-02
  35 F= -.16667958E+02 E0= -.16671825E+02  d E =-.674812E-01  mag=     0.0000
       N       E                     dE             d eps       ncg     rms          rms(c)
DAV:   1    -0.166693550266E+02   -0.14443E-02   -0.62220E+00   224   0.858E+00    0.132E-01
DAV:   2    -0.166759135026E+02   -0.65585E-02   -0.65831E-02   240   0.123E+00    0.132E-01
DAV:   3    -0.166757608656E+02    0.15264E-03   -0.16339E-03   240   0.189E-01    0.106E-01
DAV:   4    -0.166755221843E+02    0.23868E-03   -0.39650E-04   208   0.719E-02    0.521E-02
DAV:   5    -0.166755208071E+02    0.13772E-05   -0.45105E-04   224   0.709E-02
  36 F= -.16675521E+02 E0= -.16679388E+02  d E =-.756249E-02  mag=     0.0000
       N       E                     dE             d eps       ncg     rms          rms(c)
DAV:   1    -0.166418203581E+02    0.33702E-01   -0.56116E+01   224   0.258E+01    0.425E-01
DAV:   2    -0.167008057332E+02   -0.58985E-01   -0.59639E-01   224   0.369E+00    0.398E-01
DAV:   3    -0.166992788134E+02    0.15269E-02   -0.15020E-02   240   0.568E-01    0.307E-01
DAV:   4    -0.166968652973E+02    0.24135E-02   -0.40117E-03   224   0.225E-01    0.143E-01
DAV:   5    -0.166966126137E+02    0.25268E-03   -0.30336E-03   224   0.181E-01    0.633E-02
DAV:   6    -0.166966045743E+02    0.80393E-05   -0.16897E-04   144   0.525E-02
  37 F= -.16696605E+02 E0= -.16700471E+02  d E =-.286463E-01  mag=     0.0000
       N       E                     dE             d eps       ncg     rms          rms(c)
DAV:   1    -0.165119828739E+02    0.18463E+00   -0.22759E+02   224   0.523E+01    0.939E-01
DAV:   2    -0.167457552045E+02   -0.23377E+00   -0.23735E+00   240   0.733E+00    0.821E-01
DAV:   3    -0.167395354852E+02    0.62197E-02   -0.60374E-02   240   0.113E+00    0.615E-01
DAV:   4    -0.167302168417E+02    0.93186E-02   -0.17731E-02   256   0.468E-01    0.277E-01
DAV:   5    -0.167295685947E+02    0.64825E-03   -0.83149E-03   224   0.301E-01    0.124E-01
DAV:   6    -0.167295823224E+02   -0.13728E-04   -0.66189E-04   240   0.959E-02
  38 F= -.16729582E+02 E0= -.16733448E+02  d E =-.616240E-01  mag=    -0.0000
       N       E                     dE             d eps       ncg     rms          rms(c)
DAV:   1    -0.158396478515E+02    0.88992E+00   -0.95610E+02   224   0.110E+02    0.264E+00
DAV:   2    -0.167524484851E+02   -0.91280E+00   -0.93414E+00   240   0.146E+01    0.186E+00
DAV:   3    -0.167308226921E+02    0.21626E-01   -0.24119E-01   240   0.225E+00    0.128E+00
DAV:   4    -0.167021778097E+02    0.28645E-01   -0.76712E-02   256   0.987E-01    0.572E-01
DAV:   5    -0.167020315962E+02    0.14621E-03   -0.12150E-02   224   0.390E-01    0.263E-01
DAV:   6    -0.167020075612E+02    0.24035E-04   -0.17407E-03   256   0.152E-01    0.102E-01
DAV:   7    -0.167021472789E+02   -0.13972E-03   -0.11101E-04   144   0.578E-02    0.433E-02
DAV:   8    -0.167022796518E+02   -0.13237E-03   -0.30672E-05   176   0.254E-02    0.148E-02
DAV:   9    -0.167023998965E+02   -0.12024E-03   -0.16368E-05   144   0.163E-02    0.500E-03
DAV:  10    -0.167024789309E+02   -0.79034E-04   -0.98912E-06   160   0.138E-02
  39 F= -.16702479E+02 E0= -.16706344E+02  d E =-.345206E-01  mag=     0.0000
       N       E                     dE             d eps       ncg     rms          rms(c)
DAV:   1    -0.162205484850E+02    0.48185E+00   -0.54333E+02   224   0.820E+01    0.195E+00
DAV:   2    -0.167703543116E+02   -0.54981E+00   -0.56591E+00   240   0.113E+01    0.135E+00
DAV:   3    -0.167556260456E+02    0.14728E-01   -0.15041E-01   240   0.176E+00    0.935E-01
DAV:   4    -0.167380112399E+02    0.17615E-01   -0.51763E-02   224   0.816E-01    0.339E-01
DAV:   5    -0.167382959380E+02   -0.28470E-03   -0.65195E-03   256   0.291E-01    0.168E-01
DAV:   6    -0.167381641814E+02    0.13176E-03   -0.11094E-03   224   0.118E-01    0.634E-02
DAV:   7    -0.167382227841E+02   -0.58603E-04   -0.13816E-04   160   0.574E-02
  40 F= -.16738223E+02 E0= -.16742088E+02  d E =-.702645E-01  mag=    -0.0000
       N       E                     dE             d eps       ncg     rms          rms(c)
DAV:   1    -0.167531090859E+02   -0.14945E-01   -0.52074E+00   224   0.786E+00    0.188E-01
DAV:   2    -0.167585710387E+02   -0.54620E-02   -0.57317E-02   224   0.115E+00    0.144E-01
DAV:   3    -0.167584358817E+02    0.13516E-03   -0.16484E-03   240   0.190E-01    0.980E-02
DAV:   4    -0.167583218251E+02    0.11406E-03   -0.48161E-04   224   0.816E-02    0.391E-02
DAV:   5    -0.167583514945E+02   -0.29669E-04   -0.10547E-04   144   0.441E-02
  41 F= -.16758351E+02 E0= -.16762217E+02  d E =-.201287E-01  mag=     0.0000
       N       E                     dE             d eps       ncg     rms          rms(c)
DAV:   1    -0.167604789474E+02   -0.21571E-02   -0.47016E+01   224   0.236E+01    0.544E-01
DAV:   2    -0.168092729553E+02   -0.48794E-01   -0.51504E-01   224   0.344E+00    0.433E-01
DAV:   3    -0.168079442369E+02    0.13287E-02   -0.14660E-02   224   0.564E-01    0.296E-01
DAV:   4    -0.168064571898E+02    0.14870E-02   -0.40612E-03   240   0.234E-01    0.127E-01
DAV:   5    -0.168065259888E+02   -0.68799E-04   -0.12494E-03   256   0.124E-01    0.572E-02
DAV:   6    -0.168064627949E+02    0.63194E-04   -0.30576E-04   208   0.652E-02
  42 F= -.16806463E+02 E0= -.16810328E+02  d E =-.682400E-01  mag=     0.0000
       N       E                     dE             d eps       ncg     rms          rms(c)
DAV:   1    -0.166612268460E+02    0.14530E+00   -0.19010E+02   224   0.477E+01    0.107E+00
DAV:   2    -0.168547192144E+02   -0.19349E+00   -0.20563E+00   224   0.686E+00    0.865E-01
DAV:   3    -0.168501127580E+02    0.46065E-02   -0.58724E-02   224   0.113E+00    0.589E-01
DAV:   4    -0.168441464215E+02    0.59663E-02   -0.14279E-02   224   0.444E-01    0.274E-01
DAV:   5    -0.168442295305E+02   -0.83109E-04   -0.54238E-03   256   0.255E-01    0.115E-01
DAV:   6    -0.168440223229E+02    0.20721E-03   -0.11830E-03   240   0.119E-01    0.380E-02
DAV:   7    -0.168440549458E+02   -0.32623E-04   -0.42439E-05   160   0.384E-02
  43 F= -.16844055E+02 E0= -.16847920E+02  d E =-.105832E+00  mag=    -0.0000
       N       E                     dE             d eps       ncg     rms          rms(c)
DAV:   1    -0.168536315410E+02   -0.96092E-02   -0.71944E+00   224   0.924E+00    0.304E-01
DAV:   2    -0.168612208057E+02   -0.75893E-02   -0.81532E-02   240   0.135E+00    0.190E-01
DAV:   3    -0.168609639513E+02    0.25685E-03   -0.27085E-03   224   0.233E-01    0.128E-01
DAV:   4    -0.168608980680E+02    0.65883E-04   -0.82447E-04   240   0.106E-01
  44 F= -.16860898E+02 E0= -.16864764E+02  d E =-.168431E-01  mag=    -0.0000
       N       E                     dE             d eps       ncg     rms          rms(c)
DAV:   1    -0.168115313028E+02    0.49433E-01   -0.64953E+01   224   0.278E+01    0.102E+00
DAV:   2    -0.168803643913E+02   -0.68833E-01   -0.74477E-01   224   0.407E+00    0.591E-01
DAV:   3    -0.168780337742E+02    0.23306E-02   -0.25777E-02   224   0.715E-01    0.387E-01
DAV:   4    -0.168773563974E+02    0.67738E-03   -0.67940E-03   256   0.303E-01    0.956E-02
DAV:   5    -0.168773071325E+02    0.49265E-04   -0.28686E-04   176   0.839E-02
  45 F= -.16877307E+02 E0= -.16881173E+02  d E =-.332522E-01  mag=     0.0000
       N       E                     dE             d eps       ncg     rms          rms(c)
DAV:   1    -0.168803067524E+02   -0.29504E-02   -0.86627E+00   224   0.101E+01    0.228E-01
DAV:   2    -0.168896355439E+02   -0.93288E-02   -0.98395E-02   240   0.149E+00    0.176E-01
DAV:   3    -0.168893975953E+02    0.23795E-03   -0.28098E-03   240   0.242E-01    0.121E-01
DAV:   4    -0.168891758741E+02    0.22172E-03   -0.61656E-04   240   0.934E-02    0.527E-02
DAV:   5    -0.168892062643E+02   -0.30390E-04   -0.24858E-04   192   0.597E-02
  46 F= -.16889206E+02 E0= -.16893072E+02  d E =-.118991E-01  mag=    -0.0000
       N       E                     dE             d eps       ncg     rms          rms(c)
DAV:   1    -0.168351154739E+02    0.54060E-01   -0.63394E+01   224   0.275E+01    0.650E-01
DAV:   2    -0.169027507645E+02   -0.67635E-01   -0.71497E-01   240   0.403E+00    0.484E-01
DAV:   3    -0.169009626448E+02    0.17881E-02   -0.20730E-02   240   0.656E-01    0.327E-01
DAV:   4    -0.168991861373E+02    0.17765E-02   -0.48129E-03   224   0.259E-01    0.134E-01
DAV:   5    -0.168992660604E+02   -0.79923E-04   -0.14523E-03   240   0.139E-01    0.569E-02
DAV:   6    -0.168992128075E+02    0.53253E-04   -0.31396E-04   224   0.648E-02
  47 F= -.16899213E+02 E0= -.16903078E+02  d E =-.219057E-01  mag=    -0.0000
       N       E                     dE             d eps       ncg     rms          rms(c)
DAV:   1    -0.168964584180E+02    0.28076E-02   -0.34803E+00   224   0.644E+00    0.147E-01
DAV:   2    -0.169001840621E+02   -0.37256E-02   -0.38895E-02   240   0.941E-01    0.114E-01
DAV:   3    -0.169001010562E+02    0.83006E-04   -0.11136E-03   256   0.152E-01    0.790E-02
DAV:   4    -0.169000324156E+02    0.68641E-04   -0.25455E-04   160   0.617E-02
  48 F= -.16900032E+02 E0= -.16903898E+02  d E =-.227253E-01  mag=     0.0000
       N       E                     dE             d eps       ncg     rms          rms(c)
DAV:   1    -0.169065436182E+02   -0.64426E-02   -0.58547E+00   224   0.837E+00    0.411E-01
DAV:   2    -0.169126316041E+02   -0.60880E-02   -0.64726E-02   256   0.121E+00    0.249E-01
DAV:   3    -0.169123055075E+02    0.32610E-03   -0.29849E-03   240   0.227E-01    0.148E-01
DAV:   4    -0.169123161845E+02   -0.10677E-04   -0.68227E-04   256   0.993E-02
  49 F= -.16912316E+02 E0= -.16916182E+02  d E =-.122838E-01  mag=     0.0000
       N       E                     dE             d eps       ncg     rms          rms(c)
DAV:   1    -0.169078138422E+02    0.44917E-02   -0.95683E+00   224   0.107E+01    0.502E-01
DAV:   2    -0.169178338415E+02   -0.10020E-01   -0.10769E-01   240   0.155E+00    0.300E-01
DAV:   3    -0.169173824309E+02    0.45141E-03   -0.45919E-03   240   0.286E-01    0.185E-01
DAV:   4    -0.169173762407E+02    0.61902E-05   -0.10435E-03   256   0.123E-01    0.366E-02
DAV:   5    -0.169173243209E+02    0.51920E-04   -0.14706E-04   144   0.465E-02
  50 F= -.16917324E+02 E0= -.16921190E+02  d E =-.172919E-01  mag=     0.0000
       N       E                     dE             d eps       ncg     rms          rms(c)
DAV:   1    -0.169188165863E+02   -0.14403E-02   -0.37079E+00   224   0.665E+00    0.145E-01
DAV:   2    -0.169227655318E+02   -0.39489E-02   -0.41917E-02   240   0.976E-01    0.109E-01
DAV:   3    -0.169226548404E+02    0.11069E-03   -0.11907E-03   256   0.158E-01    0.758E-02
DAV:   4    -0.169225509626E+02    0.10388E-03   -0.24541E-04   128   0.605E-02    0.337E-02
DAV:   5    -0.169225616089E+02   -0.10646E-04   -0.15966E-04   160   0.508E-02
  51 F= -.16922562E+02 E0= -.16926427E+02  d E =-.523729E-02  mag=    -0.0000
       N       E                     dE             d eps       ncg     rms          rms(c)
DAV:   1    -0.168935697999E+02    0.28981E-01   -0.33428E+01   224   0.200E+01    0.439E-01
DAV:   2    -0.169290421824E+02   -0.35472E-01   -0.37715E-01   240   0.292E+00    0.326E-01
DAV:   3    -0.169281031732E+02    0.93901E-03   -0.10802E-02   256   0.474E-01    0.226E-01
DAV:   4    -0.169271416338E+02    0.96154E-03   -0.24153E-03   224   0.180E-01    0.959E-02
DAV:   5    -0.169271680339E+02   -0.26400E-04   -0.88431E-04   256   0.104E-01
  52 F= -.16927168E+02 E0= -.16931033E+02  d E =-.984371E-02  mag=    -0.0000
       N       E                     dE             d eps       ncg     rms          rms(c)
DAV:   1    -0.169266772782E+02    0.46436E-03   -0.35789E+00   224   0.652E+00    0.190E-01
DAV:   2    -0.169305361755E+02   -0.38589E-02   -0.40449E-02   256   0.960E-01    0.128E-01
DAV:   3    -0.169303956493E+02    0.14053E-03   -0.12681E-03   256   0.159E-01    0.858E-02
DAV:   4    -0.169303327199E+02    0.62929E-04   -0.43472E-04   224   0.762E-02
  53 F= -.16930333E+02 E0= -.16934198E+02  d E =-.316469E-02  mag=     0.0000
       N       E                     dE             d eps       ncg     rms          rms(c)
DAV:   1    -0.169270527927E+02    0.33429E-02   -0.42561E+00   224   0.713E+00    0.210E-01
DAV:   2    -0.169316059990E+02   -0.45532E-02   -0.47990E-02   240   0.104E+00    0.138E-01
DAV:   3    -0.169314479199E+02    0.15808E-03   -0.15023E-03   256   0.173E-01    0.926E-02
DAV:   4    -0.169313736807E+02    0.74239E-04   -0.49966E-04   224   0.813E-02
  54 F= -.16931374E+02 E0= -.16935239E+02  d E =-.420565E-02  mag=     0.0000
       N       E                     dE             d eps       ncg     rms          rms(c)
DAV:   1    -0.169325067196E+02   -0.10588E-02   -0.63576E-01   224   0.276E+00    0.885E-02
DAV:   2    -0.169331852183E+02   -0.67850E-03   -0.75047E-03   240   0.410E-01    0.611E-02
DAV:   3    -0.169331695684E+02    0.15650E-04   -0.22957E-04   176   0.701E-02
  55 F= -.16933170E+02 E0= -.16937035E+02  d E =-.179589E-02  mag=     0.0000
       N       E                     dE             d eps       ncg     rms          rms(c)
DAV:   1    -0.169336535247E+02   -0.46831E-03   -0.74151E-01   224   0.298E+00    0.103E-01
DAV:   2    -0.169344207973E+02   -0.76727E-03   -0.86431E-03   256   0.440E-01    0.705E-02
DAV:   3    -0.169343977266E+02    0.23071E-04   -0.27644E-04   192   0.754E-02
  56 F= -.16934398E+02 E0= -.16938263E+02  d E =-.302405E-02  mag=     0.0000
       N       E                     dE             d eps       ncg     rms          rms(c)
DAV:   1    -0.169348703167E+02   -0.44952E-03   -0.31947E-01   224   0.195E+00    0.695E-02
DAV:   2    -0.169352042254E+02   -0.33391E-03   -0.37144E-03   240   0.287E-01    0.474E-02
DAV:   3    -0.169351944305E+02    0.97949E-05   -0.11791E-04   160   0.496E-02
  57 F= -.16935194E+02 E0= -.16939060E+02  d E =-.796704E-03  mag=     0.0000
       N       E                     dE             d eps       ncg     rms          rms(c)
DAV:   1    -0.169353480861E+02   -0.14386E-03   -0.37229E-01   224   0.210E+00    0.793E-02
DAV:   2    -0.169357319234E+02   -0.38384E-03   -0.43570E-03   240   0.309E-01    0.520E-02
DAV:   3    -0.169357189955E+02    0.12928E-04   -0.14057E-04   160   0.536E-02
  58 F= -.16935719E+02 E0= -.16939584E+02  d E =-.132127E-02  mag=    -0.0000
       N       E                     dE             d eps       ncg     rms          rms(c)
DAV:   1    -0.169359630838E+02   -0.23116E-03   -0.44164E-01   224   0.229E+00    0.589E-02
DAV:   2    -0.169364303775E+02   -0.46729E-03   -0.50805E-03   256   0.335E-01    0.412E-02
DAV:   3    -0.169364153828E+02    0.14995E-04   -0.13792E-04   160   0.545E-02
  59 F= -.16936415E+02 E0= -.16940281E+02  d E =-.696387E-03  mag=     0.0000
       N       E                     dE             d eps       ncg     rms          rms(c)
DAV:   1    -0.169365068076E+02   -0.76430E-04   -0.26538E-01   256   0.178E+00    0.498E-02
DAV:   2    -0.169367824410E+02   -0.27563E-03   -0.30092E-03   256   0.258E-01    0.346E-02
DAV:   3    -0.169367723390E+02    0.10102E-04   -0.83504E-05   160   0.418E-02
  60 F= -.16936772E+02 E0= -.16940638E+02  d E =-.105334E-02  mag=    -0.0000
