<?xml version="1.0" encoding="ISO-8859-1"?>
<modeling>
 <generator>
  <i name="program" type="string">vasp </i>
  <i name="version" type="string">6.1.2  </i>
  <i name="subversion" type="string">22Jul20 (build Aug  2 2021 21:04:21) gamma-only                       parallel </i>
  <i name="platform" type="string">LinuxPGI </i>
  <i name="date" type="string">2021 12 30 </i>
  <i name="time" type="string">19:30:36 </i>
 </generator>
 <incar>
  <i type="int" name="ISPIN">     2</i>
  <i type="int" name="IBRION">     2</i>
  <i type="int" name="NSW">  1000</i>
  <i type="int" name="ISIF">     0</i>
  <i type="int" name="ISYM">     0</i>
  <i name="ENCUT">    400.00000000</i>
  <i type="logical" name="LREAL"> F  </i>
  <i type="int" name="ISMEAR">     1</i>
  <i name="SIGMA">      0.20000000</i>
  <i type="logical" name="LWAVE"> F  </i>
  <i type="logical" name="LCHARG"> F  </i>
  <i type="int" name="KPAR">     1</i>
  <i type="int" name="NCORE">     8</i>
  <i type="string" name="GGA"> PE</i>
  <i type="int" name="ISPIN">     2</i>
 </incar>
 <structure name="primitive_cell" >
  <crystal>
   <varray name="basis" >
    <v>      21.61720857       0.00000000       0.00000000 </v>
    <v>       0.00000000      22.65702511       0.00000000 </v>
    <v>       0.00000000       0.00000000      22.71112642 </v>
   </varray>
   <i name="volume">  11123.49268554 </i>
   <varray name="rec_basis" >
    <v>       0.04625944       0.00000000       0.00000000 </v>
    <v>       0.00000000       0.04413642       0.00000000 </v>
    <v>       0.00000000       0.00000000       0.04403128 </v>
   </varray>
  </crystal>
  <varray name="positions" >
   <v>       0.45910116       0.49216048       0.52810666 </v>
   <v>       0.47393071       0.50947539       0.40971390 </v>
   <v>       0.57159492       0.48535273       0.47223867 </v>
   <v>       0.49026921       0.40127408       0.45043858 </v>
   <v>       0.54753490       0.57888544       0.53496319 </v>
   <v>       0.44638185       0.60065109       0.47444443 </v>
   <v>       0.44289179       0.59295395       0.58700165 </v>
   <v>       0.42196857       0.38426646       0.53632992 </v>
  </varray>
 </structure>
 <varray name="primitive_index" >
  <v type="int" >        1 </v>
  <v type="int" >        2 </v>
  <v type="int" >        3 </v>
  <v type="int" >        4 </v>
  <v type="int" >        5 </v>
  <v type="int" >        6 </v>
  <v type="int" >        7 </v>
  <v type="int" >        8 </v>
 </varray>
 <kpoints>
  <generation param="Gamma">
   <v type="int" name="divisions">       1        1        1 </v>
   <v name="usershift">      0.00000000       0.00000000       0.00000000 </v>
   <v name="genvec1">      1.00000000       0.00000000       0.00000000 </v>
   <v name="genvec2">      0.00000000       1.00000000       0.00000000 </v>
   <v name="genvec3">      0.00000000       0.00000000       1.00000000 </v>
   <v name="shift">      0.00000000       0.00000000       0.00000000 </v>
  </generation>
  <varray name="kpointlist" >
   <v>       0.00000000       0.00000000       0.00000000 </v>
  </varray>
  <varray name="weights" >
   <v>       1.00000000 </v>
  </varray>
 </kpoints>
 <parameters>
  <separator name="general" >
   <i type="string" name="SYSTEM">unknown system</i>
   <i type="logical" name="LCOMPAT"> F  </i>
  </separator>
  <separator name="electronic" >
   <i type="string" name="PREC">normal</i>
   <i name="ENMAX">    400.00000000</i>
   <i name="ENAUG">    356.67000000</i>
   <i name="EDIFF">      0.00010000</i>
   <i type="int" name="IALGO">    38</i>
   <i type="int" name="IWAVPR">    11</i>
   <i type="int" name="NBANDS">    56</i>
   <i type="int" name="NBANDSLOW">    -1</i>
   <i type="int" name="NBANDSHIGH">    -1</i>
   <i name="NELECT">     88.00000000</i>
   <i type="int" name="TURBO">     0</i>
   <i type="int" name="IRESTART">     0</i>
   <i type="int" name="NREBOOT">     0</i>
   <i type="int" name="NMIN">     0</i>
   <i name="EREF">      0.00000000</i>
   <separator name="electronic smearing" >
    <i type="int" name="ISMEAR">     1</i>
    <i name="SIGMA">      0.20000000</i>
    <i name="KSPACING">      0.50000000</i>
    <i type="logical" name="KGAMMA"> T  </i>
    <i type="logical" name="KBLOWUP"> T  </i>
   </separator>
   <separator name="electronic projectors" >
    <i type="logical" name="LREAL"> F  </i>
    <v name="ROPT">      0.00000000</v>
    <i type="int" name="LMAXPAW">  -100</i>
    <i type="int" name="LMAXMIX">     2</i>
    <i type="logical" name="NLSPLINE"> F  </i>
   </separator>
   <separator name="electronic startup" >
    <i type="int" name="ISTART">     0</i>
    <i type="int" name="ICHARG">     2</i>
    <i type="int" name="INIWAV">     1</i>
   </separator>
   <separator name="electronic spin" >
    <i type="int" name="ISPIN">     2</i>
    <i type="logical" name="LNONCOLLINEAR"> F  </i>
    <v name="MAGMOM">      1.00000000      1.00000000      1.00000000      1.00000000      1.00000000      1.00000000      1.00000000      1.00000000</v>
    <i name="NUPDOWN">     -1.00000000</i>
    <i type="logical" name="LSORBIT"> F  </i>
    <v name="SAXIS">      0.00000000      0.00000000      1.00000000</v>
    <i type="logical" name="LSPIRAL"> F  </i>
    <v name="QSPIRAL">      0.00000000      0.00000000      0.00000000</v>
    <i type="logical" name="LZEROZ"> F  </i>
   </separator>
   <separator name="electronic exchange-correlation" >
    <i type="logical" name="LASPH"> F  </i>
    <i type="logical" name="LMETAGGA"> F  </i>
   </separator>
   <separator name="electronic convergence" >
    <i type="int" name="NELM">    60</i>
    <i type="int" name="NELMDL">     0</i>
    <i type="int" name="NELMIN">     2</i>
    <i name="ENINI">    400.00000000</i>
    <separator name="electronic convergence detail" >
     <i type="logical" name="LDIAG"> T  </i>
     <i type="logical" name="LSUBROT"> F  </i>
     <i name="WEIMIN">      0.00100000</i>
     <i name="EBREAK">      0.00000045</i>
     <i name="DEPER">      0.30000000</i>
     <i type="int" name="NRMM">     4</i>
     <i name="TIME">      0.40000000</i>
    </separator>
   </separator>
   <separator name="electronic mixer" >
    <i name="AMIX">      0.40000000</i>
    <i name="BMIX">      1.00000000</i>
    <i name="AMIN">      0.10000000</i>
    <i name="AMIX_MAG">      1.60000000</i>
    <i name="BMIX_MAG">      1.00000000</i>
    <separator name="electronic mixer details" >
     <i type="int" name="IMIX">     4</i>
     <i type="logical" name="MIXFIRST"> F  </i>
     <i type="int" name="MAXMIX">   -45</i>
     <i name="WC">    100.00000000</i>
     <i type="int" name="INIMIX">     1</i>
     <i type="int" name="MIXPRE">     1</i>
     <i type="int" name="MREMOVE">     5</i>
    </separator>
   </separator>
   <separator name="electronic dipolcorrection" >
    <i type="logical" name="LDIPOL"> F  </i>
    <i type="logical" name="LMONO"> F  </i>
    <i type="int" name="IDIPOL">     0</i>
    <i name="EPSILON">      1.00000000</i>
    <v name="DIPOL">   -100.00000000   -100.00000000   -100.00000000</v>
    <i name="EFIELD">      0.00000000</i>
   </separator>
  </separator>
  <separator name="grids" >
   <i type="int" name="NGX">   108</i>
   <i type="int" name="NGY">   112</i>
   <i type="int" name="NGZ">   112</i>
   <i type="int" name="NGXF">   216</i>
   <i type="int" name="NGYF">   224</i>
   <i type="int" name="NGZF">   224</i>
   <i type="logical" name="ADDGRID"> F  </i>
  </separator>
  <separator name="ionic" >
   <i type="int" name="NSW">  1000</i>
   <i type="int" name="IBRION">     2</i>
   <i type="int" name="MDALGO">     0</i>
   <i type="int" name="ISIF">     0</i>
   <i name="PSTRESS">      0.00000000</i>
   <i name="EDIFFG">      0.00100000</i>
   <i type="int" name="NFREE">     1</i>
   <i name="POTIM">      0.50000000</i>
   <i name="SMASS">     -3.00000000</i>
   <i name="SCALEE">      1.00000000</i>
  </separator>
  <separator name="ionic md" >
   <i name="TEBEG">      0.00010000</i>
   <i name="TEEND">      0.00010000</i>
   <i type="int" name="NBLOCK">     1</i>
   <i type="int" name="KBLOCK">  1000</i>
   <i type="int" name="NPACO">   256</i>
   <i name="APACO">     16.00000000</i>
  </separator>
  <separator name="symmetry" >
   <i type="int" name="ISYM">     0</i>
   <i name="SYMPREC">      0.00001000</i>
  </separator>
  <separator name="dos" >
   <i type="int" name="LORBIT">     0</i>
   <v name="RWIGS">     -1.00000000</v>
   <i type="int" name="NEDOS">   301</i>
   <i name="EMIN">     10.00000000</i>
   <i name="EMAX">    -10.00000000</i>
   <i name="EFERMI">      0.00000000</i>
  </separator>
  <separator name="writing" >
   <i type="int" name="NWRITE">     2</i>
   <i type="logical" name="LWAVE"> F  </i>
   <i type="logical" name="LDOWNSAMPLE"> F  </i>
   <i type="logical" name="LCHARG"> F  </i>
   <i type="logical" name="LPARD"> F  </i>
   <i type="logical" name="LVTOT"> F  </i>
   <i type="logical" name="LVHAR"> F  </i>
   <i type="logical" name="LELF"> F  </i>
   <i type="logical" name="LOPTICS"> F  </i>
   <v name="STM">      0.00000000      0.00000000      0.00000000      0.00000000      0.00000000      0.00000000      0.00000000</v>
  </separator>
  <separator name="performance" >
   <i type="int" name="NPAR">     1</i>
   <i type="int" name="NSIM">     4</i>
   <i type="int" name="NBLK">    -1</i>
   <i type="logical" name="LPLANE"> T  </i>
   <i type="logical" name="LSCALAPACK"> T  </i>
   <i type="logical" name="LSCAAWARE"> F  </i>
   <i type="logical" name="LSCALU"> F  </i>
   <i type="logical" name="LASYNC"> F  </i>
   <i type="logical" name="LORBITALREAL"> F  </i>
  </separator>
  <separator name="miscellaneous" >
   <i type="int" name="IDIOT">     3</i>
   <i type="int" name="PHON_NSTRUCT">    -1</i>
   <i type="logical" name="LMUSIC"> F  </i>
   <v name="POMASS">    196.96600000</v>
   <v name="DARWINR">      0.00000000</v>
   <v name="DARWINV">      1.00000000</v>
   <i type="logical" name="LCORR"> T  </i>
  </separator>
  <i type="logical" name="GGA_COMPAT"> T  </i>
  <i type="logical" name="LBERRY"> F  </i>
  <i type="int" name="ICORELEVEL">     0</i>
  <i type="logical" name="LDAU"> F  </i>
  <i type="int" name="I_CONSTRAINED_M">     0</i>
  <separator name="electronic exchange-correlation" >
   <i type="string" name="GGA">PE</i>
   <i type="int" name="VOSKOWN">     0</i>
   <i type="logical" name="LHFCALC"> F  </i>
   <i type="string" name="PRECFOCK"></i>
   <i type="logical" name="LSYMGRAD"> F  </i>
   <i type="logical" name="LHFONE"> F  </i>
   <i type="logical" name="LRHFCALC"> F  </i>
   <i type="logical" name="LTHOMAS"> F  </i>
   <i type="logical" name="LMODELHF"> F  </i>
   <i type="logical" name="LFOCKACE"> F  </i>
   <i name="ENCUT4O">     -1.00000000</i>
   <i type="int" name="EXXOEP">     0</i>
   <i type="int" name="FOURORBIT">     0</i>
   <i name="AEXX">      0.00000000</i>
   <i name="HFALPHA">      0.00000000</i>
   <i name="MCALPHA">      0.00000000</i>
   <i name="ALDAX">      1.00000000</i>
   <i name="AGGAX">      1.00000000</i>
   <i name="ALDAC">      1.00000000</i>
   <i name="AGGAC">      1.00000000</i>
   <i type="int" name="NKREDX">     1</i>
   <i type="int" name="NKREDY">     1</i>
   <i type="int" name="NKREDZ">     1</i>
   <i type="logical" name="SHIFTRED"> F  </i>
   <i type="logical" name="ODDONLY"> F  </i>
   <i type="logical" name="EVENONLY"> F  </i>
   <i type="int" name="LMAXFOCK">     0</i>
   <i type="int" name="NMAXFOCKAE">     0</i>
   <i type="logical" name="LFOCKAEDFT"> F  </i>
   <i name="HFSCREEN">      0.00000000</i>
   <i name="HFSCREENC">      0.00000000</i>
   <i type="int" name="NBANDSGWLOW">     0</i>
  </separator>
  <separator name="vdW DFT" >
   <i type="logical" name="LUSE_VDW"> F  </i>
   <i name="Zab_VDW">     -0.84910000</i>
   <i name="PARAM1">      0.12340000</i>
   <i name="PARAM2">      1.00000000</i>
   <i name="PARAM3">      0.00000000</i>
  </separator>
  <separator name="model GW" >
   <i type="int" name="MODEL_GW">     0</i>
   <i name="MODEL_EPS0">    834.26195142</i>
   <i name="MODEL_ALPHA">      1.00000000</i>
  </separator>
  <separator name="linear response parameters" >
   <i type="logical" name="LEPSILON"> F  </i>
   <i type="logical" name="LRPA"> F  </i>
   <i type="logical" name="LNABLA"> F  </i>
   <i type="logical" name="LVEL"> F  </i>
   <i type="int" name="KINTER">     0</i>
   <i name="CSHIFT">      0.10000000</i>
   <i name="OMEGAMAX">     -1.00000000</i>
   <i name="DEG_THRESHOLD">      0.00200000</i>
   <i name="RTIME">     -0.10000000</i>
   <i name="WPLASMAI">      0.00000000</i>
   <v name="DFIELD">      0.00000000      0.00000000      0.00000000</v>
   <v name="WPLASMA">      0.00000000      0.00000000      0.00000000      0.00000000      0.00000000      0.00000000      0.00000000      0.00000000      0.00000000</v>
  </separator>
  <separator name="orbital magnetization" >
   <i type="logical" name="NUCIND"> F  </i>
   <v name="MAGPOS">      0.00000000      0.00000000      0.00000000</v>
   <i type="logical" name="LNICSALL"> T  </i>
   <i type="logical" name="ORBITALMAG"> F  </i>
   <i type="logical" name="LMAGBLOCH"> F  </i>
   <i type="logical" name="LCHIMAG"> F  </i>
   <i type="logical" name="LGAUGE"> T  </i>
   <i type="int" name="MAGATOM">     0</i>
   <v name="MAGDIPOL">      0.00000000      0.00000000      0.00000000</v>
   <v name="AVECCONST">      0.00000000      0.00000000      0.00000000</v>
  </separator>
  <separator name="response functions" >
   <i type="logical" name="LFINITE_TEMPERATURE"> F  </i>
   <i type="logical" name="LADDER"> F  </i>
   <i type="logical" name="LRPAFORCE"> F  </i>
   <i type="logical" name="LFXC"> F  </i>
   <i type="logical" name="LHARTREE"> T  </i>
   <i type="int" name="IBSE">     0</i>
   <v type="int" name="KPOINT">    -1     0     0     0</v>
   <i type="logical" name="LTCTC"> F  </i>
   <i type="logical" name="LTCTE"> F  </i>
   <i type="logical" name="LTETE"> F  </i>
   <i type="logical" name="LTRIPLET"> F  </i>
   <i type="logical" name="LFXCEPS"> F  </i>
   <i type="logical" name="LFXHEG"> F  </i>
   <i type="int" name="NATURALO">     2</i>
   <i type="logical" name="LHOLEGF"> F  </i>
   <i type="logical" name="L2ORDER"> F  </i>
   <i type="logical" name="LDMP1"> F  </i>
   <i type="logical" name="LMP2LT"> F  </i>
   <i type="logical" name="LSMP2LT"> F  </i>
   <i type="logical" name="LGWLF"> F  </i>
   <i name="ENCUTGW">     -2.00000000</i>
   <i name="ENCUTGWSOFT">     -2.00000000</i>
   <i name="ENCUTLF">     -1.00000000</i>
   <i type="logical" name="LESF_SPLINES"> F  </i>
   <i type="int" name="LMAXMP2">    -1</i>
   <i name="SCISSOR">      0.00000000</i>
   <i type="int" name="NOMEGA">     0</i>
   <i type="int" name="NOMEGAR">     0</i>
   <i type="int" name="NBANDSGW">    -1</i>
   <i type="int" name="NBANDSO">    -1</i>
   <i type="int" name="NBANDSV">    -1</i>
   <i type="int" name="NELM">     1</i>
   <i type="int" name="NELMHF">     1</i>
   <i type="int" name="DIM">     3</i>
   <i type="int" name="IESPILON">     4</i>
   <i type="int" name="ANTIRES">     0</i>
   <i name="OMEGAMAX">    -30.00000000</i>
   <i name="OMEGAMIN">    -30.00000000</i>
   <i name="OMEGATL">   -200.00000000</i>
   <i type="int" name="OMEGAGRID">     0</i>
   <i name="CSHIFT">     -0.10000000</i>
   <i type="logical" name="LSELFENERGY"> F  </i>
   <i type="logical" name="LSPECTRAL"> F  </i>
   <i type="logical" name="LSPECTRALGW"> F  </i>
   <i type="logical" name="LSINGLES"> F  </i>
   <i type="logical" name="LFERMIGW"> F  </i>
   <i type="logical" name="ODDONLYGW"> F  </i>
   <i type="logical" name="EVENONLYGW"> F  </i>
   <i type="int" name="NKREDLFX">     1</i>
   <i type="int" name="NKREDLFY">     1</i>
   <i type="int" name="NKREDLFZ">     1</i>
   <i type="int" name="MAXMEM">  2800</i>
   <i type="int" name="TELESCOPE">     0</i>
   <i type="int" name="NTAUPAR">    -1</i>
   <i type="int" name="NOMEGAPAR">    -1</i>
   <i name="LAMBDA">      1.00000000</i>
  </separator>
  <separator name="External order field" >
   <i name="OFIELD_KAPPA">      0.00000000</i>
   <v name="OFIELD_K">      0.00000000      0.00000000      0.00000000</v>
   <i name="OFIELD_Q6_NEAR">      0.00000000</i>
   <i name="OFIELD_Q6_FAR">      0.00000000</i>
   <i name="OFIELD_A">      0.00000000</i>
  </separator>
 </parameters>
 <atominfo>
  <atoms>       8 </atoms>
  <types>       1 </types>
  <array name="atoms" >
   <dimension dim="1">ion</dimension>
   <field type="string">element</field>
   <field type="int">atomtype</field>
   <set>
    <rc><c>Au</c><c>   1</c></rc>
    <rc><c>Au</c><c>   1</c></rc>
    <rc><c>Au</c><c>   1</c></rc>
    <rc><c>Au</c><c>   1</c></rc>
    <rc><c>Au</c><c>   1</c></rc>
    <rc><c>Au</c><c>   1</c></rc>
    <rc><c>Au</c><c>   1</c></rc>
    <rc><c>Au</c><c>   1</c></rc>
   </set>
  </array>
  <array name="atomtypes" >
   <dimension dim="1">type</dimension>
   <field type="int">atomspertype</field>
   <field type="string">element</field>
   <field>mass</field>
   <field>valence</field>
   <field type="string">pseudopotential</field>
   <set>
    <rc><c>   8</c><c>Au</c><c>    196.96600000</c><c>     11.00000000</c><c>  PAW_PBE Au 04Oct2007                  </c></rc>
   </set>
  </array>
 </atominfo>
 <structure name="initialpos" >
  <crystal>
   <varray name="basis" >
    <v>      21.61720857       0.00000000       0.00000000 </v>
    <v>       0.00000000      22.65702511       0.00000000 </v>
    <v>       0.00000000       0.00000000      22.71112642 </v>
   </varray>
   <i name="volume">  11123.49268554 </i>
   <varray name="rec_basis" >
    <v>       0.04625944       0.00000000       0.00000000 </v>
    <v>       0.00000000       0.04413642       0.00000000 </v>
    <v>       0.00000000       0.00000000       0.04403128 </v>
   </varray>
  </crystal>
  <varray name="positions" >
   <v>       0.45910116       0.49216048       0.52810666 </v>
   <v>       0.47393071       0.50947539       0.40971390 </v>
   <v>       0.57159492       0.48535273       0.47223867 </v>
   <v>       0.49026921       0.40127408       0.45043858 </v>
   <v>       0.54753490       0.57888544       0.53496319 </v>
   <v>       0.44638185       0.60065109       0.47444443 </v>
   <v>       0.44289179       0.59295395       0.58700165 </v>
   <v>       0.42196857       0.38426646       0.53632992 </v>
  </varray>
 </structure>
 <calculation>
  <scstep>
   <time name="dav">    5.80    5.81</time>
   <time name="total">    9.42    9.45</time>
   <energy>
    <i name="alphaZ">      6.70175720 </i>
    <i name="ewald">   8224.62641237 </i>
    <i name="hartreedc"> -15302.92148546 </i>
    <i name="XCdc">    118.74452015 </i>
    <i name="pawpsdc">   6992.17180065 </i>
    <i name="pawaedc">  -6807.49900724 </i>
    <i name="eentropy">     -0.02578749 </i>
    <i name="bandstr">    109.62059702 </i>
    <i name="atom">   7408.64415014 </i>
    <i name="e_fr_energy">    750.06295733 </i>
    <i name="e_wo_entrp">    750.08874482 </i>
    <i name="e_0_energy">    750.07155316 </i>
   </energy>
  </scstep>
  <scstep>
   <time name="dav">    9.36    9.39</time>
   <time name="total">    9.36    9.39</time>
   <energy>
    <i name="e_fr_energy">    452.03927903 </i>
    <i name="e_wo_entrp">    452.15671471 </i>
    <i name="e_0_energy">    452.07842426 </i>
   </energy>
  </scstep>
  <scstep>
   <time name="dav">    9.01    9.03</time>
   <time name="total">    9.02    9.04</time>
   <energy>
    <i name="e_fr_energy">    129.08968312 </i>
    <i name="e_wo_entrp">    129.09652271 </i>
    <i name="e_0_energy">    129.09196299 </i>
   </energy>
  </scstep>
  <scstep>
   <time name="dav">    7.13    7.14</time>
   <time name="total">    7.13    7.15</time>
   <energy>
    <i name="e_fr_energy">     10.99385201 </i>
    <i name="e_wo_entrp">     11.00904961 </i>
    <i name="e_0_energy">     10.99891787 </i>
   </energy>
  </scstep>
  <scstep>
   <time name="dav">    7.46    7.48</time>
   <time name="total">    8.30    8.31</time>
   <energy>
    <i name="e_fr_energy">    -12.19543097 </i>
    <i name="e_wo_entrp">    -12.14794500 </i>
    <i name="e_0_energy">    -12.17960231 </i>
   </energy>
  </scstep>
  <scstep>
   <time name="dav">    6.02    6.03</time>
   <time name="total">   10.45   10.48</time>
   <energy>
    <i name="e_fr_energy">     -4.90358339 </i>
    <i name="e_wo_entrp">     -4.93060472 </i>
    <i name="e_0_energy">     -4.91259050 </i>
   </energy>
  </scstep>
  <scstep>
   <time name="dav">    6.20    6.22</time>
   <time name="total">   10.62   10.65</time>
   <energy>
    <i name="e_fr_energy">     -5.09972558 </i>
    <i name="e_wo_entrp">     -5.06510453 </i>
    <i name="e_0_energy">     -5.08818523 </i>
   </energy>
  </scstep>
  <scstep>
   <time name="dav">    5.90    5.91</time>
   <time name="total">   10.38   10.40</time>
   <energy>
    <i name="e_fr_energy">     -7.16820758 </i>
    <i name="e_wo_entrp">     -7.12847557 </i>
    <i name="e_0_energy">     -7.15496358 </i>
   </energy>
  </scstep>
  <scstep>
   <time name="dav">    5.98    5.99</time>
   <time name="total">   10.38   10.40</time>
   <energy>
    <i name="e_fr_energy">     -9.16218844 </i>
    <i name="e_wo_entrp">     -9.10599500 </i>
    <i name="e_0_energy">     -9.14345729 </i>
   </energy>
  </scstep>
  <scstep>
   <time name="dav">    6.24    6.26</time>
   <time name="total">   10.64   10.66</time>
   <energy>
    <i name="e_fr_energy">     -9.93198466 </i>
    <i name="e_wo_entrp">     -9.87781155 </i>
    <i name="e_0_energy">     -9.91392696 </i>
   </energy>
  </scstep>
  <scstep>
   <time name="dav">    6.20    6.22</time>
   <time name="total">   10.65   10.68</time>
   <energy>
    <i name="e_fr_energy">    -10.82951921 </i>
    <i name="e_wo_entrp">    -10.78526440 </i>
    <i name="e_0_energy">    -10.81476760 </i>
   </energy>
  </scstep>
  <scstep>
   <time name="dav">    5.94    5.95</time>
   <time name="total">   10.39   10.40</time>
   <energy>
    <i name="e_fr_energy">    -12.37545624 </i>
    <i name="e_wo_entrp">    -12.36219655 </i>
    <i name="e_0_energy">    -12.37103634 </i>
   </energy>
  </scstep>
  <scstep>
   <time name="dav">    5.91    5.92</time>
   <time name="total">   10.35   10.38</time>
   <energy>
    <i name="e_fr_energy">    -13.51659097 </i>
    <i name="e_wo_entrp">    -13.53603551 </i>
    <i name="e_0_energy">    -13.52307248 </i>
   </energy>
  </scstep>
  <scstep>
   <time name="dav">    6.10    6.12</time>
   <time name="total">   10.58   10.60</time>
   <energy>
    <i name="e_fr_energy">    -13.97578731 </i>
    <i name="e_wo_entrp">    -14.00369181 </i>
    <i name="e_0_energy">    -13.98508881 </i>
   </energy>
  </scstep>
  <scstep>
   <time name="dav">    5.69    5.70</time>
   <time name="total">   10.13   10.16</time>
   <energy>
    <i name="e_fr_energy">    -14.48908407 </i>
    <i name="e_wo_entrp">    -14.52405166 </i>
    <i name="e_0_energy">    -14.50073993 </i>
   </energy>
  </scstep>
  <scstep>
   <time name="dav">    6.02    6.03</time>
   <time name="total">   10.53   10.56</time>
   <energy>
    <i name="e_fr_energy">    -14.98228038 </i>
    <i name="e_wo_entrp">    -15.01832051 </i>
    <i name="e_0_energy">    -14.99429376 </i>
   </energy>
  </scstep>
  <scstep>
   <time name="dav">    6.18    6.19</time>
   <time name="total">   10.63   10.65</time>
   <energy>
    <i name="e_fr_energy">    -15.20454416 </i>
    <i name="e_wo_entrp">    -15.24059597 </i>
    <i name="e_0_energy">    -15.21656143 </i>
   </energy>
  </scstep>
  <scstep>
   <time name="dav">    5.94    5.95</time>
   <time name="total">   10.43   10.46</time>
   <energy>
    <i name="e_fr_energy">    -15.39542408 </i>
    <i name="e_wo_entrp">    -15.43292984 </i>
    <i name="e_0_energy">    -15.40792600 </i>
   </energy>
  </scstep>
  <scstep>
   <time name="dav">    5.44    5.45</time>
   <time name="total">    9.92    9.94</time>
   <energy>
    <i name="e_fr_energy">    -15.45367279 </i>
    <i name="e_wo_entrp">    -15.49192176 </i>
    <i name="e_0_energy">    -15.46642245 </i>
   </energy>
  </scstep>
  <scstep>
   <time name="dav">    4.81    4.83</time>
   <time name="total">    9.26    9.29</time>
   <energy>
    <i name="e_fr_energy">    -15.47368417 </i>
    <i name="e_wo_entrp">    -15.51150013 </i>
    <i name="e_0_energy">    -15.48628949 </i>
   </energy>
  </scstep>
  <scstep>
   <time name="dav">    4.65    4.65</time>
   <time name="total">    9.18    9.20</time>
   <energy>
    <i name="e_fr_energy">    -15.48761163 </i>
    <i name="e_wo_entrp">    -15.52571780 </i>
    <i name="e_0_energy">    -15.50031368 </i>
   </energy>
  </scstep>
  <scstep>
   <time name="dav">    4.83    4.85</time>
   <time name="total">    9.32    9.36</time>
   <energy>
    <i name="e_fr_energy">    -15.49356256 </i>
    <i name="e_wo_entrp">    -15.53145850 </i>
    <i name="e_0_energy">    -15.50619454 </i>
   </energy>
  </scstep>
  <scstep>
   <time name="dav">    4.77    4.78</time>
   <time name="total">    9.25    9.28</time>
   <energy>
    <i name="e_fr_energy">    -15.49613672 </i>
    <i name="e_wo_entrp">    -15.53411171 </i>
    <i name="e_0_energy">    -15.50879505 </i>
   </energy>
  </scstep>
  <scstep>
   <time name="dav">    4.66    4.67</time>
   <time name="total">    9.17    9.20</time>
   <energy>
    <i name="e_fr_energy">    -15.49738404 </i>
    <i name="e_wo_entrp">    -15.53525537 </i>
    <i name="e_0_energy">    -15.51000782 </i>
   </energy>
  </scstep>
  <scstep>
   <time name="dav">    4.77    4.78</time>
   <time name="total">    9.29    9.31</time>
   <energy>
    <i name="e_fr_energy">    -15.49856472 </i>
    <i name="e_wo_entrp">    -15.53646691 </i>
    <i name="e_0_energy">    -15.51119878 </i>
   </energy>
  </scstep>
  <scstep>
   <time name="dav">    4.69    4.70</time>
   <time name="total">    9.23    9.24</time>
   <energy>
    <i name="e_fr_energy">    -15.49949156 </i>
    <i name="e_wo_entrp">    -15.53736269 </i>
    <i name="e_0_energy">    -15.51211527 </i>
   </energy>
  </scstep>
  <scstep>
   <time name="dav">    4.61    4.62</time>
   <time name="total">    9.17    9.19</time>
   <energy>
    <i name="e_fr_energy">    -15.49978314 </i>
    <i name="e_wo_entrp">    -15.53767131 </i>
    <i name="e_0_energy">    -15.51241253 </i>
   </energy>
  </scstep>
  <scstep>
   <time name="dav">    4.54    4.55</time>
   <time name="total">    9.06    9.08</time>
   <energy>
    <i name="e_fr_energy">    -15.49991257 </i>
    <i name="e_wo_entrp">    -15.53779635 </i>
    <i name="e_0_energy">    -15.51254049 </i>
   </energy>
  </scstep>
  <scstep>
   <time name="dav">    4.51    4.53</time>
   <time name="total">    8.02    8.05</time>
   <energy>
    <i name="alphaZ">      6.70175720 </i>
    <i name="ewald">   8224.62641237 </i>
    <i name="hartreedc"> -15258.34039004 </i>
    <i name="XCdc">    115.73077086 </i>
    <i name="pawpsdc">   8121.91638508 </i>
    <i name="pawaedc">  -7953.14276314 </i>
    <i name="eentropy">      0.03788322 </i>
    <i name="bandstr">   -681.67414132 </i>
    <i name="atom">   7408.64415014 </i>
    <i name="e_fr_energy">    -15.49993562 </i>
    <i name="e_wo_entrp">    -15.53781884 </i>
    <i name="e_0_energy">    -15.51256336 </i>
   </energy>
  </scstep>
  <structure>
   <crystal>
    <varray name="basis" >
     <v>      21.61720857       0.00000000       0.00000000 </v>
     <v>       0.00000000      22.65702511       0.00000000 </v>
     <v>       0.00000000       0.00000000      22.71112642 </v>
    </varray>
    <i name="volume">  11123.49268554 </i>
    <varray name="rec_basis" >
     <v>       0.04625944       0.00000000       0.00000000 </v>
     <v>       0.00000000       0.04413642       0.00000000 </v>
     <v>       0.00000000       0.00000000       0.04403128 </v>
    </varray>
   </crystal>
   <varray name="positions" >
    <v>       0.45910116       0.49216048       0.52810666 </v>
    <v>       0.47393071       0.50947539       0.40971390 </v>
    <v>       0.57159492       0.48535273       0.47223867 </v>
    <v>       0.49026921       0.40127408       0.45043858 </v>
    <v>       0.54753490       0.57888544       0.53496319 </v>
    <v>       0.44638185       0.60065109       0.47444443 </v>
    <v>       0.44289179       0.59295395       0.58700165 </v>
    <v>       0.42196857       0.38426646       0.53632992 </v>
   </varray>
  </structure>
  <varray name="forces" >
   <v>      -0.45132274      -0.09066842       0.70948177 </v>
   <v>      -0.98926288       0.59235233      -1.94706156 </v>
   <v>       2.27064450      -0.26529689       0.29559906 </v>
   <v>       0.59729177      -0.60830224      -1.10206086 </v>
   <v>       2.10114918       0.11105353       0.56146906 </v>
   <v>      -1.31926541       0.92005387      -1.71570830 </v>
   <v>      -0.97739263       0.15743286       1.74360440 </v>
   <v>      -1.23184179      -0.81662505       1.45467643 </v>
  </varray>
  <energy>
   <i name="e_fr_energy">    -15.49993562 </i>
   <i name="e_wo_entrp">    -15.53781884 </i>
   <i name="e_0_energy">    -15.51256336 </i>
  </energy>
  <time name="totalsc">  292.71  293.46</time>
 </calculation>
 <calculation>
  <scstep>
   <time name="dav">    5.59    5.59</time>
   <time name="total">    9.88    9.90</time>
   <energy>
    <i name="alphaZ">      6.70175720 </i>
    <i name="ewald">   7691.89913884 </i>
    <i name="hartreedc"> -14734.72409835 </i>
    <i name="XCdc">    113.99431605 </i>
    <i name="pawpsdc">   8121.91464090 </i>
    <i name="pawaedc">  -7953.14103510 </i>
    <i name="eentropy">      0.04943352 </i>
    <i name="bandstr">   -671.16908841 </i>
    <i name="atom">   7408.64415014 </i>
    <i name="e_fr_energy">    -15.83078521 </i>
    <i name="e_wo_entrp">    -15.88021873 </i>
    <i name="e_0_energy">    -15.84726305 </i>
   </energy>
  </scstep>
  <scstep>
   <time name="dav">    6.04    6.05</time>
   <time name="total">   10.32   10.34</time>
   <energy>
    <i name="e_fr_energy">    -16.28216279 </i>
    <i name="e_wo_entrp">    -16.33177443 </i>
    <i name="e_0_energy">    -16.29870000 </i>
   </energy>
  </scstep>
  <scstep>
   <time name="dav">    5.80    5.81</time>
   <time name="total">   10.04   10.06</time>
   <energy>
    <i name="e_fr_energy">    -16.25657641 </i>
    <i name="e_wo_entrp">    -16.30643709 </i>
    <i name="e_0_energy">    -16.27319664 </i>
   </energy>
  </scstep>
  <scstep>
   <time name="dav">    5.88    5.89</time>
   <time name="total">   10.13   10.15</time>
   <energy>
    <i name="e_fr_energy">    -16.25916963 </i>
    <i name="e_wo_entrp">    -16.30897325 </i>
    <i name="e_0_energy">    -16.27577084 </i>
   </energy>
  </scstep>
  <scstep>
   <time name="dav">    5.97    5.98</time>
   <time name="total">   10.24   10.26</time>
   <energy>
    <i name="e_fr_energy">    -16.25397288 </i>
    <i name="e_wo_entrp">    -16.30373172 </i>
    <i name="e_0_energy">    -16.27055916 </i>
   </energy>
  </scstep>
  <scstep>
   <time name="dav">    5.80    5.81</time>
   <time name="total">   10.05   10.07</time>
   <energy>
    <i name="e_fr_energy">    -16.25371151 </i>
    <i name="e_wo_entrp">    -16.30342731 </i>
    <i name="e_0_energy">    -16.27028344 </i>
   </energy>
  </scstep>
  <scstep>
   <time name="dav">    4.49    4.50</time>
   <time name="total">    7.92    7.95</time>
   <energy>
    <i name="alphaZ">      6.70175720 </i>
    <i name="ewald">   7691.89913884 </i>
    <i name="hartreedc"> -14745.90810697 </i>
    <i name="XCdc">    114.27189951 </i>
    <i name="pawpsdc">   7793.48649284 </i>
    <i name="pawaedc">  -7621.65701446 </i>
    <i name="eentropy">      0.04969620 </i>
    <i name="bandstr">   -663.74180501 </i>
    <i name="atom">   7408.64415014 </i>
    <i name="e_fr_energy">    -16.25379171 </i>
    <i name="e_wo_entrp">    -16.30348791 </i>
    <i name="e_0_energy">    -16.27035711 </i>
   </energy>
  </scstep>
  <structure>
   <crystal>
    <varray name="basis" >
     <v>      21.61720857       0.00000000       0.00000000 </v>
     <v>       0.00000000      22.65702511       0.00000000 </v>
     <v>       0.00000000       0.00000000      22.71112642 </v>
    </varray>
    <i name="volume">  11123.49268554 </i>
    <varray name="rec_basis" >
     <v>       0.04625944       0.00000000       0.00000000 </v>
     <v>       0.00000000       0.04413642       0.00000000 </v>
     <v>       0.00000000       0.00000000       0.04403128 </v>
    </varray>
   </crystal>
   <varray name="positions" >
    <v>       0.45809395       0.49196743       0.52961373 </v>
    <v>       0.47172300       0.51073666       0.40557798 </v>
    <v>       0.57666226       0.48478784       0.47286658 </v>
    <v>       0.49160217       0.39997885       0.44809760 </v>
    <v>       0.55222399       0.57912190       0.53615585 </v>
    <v>       0.44343767       0.60261012       0.47079994 </v>
    <v>       0.44071056       0.59328916       0.59070539 </v>
    <v>       0.41921949       0.38252766       0.53941992 </v>
   </varray>
  </structure>
  <varray name="forces" >
   <v>       0.11152925       0.16611962      -0.10035364 </v>
   <v>      -0.16945851       0.06466852      -0.45760372 </v>
   <v>       0.51423384      -0.11882948       0.00870292 </v>
   <v>      -0.09462063       0.25977534       0.20870100 </v>
   <v>       0.08956663      -0.09988762       0.28642634 </v>
   <v>      -0.34749687       0.04040544      -0.03776508 </v>
   <v>       0.05312467      -0.20428769      -0.10343669 </v>
   <v>      -0.15687838      -0.10796414       0.19532887 </v>
  </varray>
  <energy>
   <i name="e_fr_energy">    -16.25379171 </i>
   <i name="e_wo_entrp">    -16.30348791 </i>
   <i name="e_0_energy">    -16.27035711 </i>
  </energy>
  <time name="totalsc">   80.78   81.03</time>
 </calculation>
 <calculation>
  <scstep>
   <time name="dav">    5.63    5.64</time>
   <time name="total">    9.84    9.86</time>
   <energy>
    <i name="alphaZ">      6.70175720 </i>
    <i name="ewald">   7604.85927919 </i>
    <i name="hartreedc"> -14660.22476704 </i>
    <i name="XCdc">    114.01256525 </i>
    <i name="pawpsdc">   7791.84967316 </i>
    <i name="pawaedc">  -7620.01446864 </i>
    <i name="eentropy">      0.05014065 </i>
    <i name="bandstr">   -662.13065099 </i>
    <i name="atom">   7408.64415014 </i>
    <i name="e_fr_energy">    -16.25232107 </i>
    <i name="e_wo_entrp">    -16.30246173 </i>
    <i name="e_0_energy">    -16.26903462 </i>
   </energy>
  </scstep>
  <scstep>
   <time name="dav">    6.18    6.19</time>
   <time name="total">   10.38   10.41</time>
   <energy>
    <i name="e_fr_energy">    -16.26686653 </i>
    <i name="e_wo_entrp">    -16.31704527 </i>
    <i name="e_0_energy">    -16.28359277 </i>
   </energy>
  </scstep>
  <scstep>
   <time name="dav">    5.87    5.88</time>
   <time name="total">   10.08   10.10</time>
   <energy>
    <i name="e_fr_energy">    -16.26606180 </i>
    <i name="e_wo_entrp">    -16.31627565 </i>
    <i name="e_0_energy">    -16.28279975 </i>
   </energy>
  </scstep>
  <scstep>
   <time name="dav">    6.14    6.15</time>
   <time name="total">   10.39   10.42</time>
   <energy>
    <i name="e_fr_energy">    -16.26622034 </i>
    <i name="e_wo_entrp">    -16.31644750 </i>
    <i name="e_0_energy">    -16.28296272 </i>
   </energy>
  </scstep>
  <scstep>
   <time name="dav">    6.01    6.03</time>
   <time name="total">   10.25   10.28</time>
   <energy>
    <i name="e_fr_energy">    -16.26610843 </i>
    <i name="e_wo_entrp">    -16.31632934 </i>
    <i name="e_0_energy">    -16.28284873 </i>
   </energy>
  </scstep>
  <scstep>
   <time name="dav">    4.52    4.55</time>
   <time name="total">    7.95    7.99</time>
   <energy>
    <i name="alphaZ">      6.70175720 </i>
    <i name="ewald">   7604.85927919 </i>
    <i name="hartreedc"> -14662.39487834 </i>
    <i name="XCdc">    114.06395046 </i>
    <i name="pawpsdc">   7748.67778941 </i>
    <i name="pawaedc">  -7576.40072792 </i>
    <i name="eentropy">      0.05021529 </i>
    <i name="bandstr">   -660.46766526 </i>
    <i name="atom">   7408.64415014 </i>
    <i name="e_fr_energy">    -16.26612984 </i>
    <i name="e_wo_entrp">    -16.31634513 </i>
    <i name="e_0_energy">    -16.28286827 </i>
   </energy>
  </scstep>
  <structure>
   <crystal>
    <varray name="basis" >
     <v>      21.61720857       0.00000000       0.00000000 </v>
     <v>       0.00000000      22.65702511       0.00000000 </v>
     <v>       0.00000000       0.00000000      22.71112642 </v>
    </varray>
    <i name="volume">  11123.49268554 </i>
    <varray name="rec_basis" >
     <v>       0.04625944       0.00000000       0.00000000 </v>
     <v>       0.00000000       0.04413642       0.00000000 </v>
     <v>       0.00000000       0.00000000       0.04403128 </v>
    </varray>
   </crystal>
   <varray name="positions" >
    <v>       0.45792110       0.49193429       0.52987237 </v>
    <v>       0.47134412       0.51095311       0.40486819 </v>
    <v>       0.57753190       0.48469090       0.47297434 </v>
    <v>       0.49183093       0.39975657       0.44769585 </v>
    <v>       0.55302871       0.57916248       0.53636053 </v>
    <v>       0.44293241       0.60294632       0.47017449 </v>
    <v>       0.44033623       0.59334669       0.59134101 </v>
    <v>       0.41874771       0.38222925       0.53995021 </v>
   </varray>
  </structure>
  <varray name="forces" >
   <v>       0.17222690       0.19313198      -0.18832892 </v>
   <v>      -0.09485535       0.00922209      -0.28803765 </v>
   <v>       0.32071945      -0.10376262      -0.00797777 </v>
   <v>      -0.16171459       0.38105980       0.35054799 </v>
   <v>      -0.11093933      -0.14413879       0.25361400 </v>
   <v>      -0.25092157      -0.06880292       0.11909082 </v>
   <v>       0.16079479      -0.25368486      -0.29796617 </v>
   <v>      -0.03531029      -0.01302469       0.05905771 </v>
  </varray>
  <energy>
   <i name="e_fr_energy">    -16.26612984 </i>
   <i name="e_wo_entrp">    -16.31634513 </i>
   <i name="e_0_energy">    -16.28286827 </i>
  </energy>
  <time name="totalsc">   71.01   71.24</time>
 </calculation>
 <calculation>
  <scstep>
   <time name="dav">    5.57    5.58</time>
   <time name="total">    9.84    9.85</time>
   <energy>
    <i name="alphaZ">      6.70175720 </i>
    <i name="ewald">   7605.95243632 </i>
    <i name="hartreedc"> -14663.65374549 </i>
    <i name="XCdc">    114.07661087 </i>
    <i name="pawpsdc">   7748.65472818 </i>
    <i name="pawaedc">  -7576.37815118 </i>
    <i name="eentropy">      0.03135950 </i>
    <i name="bandstr">   -660.32057454 </i>
    <i name="atom">   7408.64415014 </i>
    <i name="e_fr_energy">    -16.29142899 </i>
    <i name="e_wo_entrp">    -16.32278849 </i>
    <i name="e_0_energy">    -16.30188215 </i>
   </energy>
  </scstep>
  <scstep>
   <time name="dav">    6.17    6.18</time>
   <time name="total">   10.38   10.40</time>
   <energy>
    <i name="e_fr_energy">    -16.30824396 </i>
    <i name="e_wo_entrp">    -16.33843936 </i>
    <i name="e_0_energy">    -16.31830909 </i>
   </energy>
  </scstep>
  <scstep>
   <time name="dav">    5.90    5.91</time>
   <time name="total">   10.10   10.13</time>
   <energy>
    <i name="e_fr_energy">    -16.30746841 </i>
    <i name="e_wo_entrp">    -16.33548920 </i>
    <i name="e_0_energy">    -16.31680867 </i>
   </energy>
  </scstep>
  <scstep>
   <time name="dav">    5.81    5.82</time>
   <time name="total">   10.06   10.08</time>
   <energy>
    <i name="e_fr_energy">    -16.30689165 </i>
    <i name="e_wo_entrp">    -16.33230498 </i>
    <i name="e_0_energy">    -16.31536276 </i>
   </energy>
  </scstep>
  <scstep>
   <time name="dav">    4.71    4.72</time>
   <time name="total">    8.13    8.16</time>
   <energy>
    <i name="alphaZ">      6.70175720 </i>
    <i name="ewald">   7605.95243632 </i>
    <i name="hartreedc"> -14663.60617803 </i>
    <i name="XCdc">    114.07204235 </i>
    <i name="pawpsdc">   7749.57424799 </i>
    <i name="pawaedc">  -7577.33902687 </i>
    <i name="eentropy">      0.02439986 </i>
    <i name="bandstr">   -660.33069441 </i>
    <i name="atom">   7408.64415014 </i>
    <i name="e_fr_energy">    -16.30686544 </i>
    <i name="e_wo_entrp">    -16.33126530 </i>
    <i name="e_0_energy">    -16.31499872 </i>
   </energy>
  </scstep>
  <structure>
   <crystal>
    <varray name="basis" >
     <v>      21.61720857       0.00000000       0.00000000 </v>
     <v>       0.00000000      22.65702511       0.00000000 </v>
     <v>       0.00000000       0.00000000      22.71112642 </v>
    </varray>
    <i name="volume">  11123.49268554 </i>
    <varray name="rec_basis" >
     <v>       0.04625944       0.00000000       0.00000000 </v>
     <v>       0.00000000       0.04413642       0.00000000 </v>
     <v>       0.00000000       0.00000000       0.04403128 </v>
    </varray>
   </crystal>
   <varray name="positions" >
    <v>       0.45828197       0.49235261       0.52951347 </v>
    <v>       0.47104477       0.51101935       0.40408473 </v>
    <v>       0.57845674       0.48444181       0.47297968 </v>
    <v>       0.49150618       0.40054863       0.44838079 </v>
    <v>       0.55294339       0.57885365       0.53696118 </v>
    <v>       0.44224600       0.60286614       0.47030343 </v>
    <v>       0.44062796       0.59280020       0.59082122 </v>
    <v>       0.41856610       0.38213725       0.54019249 </v>
   </varray>
  </structure>
  <varray name="forces" >
   <v>       0.13195287      -0.00314600      -0.20730023 </v>
   <v>      -0.03099753       0.05202855      -0.20766358 </v>
   <v>       0.23392464      -0.02560654      -0.03166176 </v>
   <v>      -0.12364632       0.35673035       0.29502840 </v>
   <v>      -0.05530644      -0.18026744       0.15735431 </v>
   <v>      -0.19034599      -0.11619918       0.04714638 </v>
   <v>       0.07307833      -0.14204268      -0.14349566 </v>
   <v>      -0.03865956       0.05850293       0.09059214 </v>
  </varray>
  <energy>
   <i name="e_fr_energy">    -16.30686544 </i>
   <i name="e_wo_entrp">    -16.33126530 </i>
   <i name="e_0_energy">    -16.31499872 </i>
  </energy>
  <time name="totalsc">   60.64   60.82</time>
 </calculation>
 <calculation>
  <scstep>
   <time name="dav">    5.55    5.57</time>
   <time name="total">    9.79    9.81</time>
   <energy>
    <i name="alphaZ">      6.70175720 </i>
    <i name="ewald">   7609.33137049 </i>
    <i name="hartreedc"> -14667.09306229 </i>
    <i name="XCdc">    114.12257619 </i>
    <i name="pawpsdc">   7749.51781610 </i>
    <i name="pawaedc">  -7577.28309851 </i>
    <i name="eentropy">      0.01242967 </i>
    <i name="bandstr">   -660.20069075 </i>
    <i name="atom">   7408.64415014 </i>
    <i name="e_fr_energy">    -16.24675176 </i>
    <i name="e_wo_entrp">    -16.25918142 </i>
    <i name="e_0_energy">    -16.25089498 </i>
   </energy>
  </scstep>
  <scstep>
   <time name="dav">    5.86    5.87</time>
   <time name="total">   10.04   10.07</time>
   <energy>
    <i name="e_fr_energy">    -16.35825355 </i>
    <i name="e_wo_entrp">    -16.37096820 </i>
    <i name="e_0_energy">    -16.36249177 </i>
   </energy>
  </scstep>
  <scstep>
   <time name="dav">    5.94    5.95</time>
   <time name="total">   10.13   10.16</time>
   <energy>
    <i name="e_fr_energy">    -16.35439436 </i>
    <i name="e_wo_entrp">    -16.36681493 </i>
    <i name="e_0_energy">    -16.35853455 </i>
   </energy>
  </scstep>
  <scstep>
   <time name="dav">    6.12    6.13</time>
   <time name="total">   10.35   10.39</time>
   <energy>
    <i name="e_fr_energy">    -16.35156023 </i>
    <i name="e_wo_entrp">    -16.36378432 </i>
    <i name="e_0_energy">    -16.35563493 </i>
   </energy>
  </scstep>
  <scstep>
   <time name="dav">    5.83    5.84</time>
   <time name="total">   10.07   10.09</time>
   <energy>
    <i name="e_fr_energy">    -16.35182348 </i>
    <i name="e_wo_entrp">    -16.36398834 </i>
    <i name="e_0_energy">    -16.35587843 </i>
   </energy>
  </scstep>
  <scstep>
   <time name="dav">    5.87    5.87</time>
   <time name="total">    9.30    9.31</time>
   <energy>
    <i name="alphaZ">      6.70175720 </i>
    <i name="ewald">   7609.33137049 </i>
    <i name="hartreedc"> -14667.01890427 </i>
    <i name="XCdc">    114.11655333 </i>
    <i name="pawpsdc">   7760.29558090 </i>
    <i name="pawaedc">  -7588.15508337 </i>
    <i name="eentropy">      0.01220482 </i>
    <i name="bandstr">   -660.27939585 </i>
    <i name="atom">   7408.64415014 </i>
    <i name="e_fr_energy">    -16.35176660 </i>
    <i name="e_wo_entrp">    -16.36397142 </i>
    <i name="e_0_energy">    -16.35583487 </i>
   </energy>
  </scstep>
  <structure>
   <crystal>
    <varray name="basis" >
     <v>      21.61720857       0.00000000       0.00000000 </v>
     <v>       0.00000000      22.65702511       0.00000000 </v>
     <v>       0.00000000       0.00000000      22.71112642 </v>
    </varray>
    <i name="volume">  11123.49268554 </i>
    <varray name="rec_basis" >
     <v>       0.04625944       0.00000000       0.00000000 </v>
     <v>       0.00000000       0.04413642       0.00000000 </v>
     <v>       0.00000000       0.00000000       0.04403128 </v>
    </varray>
   </crystal>
   <varray name="positions" >
    <v>       0.45920644       0.49342424       0.52859405 </v>
    <v>       0.47027790       0.51118905       0.40207767 </v>
    <v>       0.58082599       0.48380369       0.47299335 </v>
    <v>       0.49067426       0.40257771       0.45013546 </v>
    <v>       0.55272481       0.57806248       0.53849991 </v>
    <v>       0.44048755       0.60266071       0.47063374 </v>
    <v>       0.44137531       0.59140019       0.58948964 </v>
    <v>       0.41810083       0.38190155       0.54081317 </v>
   </varray>
  </structure>
  <varray name="forces" >
   <v>       0.03636017      -0.49697379      -0.27265553 </v>
   <v>       0.05662735       0.16173684      -0.01110992 </v>
   <v>       0.04223455       0.14632942      -0.02596838 </v>
   <v>      -0.03493059       0.28817218       0.16443805 </v>
   <v>       0.17297768      -0.25785475      -0.08218357 </v>
   <v>      -0.06849572      -0.20879336      -0.18100198 </v>
   <v>      -0.17299919       0.16712967       0.27659195 </v>
   <v>      -0.03177425       0.20025379       0.13188938 </v>
  </varray>
  <energy>
   <i name="e_fr_energy">    -16.35176660 </i>
   <i name="e_wo_entrp">    -16.36397142 </i>
   <i name="e_0_energy">    -16.35583487 </i>
  </energy>
  <time name="totalsc">   71.81   72.05</time>
 </calculation>
 <calculation>
  <scstep>
   <time name="dav">    5.64    5.65</time>
   <time name="total">    9.89    9.90</time>
   <energy>
    <i name="alphaZ">      6.70175720 </i>
    <i name="ewald">   7614.86493095 </i>
    <i name="hartreedc"> -14672.58417506 </i>
    <i name="XCdc">    114.13909477 </i>
    <i name="pawpsdc">   7759.85525773 </i>
    <i name="pawaedc">  -7587.71576795 </i>
    <i name="eentropy">      0.01182766 </i>
    <i name="bandstr">   -660.27965698 </i>
    <i name="atom">   7408.64415014 </i>
    <i name="e_fr_energy">    -16.36258154 </i>
    <i name="e_wo_entrp">    -16.37440920 </i>
    <i name="e_0_energy">    -16.36652410 </i>
   </energy>
  </scstep>
  <scstep>
   <time name="dav">    5.63    5.64</time>
   <time name="total">    9.91    9.93</time>
   <energy>
    <i name="e_fr_energy">    -16.38524784 </i>
    <i name="e_wo_entrp">    -16.39710872 </i>
    <i name="e_0_energy">    -16.38920146 </i>
   </energy>
  </scstep>
  <scstep>
   <time name="dav">    6.10    6.11</time>
   <time name="total">   10.36   10.38</time>
   <energy>
    <i name="e_fr_energy">    -16.38459727 </i>
    <i name="e_wo_entrp">    -16.39643626 </i>
    <i name="e_0_energy">    -16.38854360 </i>
   </energy>
  </scstep>
  <scstep>
   <time name="dav">    5.57    5.58</time>
   <time name="total">    9.76    9.77</time>
   <energy>
    <i name="e_fr_energy">    -16.38412360 </i>
    <i name="e_wo_entrp">    -16.39594609 </i>
    <i name="e_0_energy">    -16.38806443 </i>
   </energy>
  </scstep>
  <scstep>
   <time name="dav">    4.77    4.78</time>
   <time name="total">    9.00    9.03</time>
   <energy>
    <i name="e_fr_energy">    -16.38424540 </i>
    <i name="e_wo_entrp">    -16.39606412 </i>
    <i name="e_0_energy">    -16.38818497 </i>
   </energy>
  </scstep>
  <scstep>
   <time name="dav">    4.22    4.22</time>
   <time name="total">    7.67    7.68</time>
   <energy>
    <i name="alphaZ">      6.70175720 </i>
    <i name="ewald">   7614.86493095 </i>
    <i name="hartreedc"> -14672.67479962 </i>
    <i name="XCdc">    114.14107855 </i>
    <i name="pawpsdc">   7764.45872743 </i>
    <i name="pawaedc">  -7592.36663083 </i>
    <i name="eentropy">      0.01182233 </i>
    <i name="bandstr">   -660.16530157 </i>
    <i name="atom">   7408.64415014 </i>
    <i name="e_fr_energy">    -16.38426542 </i>
    <i name="e_wo_entrp">    -16.39608775 </i>
    <i name="e_0_energy">    -16.38820620 </i>
   </energy>
  </scstep>
  <structure>
   <crystal>
    <varray name="basis" >
     <v>      21.61720857       0.00000000       0.00000000 </v>
     <v>       0.00000000      22.65702511       0.00000000 </v>
     <v>       0.00000000       0.00000000      22.71112642 </v>
    </varray>
    <i name="volume">  11123.49268554 </i>
    <varray name="rec_basis" >
     <v>       0.04625944       0.00000000       0.00000000 </v>
     <v>       0.00000000       0.04413642       0.00000000 </v>
     <v>       0.00000000       0.00000000       0.04403128 </v>
    </varray>
   </crystal>
   <varray name="positions" >
    <v>       0.45956586       0.49279467       0.52778402 </v>
    <v>       0.47015562       0.51155418       0.40143590 </v>
    <v>       0.58164386       0.48388935       0.47294749 </v>
    <v>       0.49034635       0.40376198       0.45099495 </v>
    <v>       0.55300775       0.57731944       0.53881700 </v>
    <v>       0.43980526       0.60219356       0.47038674 </v>
    <v>       0.44125575       0.59129059       0.58961153 </v>
    <v>       0.41789265       0.38221585       0.54125938 </v>
   </varray>
  </structure>
  <varray name="forces" >
   <v>      -0.00298818      -0.19865666      -0.10445430 </v>
   <v>       0.07656686       0.16427343      -0.05652475 </v>
   <v>       0.07435857       0.13897269      -0.06187952 </v>
   <v>       0.01651938       0.16688829       0.04913928 </v>
   <v>       0.08374432      -0.23280615      -0.05713357 </v>
   <v>      -0.04850354      -0.21571441      -0.09233623 </v>
   <v>      -0.10898445       0.06385483       0.14089994 </v>
   <v>      -0.09071296       0.11318799       0.18228915 </v>
  </varray>
  <energy>
   <i name="e_fr_energy">    -16.38426542 </i>
   <i name="e_wo_entrp">    -16.39608775 </i>
   <i name="e_0_energy">    -16.38820620 </i>
  </energy>
  <time name="totalsc">   68.74   68.95</time>
 </calculation>
 <calculation>
  <scstep>
   <time name="dav">    5.63    5.64</time>
   <time name="total">    9.86    9.88</time>
   <energy>
    <i name="alphaZ">      6.70175720 </i>
    <i name="ewald">   7621.04877777 </i>
    <i name="hartreedc"> -14678.83644236 </i>
    <i name="XCdc">    114.17250547 </i>
    <i name="pawpsdc">   7764.29874468 </i>
    <i name="pawaedc">  -7592.20707633 </i>
    <i name="eentropy">      0.01169312 </i>
    <i name="bandstr">   -660.20912443 </i>
    <i name="atom">   7408.64415014 </i>
    <i name="e_fr_energy">    -16.37501473 </i>
    <i name="e_wo_entrp">    -16.38670785 </i>
    <i name="e_0_energy">    -16.37891244 </i>
   </energy>
  </scstep>
  <scstep>
   <time name="dav">    5.63    5.64</time>
   <time name="total">    9.87    9.89</time>
   <energy>
    <i name="e_fr_energy">    -16.40100960 </i>
    <i name="e_wo_entrp">    -16.41271187 </i>
    <i name="e_0_energy">    -16.40491036 </i>
   </energy>
  </scstep>
  <scstep>
   <time name="dav">    6.20    6.21</time>
   <time name="total">   10.44   10.48</time>
   <energy>
    <i name="e_fr_energy">    -16.40022228 </i>
    <i name="e_wo_entrp">    -16.41191899 </i>
    <i name="e_0_energy">    -16.40412118 </i>
   </energy>
  </scstep>
  <scstep>
   <time name="dav">    5.66    5.67</time>
   <time name="total">    9.92    9.95</time>
   <energy>
    <i name="e_fr_energy">    -16.39965772 </i>
    <i name="e_wo_entrp">    -16.41135064 </i>
    <i name="e_0_energy">    -16.40355536 </i>
   </energy>
  </scstep>
  <scstep>
   <time name="dav">    4.83    4.84</time>
   <time name="total">    8.28    8.31</time>
   <energy>
    <i name="alphaZ">      6.70175720 </i>
    <i name="ewald">   7621.04877777 </i>
    <i name="hartreedc"> -14678.92679214 </i>
    <i name="XCdc">    114.17473076 </i>
    <i name="pawpsdc">   7771.84483812 </i>
    <i name="pawaedc">  -7599.82532863 </i>
    <i name="eentropy">      0.01169257 </i>
    <i name="bandstr">   -660.07357026 </i>
    <i name="atom">   7408.64415014 </i>
    <i name="e_fr_energy">    -16.39974447 </i>
    <i name="e_wo_entrp">    -16.41143704 </i>
    <i name="e_0_energy">    -16.40364199 </i>
   </energy>
  </scstep>
  <structure>
   <crystal>
    <varray name="basis" >
     <v>      21.61720857       0.00000000       0.00000000 </v>
     <v>       0.00000000      22.65702511       0.00000000 </v>
     <v>       0.00000000       0.00000000      22.71112642 </v>
    </varray>
    <i name="volume">  11123.49268554 </i>
    <varray name="rec_basis" >
     <v>       0.04625944       0.00000000       0.00000000 </v>
     <v>       0.00000000       0.04413642       0.00000000 </v>
     <v>       0.00000000       0.00000000       0.04403128 </v>
    </varray>
   </crystal>
   <varray name="positions" >
    <v>       0.45995154       0.49211909       0.52691477 </v>
    <v>       0.47002440       0.51194600       0.40074722 </v>
    <v>       0.58252151       0.48398127       0.47289828 </v>
    <v>       0.48999448       0.40503281       0.45191725 </v>
    <v>       0.55331137       0.57652210       0.53915726 </v>
    <v>       0.43907310       0.60169227       0.47012169 </v>
    <v>       0.44112746       0.59117297       0.58974232 </v>
    <v>       0.41766924       0.38255311       0.54173820 </v>
   </varray>
  </structure>
  <varray name="forces" >
   <v>      -0.06228822       0.16072407       0.11767699 </v>
   <v>       0.09746444       0.16548832      -0.09612325 </v>
   <v>       0.09876968       0.13148217      -0.09762208 </v>
   <v>       0.09296795      -0.02243379      -0.12724024 </v>
   <v>      -0.00736232      -0.20289095      -0.03619649 </v>
   <v>      -0.02115506      -0.22097794      -0.00298296 </v>
   <v>      -0.04510275      -0.02865739       0.00865115 </v>
   <v>      -0.15329372       0.01726550       0.23383688 </v>
  </varray>
  <energy>
   <i name="e_fr_energy">    -16.39974447 </i>
   <i name="e_wo_entrp">    -16.41143704 </i>
   <i name="e_0_energy">    -16.40364199 </i>
  </energy>
  <time name="totalsc">   60.51   60.71</time>
 </calculation>
 <calculation>
  <scstep>
   <time name="dav">    5.62    5.62</time>
   <time name="total">    9.83    9.85</time>
   <energy>
    <i name="alphaZ">      6.70175720 </i>
    <i name="ewald">   7615.90057667 </i>
    <i name="hartreedc"> -14673.88754699 </i>
    <i name="XCdc">    114.15726570 </i>
    <i name="pawpsdc">   7771.61362938 </i>
    <i name="pawaedc">  -7599.59308500 </i>
    <i name="eentropy">      0.01167748 </i>
    <i name="bandstr">   -659.95308717 </i>
    <i name="atom">   7408.64415014 </i>
    <i name="e_fr_energy">    -16.40466259 </i>
    <i name="e_wo_entrp">    -16.41634007 </i>
    <i name="e_0_energy">    -16.40855508 </i>
   </energy>
  </scstep>
  <scstep>
   <time name="dav">    5.89    5.90</time>
   <time name="total">   10.12   10.15</time>
   <energy>
    <i name="e_fr_energy">    -16.41537365 </i>
    <i name="e_wo_entrp">    -16.42705271 </i>
    <i name="e_0_energy">    -16.41926667 </i>
   </energy>
  </scstep>
  <scstep>
   <time name="dav">    6.15    6.17</time>
   <time name="total">   10.34   10.37</time>
   <energy>
    <i name="e_fr_energy">    -16.41504569 </i>
    <i name="e_wo_entrp">    -16.42672373 </i>
    <i name="e_0_energy">    -16.41893837 </i>
   </energy>
  </scstep>
  <scstep>
   <time name="dav">    5.54    5.55</time>
   <time name="total">    9.76    9.78</time>
   <energy>
    <i name="e_fr_energy">    -16.41486404 </i>
    <i name="e_wo_entrp">    -16.42654167 </i>
    <i name="e_0_energy">    -16.41875658 </i>
   </energy>
  </scstep>
  <scstep>
   <time name="dav">    4.20    4.21</time>
   <time name="total">    7.71    7.73</time>
   <energy>
    <i name="alphaZ">      6.70175720 </i>
    <i name="ewald">   7615.90057667 </i>
    <i name="hartreedc"> -14674.09076939 </i>
    <i name="XCdc">    114.16363238 </i>
    <i name="pawpsdc">   7769.00378821 </i>
    <i name="pawaedc">  -7596.96630148 </i>
    <i name="eentropy">      0.01167786 </i>
    <i name="bandstr">   -659.78341652 </i>
    <i name="atom">   7408.64415014 </i>
    <i name="e_fr_energy">    -16.41490493 </i>
    <i name="e_wo_entrp">    -16.42658279 </i>
    <i name="e_0_energy">    -16.41879755 </i>
   </energy>
  </scstep>
  <structure>
   <crystal>
    <varray name="basis" >
     <v>      21.61720857       0.00000000       0.00000000 </v>
     <v>       0.00000000      22.65702511       0.00000000 </v>
     <v>       0.00000000       0.00000000      22.71112642 </v>
    </varray>
    <i name="volume">  11123.49268554 </i>
    <varray name="rec_basis" >
     <v>       0.04625944       0.00000000       0.00000000 </v>
     <v>       0.00000000       0.04413642       0.00000000 </v>
     <v>       0.00000000       0.00000000       0.04403128 </v>
    </varray>
   </crystal>
   <varray name="positions" >
    <v>       0.45993140       0.49226325       0.52689033 </v>
    <v>       0.47021897       0.51246987       0.40028427 </v>
    <v>       0.58306761       0.48432176       0.47265260 </v>
    <v>       0.49010180       0.40541889       0.45193761 </v>
    <v>       0.55339808       0.57577038       0.53918994 </v>
    <v>       0.43876825       0.60100030       0.47002319 </v>
    <v>       0.44097217       0.59106507       0.58980775 </v>
    <v>       0.41721483       0.38271010       0.54245130 </v>
   </varray>
  </structure>
  <varray name="forces" >
   <v>      -0.08752445       0.06720969       0.12019779 </v>
   <v>       0.12552555       0.08188619      -0.11125414 </v>
   <v>       0.08156799       0.06465381      -0.14154945 </v>
   <v>       0.02705012      -0.01424937      -0.03666583 </v>
   <v>      -0.03412093      -0.11917823       0.01076011 </v>
   <v>      -0.03065731      -0.14367168       0.04138328 </v>
   <v>      -0.02357914      -0.01315780      -0.00313092 </v>
   <v>      -0.05826183       0.07650738       0.12025918 </v>
  </varray>
  <energy>
   <i name="e_fr_energy">    -16.41490493 </i>
   <i name="e_wo_entrp">    -16.42658279 </i>
   <i name="e_0_energy">    -16.41879755 </i>
  </energy>
  <time name="totalsc">   59.87   60.06</time>
 </calculation>
 <calculation>
  <scstep>
   <time name="dav">    5.60    5.61</time>
   <time name="total">    9.84    9.85</time>
   <energy>
    <i name="alphaZ">      6.70175720 </i>
    <i name="ewald">   7606.89712004 </i>
    <i name="hartreedc"> -14665.25523928 </i>
    <i name="XCdc">    114.13901003 </i>
    <i name="pawpsdc">   7768.99883231 </i>
    <i name="pawaedc">  -7596.96167947 </i>
    <i name="eentropy">      0.01165867 </i>
    <i name="bandstr">   -659.56893917 </i>
    <i name="atom">   7408.64415014 </i>
    <i name="e_fr_energy">    -16.39332954 </i>
    <i name="e_wo_entrp">    -16.40498821 </i>
    <i name="e_0_energy">    -16.39721576 </i>
   </energy>
  </scstep>
  <scstep>
   <time name="dav">    5.87    5.88</time>
   <time name="total">   10.07   10.10</time>
   <energy>
    <i name="e_fr_energy">    -16.42696201 </i>
    <i name="e_wo_entrp">    -16.43862232 </i>
    <i name="e_0_energy">    -16.43084878 </i>
   </energy>
  </scstep>
  <scstep>
   <time name="dav">    6.14    6.15</time>
   <time name="total">   10.37   10.39</time>
   <energy>
    <i name="e_fr_energy">    -16.42592047 </i>
    <i name="e_wo_entrp">    -16.43757994 </i>
    <i name="e_0_energy">    -16.42980696 </i>
   </energy>
  </scstep>
  <scstep>
   <time name="dav">    5.62    5.62</time>
   <time name="total">    9.87    9.88</time>
   <energy>
    <i name="e_fr_energy">    -16.42523338 </i>
    <i name="e_wo_entrp">    -16.43689259 </i>
    <i name="e_0_energy">    -16.42911978 </i>
   </energy>
  </scstep>
  <scstep>
   <time name="dav">    5.02    5.04</time>
   <time name="total">    8.50    8.53</time>
   <energy>
    <i name="alphaZ">      6.70175720 </i>
    <i name="ewald">   7606.89712004 </i>
    <i name="hartreedc"> -14665.54523789 </i>
    <i name="XCdc">    114.14907690 </i>
    <i name="pawpsdc">   7766.56585544 </i>
    <i name="pawaedc">  -7594.51379064 </i>
    <i name="eentropy">      0.01165940 </i>
    <i name="bandstr">   -659.33589266 </i>
    <i name="atom">   7408.64415014 </i>
    <i name="e_fr_energy">    -16.42530208 </i>
    <i name="e_wo_entrp">    -16.43696148 </i>
    <i name="e_0_energy">    -16.42918855 </i>
   </energy>
  </scstep>
  <structure>
   <crystal>
    <varray name="basis" >
     <v>      21.61720857       0.00000000       0.00000000 </v>
     <v>       0.00000000      22.65702511       0.00000000 </v>
     <v>       0.00000000       0.00000000      22.71112642 </v>
    </varray>
    <i name="volume">  11123.49268554 </i>
    <varray name="rec_basis" >
     <v>       0.04625944       0.00000000       0.00000000 </v>
     <v>       0.00000000       0.04413642       0.00000000 </v>
     <v>       0.00000000       0.00000000       0.04403128 </v>
    </varray>
   </crystal>
   <varray name="positions" >
    <v>       0.45989560       0.49251943       0.52684691 </v>
    <v>       0.47056472       0.51340080       0.39946161 </v>
    <v>       0.58403803       0.48492680       0.47221603 </v>
    <v>       0.49029251       0.40610496       0.45197378 </v>
    <v>       0.55355216       0.57443458       0.53924802 </v>
    <v>       0.43822654       0.59977066       0.46984815 </v>
    <v>       0.44069620       0.59087332       0.58992401 </v>
    <v>       0.41640735       0.38298907       0.54371849 </v>
   </varray>
  </structure>
  <varray name="forces" >
   <v>      -0.13226986      -0.11589609       0.12038624 </v>
   <v>       0.17130970      -0.06798678      -0.15208959 </v>
   <v>       0.06510358      -0.06299827      -0.22247916 </v>
   <v>      -0.07549805       0.01416560       0.10889519 </v>
   <v>      -0.07443899       0.03653498       0.10557868 </v>
   <v>      -0.05936519       0.00641689       0.11917503 </v>
   <v>       0.01220318       0.01323134      -0.02183492 </v>
   <v>       0.09295563       0.17653233      -0.05763147 </v>
  </varray>
  <energy>
   <i name="e_fr_energy">    -16.42530208 </i>
   <i name="e_wo_entrp">    -16.43696148 </i>
   <i name="e_0_energy">    -16.42918855 </i>
  </energy>
  <time name="totalsc">   60.74   60.96</time>
 </calculation>
 <calculation>
  <scstep>
   <time name="dav">    5.61    5.63</time>
   <time name="total">    9.85    9.87</time>
   <energy>
    <i name="alphaZ">      6.70175720 </i>
    <i name="ewald">   7598.31598620 </i>
    <i name="hartreedc"> -14657.09869084 </i>
    <i name="XCdc">    114.13052744 </i>
    <i name="pawpsdc">   7766.48042106 </i>
    <i name="pawaedc">  -7594.42877037 </i>
    <i name="eentropy">      0.01163870 </i>
    <i name="bandstr">   -659.17997485 </i>
    <i name="atom">   7408.64415014 </i>
    <i name="e_fr_energy">    -16.42295533 </i>
    <i name="e_wo_entrp">    -16.43459403 </i>
    <i name="e_0_energy">    -16.42683490 </i>
   </energy>
  </scstep>
  <scstep>
   <time name="dav">    6.13    6.14</time>
   <time name="total">   10.36   10.39</time>
   <energy>
    <i name="e_fr_energy">    -16.43962946 </i>
    <i name="e_wo_entrp">    -16.45127018 </i>
    <i name="e_0_energy">    -16.44350970 </i>
   </energy>
  </scstep>
  <scstep>
   <time name="dav">    5.84    5.85</time>
   <time name="total">   10.11   10.13</time>
   <energy>
    <i name="e_fr_energy">    -16.43915766 </i>
    <i name="e_wo_entrp">    -16.45079721 </i>
    <i name="e_0_energy">    -16.44303751 </i>
   </energy>
  </scstep>
  <scstep>
   <time name="dav">    6.11    6.11</time>
   <time name="total">   10.40   10.42</time>
   <energy>
    <i name="e_fr_energy">    -16.43871855 </i>
    <i name="e_wo_entrp">    -16.45035728 </i>
    <i name="e_0_energy">    -16.44259813 </i>
   </energy>
  </scstep>
  <scstep>
   <time name="dav">    5.76    5.95</time>
   <time name="total">    9.21    9.41</time>
   <energy>
    <i name="alphaZ">      6.70175720 </i>
    <i name="ewald">   7598.31598620 </i>
    <i name="hartreedc"> -14657.34394437 </i>
    <i name="XCdc">    114.13278738 </i>
    <i name="pawpsdc">   7763.41409673 </i>
    <i name="pawaedc">  -7591.35911482 </i>
    <i name="eentropy">      0.01163836 </i>
    <i name="bandstr">   -658.95611814 </i>
    <i name="atom">   7408.64415014 </i>
    <i name="e_fr_energy">    -16.43876132 </i>
    <i name="e_wo_entrp">    -16.45039968 </i>
    <i name="e_0_energy">    -16.44264078 </i>
   </energy>
  </scstep>
  <structure>
   <crystal>
    <varray name="basis" >
     <v>      21.61720857       0.00000000       0.00000000 </v>
     <v>       0.00000000      22.65702511       0.00000000 </v>
     <v>       0.00000000       0.00000000      22.71112642 </v>
    </varray>
    <i name="volume">  11123.49268554 </i>
    <varray name="rec_basis" >
     <v>       0.04625944       0.00000000       0.00000000 </v>
     <v>       0.00000000       0.04413642       0.00000000 </v>
     <v>       0.00000000       0.00000000       0.04403128 </v>
    </varray>
   </crystal>
   <varray name="positions" >
    <v>       0.45951012       0.49234905       0.52714134 </v>
    <v>       0.47122292       0.51371528       0.39862379 </v>
    <v>       0.58473357       0.48508146       0.47139754 </v>
    <v>       0.49018457       0.40650661       0.45228016 </v>
    <v>       0.55342770       0.57382203       0.53955729 </v>
    <v>       0.43777447       0.59913485       0.47006953 </v>
    <v>       0.44058351       0.59080651       0.58992814 </v>
    <v>       0.41623623       0.38360383       0.54423920 </v>
   </varray>
  </structure>
  <varray name="forces" >
   <v>      -0.08996508      -0.05154903       0.09283382 </v>
   <v>       0.17641980      -0.06953009      -0.08313588 </v>
   <v>       0.00254062      -0.03325541      -0.19870737 </v>
   <v>      -0.06581387       0.03486789       0.09625144 </v>
   <v>      -0.06601294      -0.00038189       0.07463609 </v>
   <v>      -0.04441807      -0.01675005       0.07707247 </v>
   <v>       0.01087813       0.03482224       0.00321989 </v>
   <v>       0.07637141       0.10177634      -0.06217045 </v>
  </varray>
  <energy>
   <i name="e_fr_energy">    -16.43876132 </i>
   <i name="e_wo_entrp">    -16.45039968 </i>
   <i name="e_0_energy">    -16.44264078 </i>
  </energy>
  <time name="totalsc">   62.02   62.39</time>
 </calculation>
 <calculation>
  <scstep>
   <time name="dav">    5.56    5.57</time>
   <time name="total">    9.82    9.85</time>
   <energy>
    <i name="alphaZ">      6.70175720 </i>
    <i name="ewald">   7571.82159808 </i>
    <i name="hartreedc"> -14631.31615073 </i>
    <i name="XCdc">    114.08867615 </i>
    <i name="pawpsdc">   7763.45144388 </i>
    <i name="pawaedc">  -7591.39645981 </i>
    <i name="eentropy">      0.01160813 </i>
    <i name="bandstr">   -658.32241849 </i>
    <i name="atom">   7408.64415014 </i>
    <i name="e_fr_energy">    -16.31579545 </i>
    <i name="e_wo_entrp">    -16.32740358 </i>
    <i name="e_0_energy">    -16.31966482 </i>
   </energy>
  </scstep>
  <scstep>
   <time name="dav">    5.88    5.89</time>
   <time name="total">   10.09   10.11</time>
   <energy>
    <i name="e_fr_energy">    -16.46035684 </i>
    <i name="e_wo_entrp">    -16.47196636 </i>
    <i name="e_0_energy">    -16.46422668 </i>
   </energy>
  </scstep>
  <scstep>
   <time name="dav">    6.20    6.21</time>
   <time name="total">   10.46   10.48</time>
   <energy>
    <i name="e_fr_energy">    -16.45625484 </i>
    <i name="e_wo_entrp">    -16.46786346 </i>
    <i name="e_0_energy">    -16.46012438 </i>
   </energy>
  </scstep>
  <scstep>
   <time name="dav">    6.13    6.14</time>
   <time name="total">   10.39   10.41</time>
   <energy>
    <i name="e_fr_energy">    -16.45210387 </i>
    <i name="e_wo_entrp">    -16.46371203 </i>
    <i name="e_0_energy">    -16.45597326 </i>
   </energy>
  </scstep>
  <scstep>
   <time name="dav">    5.88    5.90</time>
   <time name="total">   10.10   10.13</time>
   <energy>
    <i name="e_fr_energy">    -16.45230115 </i>
    <i name="e_wo_entrp">    -16.46390901 </i>
    <i name="e_0_energy">    -16.45617044 </i>
   </energy>
  </scstep>
  <scstep>
   <time name="dav">    5.52    5.52</time>
   <time name="total">    9.76    9.77</time>
   <energy>
    <i name="e_fr_energy">    -16.45216651 </i>
    <i name="e_wo_entrp">    -16.46377458 </i>
    <i name="e_0_energy">    -16.45603587 </i>
   </energy>
  </scstep>
  <scstep>
   <time name="dav">    4.24    4.25</time>
   <time name="total">    7.72    7.74</time>
   <energy>
    <i name="alphaZ">      6.70175720 </i>
    <i name="ewald">   7571.82159808 </i>
    <i name="hartreedc"> -14631.85553762 </i>
    <i name="XCdc">    114.09085186 </i>
    <i name="pawpsdc">   7758.29344359 </i>
    <i name="pawaedc">  -7586.24675512 </i>
    <i name="eentropy">      0.01160815 </i>
    <i name="bandstr">   -657.91331175 </i>
    <i name="atom">   7408.64415014 </i>
    <i name="e_fr_energy">    -16.45219547 </i>
    <i name="e_wo_entrp">    -16.46380362 </i>
    <i name="e_0_energy">    -16.45606486 </i>
   </energy>
  </scstep>
  <structure>
   <crystal>
    <varray name="basis" >
     <v>      21.61720857       0.00000000       0.00000000 </v>
     <v>       0.00000000      22.65702511       0.00000000 </v>
     <v>       0.00000000       0.00000000      22.71112642 </v>
    </varray>
    <i name="volume">  11123.49268554 </i>
    <varray name="rec_basis" >
     <v>       0.04625944       0.00000000       0.00000000 </v>
     <v>       0.00000000       0.04413642       0.00000000 </v>
     <v>       0.00000000       0.00000000       0.04403128 </v>
    </varray>
   </crystal>
   <varray name="positions" >
    <v>       0.45836625       0.49184347       0.52801503 </v>
    <v>       0.47317604       0.51464844       0.39613766 </v>
    <v>       0.58679752       0.48554038       0.46896875 </v>
    <v>       0.48986427       0.40769848       0.45318933 </v>
    <v>       0.55305841       0.57200436       0.54047501 </v>
    <v>       0.43643303       0.59724816       0.47072643 </v>
    <v>       0.44024912       0.59060826       0.58994041 </v>
    <v>       0.41572846       0.38542807       0.54578438 </v>
   </varray>
  </structure>
  <varray name="forces" >
   <v>       0.04013537       0.20329811       0.03735619 </v>
   <v>       0.15826337      -0.06182846       0.13543196 </v>
   <v>      -0.18432166       0.05585807      -0.09717631 </v>
   <v>      -0.01465390       0.07627389       0.02351789 </v>
   <v>      -0.02357948      -0.10646746      -0.03651332 </v>
   <v>       0.01572775      -0.07735762      -0.08458099 </v>
   <v>       0.00702443       0.09795598       0.08395380 </v>
   <v>       0.00140411      -0.18773252      -0.06198921 </v>
  </varray>
  <energy>
   <i name="e_fr_energy">    -16.45219547 </i>
   <i name="e_wo_entrp">    -16.46380362 </i>
   <i name="e_0_energy">    -16.45606486 </i>
  </energy>
  <time name="totalsc">   80.53   80.77</time>
 </calculation>
 <calculation>
  <scstep>
   <time name="dav">    5.63    5.64</time>
   <time name="total">    9.85    9.88</time>
   <energy>
    <i name="alphaZ">      6.70175720 </i>
    <i name="ewald">   7577.52006231 </i>
    <i name="hartreedc"> -14637.53918131 </i>
    <i name="XCdc">    114.10129807 </i>
    <i name="pawpsdc">   7757.99360389 </i>
    <i name="pawaedc">  -7585.94679199 </i>
    <i name="eentropy">      0.01161203 </i>
    <i name="bandstr">   -657.93319994 </i>
    <i name="atom">   7408.64415014 </i>
    <i name="e_fr_energy">    -16.44668960 </i>
    <i name="e_wo_entrp">    -16.45830163 </i>
    <i name="e_0_energy">    -16.45056028 </i>
   </energy>
  </scstep>
  <scstep>
   <time name="dav">    6.18    6.19</time>
   <time name="total">   10.43   10.45</time>
   <energy>
    <i name="e_fr_energy">    -16.45321333 </i>
    <i name="e_wo_entrp">    -16.46482476 </i>
    <i name="e_0_energy">    -16.45708381 </i>
   </energy>
  </scstep>
  <scstep>
   <time name="dav">    5.90    5.91</time>
   <time name="total">   10.10   10.11</time>
   <energy>
    <i name="e_fr_energy">    -16.45303588 </i>
    <i name="e_wo_entrp">    -16.46464761 </i>
    <i name="e_0_energy">    -16.45690646 </i>
   </energy>
  </scstep>
  <scstep>
   <time name="dav">    6.21    6.21</time>
   <time name="total">   10.42   10.44</time>
   <energy>
    <i name="e_fr_energy">    -16.45289618 </i>
    <i name="e_wo_entrp">    -16.46450812 </i>
    <i name="e_0_energy">    -16.45676683 </i>
   </energy>
  </scstep>
  <scstep>
   <time name="dav">    4.22    4.23</time>
   <time name="total">    7.68    7.69</time>
   <energy>
    <i name="alphaZ">      6.70175720 </i>
    <i name="ewald">   7577.52006231 </i>
    <i name="hartreedc"> -14637.44490528 </i>
    <i name="XCdc">    114.09985683 </i>
    <i name="pawpsdc">   7758.85977586 </i>
    <i name="pawaedc">  -7586.80906299 </i>
    <i name="eentropy">      0.01161204 </i>
    <i name="bandstr">   -658.03617172 </i>
    <i name="atom">   7408.64415014 </i>
    <i name="e_fr_energy">    -16.45292562 </i>
    <i name="e_wo_entrp">    -16.46453766 </i>
    <i name="e_0_energy">    -16.45679630 </i>
   </energy>
  </scstep>
  <structure>
   <crystal>
    <varray name="basis" >
     <v>      21.61720857       0.00000000       0.00000000 </v>
     <v>       0.00000000      22.65702511       0.00000000 </v>
     <v>       0.00000000       0.00000000      22.71112642 </v>
    </varray>
    <i name="volume">  11123.49268554 </i>
    <varray name="rec_basis" >
     <v>       0.04625944       0.00000000       0.00000000 </v>
     <v>       0.00000000       0.04413642       0.00000000 </v>
     <v>       0.00000000       0.00000000       0.04403128 </v>
    </varray>
   </crystal>
   <varray name="positions" >
    <v>       0.45860704       0.49194990       0.52783112 </v>
    <v>       0.47276490       0.51445201       0.39666100 </v>
    <v>       0.58636305       0.48544378       0.46948002 </v>
    <v>       0.48993169       0.40744759       0.45299794 </v>
    <v>       0.55313614       0.57238699       0.54028183 </v>
    <v>       0.43671541       0.59764532       0.47058815 </v>
    <v>       0.44031951       0.59064999       0.58993783 </v>
    <v>       0.41583535       0.38504405       0.54545911 </v>
   </varray>
  </structure>
  <varray name="forces" >
   <v>       0.01534231       0.14369963       0.04316141 </v>
   <v>       0.16164850      -0.06486254       0.09409576 </v>
   <v>      -0.14989605       0.03789722      -0.11553521 </v>
   <v>      -0.02646695       0.06734215       0.03986538 </v>
   <v>      -0.03303246      -0.08246068      -0.01316280 </v>
   <v>       0.00348878      -0.06325839      -0.04922282 </v>
   <v>       0.00815480       0.08455976       0.06671822 </v>
   <v>       0.02076105      -0.12291714      -0.06591993 </v>
  </varray>
  <energy>
   <i name="e_fr_energy">    -16.45292562 </i>
   <i name="e_wo_entrp">    -16.46453766 </i>
   <i name="e_0_energy">    -16.45679630 </i>
  </energy>
  <time name="totalsc">   60.68   60.85</time>
 </calculation>
 <calculation>
  <scstep>
   <time name="dav">    5.62    5.63</time>
   <time name="total">    9.90    9.92</time>
   <energy>
    <i name="alphaZ">      6.70175720 </i>
    <i name="ewald">   7590.44575380 </i>
    <i name="hartreedc"> -14650.25999030 </i>
    <i name="XCdc">    114.14268421 </i>
    <i name="pawpsdc">   7758.77442765 </i>
    <i name="pawaedc">  -7586.72383004 </i>
    <i name="eentropy">      0.01161014 </i>
    <i name="bandstr">   -658.18229504 </i>
    <i name="atom">   7408.64415014 </i>
    <i name="e_fr_energy">    -16.44573222 </i>
    <i name="e_wo_entrp">    -16.45734237 </i>
    <i name="e_0_energy">    -16.44960227 </i>
   </energy>
  </scstep>
  <scstep>
   <time name="dav">    5.89    5.91</time>
   <time name="total">   10.14   10.16</time>
   <energy>
    <i name="e_fr_energy">    -16.46616583 </i>
    <i name="e_wo_entrp">    -16.47777485 </i>
    <i name="e_0_energy">    -16.47003550 </i>
   </energy>
  </scstep>
  <scstep>
   <time name="dav">    6.13    6.14</time>
   <time name="total">   10.39   10.41</time>
   <energy>
    <i name="e_fr_energy">    -16.46558736 </i>
    <i name="e_wo_entrp">    -16.47719639 </i>
    <i name="e_0_energy">    -16.46945704 </i>
   </energy>
  </scstep>
  <scstep>
   <time name="dav">    5.58    5.59</time>
   <time name="total">    9.86    9.88</time>
   <energy>
    <i name="e_fr_energy">    -16.46498008 </i>
    <i name="e_wo_entrp">    -16.47658899 </i>
    <i name="e_0_energy">    -16.46884972 </i>
   </energy>
  </scstep>
  <scstep>
   <time name="dav">    5.98    5.99</time>
   <time name="total">    9.46    9.49</time>
   <energy>
    <i name="alphaZ">      6.70175720 </i>
    <i name="ewald">   7590.44575380 </i>
    <i name="hartreedc"> -14649.94128614 </i>
    <i name="XCdc">    114.13255288 </i>
    <i name="pawpsdc">   7765.37114583 </i>
    <i name="pawaedc">  -7593.40715115 </i>
    <i name="eentropy">      0.01160885 </i>
    <i name="bandstr">   -658.42349853 </i>
    <i name="atom">   7408.64415014 </i>
    <i name="e_fr_energy">    -16.46496712 </i>
    <i name="e_wo_entrp">    -16.47657597 </i>
    <i name="e_0_energy">    -16.46883674 </i>
   </energy>
  </scstep>
  <structure>
   <crystal>
    <varray name="basis" >
     <v>      21.61720857       0.00000000       0.00000000 </v>
     <v>       0.00000000      22.65702511       0.00000000 </v>
     <v>       0.00000000       0.00000000      22.71112642 </v>
    </varray>
    <i name="volume">  11123.49268554 </i>
    <varray name="rec_basis" >
     <v>       0.04625944       0.00000000       0.00000000 </v>
     <v>       0.00000000       0.04413642       0.00000000 </v>
     <v>       0.00000000       0.00000000       0.04403128 </v>
    </varray>
   </crystal>
   <varray name="positions" >
    <v>       0.45833656       0.49236062       0.52825255 </v>
    <v>       0.47399106       0.51447178       0.39630187 </v>
    <v>       0.58635382       0.48572446       0.46832570 </v>
    <v>       0.48973078       0.40805590       0.45341694 </v>
    <v>       0.55289426       0.57153785       0.54049794 </v>
    <v>       0.43633920       0.59685064       0.47058870 </v>
    <v>       0.44025537       0.59092057       0.59019979 </v>
    <v>       0.41577205       0.38509779       0.54565351 </v>
   </varray>
  </structure>
  <varray name="forces" >
   <v>      -0.03974253       0.00226433       0.06531340 </v>
   <v>       0.16150820      -0.02912372       0.07796042 </v>
   <v>      -0.11931873       0.05957941      -0.12072408 </v>
   <v>      -0.03967069       0.02785502       0.04459405 </v>
   <v>       0.01599304      -0.05434407       0.00074141 </v>
   <v>      -0.01486353      -0.02991648      -0.06959984 </v>
   <v>       0.00898352       0.11812757       0.06482047 </v>
[...]
       <r>    -1.8681    -0.4435    47.9447 </r>
       <r>    -1.8185    -0.3177    47.9290 </r>
       <r>    -1.7690     0.3267    47.9452 </r>
       <r>    -1.7194     1.7193    48.0304 </r>
       <r>    -1.6699     3.8071    48.2190 </r>
       <r>    -1.6204     6.1352    48.5230 </r>
       <r>    -1.5708     8.0142    48.9200 </r>
       <r>    -1.5213     8.9234    49.3621 </r>
       <r>    -1.4717     8.8373    49.8000 </r>
       <r>    -1.4222     8.1845    50.2055 </r>
       <r>    -1.3726     7.4782    50.5760 </r>
       <r>    -1.3231     6.9477    50.9202 </r>
       <r>    -1.2735     6.4541    51.2399 </r>
       <r>    -1.2240     5.6963    51.5222 </r>
       <r>    -1.1745     4.5043    51.7453 </r>
       <r>    -1.1249     3.0102    51.8945 </r>
       <r>    -1.0754     1.6107    51.9743 </r>
       <r>    -1.0258     0.7649    52.0122 </r>
       <r>    -0.9763     0.7504    52.0493 </r>
       <r>    -0.9267     1.5029    52.1238 </r>
       <r>    -0.8772     2.6285    52.2540 </r>
       <r>    -0.8276     3.6103    52.4329 </r>
       <r>    -0.7781     4.1103    52.6365 </r>
       <r>    -0.7286     4.1562    52.8425 </r>
       <r>    -0.6790     4.0448    53.0429 </r>
       <r>    -0.6295     4.0434    53.2432 </r>
       <r>    -0.5799     4.1845    53.4505 </r>
       <r>    -0.5304     4.3392    53.6655 </r>
       <r>    -0.4808     4.4301    53.8850 </r>
       <r>    -0.4313     4.4938    54.1076 </r>
       <r>    -0.3817     4.5312    54.3321 </r>
       <r>    -0.3322     4.3799    54.5491 </r>
       <r>    -0.2827     3.8174    54.7382 </r>
       <r>    -0.2331     2.8092    54.8774 </r>
       <r>    -0.1836     1.6348    54.9584 </r>
       <r>    -0.1340     0.7639    54.9963 </r>
       <r>    -0.0845     0.5916    55.0256 </r>
       <r>    -0.0349     1.2170    55.0859 </r>
       <r>     0.0146     2.3694    55.2033 </r>
       <r>     0.0642     3.5115    55.3772 </r>
       <r>     0.1137     4.0938    55.5801 </r>
       <r>     0.1632     3.8437    55.7705 </r>
       <r>     0.2128     2.9017    55.9143 </r>
       <r>     0.2623     1.6984    55.9984 </r>
       <r>     0.3119     0.6720    56.0317 </r>
       <r>     0.3614     0.0463    56.0340 </r>
       <r>     0.4110    -0.1995    56.0241 </r>
       <r>     0.4605    -0.2145    56.0135 </r>
       <r>     0.5101    -0.1455    56.0063 </r>
       <r>     0.5596    -0.0764    56.0025 </r>
       <r>     0.6091    -0.0330    56.0008 </r>
       <r>     0.6587    -0.0120    56.0003 </r>
       <r>     0.7082    -0.0038    56.0001 </r>
       <r>     0.7578    -0.0010    56.0000 </r>
       <r>     0.8073    -0.0002    56.0000 </r>
       <r>     0.8569    -0.0000    56.0000 </r>
       <r>     0.9064    -0.0000    56.0000 </r>
       <r>     0.9560    -0.0000    56.0000 </r>
       <r>     1.0055    -0.0000    56.0000 </r>
       <r>     1.0550    -0.0000    56.0000 </r>
       <r>     1.1046    -0.0000    56.0000 </r>
       <r>     1.1541    -0.0000    56.0000 </r>
       <r>     1.2037    -0.0000    56.0000 </r>
       <r>     1.2532    -0.0000    56.0000 </r>
       <r>     1.3028    -0.0000    56.0000 </r>
       <r>     1.3523    -0.0000    56.0000 </r>
       <r>     1.4019     0.0000    56.0000 </r>
       <r>     1.4514     0.0000    56.0000 </r>
       <r>     1.5009     0.0000    56.0000 </r>
       <r>     1.5505     0.0000    56.0000 </r>
       <r>     1.6000     0.0000    56.0000 </r>
       <r>     1.6496     0.0000    56.0000 </r>
       <r>     1.6991     0.0000    56.0000 </r>
       <r>     1.7487     0.0000    56.0000 </r>
       <r>     1.7982     0.0000    56.0000 </r>
       <r>     1.8478     0.0000    56.0000 </r>
       <r>     1.8973     0.0000    56.0000 </r>
       <r>     1.9468     0.0000    56.0000 </r>
       <r>     1.9964     0.0000    56.0000 </r>
       <r>     2.0459     0.0000    56.0000 </r>
       <r>     2.0955     0.0000    56.0000 </r>
      </set>
      <set comment="spin 2">
       <r>   -12.7679     0.0000     0.0000 </r>
       <r>   -12.7183     0.0000     0.0000 </r>
       <r>   -12.6688     0.0000     0.0000 </r>
       <r>   -12.6192     0.0000     0.0000 </r>
       <r>   -12.5697     0.0000     0.0000 </r>
       <r>   -12.5201     0.0000     0.0000 </r>
       <r>   -12.4706     0.0000     0.0000 </r>
       <r>   -12.4210     0.0000     0.0000 </r>
       <r>   -12.3715    -0.0000    -0.0000 </r>
       <r>   -12.3220    -0.0000    -0.0000 </r>
       <r>   -12.2724    -0.0000    -0.0000 </r>
       <r>   -12.2229    -0.0000    -0.0000 </r>
       <r>   -12.1733    -0.0000    -0.0000 </r>
       <r>   -12.1238    -0.0000    -0.0000 </r>
       <r>   -12.0742    -0.0000    -0.0000 </r>
       <r>   -12.0247    -0.0000    -0.0000 </r>
       <r>   -11.9751    -0.0000    -0.0000 </r>
       <r>   -11.9256    -0.0000    -0.0000 </r>
       <r>   -11.8761    -0.0000    -0.0000 </r>
       <r>   -11.8265    -0.0000    -0.0000 </r>
       <r>   -11.7770    -0.0000    -0.0000 </r>
       <r>   -11.7274    -0.0000    -0.0000 </r>
       <r>   -11.6779    -0.0000    -0.0000 </r>
       <r>   -11.6283    -0.0000    -0.0000 </r>
       <r>   -11.5788    -0.0000    -0.0000 </r>
       <r>   -11.5292    -0.0000    -0.0000 </r>
       <r>   -11.4797    -0.0000    -0.0000 </r>
       <r>   -11.4302    -0.0002    -0.0000 </r>
       <r>   -11.3806    -0.0010    -0.0001 </r>
       <r>   -11.3311    -0.0038    -0.0003 </r>
       <r>   -11.2815    -0.0121    -0.0008 </r>
       <r>   -11.2320    -0.0330    -0.0025 </r>
       <r>   -11.1824    -0.0764    -0.0063 </r>
       <r>   -11.1329    -0.1455    -0.0135 </r>
       <r>   -11.0833    -0.2145    -0.0241 </r>
       <r>   -11.0338    -0.1995    -0.0340 </r>
       <r>   -10.9843     0.0467    -0.0317 </r>
       <r>   -10.9347     0.6736     0.0017 </r>
       <r>   -10.8852     1.7038     0.0861 </r>
       <r>   -10.8356     2.9181     0.2307 </r>
       <r>   -10.7861     3.8865     0.4232 </r>
       <r>   -10.7365     4.1878     0.6307 </r>
       <r>   -10.6870     3.6797     0.8130 </r>
       <r>   -10.6374     2.5958     0.9416 </r>
       <r>   -10.5879     1.3833     1.0102 </r>
       <r>   -10.5384     0.4227     1.0311 </r>
       <r>   -10.4888    -0.1450     1.0239 </r>
       <r>   -10.4393    -0.3880     1.0047 </r>
       <r>   -10.3897    -0.4266     0.9836 </r>
       <r>   -10.3402    -0.2921     0.9691 </r>
       <r>   -10.2906     0.1011     0.9741 </r>
       <r>   -10.2411     0.8560     1.0165 </r>
       <r>   -10.1915     1.9306     1.1122 </r>
       <r>   -10.1420     3.0530     1.2634 </r>
       <r>   -10.0925     3.8328     1.4533 </r>
       <r>   -10.0429     4.0356     1.6533 </r>
       <r>    -9.9934     3.7880     1.8409 </r>
       <r>    -9.9438     3.4885     2.0138 </r>
       <r>    -9.8943     3.4608     2.1852 </r>
       <r>    -9.8447     3.6728     2.3672 </r>
       <r>    -9.7952     3.8064     2.5558 </r>
       <r>    -9.7456     3.6156     2.7349 </r>
       <r>    -9.6961     3.2040     2.8937 </r>
       <r>    -9.6466     2.9423     3.0394 </r>
       <r>    -9.5970     3.1220     3.1941 </r>
       <r>    -9.5475     3.7073     3.3778 </r>
       <r>    -9.4979     4.4066     3.5961 </r>
       <r>    -9.4484     4.9281     3.8403 </r>
       <r>    -9.3988     5.1260     4.0942 </r>
       <r>    -9.3493     4.9420     4.3391 </r>
       <r>    -9.2997     4.3347     4.5539 </r>
       <r>    -9.2502     3.3782     4.7212 </r>
       <r>    -9.2007     2.4401     4.8421 </r>
       <r>    -9.1511     2.1641     4.9493 </r>
       <r>    -9.1016     3.1294     5.1044 </r>
       <r>    -9.0520     5.3835     5.3711 </r>
       <r>    -9.0025     8.2248     5.7786 </r>
       <r>    -8.9529    10.4840     6.2980 </r>
       <r>    -8.9034    11.1875     6.8523 </r>
       <r>    -8.8538    10.1570     7.3555 </r>
       <r>    -8.8043     8.1000     7.7568 </r>
       <r>    -8.7548     6.1280     8.0604 </r>
       <r>    -8.7052     5.0919     8.3127 </r>
       <r>    -8.6557     5.2135     8.5710 </r>
       <r>    -8.6061     6.1691     8.8767 </r>
       <r>    -8.5566     7.4035     9.2435 </r>
       <r>    -8.5070     8.3965     9.6595 </r>
       <r>    -8.4575     8.8035    10.0956 </r>
       <r>    -8.4079     8.5280    10.5181 </r>
       <r>    -8.3584     7.7413    10.9017 </r>
       <r>    -8.3089     6.8102    11.2391 </r>
       <r>    -8.2593     6.1464    11.5436 </r>
       <r>    -8.2098     6.0401    11.8428 </r>
       <r>    -8.1602     6.5283    12.1663 </r>
       <r>    -8.1107     7.3530    12.5306 </r>
       <r>    -8.0611     8.0955    12.9317 </r>
       <r>    -8.0116     8.4680    13.3512 </r>
       <r>    -7.9620     8.5428    13.7745 </r>
       <r>    -7.9125     8.6855    14.2048 </r>
       <r>    -7.8630     9.2573    14.6634 </r>
       <r>    -7.8134    10.3825    15.1778 </r>
       <r>    -7.7639    11.9329    15.7690 </r>
       <r>    -7.7143    13.5916    16.4424 </r>
       <r>    -7.6648    14.8787    17.1796 </r>
       <r>    -7.6152    15.2651    17.9359 </r>
       <r>    -7.5657    14.5119    18.6549 </r>
       <r>    -7.5161    13.0241    19.3001 </r>
       <r>    -7.4666    11.7836    19.8839 </r>
       <r>    -7.4171    11.7311    20.4652 </r>
       <r>    -7.3675    13.0362    21.1110 </r>
       <r>    -7.3180    14.8945    21.8490 </r>
       <r>    -7.2684    16.0558    22.6444 </r>
       <r>    -7.2189    15.6632    23.4205 </r>
       <r>    -7.1693    13.7611    24.1023 </r>
       <r>    -7.1198    11.1799    24.6562 </r>
       <r>    -7.0702     9.0094    25.1025 </r>
       <r>    -7.0207     8.0748    25.5026 </r>
       <r>    -6.9712     8.6704    25.9322 </r>
       <r>    -6.9216    10.5710    26.4559 </r>
       <r>    -6.8721    13.2269    27.1112 </r>
       <r>    -6.8225    16.0246    27.9051 </r>
       <r>    -6.7730    18.4670    28.8201 </r>
       <r>    -6.7234    20.1788    29.8198 </r>
       <r>    -6.6739    20.8294    30.8518 </r>
       <r>    -6.6243    20.1852    31.8519 </r>
       <r>    -6.5748    18.3364    32.7603 </r>
       <r>    -6.5253    15.8419    33.5452 </r>
       <r>    -6.4757    13.5350    34.2158 </r>
       <r>    -6.4262    12.0830    34.8144 </r>
       <r>    -6.3766    11.6691    35.3926 </r>
       <r>    -6.3271    12.0206    35.9881 </r>
       <r>    -6.2775    12.6587    36.6153 </r>
       <r>    -6.2280    13.1392    37.2663 </r>
       <r>    -6.1784    13.2063    37.9206 </r>
       <r>    -6.1289    12.9016    38.5598 </r>
       <r>    -6.0794    12.5693    39.1825 </r>
       <r>    -6.0298    12.6247    39.8080 </r>
       <r>    -5.9803    13.1444    40.4592 </r>
       <r>    -5.9307    13.6217    41.1341 </r>
       <r>    -5.8812    13.2126    41.7887 </r>
       <r>    -5.8316    11.3600    42.3515 </r>
       <r>    -5.7821     8.2687    42.7612 </r>
       <r>    -5.7325     4.8045    42.9993 </r>
       <r>    -5.6830     1.9235    43.0946 </r>
       <r>    -5.6335     0.1341    43.1012 </r>
       <r>    -5.5839    -0.6302    43.0700 </r>
       <r>    -5.5344    -0.7630    43.0322 </r>
       <r>    -5.4848    -0.6492    43.0000 </r>
       <r>    -5.4353    -0.4670    42.9769 </r>
       <r>    -5.3857    -0.1694    42.9685 </r>
       <r>    -5.3362     0.4057    42.9886 </r>
       <r>    -5.2866     1.3588    43.0559 </r>
       <r>    -5.2371     2.5676    43.1831 </r>
       <r>    -5.1876     3.6592    43.3644 </r>
       <r>    -5.1380     4.1850    43.5717 </r>
       <r>    -5.0885     3.9031    43.7651 </r>
       <r>    -5.0389     2.9465    43.9111 </r>
       <r>    -4.9894     1.7325    43.9969 </r>
       <r>    -4.9398     0.6941    44.0313 </r>
       <r>    -4.8903     0.0569    44.0341 </r>
       <r>    -4.8407    -0.1969    44.0244 </r>
       <r>    -4.7912    -0.2156    44.0137 </r>
       <r>    -4.7417    -0.1474    44.0064 </r>
       <r>    -4.6921    -0.0778    44.0025 </r>
       <r>    -4.6426    -0.0338    44.0009 </r>
       <r>    -4.5930    -0.0125    44.0003 </r>
       <r>    -4.5435    -0.0045    44.0000 </r>
       <r>    -4.4939    -0.0034    43.9999 </r>
       <r>    -4.4444    -0.0081    43.9995 </r>
       <r>    -4.3948    -0.0229    43.9983 </r>
       <r>    -4.3453    -0.0567    43.9955 </r>
       <r>    -4.2958    -0.1173    43.9897 </r>
       <r>    -4.2462    -0.1947    43.9801 </r>
       <r>    -4.1967    -0.2335    43.9685 </r>
       <r>    -4.1471    -0.1149    43.9628 </r>
       <r>    -4.0976     0.3110    43.9782 </r>
       <r>    -4.0480     1.1234    44.0339 </r>
       <r>    -3.9985     2.2124    44.1435 </r>
       <r>    -3.9489     3.2682    44.3054 </r>
       <r>    -3.8994     3.9549    44.5013 </r>
       <r>    -3.8499     4.1661    44.7078 </r>
       <r>    -3.8003     4.1383    44.9128 </r>
       <r>    -3.7508     4.2963    45.1256 </r>
       <r>    -3.7012     4.9610    45.3714 </r>
       <r>    -3.6517     6.1518    45.6762 </r>
       <r>    -3.6021     7.5800    46.0518 </r>
       <r>    -3.5526     8.7610    46.4858 </r>
       <r>    -3.5030     9.1780    46.9405 </r>
       <r>    -3.4535     8.4981    47.3616 </r>
       <r>    -3.4040     6.7770    47.6973 </r>
       <r>    -3.3544     4.4883    47.9197 </r>
       <r>    -3.3049     2.2929    48.0333 </r>
       <r>    -3.2553     0.6963    48.0678 </r>
       <r>    -3.2058    -0.1536    48.0602 </r>
       <r>    -3.1562    -0.4175    48.0395 </r>
       <r>    -3.1067    -0.3704    48.0212 </r>
       <r>    -3.0571    -0.2336    48.0096 </r>
       <r>    -3.0076    -0.1181    48.0037 </r>
       <r>    -2.9581    -0.0499    48.0013 </r>
       <r>    -2.9085    -0.0180    48.0004 </r>
       <r>    -2.8590    -0.0056    48.0001 </r>
       <r>    -2.8094    -0.0015    48.0000 </r>
       <r>    -2.7599    -0.0004    48.0000 </r>
       <r>    -2.7103    -0.0001    48.0000 </r>
       <r>    -2.6608    -0.0000    48.0000 </r>
       <r>    -2.6112    -0.0000    48.0000 </r>
       <r>    -2.5617    -0.0000    48.0000 </r>
       <r>    -2.5122    -0.0000    48.0000 </r>
       <r>    -2.4626    -0.0000    48.0000 </r>
       <r>    -2.4131    -0.0000    48.0000 </r>
       <r>    -2.3635    -0.0000    48.0000 </r>
       <r>    -2.3140    -0.0000    48.0000 </r>
       <r>    -2.2644    -0.0002    48.0000 </r>
       <r>    -2.2149    -0.0009    47.9999 </r>
       <r>    -2.1653    -0.0035    47.9998 </r>
       <r>    -2.1158    -0.0119    47.9992 </r>
       <r>    -2.0663    -0.0354    47.9974 </r>
       <r>    -2.0167    -0.0901    47.9930 </r>
       <r>    -1.9672    -0.1930    47.9834 </r>
       <r>    -1.9176    -0.3370    47.9667 </r>
       <r>    -1.8681    -0.4435    47.9447 </r>
       <r>    -1.8185    -0.3177    47.9290 </r>
       <r>    -1.7690     0.3267    47.9452 </r>
       <r>    -1.7194     1.7193    48.0304 </r>
       <r>    -1.6699     3.8071    48.2190 </r>
       <r>    -1.6204     6.1352    48.5230 </r>
       <r>    -1.5708     8.0142    48.9200 </r>
       <r>    -1.5213     8.9234    49.3621 </r>
       <r>    -1.4717     8.8373    49.8000 </r>
       <r>    -1.4222     8.1845    50.2055 </r>
       <r>    -1.3726     7.4782    50.5760 </r>
       <r>    -1.3231     6.9477    50.9202 </r>
       <r>    -1.2735     6.4541    51.2399 </r>
       <r>    -1.2240     5.6963    51.5222 </r>
       <r>    -1.1745     4.5043    51.7453 </r>
       <r>    -1.1249     3.0102    51.8945 </r>
       <r>    -1.0754     1.6107    51.9743 </r>
       <r>    -1.0258     0.7649    52.0122 </r>
       <r>    -0.9763     0.7504    52.0493 </r>
       <r>    -0.9267     1.5029    52.1238 </r>
       <r>    -0.8772     2.6285    52.2540 </r>
       <r>    -0.8276     3.6103    52.4329 </r>
       <r>    -0.7781     4.1103    52.6365 </r>
       <r>    -0.7286     4.1562    52.8425 </r>
       <r>    -0.6790     4.0448    53.0429 </r>
       <r>    -0.6295     4.0434    53.2432 </r>
       <r>    -0.5799     4.1845    53.4505 </r>
       <r>    -0.5304     4.3392    53.6655 </r>
       <r>    -0.4808     4.4301    53.8850 </r>
       <r>    -0.4313     4.4938    54.1076 </r>
       <r>    -0.3817     4.5312    54.3321 </r>
       <r>    -0.3322     4.3799    54.5491 </r>
       <r>    -0.2827     3.8174    54.7382 </r>
       <r>    -0.2331     2.8093    54.8774 </r>
       <r>    -0.1836     1.6348    54.9584 </r>
       <r>    -0.1340     0.7639    54.9963 </r>
       <r>    -0.0845     0.5916    55.0256 </r>
       <r>    -0.0349     1.2169    55.0859 </r>
       <r>     0.0146     2.3693    55.2033 </r>
       <r>     0.0642     3.5114    55.3772 </r>
       <r>     0.1137     4.0938    55.5800 </r>
       <r>     0.1632     3.8438    55.7705 </r>
       <r>     0.2128     2.9018    55.9143 </r>
       <r>     0.2623     1.6985    55.9984 </r>
       <r>     0.3119     0.6721    56.0317 </r>
       <r>     0.3614     0.0463    56.0340 </r>
       <r>     0.4110    -0.1995    56.0241 </r>
       <r>     0.4605    -0.2145    56.0135 </r>
       <r>     0.5101    -0.1455    56.0063 </r>
       <r>     0.5596    -0.0764    56.0025 </r>
       <r>     0.6091    -0.0330    56.0008 </r>
       <r>     0.6587    -0.0121    56.0003 </r>
       <r>     0.7082    -0.0038    56.0001 </r>
       <r>     0.7578    -0.0010    56.0000 </r>
       <r>     0.8073    -0.0002    56.0000 </r>
       <r>     0.8569    -0.0000    56.0000 </r>
       <r>     0.9064    -0.0000    56.0000 </r>
       <r>     0.9560    -0.0000    56.0000 </r>
       <r>     1.0055    -0.0000    56.0000 </r>
       <r>     1.0550    -0.0000    56.0000 </r>
       <r>     1.1046    -0.0000    56.0000 </r>
       <r>     1.1541    -0.0000    56.0000 </r>
       <r>     1.2037    -0.0000    56.0000 </r>
       <r>     1.2532    -0.0000    56.0000 </r>
       <r>     1.3028    -0.0000    56.0000 </r>
       <r>     1.3523    -0.0000    56.0000 </r>
       <r>     1.4019     0.0000    56.0000 </r>
       <r>     1.4514     0.0000    56.0000 </r>
       <r>     1.5009     0.0000    56.0000 </r>
       <r>     1.5505     0.0000    56.0000 </r>
       <r>     1.6000     0.0000    56.0000 </r>
       <r>     1.6496     0.0000    56.0000 </r>
       <r>     1.6991     0.0000    56.0000 </r>
       <r>     1.7487     0.0000    56.0000 </r>
       <r>     1.7982     0.0000    56.0000 </r>
       <r>     1.8478     0.0000    56.0000 </r>
       <r>     1.8973     0.0000    56.0000 </r>
       <r>     1.9468     0.0000    56.0000 </r>
       <r>     1.9964     0.0000    56.0000 </r>
       <r>     2.0459     0.0000    56.0000 </r>
       <r>     2.0955     0.0000    56.0000 </r>
      </set>
     </set>
    </array>
   </total>
  </dos>
 </calculation>
 <structure name="finalpos" >
  <crystal>
   <varray name="basis" >
    <v>      21.61720857       0.00000000       0.00000000 </v>
    <v>       0.00000000      22.65702511       0.00000000 </v>
    <v>       0.00000000       0.00000000      22.71112642 </v>
   </varray>
   <i name="volume">  11123.49268554 </i>
   <varray name="rec_basis" >
    <v>       0.04625944       0.00000000       0.00000000 </v>
    <v>       0.00000000       0.04413642       0.00000000 </v>
    <v>       0.00000000       0.00000000       0.04403128 </v>
   </varray>
  </crystal>
  <varray name="positions" >
   <v>       0.42641482       0.49160047       0.56831188 </v>
   <v>       0.49207401       0.52325416       0.37846687 </v>
   <v>       0.60110728       0.49179018       0.44826260 </v>
   <v>       0.48649648       0.44628015       0.46951182 </v>
   <v>       0.54444688       0.53974332       0.53798529 </v>
   <v>       0.43215866       0.56633825       0.46897222 </v>
   <v>       0.45130885       0.60632252       0.58088417 </v>
   <v>       0.41966612       0.37969056       0.54084216 </v>
  </varray>
 </structure>
</modeling>
