unknown system                          
            1
    21.617209    0.000000    0.000000
     0.000000   22.657025    0.000000
     0.000000    0.000000   22.711126
   Au
     8
Direct configuration=     1
   0.45910116  0.49216048  0.52810666
   0.47393071  0.50947539  0.40971390
   0.57159492  0.48535273  0.47223867
   0.49026921  0.40127408  0.45043858
   0.54753490  0.57888544  0.53496319
   0.44638185  0.60065109  0.47444443
   0.44289179  0.59295395  0.58700165
   0.42196857  0.38426646  0.53632992
Direct configuration=     2
   0.45809395  0.49196743  0.52961373
   0.47172300  0.51073666  0.40557798
   0.57666226  0.48478784  0.47286658
   0.49160217  0.39997885  0.44809760
   0.55222399  0.57912190  0.53615585
   0.44343767  0.60261012  0.47079994
   0.44071056  0.59328916  0.59070539
   0.41921949  0.38252766  0.53941992
Direct configuration=     3
   0.45792110  0.49193429  0.52987237
   0.47134412  0.51095311  0.40486819
   0.57753190  0.48469090  0.47297434
   0.49183093  0.39975657  0.44769585
   0.55302871  0.57916248  0.53636053
   0.44293241  0.60294632  0.47017449
   0.44033623  0.59334669  0.59134101
   0.41874771  0.38222925  0.53995021
Direct configuration=     4
   0.45828197  0.49235261  0.52951347
   0.47104477  0.51101935  0.40408473
   0.57845674  0.48444181  0.47297968
   0.49150618  0.40054863  0.44838079
   0.55294339  0.57885365  0.53696118
   0.44224600  0.60286614  0.47030343
   0.44062796  0.59280020  0.59082122
   0.41856610  0.38213725  0.54019249
Direct configuration=     5
   0.45920644  0.49342424  0.52859405
   0.47027790  0.51118905  0.40207767
   0.58082599  0.48380369  0.47299335
   0.49067426  0.40257771  0.45013546
   0.55272481  0.57806248  0.53849991
   0.44048755  0.60266071  0.47063374
   0.44137531  0.59140019  0.58948964
   0.41810083  0.38190155  0.54081317
Direct configuration=     6
   0.45956586  0.49279467  0.52778402
   0.47015562  0.51155418  0.40143590
   0.58164386  0.48388935  0.47294749
   0.49034635  0.40376198  0.45099495
   0.55300775  0.57731944  0.53881700
   0.43980526  0.60219356  0.47038674
   0.44125575  0.59129059  0.58961153
   0.41789265  0.38221585  0.54125938
Direct configuration=     7
   0.45995154  0.49211909  0.52691477
   0.47002440  0.51194600  0.40074722
   0.58252151  0.48398127  0.47289828
   0.48999448  0.40503281  0.45191725
   0.55331137  0.57652210  0.53915726
   0.43907310  0.60169227  0.47012169
   0.44112746  0.59117297  0.58974232
   0.41766924  0.38255311  0.54173820
Direct configuration=     8
   0.45993140  0.49226325  0.52689033
   0.47021897  0.51246987  0.40028427
   0.58306761  0.48432176  0.47265260
   0.49010180  0.40541889  0.45193761
   0.55339808  0.57577038  0.53918994
   0.43876825  0.60100030  0.47002319
   0.44097217  0.59106507  0.58980775
   0.41721483  0.38271010  0.54245130
Direct configuration=     9
   0.45989560  0.49251943  0.52684691
   0.47056472  0.51340080  0.39946161
   0.58403803  0.48492680  0.47221603
   0.49029251  0.40610496  0.45197378
   0.55355216  0.57443458  0.53924802
   0.43822654  0.59977066  0.46984815
   0.44069620  0.59087332  0.58992401
   0.41640735  0.38298907  0.54371849
Direct configuration=    10
   0.45951012  0.49234905  0.52714134
   0.47122292  0.51371528  0.39862379
   0.58473357  0.48508146  0.47139754
   0.49018457  0.40650661  0.45228016
   0.55342770  0.57382203  0.53955729
   0.43777447  0.59913485  0.47006953
   0.44058351  0.59080651  0.58992814
   0.41623623  0.38360383  0.54423920
Direct configuration=    11
   0.45836625  0.49184347  0.52801503
   0.47317604  0.51464844  0.39613766
   0.58679752  0.48554038  0.46896875
   0.48986427  0.40769848  0.45318933
   0.55305841  0.57200436  0.54047501
   0.43643303  0.59724816  0.47072643
   0.44024912  0.59060826  0.58994041
   0.41572846  0.38542807  0.54578438
Direct configuration=    12
   0.45860704  0.49194990  0.52783112
   0.47276490  0.51445201  0.39666100
   0.58636305  0.48544378  0.46948002
   0.48993169  0.40744759  0.45299794
   0.55313614  0.57238699  0.54028183
   0.43671541  0.59764532  0.47058815
   0.44031951  0.59064999  0.58993783
   0.41583535  0.38504405  0.54545911
Direct configuration=    13
   0.45833656  0.49236062  0.52825255
   0.47399106  0.51447178  0.39630187
   0.58635382  0.48572446  0.46832570
   0.48973078  0.40805590  0.45341694
   0.55289426  0.57153785  0.54049794
   0.43633920  0.59685064  0.47058870
   0.44025537  0.59092057  0.59019979
   0.41577205  0.38509779  0.54565351
Direct configuration=    14
   0.45752512  0.49359279  0.52951687
   0.47766953  0.51453112  0.39522448
   0.58632615  0.48656653  0.46486273
   0.48912805  0.40988083  0.45467392
   0.55216860  0.56899045  0.54114627
   0.43521056  0.59446661  0.47059034
   0.44006296  0.59173229  0.59098568
   0.41558213  0.38525900  0.54623671
Direct configuration=    15
   0.45775502  0.49324368  0.52915865
   0.47662732  0.51451431  0.39552973
   0.58633399  0.48632795  0.46584389
   0.48929882  0.40936377  0.45431778
   0.55237420  0.56971220  0.54096258
   0.43553034  0.59514207  0.47058987
   0.44011747  0.59150231  0.59076302
   0.41563594  0.38521333  0.54607147
Direct configuration=    16
   0.45739016  0.49307690  0.52953880
   0.47748335  0.51459015  0.39539224
   0.58626254  0.48661703  0.46507624
   0.48910267  0.40962475  0.45461276
   0.55242504  0.56926401  0.54111350
   0.43525309  0.59477637  0.47042425
   0.44010055  0.59188023  0.59097936
   0.41565570  0.38519018  0.54609986
Direct configuration=    17
   0.45629556  0.49257655  0.53067924
   0.48005143  0.51481768  0.39497978
   0.58604820  0.48748427  0.46277331
   0.48851421  0.41040767  0.45549767
   0.55257757  0.56791946  0.54156624
   0.43442137  0.59367926  0.46992737
   0.44004978  0.59301401  0.59162838
   0.41571499  0.38512072  0.54618501
Direct configuration=    18
   0.45652945  0.49268346  0.53043555
   0.47950269  0.51476906  0.39506791
   0.58609400  0.48729897  0.46326538
   0.48863995  0.41024038  0.45530859
   0.55254498  0.56820676  0.54146950
   0.43459908  0.59391368  0.47003354
   0.44006063  0.59277175  0.59148970
   0.41570233  0.38513556  0.54616681
Direct configuration=    19
   0.45599486  0.49268625  0.53110571
   0.48022228  0.51501342  0.39501631
   0.58607411  0.48770740  0.46264024
   0.48851377  0.41018574  0.45538762
   0.55264675  0.56787884  0.54165389
   0.43434226  0.59366787  0.46987191
   0.44028062  0.59315554  0.59133476
   0.41559844  0.38472457  0.54622657
Direct configuration=    20
   0.45439110  0.49269460  0.53311617
   0.48238105  0.51574649  0.39486151
   0.58601446  0.48893272  0.46076479
   0.48813522  0.41002182  0.45562471
   0.55295207  0.56689507  0.54220704
   0.43357179  0.59293045  0.46938701
   0.44094062  0.59430690  0.59086994
   0.41528680  0.38349158  0.54640583
Direct configuration=    21
   0.45364912  0.49220903  0.53381899
   0.48291422  0.51616897  0.39480780
   0.58618556  0.48942601  0.46029354
   0.48792029  0.41050463  0.45602068
   0.55301224  0.56634088  0.54247169
   0.43319817  0.59255823  0.46930324
   0.44156254  0.59508298  0.59020234
   0.41523097  0.38272888  0.54631872
Direct configuration=    22
   0.45153546  0.49082582  0.53582109
   0.48443303  0.51737250  0.39465479
   0.58667297  0.49083124  0.45895111
   0.48730802  0.41187999  0.45714869
   0.55318367  0.56476215  0.54322558
   0.43213386  0.59149790  0.46906459
   0.44333417  0.59729379  0.58830059
   0.41507192  0.38055622  0.54607057
Direct configuration=    23
   0.45215528  0.49123144  0.53523398
   0.48398764  0.51701957  0.39469966
   0.58653004  0.49041917  0.45934477
   0.48748757  0.41147667  0.45681790
   0.55313340  0.56522511  0.54300451
   0.43244597  0.59180884  0.46913457
   0.44281465  0.59664548  0.58885827
   0.41511856  0.38119335  0.54614334
Direct configuration=    24
   0.45146021  0.49154258  0.53606445
   0.48373635  0.51737804  0.39433265
   0.58727503  0.49050827  0.45941594
   0.48761335  0.41268964  0.45708317
   0.55300244  0.56413515  0.54320414
   0.43193505  0.59110813  0.46929628
   0.44356575  0.59763402  0.58791194
   0.41508492  0.38002378  0.54592843
Direct configuration=    25
   0.45062073  0.49191837  0.53706743
   0.48343284  0.51781097  0.39388941
   0.58817480  0.49061589  0.45950190
   0.48776526  0.41415459  0.45740354
   0.55284428  0.56281877  0.54344526
   0.43131799  0.59026185  0.46949157
   0.44447289  0.59882793  0.58676901
   0.41504430  0.37861125  0.54566889
Direct configuration=    26
   0.45086608  0.49180854  0.53677429
   0.48352155  0.51768444  0.39401895
   0.58791183  0.49058444  0.45947678
   0.48772086  0.41372643  0.45730990
   0.55289051  0.56320350  0.54337479
   0.43149833  0.59050919  0.46943449
   0.44420776  0.59847899  0.58710305
   0.41505617  0.37902408  0.54574474
Direct configuration=    27
   0.45020393  0.49157843  0.53741927
   0.48325841  0.51781331  0.39367220
   0.58851125  0.49043835  0.45951991
   0.48780227  0.41465874  0.45758626
   0.55296871  0.56240182  0.54348653
   0.43105921  0.59006788  0.46937294
   0.44454280  0.59942723  0.58682751
   0.41532652  0.37863387  0.54535237
Direct configuration=    28
   0.44821749  0.49088808  0.53935420
   0.48246898  0.51819990  0.39263194
   0.59030949  0.49000011  0.45964932
   0.48804649  0.41745565  0.45841534
   0.55320331  0.55999676  0.54382178
   0.42974187  0.58874394  0.46918829
   0.44554792  0.60227195  0.58600089
   0.41613756  0.37746322  0.54417524
Direct configuration=    29
   0.44715362  0.49110458  0.54064052
   0.48235259  0.51827334  0.39214004
   0.59101871  0.48967800  0.45941188
   0.48830331  0.41835413  0.45853378
   0.55300083  0.55903667  0.54405321
   0.42921608  0.58811075  0.46917386
   0.44601100  0.60323965  0.58569733
   0.41661695  0.37722250  0.54358638
Direct configuration=    30
   0.44396202  0.49175409  0.54449948
   0.48200343  0.51849367  0.39066433
   0.59314637  0.48871168  0.45869956
   0.48907377  0.42104957  0.45888913
   0.55239338  0.55615639  0.54474751
   0.42763874  0.58621117  0.46913057
   0.44740025  0.60614273  0.58478665
   0.41805514  0.37650032  0.54181978
Direct configuration=    31
   0.44317555  0.49191414  0.54545040
   0.48191739  0.51854796  0.39030068
   0.59367067  0.48847356  0.45852403
   0.48926363  0.42171378  0.45897669
   0.55224369  0.55544664  0.54491859
   0.42725005  0.58574307  0.46911990
   0.44774259  0.60685811  0.58456224
   0.41840954  0.37632236  0.54138446
Direct configuration=    32
   0.44185670  0.49204986  0.54697662
   0.48227764  0.51881913  0.38981217
   0.59409888  0.48850673  0.45808026
   0.48947659  0.42297691  0.45955537
   0.55148623  0.55408840  0.54472192
   0.42703679  0.58463538  0.46924904
   0.44843933  0.60726716  0.58399747
   0.41900094  0.37667604  0.54084414
Direct configuration=    33
   0.43790016  0.49245703  0.55155525
   0.48335841  0.51963266  0.38834665
   0.59538351  0.48860624  0.45674896
   0.49011549  0.42676630  0.46129140
   0.54921385  0.55001369  0.54413192
   0.42639701  0.58131230  0.46963647
   0.45052953  0.60849431  0.58230314
   0.42077515  0.37773709  0.53922320
Direct configuration=    34
   0.42998706  0.49327136  0.56071252
   0.48551993  0.52125971  0.38541560
   0.59795278  0.48880525  0.45408637
   0.49139327  0.43434508  0.46476347
   0.54466910  0.54186427  0.54295191
   0.42511745  0.57466615  0.47041134
   0.45470993  0.61094862  0.57891448
   0.42432358  0.37985918  0.53598131
Direct configuration=    35
   0.43335651  0.49292461  0.55681330
   0.48459954  0.52056690  0.38666366
   0.59685877  0.48872051  0.45522012
   0.49084918  0.43111799  0.46328504
   0.54660428  0.54533435  0.54345436
   0.42566229  0.57749612  0.47008139
   0.45292989  0.60990356  0.58035739
   0.42281264  0.37895558  0.53736173
Direct configuration=    36
   0.43283035  0.49294982  0.55740322
   0.48475783  0.52069628  0.38645597
   0.59707774  0.48877244  0.45502149
   0.49096766  0.43170080  0.46347659
   0.54635822  0.54477952  0.54332100
   0.42560551  0.57704644  0.47008840
   0.45315380  0.61006930  0.58019313
   0.42292199  0.37900502  0.53727721
Direct configuration=    37
   0.43125188  0.49302545  0.55917298
   0.48523268  0.52108440  0.38583291
   0.59773464  0.48892824  0.45442558
   0.49132307  0.43344925  0.46405124
   0.54562003  0.54311503  0.54292090
   0.42543518  0.57569739  0.47010943
   0.45382555  0.61056651  0.57970033
   0.42325006  0.37915335  0.53702363
Direct configuration=    38
   0.42809494  0.49317671  0.56271249
   0.48618239  0.52186065  0.38458678
   0.59904846  0.48923983  0.45323378
   0.49203391  0.43694615  0.46520053
   0.54414366  0.53978606  0.54212070
   0.42509452  0.57299928  0.47015148
   0.45516904  0.61156093  0.57871475
   0.42390619  0.37945001  0.53651649
Direct configuration=    39
   0.42178105  0.49347923  0.56979152
   0.48808181  0.52341314  0.38209452
   0.60167608  0.48986301  0.45085017
   0.49345558  0.44393995  0.46749913
   0.54119092  0.53312813  0.54052031
   0.42441319  0.56760306  0.47023558
   0.45785603  0.61354978  0.57674357
   0.42521845  0.38004332  0.53550220
Direct configuration=    40
   0.42659986  0.49324834  0.56438875
   0.48663216  0.52222827  0.38399663
   0.59967066  0.48938740  0.45266936
   0.49237055  0.43860223  0.46574482
   0.54344447  0.53820952  0.54174174
   0.42493318  0.57172150  0.47017140
   0.45580530  0.61203187  0.57824799
   0.42421692  0.37959050  0.53627631
Direct configuration=    41
   0.42634675  0.49324261  0.56464680
   0.48676451  0.52245059  0.38373333
   0.60019554  0.48958785  0.45239438
   0.49224912  0.43914781  0.46604205
   0.54326854  0.53779958  0.54153786
   0.42502785  0.57131815  0.47014388
   0.45582127  0.61194676  0.57820423
   0.42399952  0.37952626  0.53653447
Direct configuration=    42
   0.42558744  0.49322543  0.56542095
   0.48716157  0.52311755  0.38294345
   0.60177018  0.49018921  0.45156943
   0.49188484  0.44078455  0.46693375
   0.54274076  0.53656977  0.54092620
   0.42531185  0.57010811  0.47006132
   0.45586918  0.61169144  0.57807295
   0.42334729  0.37933356  0.53730895
Direct configuration=    43
   0.42406881  0.49319105  0.56696925
   0.48795567  0.52445148  0.38136367
   0.60491946  0.49139193  0.44991954
   0.49115628  0.44405804  0.46871714
   0.54168518  0.53411015  0.53970289
   0.42587986  0.56768804  0.46989620
   0.45596500  0.61118078  0.57781038
   0.42204284  0.37894815  0.53885791
Direct configuration=    44
   0.42410018  0.49299352  0.56690082
   0.48823190  0.52454013  0.38112526
   0.60479941  0.49160779  0.44986802
   0.49081613  0.44446152  0.46911446
   0.54192705  0.53415855  0.53932084
   0.42623092  0.56739608  0.46989901
   0.45570362  0.61039803  0.57782967
   0.42186390  0.37946402  0.53917892
Direct configuration=    45
   0.42419429  0.49240092  0.56669550
   0.48906057  0.52480608  0.38041002
   0.60443924  0.49225535  0.44971345
   0.48979571  0.44567195  0.47030641
   0.54265265  0.53430376  0.53817470
   0.42728409  0.56652017  0.46990745
   0.45491947  0.60804976  0.57788753
   0.42132708  0.38101164  0.54014193
Direct configuration=    46
   0.42419690  0.49250852  0.56688849
   0.48945521  0.52476861  0.38019147
   0.60424449  0.49233923  0.44942054
   0.48951879  0.44604954  0.47026592
   0.54305682  0.53481240  0.53808426
   0.42772238  0.56626594  0.46964499
   0.45452032  0.60718597  0.57818587
   0.42095821  0.38108941  0.54055545
Direct configuration=    47
   0.42420392  0.49279874  0.56740904
   0.49051967  0.52466756  0.37960196
   0.60371919  0.49256547  0.44863047
   0.48877186  0.44706803  0.47015671
   0.54414696  0.53618435  0.53784032
   0.42890457  0.56558022  0.46893707
   0.45344371  0.60485608  0.57899059
   0.41996323  0.38129917  0.54167084
Direct configuration=    48
   0.42420227  0.49273060  0.56728681
   0.49026973  0.52469128  0.37974038
   0.60384253  0.49251235  0.44881598
   0.48894724  0.44682889  0.47018235
   0.54389099  0.53586221  0.53789760
   0.42862699  0.56574123  0.46910330
   0.45369650  0.60540315  0.57880164
   0.42019686  0.38124992  0.54140894
Direct configuration=    49
   0.42412844  0.49252724  0.56758196
   0.49061969  0.52453124  0.37946197
   0.60373321  0.49238115  0.44845112
   0.48868934  0.44664990  0.47001123
   0.54420662  0.53640795  0.53814568
   0.42876531  0.56580392  0.46882867
   0.45344502  0.60574298  0.57934769
   0.42008547  0.38097524  0.54140866
Direct configuration=    50
   0.42403395  0.49226699  0.56795968
   0.49106754  0.52432643  0.37910570
   0.60359330  0.49221326  0.44798419
   0.48835931  0.44642084  0.46979225
   0.54461054  0.53710633  0.53846316
   0.42894232  0.56588415  0.46847724
   0.45312320  0.60617787  0.58004648
   0.41994294  0.38062374  0.54140830
Direct configuration=    51
   0.42432708  0.49235387  0.56798254
   0.49142595  0.52408090  0.37896278
   0.60306398  0.49212465  0.44791441
   0.48811212  0.44641140  0.46980841
   0.54461144  0.53751208  0.53844036
   0.42927455  0.56591866  0.46865020
   0.45289614  0.60626513  0.58025129
   0.41996184  0.38035292  0.54122700
Direct configuration=    52
   0.42520648  0.49261450  0.56805114
   0.49250117  0.52334432  0.37853404
   0.60147603  0.49185882  0.44770508
   0.48737057  0.44638309  0.46985689
   0.54461415  0.53872935  0.53837196
   0.43027123  0.56602217  0.46916907
   0.45221495  0.60652691  0.58086573
   0.42001853  0.37954046  0.54068310
Direct configuration=    53
   0.42554593  0.49232977  0.56800696
   0.49267889  0.52318581  0.37859014
   0.60099435  0.49181100  0.44771113
   0.48702708  0.44637510  0.46992172
   0.54456660  0.53911822  0.53829270
   0.43079179  0.56600536  0.46915332
   0.45200563  0.60662879  0.58101544
   0.42006284  0.37956556  0.54054559
Direct configuration=    54
   0.42591568  0.49201963  0.56795883
   0.49287247  0.52301316  0.37865124
   0.60046968  0.49175892  0.44771772
   0.48665295  0.44636639  0.46999235
   0.54451480  0.53954180  0.53820637
   0.43135880  0.56598705  0.46913617
   0.45177763  0.60673977  0.58117852
   0.42011110  0.37959290  0.54039580
Direct configuration=    55
   0.42600058  0.49191087  0.56803293
   0.49270862  0.52307624  0.37871127
   0.60058083  0.49177126  0.44778670
   0.48660743  0.44635944  0.46988010
   0.54447095  0.53963204  0.53819393
   0.43156422  0.56602373  0.46903764
   0.45172062  0.60662189  0.58109757
   0.42001985  0.37962413  0.54049687
Direct configuration=    56
   0.42609180  0.49179400  0.56811254
   0.49253257  0.52314403  0.37877578
   0.60070026  0.49178452  0.44786083
   0.48655853  0.44635199  0.46975949
   0.54442384  0.53972901  0.53818056
   0.43178493  0.56606315  0.46893176
   0.45165937  0.60649524  0.58101058
   0.41992181  0.37965768  0.54060547
Direct configuration=    57
   0.42615580  0.49177799  0.56816351
   0.49245620  0.52317316  0.37864350
   0.60079894  0.49180103  0.44797016
   0.48653866  0.44630521  0.46972296
   0.54445482  0.53971343  0.53811373
   0.43183344  0.56615410  0.46899903
   0.45157209  0.60644131  0.58096453
   0.41986315  0.37965336  0.54065958
Direct configuration=    58
   0.42622477  0.49176075  0.56821843
   0.49237390  0.52320456  0.37850097
   0.60090527  0.49181882  0.44808797
   0.48651726  0.44625481  0.46968361
   0.54448820  0.53969665  0.53804172
   0.43188571  0.56625211  0.46907150
   0.45147805  0.60638321  0.58091491
   0.41979994  0.37964871  0.54071790
Direct configuration=    59
   0.42633201  0.49167031  0.56827116
   0.49220468  0.52323255  0.37848172
   0.60101926  0.49180266  0.44818651
   0.48650553  0.44626911  0.46958667
   0.54446489  0.53972299  0.53800988
   0.43203972  0.56630071  0.46901548
   0.45138258  0.60634896  0.58089756
   0.41972443  0.37967232  0.54078802
Direct configuration=    60
   0.42641482  0.49160047  0.56831188
   0.49207401  0.52325416  0.37846687
   0.60110728  0.49179018  0.44826260
   0.48649648  0.44628015  0.46951182
   0.54444688  0.53974332  0.53798529
   0.43215866  0.56633825  0.46897222
   0.45130885  0.60632252  0.58088417
   0.41966612  0.37969056  0.54084216
