   8   8   0   0
  0.1522507E+04  0.2279513E-08  0.2190825E-08  0.2438932E-08  0.5000000E-15
   1.0000000000000000E-004
  CAR 
 unknown system                          
      2.04748130    -12.42285605  301     -5.08766393      1.00000000
    -12.423  0.0000E+00  0.0000E+00  0.0000E+00  0.0000E+00
    -12.375  0.0000E+00  0.0000E+00  0.0000E+00  0.0000E+00
    -12.326  0.0000E+00  0.0000E+00  0.0000E+00  0.0000E+00
    -12.278  0.0000E+00  0.0000E+00  0.0000E+00  0.0000E+00
    -12.230  0.0000E+00  0.0000E+00  0.0000E+00  0.0000E+00
    -12.182  0.0000E+00  0.0000E+00  0.0000E+00  0.0000E+00
    -12.133  0.0000E+00  0.0000E+00  0.0000E+00  0.0000E+00
    -12.085  0.0000E+00  0.0000E+00  0.0000E+00  0.0000E+00
    -12.037 -0.2433E-29 -0.2433E-29 -0.1174E-30 -0.1174E-30
    -11.989 -0.1068E-27 -0.1068E-27 -0.5269E-29 -0.5269E-29
    -11.941 -0.4252E-26 -0.4252E-26 -0.2104E-27 -0.2104E-27
    -11.892 -0.1505E-24 -0.1505E-24 -0.7470E-26 -0.7470E-26
    -11.844 -0.4735E-23 -0.4735E-23 -0.2358E-24 -0.2358E-24
    -11.796 -0.1324E-21 -0.1324E-21 -0.6621E-23 -0.6621E-23
    -11.748 -0.3289E-20 -0.3289E-20 -0.1653E-21 -0.1653E-21
    -11.699 -0.7260E-19 -0.7260E-19 -0.3667E-20 -0.3667E-20
    -11.651 -0.1423E-17 -0.1423E-17 -0.7233E-19 -0.7233E-19
    -11.603 -0.2364E-16 -0.2364E-16 -0.1212E-17 -0.1212E-17
    -11.555 -0.3717E-15 -0.3717E-15 -0.1914E-16 -0.1914E-16
    -11.506 -0.5083E-14 -0.5083E-14 -0.2643E-15 -0.2643E-15
    -11.458 -0.6169E-13 -0.6169E-13 -0.3240E-14 -0.3240E-14
    -11.410 -0.6639E-12 -0.6639E-12 -0.3526E-13 -0.3526E-13
    -11.362 -0.6331E-11 -0.6331E-11 -0.3406E-12 -0.3406E-12
    -11.313 -0.5346E-10 -0.5346E-10 -0.2919E-11 -0.2919E-11
    -11.265 -0.3994E-09 -0.3994E-09 -0.2218E-10 -0.2218E-10
    -11.217 -0.2638E-08 -0.2638E-08 -0.1494E-09 -0.1494E-09
    -11.169 -0.1538E-07 -0.1538E-07 -0.8913E-09 -0.8913E-09
    -11.121 -0.7904E-07 -0.7904E-07 -0.4704E-08 -0.4704E-08
    -11.072 -0.3574E-06 -0.3574E-06 -0.2194E-07 -0.2194E-07
    -11.024 -0.1417E-05 -0.1417E-05 -0.9031E-07 -0.9031E-07
    -10.976 -0.4913E-05 -0.4913E-05 -0.3273E-06 -0.3273E-06
    -10.928 -0.1480E-04 -0.1480E-04 -0.1041E-05 -0.1041E-05
    -10.879 -0.3842E-04 -0.3842E-04 -0.2894E-05 -0.2894E-05
    -10.831 -0.8470E-04 -0.8470E-04 -0.6980E-05 -0.6980E-05
    -10.783 -0.1544E-03 -0.1544E-03 -0.1443E-04 -0.1443E-04
    -10.735 -0.2185E-03 -0.2185E-03 -0.2496E-04 -0.2496E-04
    -10.686 -0.1932E-03 -0.1932E-03 -0.3429E-04 -0.3429E-04
    -10.638  0.6065E-04  0.6065E-04 -0.3136E-04 -0.3136E-04
    -10.590  0.6798E-03  0.6798E-03  0.1430E-05  0.1430E-05
    -10.542  0.1682E-02  0.1682E-02  0.8257E-04  0.8257E-04
    -10.493  0.2866E-02  0.2866E-02  0.2208E-03  0.2208E-03
    -10.445  0.3838E-02  0.3838E-02  0.4059E-03  0.4059E-03
    -10.397  0.4197E-02  0.4197E-02  0.6084E-03  0.6084E-03
    -10.349  0.3784E-02  0.3784E-02  0.7909E-03  0.7909E-03
    -10.301  0.2783E-02  0.2783E-02  0.9251E-03  0.9251E-03
    -10.252  0.1600E-02  0.1600E-02  0.1002E-02  0.1002E-02
    -10.204  0.6217E-03  0.6217E-03  0.1032E-02  0.1032E-02
    -10.156  0.3153E-04  0.3153E-04  0.1034E-02  0.1034E-02
    -10.108 -0.2008E-03 -0.2008E-03  0.1024E-02  0.1024E-02
    -10.059 -0.2155E-03 -0.2155E-03  0.1014E-02  0.1014E-02
    -10.011 -0.1490E-03 -0.1490E-03  0.1007E-02  0.1007E-02
     -9.963 -0.8050E-04 -0.8050E-04  0.1003E-02  0.1003E-02
     -9.915 -0.3606E-04 -0.3606E-04  0.1001E-02  0.1001E-02
     -9.866 -0.1374E-04 -0.1374E-04  0.1000E-02  0.1000E-02
     -9.818 -0.4514E-05 -0.4514E-05  0.1000E-02  0.1000E-02
     -9.770 -0.1290E-05 -0.1290E-05  0.1000E-02  0.1000E-02
     -9.722 -0.3221E-06 -0.3221E-06  0.1000E-02  0.1000E-02
     -9.673 -0.7059E-07 -0.7059E-07  0.1000E-02  0.1000E-02
     -9.625 -0.1363E-07 -0.1363E-07  0.1000E-02  0.1000E-02
     -9.577 -0.2524E-08 -0.2524E-08  0.1000E-02  0.1000E-02
     -9.529 -0.1891E-08 -0.1891E-08  0.1000E-02  0.1000E-02
     -9.481 -0.1005E-07 -0.1005E-07  0.1000E-02  0.1000E-02
     -9.432 -0.5723E-07 -0.5723E-07  0.1000E-02  0.1000E-02
     -9.384 -0.2886E-06 -0.2886E-06  0.1000E-02  0.1000E-02
     -9.336 -0.1281E-05 -0.1281E-05  0.9999E-03  0.9999E-03
     -9.288 -0.4985E-05 -0.4985E-05  0.9997E-03  0.9997E-03
     -9.239 -0.1696E-04 -0.1696E-04  0.9989E-03  0.9989E-03
     -9.191 -0.5009E-04 -0.5009E-04  0.9964E-03  0.9964E-03
     -9.143 -0.1274E-03 -0.1274E-03  0.9903E-03  0.9903E-03
     -9.095 -0.2747E-03 -0.2747E-03  0.9771E-03  0.9771E-03
     -9.046 -0.4873E-03 -0.4873E-03  0.9535E-03  0.9535E-03
     -8.998 -0.6630E-03 -0.6630E-03  0.9216E-03  0.9216E-03
     -8.950 -0.5303E-03 -0.5303E-03  0.8960E-03  0.8960E-03
     -8.902  0.3379E-03  0.3379E-03  0.9123E-03  0.9123E-03
     -8.854  0.2327E-02  0.2327E-02  0.1025E-02  0.1025E-02
     -8.805  0.5427E-02  0.5427E-02  0.1286E-02  0.1286E-02
     -8.757  0.8958E-02  0.8958E-02  0.1718E-02  0.1718E-02
     -8.709  0.1171E-01  0.1171E-01  0.2283E-02  0.2283E-02
     -8.661  0.1253E-01  0.1253E-01  0.2887E-02  0.2887E-02
     -8.612  0.1104E-01  0.1104E-01  0.3420E-02  0.3420E-02
     -8.564  0.7860E-02  0.7860E-02  0.3799E-02  0.3799E-02
     -8.516  0.4213E-02  0.4213E-02  0.4002E-02  0.4002E-02
     -8.468  0.1192E-02  0.1192E-02  0.4060E-02  0.4060E-02
     -8.419 -0.6530E-03 -0.6530E-03  0.4028E-02  0.4028E-02
     -8.371 -0.1235E-02 -0.1235E-02  0.3968E-02  0.3968E-02
     -8.323 -0.5842E-03 -0.5842E-03  0.3940E-02  0.3940E-02
     -8.275  0.1325E-02  0.1325E-02  0.4004E-02  0.4004E-02
     -8.226  0.4373E-02  0.4373E-02  0.4215E-02  0.4215E-02
     -8.178  0.7944E-02  0.7944E-02  0.4598E-02  0.4598E-02
     -8.130  0.1087E-01  0.1087E-01  0.5123E-02  0.5123E-02
     -8.082  0.1194E-01  0.1194E-01  0.5699E-02  0.5699E-02
     -8.034  0.1064E-01  0.1064E-01  0.6212E-02  0.6212E-02
     -7.985  0.7697E-02  0.7697E-02  0.6583E-02  0.6583E-02
     -7.937  0.4843E-02  0.4843E-02  0.6817E-02  0.6817E-02
     -7.889  0.3932E-02  0.3932E-02  0.7006E-02  0.7006E-02
     -7.841  0.5948E-02  0.5948E-02  0.7293E-02  0.7293E-02
     -7.792  0.1043E-01  0.1043E-01  0.7796E-02  0.7796E-02
     -7.744  0.1564E-01  0.1564E-01  0.8550E-02  0.8550E-02
     -7.696  0.1956E-01  0.1956E-01  0.9494E-02  0.9494E-02
     -7.648  0.2098E-01  0.2098E-01  0.1051E-01  0.1051E-01
     -7.599  0.2004E-01  0.2004E-01  0.1147E-01  0.1147E-01
     -7.551  0.1784E-01  0.1784E-01  0.1233E-01  0.1233E-01
     -7.503  0.1548E-01  0.1548E-01  0.1308E-01  0.1308E-01
     -7.455  0.1346E-01  0.1346E-01  0.1373E-01  0.1373E-01
     -7.406  0.1191E-01  0.1191E-01  0.1430E-01  0.1430E-01
     -7.358  0.1098E-01  0.1098E-01  0.1483E-01  0.1483E-01
     -7.310  0.1097E-01  0.1097E-01  0.1536E-01  0.1536E-01
     -7.262  0.1193E-01  0.1193E-01  0.1594E-01  0.1594E-01
     -7.214  0.1348E-01  0.1348E-01  0.1659E-01  0.1659E-01
     -7.165  0.1503E-01  0.1503E-01  0.1731E-01  0.1731E-01
     -7.117  0.1616E-01  0.1616E-01  0.1809E-01  0.1809E-01
     -7.069  0.1676E-01  0.1676E-01  0.1890E-01  0.1890E-01
     -7.021  0.1697E-01  0.1697E-01  0.1972E-01  0.1972E-01
     -6.972  0.1701E-01  0.1701E-01  0.2054E-01  0.2054E-01
     -6.924  0.1706E-01  0.1706E-01  0.2136E-01  0.2136E-01
     -6.876  0.1709E-01  0.1709E-01  0.2219E-01  0.2219E-01
     -6.828  0.1672E-01  0.1672E-01  0.2299E-01  0.2299E-01
     -6.779  0.1537E-01  0.1537E-01  0.2373E-01  0.2373E-01
     -6.731  0.1268E-01  0.1268E-01  0.2435E-01  0.2435E-01
     -6.683  0.8948E-02  0.8948E-02  0.2478E-01  0.2478E-01
     -6.635  0.5026E-02  0.5026E-02  0.2502E-01  0.2502E-01
     -6.586  0.1802E-02  0.1802E-02  0.2511E-01  0.2511E-01
     -6.538 -0.2895E-03 -0.2895E-03  0.2509E-01  0.2509E-01
     -6.490 -0.1352E-02 -0.1352E-02  0.2503E-01  0.2503E-01
     -6.442 -0.1704E-02 -0.1704E-02  0.2495E-01  0.2495E-01
     -6.394 -0.1456E-02 -0.1456E-02  0.2488E-01  0.2488E-01
     -6.345 -0.3003E-03 -0.3003E-03  0.2486E-01  0.2486E-01
     -6.297  0.2305E-02  0.2305E-02  0.2497E-01  0.2497E-01
     -6.249  0.6620E-02  0.6620E-02  0.2529E-01  0.2529E-01
     -6.201  0.1207E-01  0.1207E-01  0.2587E-01  0.2587E-01
     -6.152  0.1714E-01  0.1714E-01  0.2670E-01  0.2670E-01
     -6.104  0.1997E-01  0.1997E-01  0.2766E-01  0.2766E-01
     -6.056  0.1934E-01  0.1934E-01  0.2860E-01  0.2860E-01
     -6.008  0.1549E-01  0.1549E-01  0.2934E-01  0.2934E-01
     -5.959  0.9854E-02  0.9854E-02  0.2982E-01  0.2982E-01
     -5.911  0.4277E-02  0.4277E-02  0.3003E-01  0.3003E-01
     -5.863  0.7687E-04  0.7687E-04  0.3003E-01  0.3003E-01
     -5.815 -0.2159E-02 -0.2159E-02  0.2992E-01  0.2992E-01
     -5.767 -0.2179E-02 -0.2179E-02  0.2982E-01  0.2982E-01
     -5.718  0.3597E-03  0.3597E-03  0.2984E-01  0.2984E-01
     -5.670  0.5776E-02  0.5776E-02  0.3012E-01  0.3012E-01
     -5.622  0.1372E-01  0.1372E-01  0.3078E-01  0.3078E-01
     -5.574  0.2267E-01  0.2267E-01  0.3187E-01  0.3187E-01
     -5.525  0.3027E-01  0.3027E-01  0.3333E-01  0.3333E-01
     -5.477  0.3453E-01  0.3453E-01  0.3500E-01  0.3500E-01
     -5.429  0.3499E-01  0.3499E-01  0.3668E-01  0.3668E-01
     -5.381  0.3281E-01  0.3281E-01  0.3827E-01  0.3827E-01
     -5.332  0.2965E-01  0.2965E-01  0.3970E-01  0.3970E-01
     -5.284  0.2639E-01  0.2639E-01  0.4097E-01  0.4097E-01
     -5.236  0.2285E-01  0.2285E-01  0.4207E-01  0.4207E-01
     -5.188  0.1847E-01  0.1847E-01  0.4296E-01  0.4296E-01
     -5.139  0.1324E-01  0.1324E-01  0.4360E-01  0.4360E-01
     -5.091  0.7879E-02  0.7879E-02  0.4398E-01  0.4398E-01
     -5.043  0.3431E-02  0.3431E-02  0.4415E-01  0.4415E-01
     -4.995  0.5418E-03  0.5418E-03  0.4417E-01  0.4417E-01
     -4.947 -0.7966E-03 -0.7966E-03  0.4413E-01  0.4413E-01
     -4.898 -0.1062E-02 -0.1062E-02  0.4408E-01  0.4408E-01
     -4.850 -0.8279E-03 -0.8279E-03  0.4404E-01  0.4404E-01
     -4.802 -0.4960E-03 -0.4960E-03  0.4402E-01  0.4402E-01
     -4.754 -0.2453E-03 -0.2453E-03  0.4401E-01  0.4401E-01
     -4.705 -0.1031E-03 -0.1031E-03  0.4400E-01  0.4400E-01
     -4.657 -0.3739E-04 -0.3739E-04  0.4400E-01  0.4400E-01
     -4.609 -0.1180E-04 -0.1180E-04  0.4400E-01  0.4400E-01
     -4.561 -0.3256E-05 -0.3256E-05  0.4400E-01  0.4400E-01
     -4.512 -0.7891E-06 -0.7891E-06  0.4400E-01  0.4400E-01
     -4.464 -0.1683E-06 -0.1683E-06  0.4400E-01  0.4400E-01
     -4.416 -0.3167E-07 -0.3167E-07  0.4400E-01  0.4400E-01
     -4.368 -0.5263E-08 -0.5263E-08  0.4400E-01  0.4400E-01
     -4.319 -0.7735E-09 -0.7735E-09  0.4400E-01  0.4400E-01
     -4.271 -0.1006E-09 -0.1006E-09  0.4400E-01  0.4400E-01
     -4.223 -0.1164E-10 -0.1164E-10  0.4400E-01  0.4400E-01
     -4.175 -0.1692E-11 -0.1692E-11  0.4400E-01  0.4400E-01
     -4.127 -0.5024E-11 -0.5024E-11  0.4400E-01  0.4400E-01
     -4.078 -0.4211E-10 -0.4211E-10  0.4400E-01  0.4400E-01
     -4.030 -0.3190E-09 -0.3190E-09  0.4400E-01  0.4400E-01
     -3.982 -0.2137E-08 -0.2137E-08  0.4400E-01  0.4400E-01
     -3.934 -0.1264E-07 -0.1264E-07  0.4400E-01  0.4400E-01
     -3.885 -0.6593E-07 -0.6593E-07  0.4400E-01  0.4400E-01
     -3.837 -0.3026E-06 -0.3026E-06  0.4400E-01  0.4400E-01
     -3.789 -0.1219E-05 -0.1219E-05  0.4400E-01  0.4400E-01
     -3.741 -0.4293E-05 -0.4293E-05  0.4400E-01  0.4400E-01
     -3.692 -0.1316E-04 -0.1316E-04  0.4400E-01  0.4400E-01
     -3.644 -0.3481E-04 -0.3481E-04  0.4400E-01  0.4400E-01
     -3.596 -0.7855E-04 -0.7855E-04  0.4399E-01  0.4399E-01
     -3.548 -0.1478E-03 -0.1478E-03  0.4399E-01  0.4399E-01
     -3.499 -0.2212E-03 -0.2212E-03  0.4398E-01  0.4398E-01
     -3.451 -0.2293E-03 -0.2293E-03  0.4396E-01  0.4396E-01
     -3.403 -0.5319E-04 -0.5319E-04  0.4396E-01  0.4396E-01
     -3.355  0.4253E-03  0.4253E-03  0.4398E-01  0.4398E-01
     -3.307  0.1225E-02  0.1225E-02  0.4404E-01  0.4404E-01
     -3.258  0.2200E-02  0.2200E-02  0.4415E-01  0.4415E-01
     -3.210  0.3114E-02  0.3114E-02  0.4430E-01  0.4430E-01
     -3.162  0.3868E-02  0.3868E-02  0.4448E-01  0.4448E-01
     -3.114  0.4683E-02  0.4683E-02  0.4471E-01  0.4471E-01
     -3.065  0.5994E-02  0.5994E-02  0.4500E-01  0.4500E-01
     -3.017  0.8016E-02  0.8016E-02  0.4539E-01  0.4539E-01
     -2.969  0.1034E-01  0.1034E-01  0.4588E-01  0.4588E-01
     -2.921  0.1197E-01  0.1197E-01  0.4646E-01  0.4646E-01
     -2.872  0.1197E-01  0.1197E-01  0.4704E-01  0.4704E-01
     -2.824  0.1008E-01  0.1008E-01  0.4753E-01  0.4753E-01
     -2.776  0.6954E-02  0.6954E-02  0.4786E-01  0.4786E-01
     -2.728  0.3696E-02  0.3696E-02  0.4804E-01  0.4804E-01
     -2.679  0.1219E-02  0.1219E-02  0.4810E-01  0.4810E-01
     -2.631 -0.1521E-03 -0.1521E-03  0.4809E-01  0.4809E-01
     -2.583 -0.6149E-03 -0.6149E-03  0.4806E-01  0.4806E-01
     -2.535 -0.5752E-03 -0.5752E-03  0.4803E-01  0.4803E-01
     -2.487 -0.3768E-03 -0.3768E-03  0.4802E-01  0.4802E-01
     -2.438 -0.2016E-03 -0.2016E-03  0.4801E-01  0.4801E-01
     -2.390 -0.1037E-03 -0.1037E-03  0.4800E-01  0.4800E-01
     -2.342 -0.8207E-04 -0.8207E-04  0.4800E-01  0.4800E-01
     -2.294 -0.1295E-03 -0.1295E-03  0.4799E-01  0.4799E-01
     -2.245 -0.2415E-03 -0.2415E-03  0.4798E-01  0.4798E-01
     -2.197 -0.3857E-03 -0.3857E-03  0.4796E-01  0.4796E-01
     -2.149 -0.4478E-03 -0.4478E-03  0.4794E-01  0.4794E-01
     -2.101 -0.1949E-03 -0.1949E-03  0.4793E-01  0.4793E-01
     -2.052  0.6723E-03  0.6723E-03  0.4796E-01  0.4796E-01
     -2.004  0.2334E-02  0.2334E-02  0.4807E-01  0.4807E-01
     -1.956  0.4608E-02  0.4608E-02  0.4830E-01  0.4830E-01
     -1.908  0.6861E-02  0.6861E-02  0.4863E-01  0.4863E-01
     -1.860  0.8238E-02  0.8238E-02  0.4903E-01  0.4903E-01
     -1.811  0.8141E-02  0.8141E-02  0.4942E-01  0.4942E-01
     -1.763  0.6614E-02  0.6614E-02  0.4974E-01  0.4974E-01
     -1.715  0.4313E-02  0.4313E-02  0.4994E-01  0.4994E-01
     -1.667  0.2088E-02  0.2088E-02  0.5005E-01  0.5005E-01
     -1.618  0.5240E-03  0.5240E-03  0.5007E-01  0.5007E-01
     -1.570 -0.2531E-03 -0.2531E-03  0.5006E-01  0.5006E-01
     -1.522 -0.4512E-03 -0.4512E-03  0.5004E-01  0.5004E-01
     -1.474 -0.3682E-03 -0.3682E-03  0.5002E-01  0.5002E-01
     -1.425 -0.2218E-03 -0.2218E-03  0.5001E-01  0.5001E-01
     -1.377 -0.1101E-03 -0.1101E-03  0.5000E-01  0.5000E-01
     -1.329 -0.5228E-04 -0.5228E-04  0.5000E-01  0.5000E-01
     -1.281 -0.4110E-04 -0.4110E-04  0.5000E-01  0.5000E-01
     -1.232 -0.7582E-04 -0.7582E-04  0.4999E-01  0.4999E-01
     -1.184 -0.1713E-03 -0.1713E-03  0.4999E-01  0.4999E-01
     -1.136 -0.3427E-03 -0.3427E-03  0.4997E-01  0.4997E-01
     -1.088 -0.5586E-03 -0.5586E-03  0.4994E-01  0.4994E-01
     -1.040 -0.6662E-03 -0.6662E-03  0.4991E-01  0.4991E-01
     -0.991 -0.3395E-03 -0.3395E-03  0.4989E-01  0.4989E-01
     -0.943  0.8511E-03  0.8511E-03  0.4994E-01  0.4994E-01
     -0.895  0.3183E-02  0.3183E-02  0.5009E-01  0.5009E-01
     -0.847  0.6437E-02  0.6437E-02  0.5040E-01  0.5040E-01
     -0.798  0.9767E-02  0.9767E-02  0.5087E-01  0.5087E-01
     -0.750  0.1202E-01  0.1202E-01  0.5145E-01  0.5145E-01
     -0.702  0.1240E-01  0.1240E-01  0.5205E-01  0.5205E-01
     -0.654  0.1101E-01  0.1101E-01  0.5258E-01  0.5258E-01
     -0.605  0.8729E-02  0.8729E-02  0.5300E-01  0.5300E-01
     -0.557  0.6545E-02  0.6545E-02  0.5332E-01  0.5332E-01
     -0.509  0.4958E-02  0.4958E-02  0.5356E-01  0.5356E-01
     -0.461  0.3849E-02  0.3849E-02  0.5374E-01  0.5374E-01
     -0.412  0.2854E-02  0.2854E-02  0.5388E-01  0.5388E-01
     -0.364  0.1768E-02  0.1768E-02  0.5396E-01  0.5396E-01
     -0.316  0.6782E-03  0.6782E-03  0.5400E-01  0.5400E-01
     -0.268 -0.1662E-03 -0.1662E-03  0.5399E-01  0.5399E-01
     -0.220 -0.4965E-03 -0.4965E-03  0.5397E-01  0.5397E-01
     -0.171 -0.7972E-04 -0.7973E-04  0.5396E-01  0.5396E-01
     -0.123  0.1228E-02  0.1228E-02  0.5402E-01  0.5402E-01
     -0.075  0.3336E-02  0.3336E-02  0.5418E-01  0.5418E-01
     -0.027  0.5764E-02  0.5764E-02  0.5446E-01  0.5446E-01
      0.022  0.7700E-02  0.7700E-02  0.5483E-01  0.5483E-01
      0.070  0.8368E-02  0.8368E-02  0.5523E-01  0.5523E-01
      0.118  0.7487E-02  0.7487E-02  0.5560E-01  0.5560E-01
      0.166  0.5458E-02  0.5458E-02  0.5586E-01  0.5586E-01
      0.215  0.3103E-02  0.3103E-02  0.5601E-01  0.5601E-01
      0.263  0.1178E-02  0.1178E-02  0.5607E-01  0.5607E-01
      0.311  0.3343E-04  0.3344E-04  0.5607E-01  0.5607E-01
      0.359 -0.4071E-03 -0.4071E-03  0.5605E-01  0.5605E-01
      0.408 -0.4259E-03 -0.4259E-03  0.5603E-01  0.5603E-01
      0.456 -0.2912E-03 -0.2912E-03  0.5601E-01  0.5601E-01
      0.504 -0.1562E-03 -0.1562E-03  0.5601E-01  0.5601E-01
      0.552 -0.6960E-04 -0.6960E-04  0.5600E-01  0.5600E-01
      0.600 -0.2639E-04 -0.2639E-04  0.5600E-01  0.5600E-01
      0.649 -0.8634E-05 -0.8635E-05  0.5600E-01  0.5600E-01
      0.697 -0.2457E-05 -0.2457E-05  0.5600E-01  0.5600E-01
      0.745 -0.6116E-06 -0.6116E-06  0.5600E-01  0.5600E-01
      0.793 -0.1336E-06 -0.1336E-06  0.5600E-01  0.5600E-01
      0.842 -0.2569E-07 -0.2569E-07  0.5600E-01  0.5600E-01
      0.890 -0.4355E-08 -0.4355E-08  0.5600E-01  0.5600E-01
      0.938 -0.6520E-09 -0.6520E-09  0.5600E-01  0.5600E-01
      0.986 -0.8631E-10 -0.8631E-10  0.5600E-01  0.5600E-01
      1.035 -0.1011E-10 -0.1011E-10  0.5600E-01  0.5600E-01
      1.083 -0.1049E-11 -0.1049E-11  0.5600E-01  0.5600E-01
      1.131 -0.9652E-13 -0.9652E-13  0.5600E-01  0.5600E-01
      1.179 -0.7876E-14 -0.7876E-14  0.5600E-01  0.5600E-01
      1.227 -0.5662E-15 -0.5662E-15  0.5600E-01  0.5600E-01
      1.276 -0.4143E-16 -0.4143E-16  0.5600E-01  0.5600E-01
      1.324  0.0000E+00  0.0000E+00  0.5600E-01  0.5600E-01
      1.372  0.0000E+00  0.0000E+00  0.5600E-01  0.5600E-01
      1.420  0.0000E+00  0.0000E+00  0.5600E-01  0.5600E-01
      1.469  0.0000E+00  0.0000E+00  0.5600E-01  0.5600E-01
      1.517  0.0000E+00  0.0000E+00  0.5600E-01  0.5600E-01
      1.565  0.0000E+00  0.0000E+00  0.5600E-01  0.5600E-01
      1.613  0.0000E+00  0.0000E+00  0.5600E-01  0.5600E-01
      1.662  0.0000E+00  0.0000E+00  0.5600E-01  0.5600E-01
      1.710  0.0000E+00  0.0000E+00  0.5600E-01  0.5600E-01
      1.758  0.0000E+00  0.0000E+00  0.5600E-01  0.5600E-01
      1.806  0.0000E+00  0.0000E+00  0.5600E-01  0.5600E-01
      1.855  0.0000E+00  0.0000E+00  0.5600E-01  0.5600E-01
      1.903  0.0000E+00  0.0000E+00  0.5600E-01  0.5600E-01
      1.951  0.0000E+00  0.0000E+00  0.5600E-01  0.5600E-01
      1.999  0.0000E+00  0.0000E+00  0.5600E-01  0.5600E-01
      2.047  0.0000E+00  0.0000E+00  0.5600E-01  0.5600E-01
