    8    8 1000    2
  0.1522507E+04  0.2279513E-08  0.2190825E-08  0.2438931E-08  0.5000000E-15
   1.0000000000000000E-004
  CAR 
 unknown system                          
     88      1     56
 
  0.1262379E-14  0.1262379E-14  0.1262379E-14  0.1000000E+01
    1      -10.422856    -10.422856   1.000000   1.000000
    2       -8.701854     -8.701854   1.000000   1.000000
    3       -8.687557     -8.687557   1.000000   1.000000
    4       -8.685482     -8.685482   1.000000   1.000000
    5       -8.109714     -8.109714   1.000000   1.000000
    6       -8.100916     -8.100916   1.000000   1.000000
    7       -8.095022     -8.095022   1.000000   1.000000
    8       -7.727952     -7.727952   1.000000   1.000000
    9       -7.721560     -7.721560   1.000000   1.000000
   10       -7.706431     -7.706431   1.000000   1.000000
   11       -7.677898     -7.677898   1.000000   1.000000
   12       -7.663394     -7.663394   1.000000   1.000000
   13       -7.492273     -7.492273   1.000000   1.000000
   14       -7.465845     -7.465845   1.000000   1.000000
   15       -7.450744     -7.450744   1.000000   1.000000
   16       -7.226180     -7.226180   1.000000   1.000000
   17       -7.217492     -7.217492   1.000000   1.000000
   18       -7.210468     -7.210468   1.000000   1.000000
   19       -7.034482     -7.034482   1.000000   1.000000
   20       -7.032556     -7.032556   1.000000   1.000000
   21       -7.029579     -7.029579   1.000000   1.000000
   22       -6.906259     -6.906259   1.000000   1.000000
   23       -6.800292     -6.800292   1.000000   1.000000
   24       -6.792869     -6.792869   1.000000   1.000000
   25       -6.788243     -6.788243   1.000000   1.000000
   26       -6.162229     -6.162229   1.000000   1.000000
   27       -6.125274     -6.125274   1.000000   1.000000
   28       -6.111148     -6.111148   1.000000   1.000000
   29       -6.092299     -6.092299   1.000000   1.000000
   30       -6.070950     -6.070950   1.000000   1.000000
   31       -5.551851     -5.551851   1.002482   1.002482
   32       -5.550206     -5.550206   1.002565   1.002565
   33       -5.520003     -5.520003   1.004581   1.004581
   34       -5.516602     -5.516602   1.004873   1.004873
   35       -5.513197     -5.513197   1.005180   1.005180
   36       -5.486532     -5.486532   1.008142   1.008142
   37       -5.476757     -5.476757   1.009497   1.009497
   38       -5.460246     -5.460246   1.012133   1.012133
   39       -5.337546     -5.337546   1.035367   1.035367
   40       -5.325670     -5.325670   1.035263   1.035263
   41       -5.308196     -5.308196   1.032762   1.032762
   42       -5.230932     -5.230932   0.965449   0.965449
   43       -5.220352     -5.220352   0.946456   0.946456
   44       -5.214736     -5.214736   0.935250   0.935250
   45       -3.182149     -3.182149  -0.000000  -0.000000
   46       -2.939814     -2.939814  -0.000000  -0.000000
   47       -2.920089     -2.920089  -0.000000  -0.000000
   48       -2.884512     -2.884512  -0.000000  -0.000000
   49       -1.865938     -1.865938  -0.000000  -0.000000
   50       -1.859013     -1.859013  -0.000000  -0.000000
   51       -0.766974     -0.766973  -0.000000  -0.000000
   52       -0.745436     -0.745436  -0.000000  -0.000000
   53       -0.734580     -0.734580  -0.000000  -0.000000
   54       -0.497705     -0.497705  -0.000000  -0.000000
   55        0.036228      0.036228  -0.000000  -0.000000
   56        0.047481      0.047481  -0.000000  -0.000000
