       N       E                     dE             d eps       ncg     rms          rms(c)
DAV:   1     0.670159113547E+03    0.67016E+03   -0.13318E+04   224   0.703E+02
DAV:   2     0.343020863506E+03   -0.32714E+03   -0.29710E+03   336   0.129E+02
DAV:   3     0.105935606064E+03   -0.23709E+03   -0.22669E+03   400   0.118E+02
DAV:   4     0.366538004420E+01   -0.10227E+03   -0.97064E+02   416   0.991E+01
DAV:   5    -0.163649306161E+02   -0.20030E+02   -0.17742E+02   376   0.480E+01    0.205E+01
DAV:   6    -0.105338827979E+02    0.58310E+01   -0.71765E+01   312   0.101E+02    0.129E+01
DAV:   7    -0.588372607709E+01    0.46502E+01   -0.17615E+01   272   0.111E+02    0.706E+00
DAV:   8    -0.594237469502E+01   -0.58649E-01   -0.40280E+00   344   0.185E+01    0.410E+00
DAV:   9    -0.847516250629E+01   -0.25328E+01   -0.26141E+00   336   0.319E+01    0.250E+00
DAV:  10    -0.103236657667E+02   -0.18485E+01   -0.94174E-01   320   0.225E+01    0.129E+00
DAV:  11    -0.113220810553E+02   -0.99842E+00   -0.33216E-01   328   0.743E+00    0.105E+00
DAV:  12    -0.122062602273E+02   -0.88418E+00   -0.17433E-01   320   0.330E+00    0.105E+00
DAV:  13    -0.123659418787E+02   -0.15968E+00   -0.21603E-02   304   0.206E+00    0.963E-01
DAV:  14    -0.130453682875E+02   -0.67943E+00   -0.12455E-01   336   0.354E+00    0.848E-01
DAV:  15    -0.143216178177E+02   -0.12762E+01   -0.50291E-01   304   0.495E+00    0.570E-01
DAV:  16    -0.151158322700E+02   -0.79421E+00   -0.24609E-01   272   0.257E+00    0.436E-01
DAV:  17    -0.154446243652E+02   -0.32879E+00   -0.79537E-02   328   0.268E+00    0.320E-01
DAV:  18    -0.157643520546E+02   -0.31973E+00   -0.56535E-02   328   0.169E+00    0.238E-01
DAV:  19    -0.161263527936E+02   -0.36200E+00   -0.23612E-02   304   0.102E+00    0.167E-01
DAV:  20    -0.164215727844E+02   -0.29522E+00   -0.14635E-02   312   0.995E-01    0.112E-01
DAV:  21    -0.165666025631E+02   -0.14503E+00   -0.39080E-03   304   0.365E-01    0.832E-02
DAV:  22    -0.166529348296E+02   -0.86332E-01   -0.19609E-03   216   0.438E-01    0.438E-02
DAV:  23    -0.166962624356E+02   -0.43328E-01   -0.10231E-03   264   0.231E-01    0.396E-02
DAV:  24    -0.167032142679E+02   -0.69518E-02   -0.15618E-04   184   0.205E-01    0.264E-02
DAV:  25    -0.167142662393E+02   -0.11052E-01   -0.22397E-04   176   0.125E-01    0.164E-02
DAV:  26    -0.167216022984E+02   -0.73361E-02   -0.19108E-04   168   0.101E-01    0.147E-02
DAV:  27    -0.167243592534E+02   -0.27570E-02   -0.56119E-05   176   0.731E-02    0.113E-02
DAV:  28    -0.167269767798E+02   -0.26175E-02   -0.45688E-05   168   0.962E-02    0.896E-03
DAV:  29    -0.167291614067E+02   -0.21846E-02   -0.42278E-05   160   0.634E-02    0.718E-03
DAV:  30    -0.167297816646E+02   -0.62026E-03   -0.20139E-05   152   0.394E-02    0.721E-03
DAV:  31    -0.167304727969E+02   -0.69113E-03   -0.11310E-05   144   0.482E-02    0.475E-03
DAV:  32    -0.167311217916E+02   -0.64899E-03   -0.93341E-06   176   0.249E-02    0.253E-03
DAV:  33    -0.167313096570E+02   -0.18787E-03   -0.37725E-06   160   0.165E-02    0.239E-03
DAV:  34    -0.167314798218E+02   -0.17016E-03   -0.19053E-06   136   0.187E-02    0.127E-03
DAV:  35    -0.167315904250E+02   -0.11060E-03   -0.14418E-06   160   0.849E-03    0.954E-04
DAV:  36    -0.167316318382E+02   -0.41413E-04   -0.95817E-07   152   0.102E-02
   1 F= -.16731632E+02 E0= -.16740978E+02  d E =-.167316E+02  mag=     0.0008
       N       E                     dE             d eps       ncg     rms          rms(c)
DAV:   1    -0.163157238056E+02    0.41587E+00   -0.26009E+02   224   0.585E+01    0.332E+00
DAV:   2    -0.172669030046E+02   -0.95118E+00   -0.10095E+01   336   0.272E+01    0.298E+00
DAV:   3    -0.172018628338E+02    0.65040E-01   -0.43960E-01   312   0.131E+01    0.185E+00
DAV:   4    -0.171957950805E+02    0.60678E-02   -0.11558E-01   320   0.852E+00    0.115E+00
DAV:   5    -0.171965895789E+02   -0.79450E-03   -0.13164E-01   296   0.122E+01    0.592E-01
DAV:   6    -0.171903569980E+02    0.62326E-02   -0.37750E-02   256   0.701E+00    0.196E-01
DAV:   7    -0.171903264431E+02    0.30555E-04   -0.87529E-03   352   0.223E+00    0.169E-01
DAV:   8    -0.171899317391E+02    0.39470E-03   -0.26697E-03   328   0.124E+00    0.650E-02
DAV:   9    -0.171899672056E+02   -0.35466E-04   -0.51539E-04   240   0.469E-01
   2 F= -.17189967E+02 E0= -.17202758E+02  d E =-.458335E+00  mag=     0.0003
       N       E                     dE             d eps       ncg     rms          rms(c)
DAV:   1    -0.171174622306E+02    0.72470E-01   -0.36198E+01   224   0.210E+01    0.979E-01
DAV:   2    -0.172230928404E+02   -0.10563E+00   -0.11201E+00   320   0.997E+00    0.912E-01
DAV:   3    -0.172157267192E+02    0.73661E-02   -0.51310E-02   288   0.476E+00    0.542E-01
DAV:   4    -0.172153195697E+02    0.40715E-03   -0.18278E-02   304   0.356E+00    0.377E-01
DAV:   5    -0.172148132526E+02    0.50632E-03   -0.14737E-02   304   0.404E+00    0.184E-01
DAV:   6    -0.172146276748E+02    0.18558E-03   -0.37082E-03   272   0.186E+00    0.822E-02
DAV:   7    -0.172145824232E+02    0.45252E-04   -0.85849E-04   288   0.862E-01
   3 F= -.17214582E+02 E0= -.17228416E+02  d E =-.482951E+00  mag=     0.0001
       N       E                     dE             d eps       ncg     rms          rms(c)
DAV:   1    -0.172209838390E+02   -0.63562E-02   -0.28290E+01   240   0.220E+01    0.648E-01
DAV:   2    -0.172956880591E+02   -0.74704E-01   -0.84303E-01   336   0.108E+01    0.701E-01
DAV:   3    -0.172889080616E+02    0.67800E-02   -0.49901E-02   288   0.599E+00    0.295E-01
DAV:   4    -0.172886571953E+02    0.25087E-03   -0.82345E-03   344   0.185E+00    0.217E-01
DAV:   5    -0.172883977753E+02    0.25942E-03   -0.14326E-03   312   0.888E-01    0.158E-01
DAV:   6    -0.172883266904E+02    0.71085E-04   -0.19476E-03   304   0.350E-01    0.477E-02
DAV:   7    -0.172883163788E+02    0.10312E-04   -0.33518E-04   192   0.498E-01
   4 F= -.17288316E+02 E0= -.17305380E+02  d E =-.737340E-01  mag=     0.0001
       N       E                     dE             d eps       ncg     rms          rms(c)
DAV:   1    -0.168565792184E+02    0.43175E+00   -0.27503E+02   272   0.799E+01    0.171E+00
DAV:   2    -0.174285752182E+02   -0.57200E+00   -0.61876E+00   336   0.269E+01    0.172E+00
DAV:   3    -0.173896390493E+02    0.38936E-01   -0.35212E-01   304   0.161E+01    0.716E-01
DAV:   4    -0.173868075302E+02    0.28315E-02   -0.54091E-02   304   0.452E+00    0.510E-01
DAV:   5    -0.173846326125E+02    0.21749E-02   -0.15748E-02   288   0.207E+00    0.309E-01
DAV:   6    -0.173839681601E+02    0.66445E-03   -0.89175E-03   320   0.173E+00    0.103E-01
DAV:   7    -0.173841213437E+02   -0.15318E-03   -0.20205E-03   272   0.143E+00    0.650E-02
DAV:   8    -0.173841959021E+02   -0.74558E-04   -0.55728E-04   224   0.729E-01
   5 F= -.17384196E+02 E0= -.17396409E+02  d E =-.169613E+00  mag=     0.0000
       N       E                     dE             d eps       ncg     rms          rms(c)
DAV:   1    -0.172940630345E+02    0.90058E-01   -0.57982E+01   240   0.324E+01    0.862E-01
DAV:   2    -0.174573665510E+02   -0.16330E+00   -0.17611E+00   336   0.143E+01    0.939E-01
DAV:   3    -0.174448108007E+02    0.12556E-01   -0.80601E-02   304   0.848E+00    0.416E-01
DAV:   4    -0.174439427699E+02    0.86803E-03   -0.11573E-02   352   0.176E+00    0.318E-01
DAV:   5    -0.174430744976E+02    0.86827E-03   -0.31104E-03   272   0.125E+00    0.247E-01
DAV:   6    -0.174423569656E+02    0.71753E-03   -0.51352E-03   336   0.122E+00    0.101E-01
DAV:   7    -0.174422996201E+02    0.57346E-04   -0.99302E-04   240   0.913E-01
   6 F= -.17442300E+02 E0= -.17452266E+02  d E =-.581037E-01  mag=     0.0000
       N       E                     dE             d eps       ncg     rms          rms(c)
DAV:   1    -0.170487556181E+02    0.39360E+00   -0.38347E+02   304   0.999E+01    0.180E+00
DAV:   2    -0.175400888162E+02   -0.49133E+00   -0.55219E+00   336   0.290E+01    0.193E+00
DAV:   3    -0.174872062639E+02    0.52883E-01   -0.40335E-01   288   0.195E+01    0.745E-01
DAV:   4    -0.174839217708E+02    0.32845E-02   -0.57244E-02   336   0.276E+00    0.505E-01
DAV:   5    -0.174816135369E+02    0.23082E-02   -0.20980E-02   320   0.258E+00    0.304E-01
DAV:   6    -0.174808388580E+02    0.77468E-03   -0.96487E-03   288   0.279E+00    0.111E-01
DAV:   7    -0.174811627860E+02   -0.32393E-03   -0.33574E-03   272   0.148E+00    0.663E-02
DAV:   8    -0.174812636214E+02   -0.10084E-03   -0.54449E-04   240   0.579E-01    0.402E-02
DAV:   9    -0.174814734648E+02   -0.20984E-03   -0.23773E-04   160   0.375E-01    0.191E-02
DAV:  10    -0.174816119687E+02   -0.13850E-03   -0.97521E-05   176   0.223E-01    0.129E-02
DAV:  11    -0.174817103800E+02   -0.98411E-04   -0.59345E-05   144   0.148E-01
   7 F= -.17481710E+02 E0= -.17489710E+02  d E =-.975145E-01  mag=     0.0000
       N       E                     dE             d eps       ncg     rms          rms(c)
DAV:   1    -0.174453943217E+02    0.36218E-01   -0.18441E+01   240   0.178E+01    0.405E-01
DAV:   2    -0.174900651471E+02   -0.44671E-01   -0.46746E-01   336   0.552E+00    0.461E-01
DAV:   3    -0.174872125638E+02    0.28526E-02   -0.14978E-02   304   0.258E+00    0.224E-01
DAV:   4    -0.174868966303E+02    0.31593E-03   -0.26304E-03   304   0.109E+00    0.177E-01
DAV:   5    -0.174866767155E+02    0.21991E-03   -0.15587E-03   320   0.115E+00    0.110E-01
DAV:   6    -0.174866510818E+02    0.25634E-04   -0.11048E-03   304   0.724E-01    0.324E-02
DAV:   7    -0.174866720496E+02   -0.20968E-04   -0.22892E-04   176   0.404E-01
   8 F= -.17486672E+02 E0= -.17494879E+02  d E =-.102476E+00  mag=     0.0000
       N       E                     dE             d eps       ncg     rms          rms(c)
DAV:   1    -0.174491883795E+02    0.37463E-01   -0.29860E+01   240   0.225E+01    0.584E-01
DAV:   2    -0.175355215372E+02   -0.86333E-01   -0.92626E-01   320   0.106E+01    0.761E-01
DAV:   3    -0.175281318542E+02    0.73897E-02   -0.44044E-02   288   0.550E+00    0.373E-01
DAV:   4    -0.175274322056E+02    0.69965E-03   -0.67433E-03   320   0.147E+00    0.290E-01
DAV:   5    -0.175267696716E+02    0.66253E-03   -0.20694E-03   304   0.102E+00    0.214E-01
DAV:   6    -0.175262809153E+02    0.48876E-03   -0.34338E-03   336   0.664E-01    0.676E-02
DAV:   7    -0.175262759276E+02    0.49878E-05   -0.79724E-04   240   0.716E-01
   9 F= -.17526276E+02 E0= -.17534252E+02  d E =-.396039E-01  mag=     0.0000
       N       E                     dE             d eps       ncg     rms          rms(c)
DAV:   1    -0.171018967254E+02    0.42438E+00   -0.28855E+02   288   0.802E+01    0.146E+00
DAV:   2    -0.176512164521E+02   -0.54932E+00   -0.58164E+00   336   0.255E+01    0.167E+00
DAV:   3    -0.176155756935E+02    0.35641E-01   -0.26114E-01   288   0.147E+01    0.786E-01
DAV:   4    -0.176110679388E+02    0.45078E-02   -0.37906E-02   336   0.273E+00    0.606E-01
DAV:   5    -0.176063900703E+02    0.46779E-02   -0.22636E-02   320   0.249E+00    0.336E-01
DAV:   6    -0.176054069671E+02    0.98310E-03   -0.10380E-02   320   0.192E+00    0.913E-02
DAV:   7    -0.176056569149E+02   -0.24995E-03   -0.22118E-03   304   0.111E+00    0.827E-02
DAV:   8    -0.176056061760E+02    0.50739E-04   -0.36318E-04   208   0.623E-01
  10 F= -.17605606E+02 E0= -.17613805E+02  d E =-.118934E+00  mag=     0.0000
       N       E                     dE             d eps       ncg     rms          rms(c)
DAV:   1    -0.160457023738E+02    0.15600E+01   -0.14504E+03   320   0.244E+02    0.322E+00
DAV:   2    -0.177250383256E+02   -0.16793E+01   -0.18332E+01   352   0.478E+01    0.322E+00
DAV:   3    -0.175790178127E+02    0.14602E+00   -0.12901E+00   288   0.271E+01    0.131E+00
DAV:   4    -0.175691021278E+02    0.99157E-02   -0.19913E-01   336   0.706E+00    0.967E-01
DAV:   5    -0.175638576736E+02    0.52445E-02   -0.65555E-02   320   0.519E+00    0.603E-01
DAV:   6    -0.175611232424E+02    0.27344E-02   -0.30345E-02   304   0.496E+00    0.243E-01
DAV:   7    -0.175615375634E+02   -0.41432E-03   -0.10038E-02   336   0.264E+00    0.128E-01
DAV:   8    -0.175616525140E+02   -0.11495E-03   -0.22221E-03   288   0.110E+00    0.733E-02
DAV:   9    -0.175620237613E+02   -0.37125E-03   -0.78692E-04   272   0.700E-01    0.310E-02
DAV:  10    -0.175622362550E+02   -0.21249E-03   -0.23377E-04   192   0.373E-01    0.244E-02
DAV:  11    -0.175623984476E+02   -0.16219E-03   -0.84299E-05   144   0.190E-01    0.101E-02
DAV:  12    -0.175626584213E+02   -0.25997E-03   -0.73911E-05   144   0.745E-02    0.812E-03
DAV:  13    -0.175628320243E+02   -0.17360E-03   -0.40577E-05   176   0.873E-02    0.589E-03
DAV:  14    -0.175631521781E+02   -0.32015E-03   -0.59998E-05   144   0.769E-02    0.645E-03
DAV:  15    -0.175632597742E+02   -0.10760E-03   -0.39749E-05   176   0.799E-02    0.419E-03
DAV:  16    -0.175633579852E+02   -0.98211E-04   -0.32386E-05   144   0.467E-02
  11 F= -.17563358E+02 E0= -.17570822E+02  d E =-.766859E-01  mag=     0.0000
       N       E                     dE             d eps       ncg     rms          rms(c)
DAV:   1    -0.165211542914E+02    0.10421E+01   -0.51717E+02   272   0.118E+02    0.199E+00
DAV:   2    -0.176679088241E+02   -0.11468E+01   -0.11926E+01   320   0.231E+01    0.155E+00
DAV:   3    -0.176413856279E+02    0.26523E-01   -0.27350E-01   288   0.131E+01    0.988E-01
DAV:   4    -0.176328398322E+02    0.85458E-02   -0.55897E-02   304   0.599E+00    0.747E-01
DAV:   5    -0.176254509623E+02    0.73889E-02   -0.50053E-02   320   0.398E+00    0.341E-01
DAV:   6    -0.176241898083E+02    0.12612E-02   -0.15245E-02   352   0.328E+00    0.118E-01
DAV:   7    -0.176244526608E+02   -0.26285E-03   -0.41668E-03   352   0.163E+00    0.102E-01
DAV:   8    -0.176244504059E+02    0.22549E-05   -0.82326E-04   224   0.796E-01
  12 F= -.17624450E+02 E0= -.17633049E+02  d E =-.137778E+00  mag=     0.0000
       N       E                     dE             d eps       ncg     rms          rms(c)
DAV:   1    -0.175002744555E+02    0.12418E+00   -0.59611E+01   240   0.317E+01    0.797E-01
DAV:   2    -0.176895351537E+02   -0.18926E+00   -0.19911E+00   336   0.134E+01    0.940E-01
DAV:   3    -0.176790779857E+02    0.10457E-01   -0.67793E-02   320   0.636E+00    0.495E-01
DAV:   4    -0.176777228622E+02    0.13551E-02   -0.93688E-03   352   0.217E+00    0.404E-01
DAV:   5    -0.176763545596E+02    0.13683E-02   -0.38520E-03   320   0.153E+00    0.282E-01
DAV:   6    -0.176756092473E+02    0.74531E-03   -0.61554E-03   336   0.110E+00    0.739E-02
DAV:   7    -0.176757246862E+02   -0.11544E-03   -0.14300E-03   256   0.821E-01    0.557E-02
DAV:   8    -0.176757283748E+02   -0.36886E-05   -0.33686E-04   176   0.450E-01
  13 F= -.17675728E+02 E0= -.17684368E+02  d E =-.512780E-01  mag=     0.0000
       N       E                     dE             d eps       ncg     rms          rms(c)
DAV:   1    -0.166600540171E+02    0.10157E+01   -0.60120E+02   288   0.125E+02    0.202E+00
DAV:   2    -0.178563993008E+02   -0.11963E+01   -0.12446E+01   336   0.329E+01    0.209E+00
DAV:   3    -0.178104880914E+02    0.45911E-01   -0.56450E-01   288   0.169E+01    0.103E+00
DAV:   4    -0.178026484299E+02    0.78397E-02   -0.75502E-02   320   0.518E+00    0.849E-01
DAV:   5    -0.177947797917E+02    0.78686E-02   -0.46064E-02   304   0.431E+00    0.483E-01
DAV:   6    -0.177927128548E+02    0.20669E-02   -0.26710E-02   304   0.438E+00    0.180E-01
DAV:   7    -0.177931229249E+02   -0.41007E-03   -0.70308E-03   336   0.196E+00    0.104E-01
DAV:   8    -0.177930856499E+02    0.37275E-04   -0.13910E-03   256   0.994E-01    0.555E-02
DAV:   9    -0.177931876931E+02   -0.10204E-03   -0.41326E-04   240   0.510E-01    0.238E-02
DAV:  10    -0.177932970622E+02   -0.10937E-03   -0.10802E-04   144   0.223E-01    0.132E-02
DAV:  11    -0.177933918117E+02   -0.94749E-04   -0.69374E-05   176   0.199E-01
  14 F= -.17793392E+02 E0= -.17801090E+02  d E =-.168941E+00  mag=     0.0000
       N       E                     dE             d eps       ncg     rms          rms(c)
DAV:   1    -0.580239930435E+01    0.11991E+02   -0.33252E+03   272   0.433E+02    0.742E+00
DAV:   2    -0.209122526720E+02   -0.15110E+02   -0.15177E+02   352   0.117E+02    0.294E+01
DAV:   3    -0.186094330285E+02    0.23028E+01   -0.48853E+01   304   0.492E+01    0.772E+00
DAV:   4    -0.178796703391E+02    0.72976E+00   -0.39963E+00   336   0.344E+01    0.250E+00
DAV:   5    -0.178710143050E+02    0.86560E-02   -0.39068E-01   352   0.619E+00    0.211E+00
DAV:   6    -0.178516846926E+02    0.19330E-01   -0.92350E-02   336   0.838E+00    0.166E+00
DAV:   7    -0.178262164443E+02    0.25468E-01   -0.12641E-01   384   0.955E+00    0.865E-01
DAV:   8    -0.178225854124E+02    0.36310E-02   -0.68019E-02   368   0.511E+00    0.455E-01
DAV:   9    -0.178217094940E+02    0.87592E-03   -0.19427E-02   320   0.211E+00    0.270E-01
DAV:  10    -0.178204100963E+02    0.12994E-02   -0.45573E-03   368   0.155E+00    0.151E-01
DAV:  11    -0.178202734728E+02    0.13662E-03   -0.21027E-03   368   0.998E-01    0.846E-02
DAV:  12    -0.178203873037E+02   -0.11383E-03   -0.34608E-04   224   0.429E-01    0.622E-02
DAV:  13    -0.178205955917E+02   -0.20829E-03   -0.23688E-04   208   0.241E-01    0.404E-02
DAV:  14    -0.178207725588E+02   -0.17697E-03   -0.10724E-04   176   0.196E-01    0.242E-02
DAV:  15    -0.178209374245E+02   -0.16487E-03   -0.86038E-05   176   0.138E-01    0.113E-02
DAV:  16    -0.178210923847E+02   -0.15496E-03   -0.13897E-04   208   0.115E-01    0.583E-03
DAV:  17    -0.178212370333E+02   -0.14465E-03   -0.66026E-05   176   0.750E-02    0.104E-02
DAV:  18    -0.178212846322E+02   -0.47599E-04   -0.37192E-05   160   0.735E-02
  15 F= -.17821285E+02 E0= -.17826263E+02  d E =-.196834E+00  mag=     0.0000
       N       E                     dE             d eps       ncg     rms          rms(c)
DAV:   1    -0.166545394968E+02    0.11667E+01   -0.52274E+02   272   0.115E+02    0.197E+00
DAV:   2    -0.178851793159E+02   -0.12306E+01   -0.12771E+01   352   0.236E+01    0.150E+00
DAV:   3    -0.178652684652E+02    0.19911E-01   -0.29281E-01   304   0.132E+01    0.954E-01
DAV:   4    -0.178588568459E+02    0.64116E-02   -0.48517E-02   336   0.590E+00    0.746E-01
DAV:   5    -0.178525638255E+02    0.62930E-02   -0.42504E-02   368   0.376E+00    0.336E-01
DAV:   6    -0.178515499064E+02    0.10139E-02   -0.12158E-02   352   0.316E+00    0.102E-01
DAV:   7    -0.178517766678E+02   -0.22676E-03   -0.31824E-03   320   0.961E-01    0.840E-02
DAV:   8    -0.178517910749E+02   -0.14407E-04   -0.62976E-04   240   0.583E-01
  16 F= -.17851791E+02 E0= -.17857721E+02  d E =-.227341E+00  mag=     0.0000
       N       E                     dE             d eps       ncg     rms          rms(c)
DAV:   1    -0.174580564505E+02    0.39372E+00   -0.19784E+02   256   0.642E+01    0.134E+00
DAV:   2    -0.180010244791E+02   -0.54297E+00   -0.57047E+00   352   0.210E+01    0.130E+00
DAV:   3    -0.179784235577E+02    0.22601E-01   -0.16666E-01   288   0.106E+01    0.637E-01
DAV:   4    -0.179765085808E+02    0.19150E-02   -0.24216E-02   352   0.264E+00    0.521E-01
DAV:   5    -0.179743850312E+02    0.21235E-02   -0.86671E-03   320   0.226E+00    0.394E-01
DAV:   6    -0.179725164488E+02    0.18686E-02   -0.10920E-02   320   0.184E+00    0.142E-01
DAV:   7    -0.179724720699E+02    0.44379E-04   -0.26869E-03   336   0.115E+00    0.522E-02
DAV:   8    -0.179725486636E+02   -0.76594E-04   -0.59258E-04   224   0.638E-01
  17 F= -.17972549E+02 E0= -.17978484E+02  d E =-.120758E+00  mag=     0.0000
       N       E                     dE             d eps       ncg     rms          rms(c)
DAV:   1    -0.858277497907E+01    0.93897E+01   -0.28037E+03   304   0.400E+02    0.557E+00
DAV:   2    -0.197354061426E+02   -0.11153E+02   -0.11729E+02   352   0.959E+01    0.124E+01
DAV:   3    -0.181701534155E+02    0.15653E+01   -0.84126E+00   336   0.392E+01    0.380E+00
DAV:   4    -0.181021247202E+02    0.68029E-01   -0.98750E-01   352   0.214E+01    0.235E+00
DAV:   5    -0.180739255005E+02    0.28199E-01   -0.24788E-01   336   0.963E+00    0.180E+00
DAV:   6    -0.180415336908E+02    0.32392E-01   -0.10495E-01   336   0.538E+00    0.963E-01
DAV:   7    -0.180330450035E+02    0.84887E-02   -0.65930E-02   352   0.700E+00    0.526E-01
DAV:   8    -0.180303468801E+02    0.26981E-02   -0.30794E-02   368   0.435E+00    0.158E-01
DAV:   9    -0.180309503051E+02   -0.60342E-03   -0.69821E-03   352   0.126E+00    0.827E-02
DAV:  10    -0.180311621449E+02   -0.21184E-03   -0.51649E-04   240   0.689E-01    0.432E-02
DAV:  11    -0.180314821993E+02   -0.32005E-03   -0.68826E-04   256   0.393E-01    0.324E-02
DAV:  12    -0.180316201326E+02   -0.13793E-03   -0.98137E-05   176   0.136E-01    0.234E-02
DAV:  13    -0.180318821725E+02   -0.26204E-03   -0.70770E-05   160   0.147E-01    0.763E-03
DAV:  14    -0.180320172112E+02   -0.13504E-03   -0.48011E-05   176   0.639E-02    0.940E-03
DAV:  15    -0.180320582431E+02   -0.41032E-04   -0.15036E-05   160   0.559E-02
  18 F= -.18032058E+02 E0= -.18038815E+02  d E =-.180267E+00  mag=     0.0000
       N       E                     dE             d eps       ncg     rms          rms(c)
DAV:   1    -0.168230680061E+02    0.12089E+01   -0.57207E+02   256   0.130E+02    0.185E+00
DAV:   2    -0.181119865077E+02   -0.12889E+01   -0.13298E+01   352   0.274E+01    0.162E+00
DAV:   3    -0.180908638173E+02    0.21123E-01   -0.36916E-01   272   0.143E+01    0.915E-01
DAV:   4    -0.180873293801E+02    0.35344E-02   -0.52324E-02   336   0.464E+00    0.742E-01
DAV:   5    -0.180823752617E+02    0.49541E-02   -0.30009E-02   352   0.430E+00    0.476E-01
DAV:   6    -0.180798170988E+02    0.25582E-02   -0.19143E-02   400   0.351E+00    0.137E-01
DAV:   7    -0.180800487827E+02   -0.23168E-03   -0.37760E-03   352   0.140E+00    0.700E-02
DAV:   8    -0.180800895349E+02   -0.40752E-04   -0.66918E-04   256   0.682E-01
  19 F= -.18080090E+02 E0= -.18086018E+02  d E =-.228298E+00  mag=    -0.0000
       N       E                     dE             d eps       ncg     rms          rms(c)
DAV:   1    -0.179151006483E+02    0.16495E+00   -0.67444E+01   240   0.347E+01    0.855E-01
DAV:   2    -0.181055144250E+02   -0.19041E+00   -0.20384E+00   352   0.138E+01    0.902E-01
DAV:   3    -0.180943673654E+02    0.11147E-01   -0.75165E-02   336   0.705E+00    0.407E-01
DAV:   4    -0.180936732222E+02    0.69414E-03   -0.96188E-03   352   0.170E+00    0.324E-01
DAV:   5    -0.180930963143E+02    0.57691E-03   -0.23955E-03   336   0.122E+00    0.260E-01
DAV:   6    -0.180925504382E+02    0.54588E-03   -0.42420E-03   352   0.101E+00    0.102E-01
DAV:   7    -0.180925215289E+02    0.28909E-04   -0.11028E-03   272   0.762E-01    0.379E-02
DAV:   8    -0.180925601631E+02   -0.38634E-04   -0.41888E-04   224   0.532E-01
  20 F= -.18092560E+02 E0= -.18098676E+02  d E =-.240769E+00  mag=    -0.0000
       N       E                     dE             d eps       ncg     rms          rms(c)
DAV:   1    -0.178840473896E+02    0.20847E+00   -0.14584E+02   256   0.545E+01    0.110E+00
DAV:   2    -0.182506732814E+02   -0.36663E+00   -0.38867E+00   352   0.164E+01    0.966E-01
DAV:   3    -0.182383934867E+02    0.12280E-01   -0.10010E-01   320   0.812E+00    0.500E-01
DAV:   4    -0.182376267399E+02    0.76675E-03   -0.15128E-02   336   0.160E+00    0.402E-01
DAV:   5    -0.182364119111E+02    0.12148E-02   -0.74087E-03   352   0.180E+00    0.235E-01
DAV:   6    -0.182359578101E+02    0.45410E-03   -0.46857E-03   352   0.180E+00    0.681E-02
DAV:   7    -0.182360714410E+02   -0.11363E-03   -0.12949E-03   256   0.735E-01    0.414E-02
DAV:   8    -0.182361013118E+02   -0.29871E-04   -0.18826E-04   176   0.264E-01
  21 F= -.18236101E+02 E0= -.18243514E+02  d E =-.143541E+00  mag=    -0.0000
       N       E                     dE             d eps       ncg     rms          rms(c)
DAV:   1    -0.179508020240E+02    0.28527E+00   -0.12757E+02   240   0.508E+01    0.107E+00
DAV:   2    -0.182912535351E+02   -0.34045E+00   -0.36056E+00   352   0.160E+01    0.929E-01
DAV:   3    -0.182803607145E+02    0.10893E-01   -0.97136E-02   336   0.831E+00    0.489E-01
DAV:   4    -0.182795697879E+02    0.79093E-03   -0.14033E-02   352   0.202E+00    0.403E-01
DAV:   5    -0.182783675764E+02    0.12022E-02   -0.48473E-03   352   0.175E+00    0.265E-01
DAV:   6    -0.182778497532E+02    0.51782E-03   -0.55662E-03   400   0.149E+00    0.720E-02
DAV:   7    -0.182779100776E+02   -0.60324E-04   -0.99868E-04   256   0.912E-01
  22 F= -.18277910E+02 E0= -.18287502E+02  d E =-.185350E+00  mag=    -0.0000
       N       E                     dE             d eps       ncg     rms          rms(c)
DAV:   1    -0.181782571110E+02    0.99593E-01   -0.89923E+01   240   0.412E+01    0.867E-01
DAV:   2    -0.184238481139E+02   -0.24559E+00   -0.25845E+00   352   0.118E+01    0.796E-01
DAV:   3    -0.184158317488E+02    0.80164E-02   -0.59144E-02   304   0.513E+00    0.432E-01
DAV:   4    -0.184148175638E+02    0.10142E-02   -0.84984E-03   352   0.171E+00    0.349E-01
DAV:   5    -0.184138187447E+02    0.99882E-03   -0.48108E-03   352   0.181E+00    0.230E-01
DAV:   6    -0.184134372193E+02    0.38153E-03   -0.44438E-03   384   0.162E+00    0.708E-02
DAV:   7    -0.184134733565E+02   -0.36137E-04   -0.82237E-04   272   0.732E-01
  23 F= -.18413473E+02 E0= -.18424409E+02  d E =-.135563E+00  mag=    -0.0000
       N       E                     dE             d eps       ncg     rms          rms(c)
DAV:   1    -0.176287138570E+02    0.78472E+00   -0.98400E+02   320   0.188E+02    0.206E+00
DAV:   2    -0.185752909127E+02   -0.94658E+00   -0.10230E+01   352   0.237E+01    0.162E+00
DAV:   3    -0.185640941286E+02    0.11197E-01   -0.29193E-01   288   0.107E+01    0.103E+00
DAV:   4    -0.185575008866E+02    0.65932E-02   -0.61902E-02   304   0.646E+00    0.662E-01
DAV:   5    -0.185539882080E+02    0.35127E-02   -0.35387E-02   368   0.469E+00    0.308E-01
DAV:   6    -0.185538623845E+02    0.12582E-03   -0.11274E-02   304   0.294E+00    0.137E-01
DAV:   7    -0.185540336074E+02   -0.17122E-03   -0.30659E-03   304   0.175E+00    0.779E-02
DAV:   8    -0.185542097810E+02   -0.17617E-03   -0.84028E-04   224   0.804E-01    0.364E-02
DAV:   9    -0.185544805215E+02   -0.27074E-03   -0.30008E-04   192   0.359E-01    0.226E-02
DAV:  10    -0.185546032419E+02   -0.12272E-03   -0.11279E-04   176   0.251E-01    0.140E-02
DAV:  11    -0.185547526884E+02   -0.14945E-03   -0.61204E-05   144   0.118E-01    0.855E-03
DAV:  12    -0.185549228686E+02   -0.17018E-03   -0.46602E-05   176   0.125E-01    0.623E-03
DAV:  13    -0.185550296666E+02   -0.10680E-03   -0.32090E-05   144   0.764E-02    0.489E-03
DAV:  14    -0.185551540317E+02   -0.12437E-03   -0.28884E-05   176   0.623E-02    0.382E-03
DAV:  15    -0.185552529320E+02   -0.98900E-04   -0.29174E-05   144   0.480E-02
  24 F= -.18555253E+02 E0= -.18569649E+02  d E =-.277343E+00  mag=    -0.0000
       N       E                     dE             d eps       ncg     rms          rms(c)
DAV:   1    -0.184665270880E+02    0.88627E-01   -0.37336E+01   240   0.256E+01    0.644E-01
DAV:   2    -0.185719335291E+02   -0.10541E+00   -0.11370E+00   336   0.105E+01    0.751E-01
DAV:   3    -0.185647496811E+02    0.71838E-02   -0.46957E-02   336   0.538E+00    0.353E-01
DAV:   4    -0.185642418865E+02    0.50779E-03   -0.81901E-03   304   0.189E+00    0.277E-01
DAV:   5    -0.185637613675E+02    0.48052E-03   -0.23891E-03   336   0.118E+00    0.184E-01
DAV:   6    -0.185636012880E+02    0.16008E-03   -0.26703E-03   336   0.844E-01    0.692E-02
DAV:   7    -0.185635708151E+02    0.30473E-04   -0.70207E-04   240   0.703E-01
  25 F= -.18563571E+02 E0= -.18577204E+02  d E =-.285661E+00  mag=    -0.0000
       N       E                     dE             d eps       ncg     rms          rms(c)
DAV:   1    -0.182280934613E+02    0.33551E+00   -0.20112E+02   256   0.628E+01    0.134E+00
DAV:   2    -0.187152913183E+02   -0.48720E+00   -0.51889E+00   336   0.193E+01    0.109E+00
DAV:   3    -0.187014124628E+02    0.13879E-01   -0.14773E-01   304   0.971E+00    0.598E-01
DAV:   4    -0.186994289052E+02    0.19836E-02   -0.25458E-02   320   0.334E+00    0.474E-01
DAV:   5    -0.186973422947E+02    0.20866E-02   -0.95406E-03   320   0.225E+00    0.279E-01
DAV:   6    -0.186967319945E+02    0.61030E-03   -0.73903E-03   336   0.171E+00    0.724E-02
DAV:   7    -0.186967657303E+02   -0.33736E-04   -0.12654E-03   304   0.854E-01    0.390E-02
DAV:   8    -0.186968107886E+02   -0.45058E-04   -0.16971E-04   144   0.174E-01
  26 F= -.18696811E+02 E0= -.18712590E+02  d E =-.133240E+00  mag=    -0.0000
       N       E                     dE             d eps       ncg     rms          rms(c)
DAV:   1    -0.182629220761E+02    0.43384E+00   -0.22800E+02   272   0.682E+01    0.138E+00
DAV:   2    -0.187630431330E+02   -0.50012E+00   -0.53210E+00   352   0.192E+01    0.111E+00
DAV:   3    -0.187490524042E+02    0.13991E-01   -0.16667E-01   304   0.108E+01    0.625E-01
DAV:   4    -0.187466574456E+02    0.23950E-02   -0.28389E-02   352   0.374E+00    0.490E-01
DAV:   5    -0.187442011847E+02    0.24563E-02   -0.12067E-02   320   0.220E+00    0.240E-01
DAV:   6    -0.187439080519E+02    0.29313E-03   -0.64927E-03   352   0.195E+00    0.653E-02
DAV:   7    -0.187440397602E+02   -0.13171E-03   -0.90220E-04   288   0.643E-01    0.402E-02
DAV:   8    -0.187441493224E+02   -0.10956E-03   -0.17953E-04   144   0.289E-01    0.206E-02
DAV:   9    -0.187442750598E+02   -0.12574E-03   -0.11642E-04   160   0.222E-01    0.124E-02
DAV:  10    -0.187443864135E+02   -0.11135E-03   -0.75575E-05   176   0.137E-01    0.636E-03
DAV:  11    -0.187444937842E+02   -0.10737E-03   -0.50563E-05   176   0.715E-02    0.649E-03
DAV:  12    -0.187446166949E+02   -0.12291E-03   -0.42679E-05   144   0.985E-02    0.510E-03
DAV:  13    -0.187447060591E+02   -0.89364E-04   -0.30924E-05   176   0.700E-02
  27 F= -.18744706E+02 E0= -.18763091E+02  d E =-.181135E+00  mag=    -0.0000
       N       E                     dE             d eps       ncg     rms          rms(c)
DAV:   1    -0.186630115195E+02    0.81605E-01   -0.56938E+01   240   0.311E+01    0.777E-01
DAV:   2    -0.188198327875E+02   -0.15682E+00   -0.16802E+00   336   0.110E+01    0.680E-01
DAV:   3    -0.188126449295E+02    0.71879E-02   -0.43939E-02   320   0.486E+00    0.347E-01
DAV:   4    -0.188118690285E+02    0.77590E-03   -0.66854E-03   320   0.909E-01    0.257E-01
DAV:   5    -0.188111491051E+02    0.71992E-03   -0.33834E-03   320   0.146E+00    0.157E-01
DAV:   6    -0.188108868245E+02    0.26228E-03   -0.22475E-03   368   0.111E+00    0.609E-02
DAV:   7    -0.188108735769E+02    0.13248E-04   -0.48688E-04   192   0.632E-01
  28 F= -.18810874E+02 E0= -.18829008E+02  d E =-.661675E-01  mag=    -0.0000
       N       E                     dE             d eps       ncg     rms          rms(c)
DAV:   1    -0.180509233285E+02    0.75996E+00   -0.27896E+02   240   0.781E+01    0.199E+00
DAV:   2    -0.188673153936E+02   -0.81639E+00   -0.86441E+00   352   0.231E+01    0.132E+00
DAV:   3    -0.188420826004E+02    0.25233E-01   -0.21092E-01   288   0.122E+01    0.712E-01
DAV:   4    -0.188390969208E+02    0.29857E-02   -0.36026E-02   352   0.281E+00    0.539E-01
DAV:   5    -0.188360156810E+02    0.30812E-02   -0.21852E-02   304   0.357E+00    0.333E-01
DAV:   6    -0.188346531445E+02    0.13625E-02   -0.12500E-02   400   0.318E+00    0.109E-01
DAV:   7    -0.188347892663E+02   -0.13612E-03   -0.31890E-03   320   0.144E+00    0.641E-02
DAV:   8    -0.188348409398E+02   -0.51674E-04   -0.53993E-04   240   0.628E-01
  29 F= -.18834841E+02 E0= -.18850761E+02  d E =-.901349E-01  mag=    -0.0000
       N       E                     dE             d eps       ncg     rms          rms(c)
DAV:   1    -0.187030762794E+02    0.13171E+00   -0.52988E+01   240   0.300E+01    0.732E-01
DAV:   2    -0.188577328023E+02   -0.15466E+00   -0.16135E+00   352   0.105E+01    0.696E-01
DAV:   3    -0.188518172900E+02    0.59155E-02   -0.40778E-02   320   0.477E+00    0.378E-01
DAV:   4    -0.188509175908E+02    0.89970E-03   -0.61450E-03   352   0.139E+00    0.284E-01
DAV:   5    -0.188503551046E+02    0.56249E-03   -0.47630E-03   352   0.186E+00    0.178E-01
DAV:   6    -0.188500917218E+02    0.26338E-03   -0.36867E-03   336   0.163E+00    0.564E-02
DAV:   7    -0.188501683645E+02   -0.76643E-04   -0.70042E-04   240   0.580E-01
  30 F= -.18850168E+02 E0= -.18867322E+02  d E =-.105462E+00  mag=    -0.0000
       N       E                     dE             d eps       ncg     rms          rms(c)
DAV:   1    -0.188477071156E+02    0.23846E-02   -0.18464E+00   240   0.542E+00    0.132E-01
DAV:   2    -0.188515865001E+02   -0.38794E-02   -0.42050E-02   336   0.205E+00    0.130E-01
DAV:   3    -0.188513504123E+02    0.23609E-03   -0.19460E-03   272   0.111E+00    0.643E-02
DAV:   4    -0.188513455214E+02    0.48909E-05   -0.21657E-04   160   0.152E-01
  31 F= -.18851346E+02 E0= -.18868256E+02  d E =-.106639E+00  mag=    -0.0000
       N       E                     dE             d eps       ncg     rms          rms(c)
DAV:   1    -0.188685922266E+02   -0.17242E-01   -0.14540E+01   240   0.145E+01    0.431E-01
DAV:   2    -0.189104691237E+02   -0.41877E-01   -0.45449E-01   336   0.713E+00    0.421E-01
DAV:   3    -0.189082589106E+02    0.22102E-02   -0.18378E-02   272   0.298E+00    0.223E-01
DAV:   4    -0.189081411176E+02    0.11779E-03   -0.39012E-03   304   0.118E+00    0.162E-01
DAV:   5    -0.189079882058E+02    0.15291E-03   -0.19322E-03   288   0.131E+00    0.116E-01
DAV:   6    -0.189079673248E+02    0.20881E-04   -0.11405E-03   320   0.485E-01    0.352E-02
DAV:   7    -0.189079685740E+02   -0.12492E-05   -0.20554E-04   192   0.358E-01
  32 F= -.18907969E+02 E0= -.18924412E+02  d E =-.566231E-01  mag=    -0.0000
       N       E                     dE             d eps       ncg     rms          rms(c)
DAV:   1    -0.185490931896E+02    0.35887E+00   -0.13218E+02   240   0.458E+01    0.137E+00
DAV:   2    -0.190136208746E+02   -0.46453E+00   -0.49472E+00   336   0.195E+01    0.122E+00
DAV:   3    -0.189952196998E+02    0.18401E-01   -0.13896E-01   288   0.800E+00    0.651E-01
DAV:   4    -0.189934923543E+02    0.17273E-02   -0.23855E-02   304   0.286E+00    0.498E-01
DAV:   5    -0.189916758902E+02    0.18165E-02   -0.15700E-02   320   0.353E+00    0.365E-01
DAV:   6    -0.189907083199E+02    0.96757E-03   -0.10772E-02   352   0.173E+00    0.101E-01
DAV:   7    -0.189907822130E+02   -0.73893E-04   -0.23008E-03   320   0.103E+00    0.738E-02
DAV:   8    -0.189907394927E+02    0.42720E-04   -0.46327E-04   192   0.539E-01
  33 F= -.18990739E+02 E0= -.19005817E+02  d E =-.139394E+00  mag=    -0.0000
       N       E                     dE             d eps       ncg     rms          rms(c)
DAV:   1    -0.189817580880E+02    0.90241E-02   -0.42890E+00   240   0.784E+00    0.227E-01
DAV:   2    -0.189932870450E+02   -0.11529E-01   -0.12672E-01   336   0.392E+00    0.240E-01
DAV:   3    -0.189925283728E+02    0.75867E-03   -0.56497E-03   288   0.161E+00    0.119E-01
DAV:   4    -0.189925213853E+02    0.69875E-05   -0.95687E-04   256   0.547E-01
  34 F= -.18992521E+02 E0= -.19007116E+02  d E =-.141176E+00  mag=    -0.0000
       N       E                     dE             d eps       ncg     rms          rms(c)
DAV:   1    -0.189690180054E+02    0.23510E-01   -0.24280E+01   240   0.191E+01    0.559E-01
DAV:   2    -0.190358485123E+02   -0.66831E-01   -0.73675E-01   320   0.896E+00    0.600E-01
DAV:   3    -0.190309896368E+02    0.48589E-02   -0.33469E-02   304   0.405E+00    0.289E-01
DAV:   4    -0.190306030201E+02    0.38662E-03   -0.57161E-03   304   0.136E+00    0.215E-01
DAV:   5    -0.190302553920E+02    0.34763E-03   -0.20910E-03   304   0.129E+00    0.137E-01
DAV:   6    -0.190302926938E+02   -0.37302E-04   -0.23807E-03   336   0.684E-01    0.503E-02
DAV:   7    -0.190302697667E+02    0.22927E-04   -0.25693E-04   208   0.528E-01
  35 F= -.19030270E+02 E0= -.19043741E+02  d E =-.377484E-01  mag=    -0.0000
       N       E                     dE             d eps       ncg     rms          rms(c)
DAV:   1    -0.186815521313E+02    0.34874E+00   -0.11570E+02   224   0.434E+01    0.132E+00
DAV:   2    -0.190556915891E+02   -0.37414E+00   -0.40541E+00   336   0.187E+01    0.117E+00
DAV:   3    -0.190371592644E+02    0.18532E-01   -0.14740E-01   336   0.935E+00    0.584E-01
DAV:   4    -0.190353737112E+02    0.17856E-02   -0.22871E-02   320   0.291E+00    0.449E-01
DAV:   5    -0.190335194634E+02    0.18542E-02   -0.88464E-03   336   0.253E+00    0.283E-01
DAV:   6    -0.190330216020E+02    0.49786E-03   -0.79369E-03   336   0.132E+00    0.821E-02
DAV:   7    -0.190329906310E+02    0.30971E-04   -0.12742E-03   320   0.101E+00    0.476E-02
DAV:   8    -0.190330365203E+02   -0.45889E-04   -0.33156E-04   176   0.441E-01
  36 F= -.19033037E+02 E0= -.19044672E+02  d E =-.405151E-01  mag=    -0.0000
       N       E                     dE             d eps       ncg     rms          rms(c)
DAV:   1    -0.189824974904E+02    0.50493E-01   -0.24444E+01   240   0.192E+01    0.515E-01
DAV:   2    -0.190506263026E+02   -0.68129E-01   -0.72536E-01   320   0.760E+00    0.547E-01
DAV:   3    -0.190464761824E+02    0.41501E-02   -0.25391E-02   336   0.332E+00    0.271E-01
DAV:   4    -0.190460533137E+02    0.42287E-03   -0.36442E-03   352   0.105E+00    0.198E-01
DAV:   5    -0.190458184705E+02    0.23484E-03   -0.21799E-03   320   0.131E+00    0.120E-01
DAV:   6    -0.190458161843E+02    0.22862E-05   -0.14652E-03   352   0.838E-01    0.311E-02
DAV:   7    -0.190458299211E+02   -0.13737E-04   -0.16427E-04   176   0.319E-01
  37 F= -.19045830E+02 E0= -.19058142E+02  d E =-.533085E-01  mag=    -0.0000
       N       E                     dE             d eps       ncg     rms          rms(c)
DAV:   1    -0.190226691526E+02    0.23147E-01   -0.18891E+01   240   0.177E+01    0.439E-01
DAV:   2    -0.190722844880E+02   -0.49615E-01   -0.53753E-01   336   0.762E+00    0.498E-01
DAV:   3    -0.190688198140E+02    0.34647E-02   -0.24669E-02   240   0.372E+00    0.235E-01
DAV:   4    -0.190686211206E+02    0.19869E-03   -0.41011E-03   336   0.102E+00    0.180E-01
DAV:   5    -0.190684103055E+02    0.21082E-03   -0.57072E-04   192   0.594E-01    0.145E-01
DAV:   6    -0.190683268247E+02    0.83481E-04   -0.27447E-03   320   0.569E-01    0.635E-02
DAV:   7    -0.190682600865E+02    0.66738E-04   -0.25074E-04   192   0.505E-01
  38 F= -.19068260E+02 E0= -.19078889E+02  d E =-.224302E-01  mag=    -0.0000
       N       E                     dE             d eps       ncg     rms          rms(c)
DAV:   1    -0.188347175003E+02    0.23361E+00   -0.91002E+01   240   0.404E+01    0.982E-01
DAV:   2    -0.191019555614E+02   -0.26724E+00   -0.28258E+00   336   0.155E+01    0.958E-01
DAV:   3    -0.190895343422E+02    0.12421E-01   -0.94137E-02   304   0.775E+00    0.478E-01
DAV:   4    -0.190882058180E+02    0.13285E-02   -0.13255E-02   320   0.199E+00    0.382E-01
DAV:   5    -0.190866722995E+02    0.15335E-02   -0.42552E-03   320   0.141E+00    0.271E-01
DAV:   6    -0.190857261312E+02    0.94617E-03   -0.72047E-03   352   0.124E+00    0.731E-02
DAV:   7    -0.190857326524E+02   -0.65212E-05   -0.98286E-04   272   0.821E-01
  39 F= -.19085733E+02 E0= -.19093898E+02  d E =-.399027E-01  mag=    -0.0000
       N       E                     dE             d eps       ncg     rms          rms(c)
DAV:   1    -0.190334296220E+02    0.52297E-01   -0.28354E+01   240   0.219E+01    0.537E-01
DAV:   2    -0.191131503374E+02   -0.79721E-01   -0.84650E-01   336   0.881E+00    0.605E-01
DAV:   3    -0.191083962882E+02    0.47540E-02   -0.30692E-02   272   0.418E+00    0.296E-01
DAV:   4    -0.191078886923E+02    0.50760E-03   -0.51003E-03   320   0.130E+00    0.222E-01
DAV:   5    -0.191074805319E+02    0.40816E-03   -0.15566E-03   288   0.104E+00    0.155E-01
DAV:   6    -0.191073188009E+02    0.16173E-03   -0.20850E-03   336   0.751E-01    0.441E-02
DAV:   7    -0.191073529177E+02   -0.34117E-04   -0.30287E-04   208   0.429E-01
  40 F= -.19107353E+02 E0= -.19115046E+02  d E =-.216203E-01  mag=    -0.0000
       N       E                     dE             d eps       ncg     rms          rms(c)
DAV:   1    -0.190034681516E+02    0.10385E+00   -0.42667E+01   240   0.271E+01    0.651E-01
DAV:   2    -0.191262005066E+02   -0.12273E+00   -0.12955E+00   336   0.105E+01    0.703E-01
DAV:   3    -0.191197334960E+02    0.64670E-02   -0.41975E-02   272   0.499E+00    0.350E-01
DAV:   4    -0.191189908507E+02    0.74265E-03   -0.69559E-03   320   0.152E+00    0.269E-01
DAV:   5    -0.191183293003E+02    0.66155E-03   -0.22965E-03   288   0.123E+00    0.186E-01
DAV:   6    -0.191180121622E+02    0.31714E-03   -0.30057E-03   368   0.946E-01    0.513E-02
DAV:   7    -0.191180549373E+02   -0.42775E-04   -0.45103E-04   208   0.499E-01
  41 F= -.19118055E+02 E0= -.19125347E+02  d E =-.323223E-01  mag=    -0.0000
       N       E                     dE             d eps       ncg     rms          rms(c)
DAV:   1    -0.190468720506E+02    0.71140E-01   -0.34251E+01   240   0.239E+01    0.617E-01
DAV:   2    -0.191510194145E+02   -0.10415E+00   -0.11156E+00   336   0.103E+01    0.696E-01
DAV:   3    -0.191446606027E+02    0.63588E-02   -0.43713E-02   288   0.497E+00    0.328E-01
DAV:   4    -0.191441535747E+02    0.50703E-03   -0.69838E-03   320   0.146E+00    0.257E-01
DAV:   5    -0.191437101921E+02    0.44338E-03   -0.15454E-03   288   0.104E+00    0.199E-01
DAV:   6    -0.191433731369E+02    0.33706E-03   -0.32723E-03   336   0.631E-01    0.708E-02
DAV:   7    -0.191433530181E+02    0.20119E-04   -0.51496E-04   208   0.593E-01
  42 F= -.19143353E+02 E0= -.19150900E+02  d E =-.252981E-01  mag=    -0.0000
       N       E                     dE             d eps       ncg     rms          rms(c)
DAV:   1    -0.187336836683E+02    0.40969E+00   -0.33140E+02   304   0.852E+01    0.128E+00
DAV:   2    -0.192018205825E+02   -0.46814E+00   -0.49883E+00   336   0.193E+01    0.122E+00
DAV:   3    -0.191854549749E+02    0.16366E-01   -0.17961E-01   336   0.109E+01    0.668E-01
DAV:   4    -0.191813816201E+02    0.40734E-02   -0.26876E-02   320   0.311E+00    0.519E-01
DAV:   5    -0.191774334089E+02    0.39482E-02   -0.19576E-02   320   0.262E+00    0.228E-01
DAV:   6    -0.191772310930E+02    0.20232E-03   -0.63831E-03   336   0.205E+00    0.779E-02
DAV:   7    -0.191774656674E+02   -0.23457E-03   -0.14414E-03   256   0.876E-01    0.505E-02
DAV:   8    -0.191775125785E+02   -0.46911E-04   -0.22732E-04   192   0.426E-01
  43 F= -.19177513E+02 E0= -.19185662E+02  d E =-.594576E-01  mag=    -0.0000
       N       E                     dE             d eps       ncg     rms          rms(c)
DAV:   1    -0.191379409242E+02    0.39525E-01   -0.23063E+01   240   0.199E+01    0.483E-01
DAV:   2    -0.192004681699E+02   -0.62527E-01   -0.67154E-01   352   0.798E+00    0.543E-01
DAV:   3    -0.191964848902E+02    0.39833E-02   -0.26907E-02   272   0.385E+00    0.261E-01
DAV:   4    -0.191961722543E+02    0.31264E-03   -0.43939E-03   304   0.118E+00    0.203E-01
DAV:   5    -0.191959239866E+02    0.24827E-03   -0.87793E-04   240   0.782E-01    0.160E-01
DAV:   6    -0.191958350964E+02    0.88890E-04   -0.23346E-03   320   0.371E-01    0.623E-02
DAV:   7    -0.191958203763E+02    0.14720E-04   -0.32770E-04   208   0.432E-01
  44 F= -.19195820E+02 E0= -.19203616E+02  d E =-.183078E-01  mag=    -0.0000
       N       E                     dE             d eps       ncg     rms          rms(c)
DAV:   1    -0.188656125106E+02    0.33022E+00   -0.15054E+02   256   0.550E+01    0.106E+00
DAV:   2    -0.192168260592E+02   -0.35121E+00   -0.36861E+00   352   0.161E+01    0.971E-01
DAV:   3    -0.192059270006E+02    0.10899E-01   -0.10568E-01   272   0.810E+00    0.533E-01
DAV:   4    -0.192042243687E+02    0.17026E-02   -0.16888E-02   320   0.247E+00    0.436E-01
DAV:   5    -0.192020988884E+02    0.21255E-02   -0.67622E-03   320   0.172E+00    0.285E-01
DAV:   6    -0.192012377393E+02    0.86115E-03   -0.66434E-03   352   0.113E+00    0.725E-02
DAV:   7    -0.192013739683E+02   -0.13623E-03   -0.12131E-03   256   0.926E-01    0.458E-02
DAV:   8    -0.192014195394E+02   -0.45571E-04   -0.31091E-04   176   0.494E-01
  45 F= -.19201420E+02 E0= -.19209175E+02  d E =-.239070E-01  mag=    -0.0000
       N       E                     dE             d eps       ncg     rms          rms(c)
DAV:   1    -0.191338798884E+02    0.67494E-01   -0.30015E+01   240   0.229E+01    0.478E-01
DAV:   2    -0.192134922284E+02   -0.79612E-01   -0.82733E-01   352   0.736E+00    0.546E-01
DAV:   3    -0.192093552116E+02    0.41370E-02   -0.21827E-02   272   0.322E+00    0.280E-01
DAV:   4    -0.192088675148E+02    0.48770E-03   -0.31807E-03   352   0.814E-01    0.222E-01
DAV:   5    -0.192085038547E+02    0.36366E-03   -0.12557E-03   288   0.982E-01    0.159E-01
DAV:   6    -0.192083599112E+02    0.14394E-03   -0.20950E-03   320   0.657E-01    0.464E-02
DAV:   7    -0.192083658303E+02   -0.59191E-05   -0.32728E-04   208   0.394E-01
  46 F= -.19208366E+02 E0= -.19215952E+02  d E =-.308533E-01  mag=    -0.0000
       N       E                     dE             d eps       ncg     rms          rms(c)
DAV:   1    -0.192152206363E+02   -0.68607E-02   -0.42261E+00   240   0.831E+00    0.227E-01
DAV:   2    -0.192250084281E+02   -0.97878E-02   -0.10870E-01   336   0.363E+00    0.239E-01
DAV:   3    -0.192241833494E+02    0.82508E-03   -0.58457E-03   272   0.206E+00    0.104E-01
DAV:   4    -0.192241935867E+02   -0.10237E-04   -0.13339E-03   320   0.619E-01    0.751E-02
DAV:   5    -0.192241753663E+02    0.18220E-04   -0.15711E-04   128   0.391E-01
  47 F= -.19224175E+02 E0= -.19231553E+02  d E =-.158095E-01  mag=    -0.0000
       N       E                     dE             d eps       ncg     rms          rms(c)
DAV:   1    -0.191671311517E+02    0.57062E-01   -0.29808E+01   240   0.226E+01    0.622E-01
DAV:   2    -0.192474183894E+02   -0.80287E-01   -0.87026E-01   336   0.877E+00    0.560E-01
DAV:   3    -0.192428854245E+02    0.45330E-02   -0.32341E-02   288   0.480E+00    0.262E-01
DAV:   4    -0.192426283752E+02    0.25705E-03   -0.61081E-03   288   0.149E+00    0.198E-01
DAV:   5    -0.192424202718E+02    0.20810E-03   -0.16844E-03   320   0.108E+00    0.129E-01
DAV:   6    -0.192424099754E+02    0.10296E-04   -0.14154E-03   336   0.571E-01    0.357E-02
DAV:   7    -0.192423982118E+02    0.11764E-04   -0.22901E-04   192   0.430E-01
  48 F= -.19242398E+02 E0= -.19249538E+02  d E =-.340324E-01  mag=    -0.0000
       N       E                     dE             d eps       ncg     rms          rms(c)
DAV:   1    -0.192370792585E+02    0.53307E-02   -0.85125E+00   240   0.116E+01    0.303E-01
DAV:   2    -0.192592412493E+02   -0.22162E-01   -0.24069E-01   336   0.511E+00    0.353E-01
DAV:   3    -0.192575628875E+02    0.16784E-02   -0.11648E-02   240   0.243E+00    0.160E-01
DAV:   4    -0.192574606417E+02    0.10225E-03   -0.22069E-03   288   0.741E-01    0.117E-01
DAV:   5    -0.192573809790E+02    0.79663E-04   -0.40205E-04   192   0.595E-01
  49 F= -.19257381E+02 E0= -.19264787E+02  d E =-.149828E-01  mag=    -0.0000
       N       E                     dE             d eps       ncg     rms          rms(c)
DAV:   1    -0.190541850525E+02    0.20328E+00   -0.77191E+01   240   0.362E+01    0.929E-01
DAV:   2    -0.192956357598E+02   -0.24145E+00   -0.25474E+00   336   0.147E+01    0.906E-01
DAV:   3    -0.192847017085E+02    0.10934E-01   -0.79779E-02   336   0.732E+00    0.464E-01
DAV:   4    -0.192832760314E+02    0.14257E-02   -0.13596E-02   304   0.217E+00    0.369E-01
DAV:   5    -0.192819698321E+02    0.13062E-02   -0.50025E-03   320   0.168E+00    0.242E-01
DAV:   6    -0.192813480086E+02    0.62182E-03   -0.54520E-03   336   0.109E+00    0.672E-02
DAV:   7    -0.192813842177E+02   -0.36209E-04   -0.11652E-03   256   0.860E-01    0.436E-02
DAV:   8    -0.192814000722E+02   -0.15854E-04   -0.24794E-04   144   0.430E-01
  50 F= -.19281400E+02 E0= -.19291038E+02  d E =-.390019E-01  mag=    -0.0000
       N       E                     dE             d eps       ncg     rms          rms(c)
DAV:   1    -0.192528062860E+02    0.28578E-01   -0.11853E+01   240   0.137E+01    0.363E-01
DAV:   2    -0.192853980891E+02   -0.32592E-01   -0.35153E-01   336   0.619E+00    0.411E-01
DAV:   3    -0.192831295786E+02    0.22685E-02   -0.16286E-02   288   0.303E+00    0.196E-01
DAV:   4    -0.192829154170E+02    0.21416E-03   -0.30269E-03   304   0.954E-01    0.148E-01
DAV:   5    -0.192827624281E+02    0.15299E-03   -0.66331E-04   208   0.687E-01    0.107E-01
DAV:   6    -0.192827605493E+02    0.18788E-05   -0.13838E-03   336   0.413E-01    0.460E-02
DAV:   7    -0.192827524980E+02    0.80512E-05   -0.22341E-04   192   0.438E-01
  51 F= -.19282752E+02 E0= -.19293337E+02  d E =-.403543E-01  mag=    -0.0000
       N       E                     dE             d eps       ncg     rms          rms(c)
DAV:   1    -0.192833108900E+02   -0.55034E-03   -0.38985E+00   240   0.776E+00    0.160E-01
DAV:   2    -0.192922001537E+02   -0.88893E-02   -0.93423E-02   336   0.285E+00    0.175E-01
DAV:   3    -0.192918395615E+02    0.36059E-03   -0.32615E-03   304   0.112E+00    0.898E-02
DAV:   4    -0.192917900044E+02    0.49557E-04   -0.31086E-04   208   0.210E-01
  52 F= -.19291790E+02 E0= -.19302786E+02  d E =-.903751E-02  mag=    -0.0000
       N       E                     dE             d eps       ncg     rms          rms(c)
DAV:   1    -0.192191193157E+02    0.72720E-01   -0.35169E+01   240   0.238E+01    0.546E-01
DAV:   2    -0.193214659647E+02   -0.10235E+00   -0.10789E+00   336   0.982E+00    0.638E-01
DAV:   3    -0.193160363557E+02    0.54296E-02   -0.33209E-02   288   0.415E+00    0.346E-01
DAV:   4    -0.193152492957E+02    0.78706E-03   -0.56435E-03   304   0.120E+00    0.274E-01
DAV:   5    -0.193146255734E+02    0.62372E-03   -0.16763E-03   304   0.102E+00    0.202E-01
DAV:   6    -0.193141633000E+02    0.46227E-03   -0.34573E-03   368   0.868E-01    0.708E-02
DAV:   7    -0.193141611734E+02    0.21266E-05   -0.82915E-04   208   0.751E-01
  53 F= -.19314161E+02 E0= -.19327629E+02  d E =-.314087E-01  mag=    -0.0000
       N       E                     dE             d eps       ncg     rms          rms(c)
DAV:   1    -0.189016240948E+02    0.41254E+00   -0.14308E+02   240   0.506E+01    0.117E+00
DAV:   2    -0.193579734813E+02   -0.45635E+00   -0.47679E+00   336   0.190E+01    0.111E+00
DAV:   3    -0.193424786714E+02    0.15495E-01   -0.12128E-01   336   0.842E+00    0.619E-01
DAV:   4    -0.193402316049E+02    0.22471E-02   -0.23891E-02   320   0.282E+00    0.516E-01
DAV:   5    -0.193380345666E+02    0.21970E-02   -0.80229E-03   320   0.203E+00    0.380E-01
DAV:   6    -0.193361551331E+02    0.18794E-02   -0.11723E-02   384   0.186E+00    0.170E-01
DAV:   7    -0.193358854808E+02    0.26965E-03   -0.32494E-03   352   0.135E+00    0.581E-02
DAV:   8    -0.193360405628E+02   -0.15508E-03   -0.11729E-03   224   0.754E-01    0.436E-02
DAV:   9    -0.193360558665E+02   -0.15304E-04   -0.20717E-04   176   0.267E-01
  54 F= -.19336056E+02 E0= -.19354479E+02  d E =-.533034E-01  mag=    -0.0000
       N       E                     dE             d eps       ncg     rms          rms(c)
DAV:   1    -0.193414597312E+02   -0.54192E-02   -0.67180E+00   240   0.105E+01    0.248E-01
DAV:   2    -0.193581422531E+02   -0.16683E-01   -0.17851E-01   320   0.415E+00    0.282E-01
DAV:   3    -0.193571754042E+02    0.96685E-03   -0.85104E-03   288   0.216E+00    0.150E-01
DAV:   4    -0.193571378994E+02    0.37505E-04   -0.21002E-03   288   0.893E-01    0.120E-01
DAV:   5    -0.193570294147E+02    0.10848E-03   -0.58794E-04   176   0.528E-01    0.845E-02
DAV:   6    -0.193570778627E+02   -0.48448E-04   -0.89852E-04   272   0.508E-01
  55 F= -.19357078E+02 E0= -.19376150E+02  d E =-.210220E-01  mag=    -0.0000
       N       E                     dE             d eps       ncg     rms          rms(c)
DAV:   1    -0.192368649082E+02    0.12016E+00   -0.60950E+01   240   0.327E+01    0.796E-01
DAV:   2    -0.194136511438E+02   -0.17679E+00   -0.18810E+00   320   0.125E+01    0.816E-01
DAV:   3    -0.194054946922E+02    0.81565E-02   -0.77018E-02   304   0.703E+00    0.451E-01
DAV:   4    -0.194046872340E+02    0.80746E-03   -0.19811E-02   320   0.280E+00    0.363E-01
DAV:   5    -0.194033937347E+02    0.12935E-02   -0.56018E-03   304   0.132E+00    0.236E-01
DAV:   6    -0.194029820380E+02    0.41170E-03   -0.52866E-03   352   0.155E+00    0.115E-01
DAV:   7    -0.194028748503E+02    0.10719E-03   -0.17904E-03   320   0.100E+00    0.313E-02
DAV:   8    -0.194029845774E+02   -0.10973E-03   -0.27992E-04   160   0.283E-01    0.281E-02
DAV:   9    -0.194030018359E+02   -0.17259E-04   -0.10049E-04   160   0.171E-01
  56 F= -.19403002E+02 E0= -.19425876E+02  d E =-.669460E-01  mag=    -0.0000
       N       E                     dE             d eps       ncg     rms          rms(c)
DAV:   1    -0.189716821709E+02    0.43130E+00   -0.25622E+02   288   0.740E+01    0.131E+00
DAV:   2    -0.194568157948E+02   -0.48513E+00   -0.51807E+00   336   0.212E+01    0.142E+00
DAV:   3    -0.194336240963E+02    0.23192E-01   -0.20164E-01   304   0.131E+01    0.737E-01
DAV:   4    -0.194308560509E+02    0.27680E-02   -0.46618E-02   336   0.438E+00    0.619E-01
DAV:   5    -0.194274168041E+02    0.34392E-02   -0.41181E-02   320   0.449E+00    0.449E-01
DAV:   6    -0.194249785852E+02    0.24382E-02   -0.19356E-02   368   0.312E+00    0.142E-01
DAV:   7    -0.194257690371E+02   -0.79045E-03   -0.42842E-03   304   0.995E-01    0.887E-02
DAV:   8    -0.194257617485E+02    0.72886E-05   -0.12558E-03   272   0.776E-01    0.616E-02
DAV:   9    -0.194258242158E+02   -0.62467E-04   -0.45138E-04   176   0.484E-01
  57 F= -.19425824E+02 E0= -.19458865E+02  d E =-.897683E-01  mag=    -0.0000
       N       E                     dE             d eps       ncg     rms          rms(c)
DAV:   1    -0.194300849390E+02   -0.43232E-02   -0.27832E+00   240   0.667E+00    0.134E-01
DAV:   2    -0.194361913948E+02   -0.61065E-02   -0.64040E-02   336   0.266E+00    0.233E-01
DAV:   3    -0.194356822459E+02    0.50915E-03   -0.66380E-03   256   0.174E+00    0.128E-01
DAV:   4    -0.194357629310E+02   -0.80685E-04   -0.12520E-03   224   0.702E-01    0.803E-02
DAV:   5    -0.194357419688E+02    0.20962E-04   -0.18737E-04   176   0.252E-01
  58 F= -.19435742E+02 E0= -.19469414E+02  d E =-.991775E-02  mag=    -0.0000
       N       E                     dE             d eps       ncg     rms          rms(c)
DAV:   1    -0.194012027319E+02    0.34560E-01   -0.25140E+01   240   0.205E+01    0.471E-01
DAV:   2    -0.194716628169E+02   -0.70460E-01   -0.74845E-01   336   0.899E+00    0.740E-01
DAV:   3    -0.194662409266E+02    0.54219E-02   -0.60448E-02   304   0.582E+00    0.398E-01
DAV:   4    -0.194657547308E+02    0.48620E-03   -0.11427E-02   304   0.214E+00    0.281E-01
DAV:   5    -0.194651762471E+02    0.57848E-03   -0.23421E-03   336   0.876E-01    0.207E-01
DAV:   6    -0.194648291545E+02    0.34709E-03   -0.69247E-04   208   0.855E-01    0.158E-01
DAV:   7    -0.194646173201E+02    0.21183E-03   -0.38865E-03   336   0.606E-01    0.547E-02
DAV:   8    -0.194646124948E+02    0.48252E-05   -0.18315E-04   176   0.332E-01
  59 F= -.19464612E+02 E0= -.19499806E+02  d E =-.387883E-01  mag=     0.0000
       N       E                     dE             d eps       ncg     rms          rms(c)
DAV:   1    -0.192886967561E+02    0.17592E+00   -0.10307E+02   256   0.436E+01    0.909E-01
DAV:   2    -0.195471954291E+02   -0.25850E+00   -0.27109E+00   336   0.173E+01    0.133E+00
DAV:   3    -0.195250527027E+02    0.22143E-01   -0.15116E-01   288   0.112E+01    0.566E-01
DAV:   4    -0.195244320484E+02    0.62065E-03   -0.27143E-02   352   0.317E+00    0.455E-01
DAV:   5    -0.195222060956E+02    0.22260E-02   -0.65238E-03   352   0.139E+00    0.289E-01
DAV:   6    -0.195217393688E+02    0.46673E-03   -0.39365E-03   352   0.207E+00    0.252E-01
DAV:   7    -0.195209649406E+02    0.77443E-03   -0.37598E-03   368   0.121E+00    0.660E-02
DAV:   8    -0.195212049921E+02   -0.24005E-03   -0.94133E-04   256   0.735E-01    0.497E-02
DAV:   9    -0.195212752231E+02   -0.70231E-04   -0.13626E-04   160   0.426E-01
  60 F= -.19521275E+02 E0= -.19557181E+02  d E =-.954510E-01  mag=     0.0000
       N       E                     dE             d eps       ncg     rms          rms(c)
DAV:   1    -0.191606214891E+02    0.36058E+00   -0.45896E+02   320   0.108E+02    0.145E+00
DAV:   2    -0.196568660291E+02   -0.49624E+00   -0.52234E+00   352   0.252E+01    0.186E+00
DAV:   3    -0.196148849950E+02    0.41981E-01   -0.38585E-01   272   0.167E+01    0.843E-01
DAV:   4    -0.196118839376E+02    0.30011E-02   -0.58155E-02   352   0.511E+00    0.634E-01
DAV:   5    -0.196078104484E+02    0.40735E-02   -0.23054E-02   336   0.320E+00    0.418E-01
DAV:   6    -0.196064146486E+02    0.13958E-02   -0.20724E-02   352   0.345E+00    0.270E-01
DAV:   7    -0.196062325086E+02    0.18214E-03   -0.83069E-03   336   0.268E+00    0.156E-01
DAV:   8    -0.196060624729E+02    0.17004E-03   -0.17713E-03   304   0.119E+00    0.576E-02
DAV:   9    -0.196063078984E+02   -0.24543E-03   -0.31596E-04   208   0.427E-01    0.300E-02
DAV:  10    -0.196064426103E+02   -0.13471E-03   -0.18367E-04   176   0.206E-01    0.145E-02
DAV:  11    -0.196065501136E+02   -0.10750E-03   -0.11920E-04   176   0.153E-01    0.111E-02
DAV:  12    -0.196066320686E+02   -0.81955E-04   -0.49081E-05   160   0.109E-01
  61 F= -.19606632E+02 E0= -.19640559E+02  d E =-.180808E+00  mag=     0.0000
       N       E                     dE             d eps       ncg     rms          rms(c)
DAV:   1    -0.123147363629E+02    0.72918E+01   -0.25657E+03   304   0.368E+02    0.589E+00
DAV:   2    -0.209418060734E+02   -0.86271E+01   -0.90801E+01   320   0.121E+02    0.162E+01
DAV:   3    -0.193874775735E+02    0.15543E+01   -0.22063E+01   304   0.493E+01    0.446E+00
DAV:   4    -0.192637901143E+02    0.12369E+00   -0.15856E+00   352   0.261E+01    0.240E+00
DAV:   5    -0.192553825579E+02    0.84076E-02   -0.36352E-01   352   0.125E+01    0.165E+00
DAV:   6    -0.192468781959E+02    0.85044E-02   -0.17266E-01   288   0.114E+01    0.159E+00
DAV:   7    -0.192232112631E+02    0.23667E-01   -0.14509E-01   320   0.740E+00    0.636E-01
DAV:   8    -0.192209390430E+02    0.22722E-02   -0.44020E-02   336   0.390E+00    0.220E-01
DAV:   9    -0.192207937707E+02    0.14527E-03   -0.85135E-03   352   0.225E+00    0.137E-01
DAV:  10    -0.192209025597E+02   -0.10879E-03   -0.23077E-03   336   0.884E-01    0.565E-02
DAV:  11    -0.192212109775E+02   -0.30842E-03   -0.43632E-04   256   0.456E-01    0.237E-02
DAV:  12    -0.192215049155E+02   -0.29394E-03   -0.15893E-04   144   0.307E-01    0.166E-02
DAV:  13    -0.192217085503E+02   -0.20363E-03   -0.10590E-04   176   0.150E-01    0.102E-02
DAV:  14    -0.192218498475E+02   -0.14130E-03   -0.50224E-05   144   0.958E-02    0.854E-03
DAV:  15    -0.192220100062E+02   -0.16016E-03   -0.28886E-05   176   0.829E-02    0.457E-03
DAV:  16    -0.192221824286E+02   -0.17242E-03   -0.30382E-05   144   0.517E-02    0.439E-03
DAV:  17    -0.192222726593E+02   -0.90231E-04   -0.21754E-05   176   0.653E-02
  62 F= -.19222273E+02 E0= -.19245037E+02  d E =0.203552E+00  mag=    -0.0000
       N       E                     dE             d eps       ncg     rms          rms(c)
DAV:   1    -0.156055902078E+02    0.36166E+01   -0.20878E+03   304   0.316E+02    0.464E+00
DAV:   2    -0.204578795394E+02   -0.48523E+01   -0.52134E+01   336   0.900E+01    0.961E+00
DAV:   3    -0.196564590909E+02    0.80142E+00   -0.78526E+00   320   0.382E+01    0.274E+00
DAV:   4    -0.196423251596E+02    0.14134E-01   -0.84625E-01   352   0.179E+01    0.183E+00
DAV:   5    -0.196263269096E+02    0.15998E-01   -0.19209E-01   320   0.102E+01    0.126E+00
DAV:   6    -0.196250957934E+02    0.12311E-02   -0.11791E-01   320   0.887E+00    0.125E+00
DAV:   7    -0.196110337565E+02    0.14062E-01   -0.15274E-01   304   0.812E+00    0.499E-01
DAV:   8    -0.196118955763E+02   -0.86182E-03   -0.35380E-02   368   0.372E+00    0.240E-01
DAV:   9    -0.196114394592E+02    0.45612E-03   -0.60141E-03   304   0.246E+00    0.130E-01
DAV:  10    -0.196118457784E+02   -0.40632E-03   -0.21704E-03   352   0.736E-01    0.662E-02
DAV:  11    -0.196119858545E+02   -0.14008E-03   -0.44750E-04   208   0.561E-01    0.217E-02
DAV:  12    -0.196122451343E+02   -0.25928E-03   -0.84992E-05   176   0.214E-01    0.124E-02
DAV:  13    -0.196124329354E+02   -0.18780E-03   -0.69787E-05   176   0.114E-01    0.829E-03
DAV:  14    -0.196125466635E+02   -0.11373E-03   -0.38804E-05   176   0.847E-02    0.598E-03
DAV:  15    -0.196127586405E+02   -0.21198E-03   -0.36643E-05   176   0.548E-02    0.402E-03
DAV:  16    -0.196128602405E+02   -0.10160E-03   -0.26246E-05   176   0.475E-02    0.437E-03
DAV:  17    -0.196129439852E+02   -0.83745E-04   -0.19180E-05   176   0.462E-02
  63 F= -.19612944E+02 E0= -.19646462E+02  d E =-.187120E+00  mag=     0.0000
       N       E                     dE             d eps       ncg     rms          rms(c)
DAV:   1    -0.196162509547E+02   -0.33907E-02   -0.30811E+01   240   0.227E+01    0.737E-01
DAV:   2    -0.197008807708E+02   -0.84630E-01   -0.93568E-01   336   0.111E+01    0.724E-01
DAV:   3    -0.196953002643E+02    0.55805E-02   -0.54661E-02   304   0.693E+00    0.484E-01
DAV:   4    -0.196938641741E+02    0.14361E-02   -0.18205E-02   336   0.372E+00    0.304E-01
DAV:   5    -0.196935831841E+02    0.28099E-03   -0.50656E-03   320   0.121E+00    0.179E-01
DAV:   6    -0.196936503590E+02   -0.67175E-04   -0.28067E-03   288   0.160E+00    0.150E-01
DAV:   7    -0.196934040633E+02    0.24630E-03   -0.14922E-03   272   0.138E+00    0.496E-02
DAV:   8    -0.196934761124E+02   -0.72049E-04   -0.33129E-04   224   0.516E-01
  64 F= -.19693476E+02 E0= -.19727153E+02  d E =-.805321E-01  mag=     0.0000
       N       E                     dE             d eps       ncg     rms          rms(c)
DAV:   1    -0.194236178729E+02    0.26979E+00   -0.11546E+02   240   0.467E+01    0.155E+00
DAV:   2    -0.197697466944E+02   -0.34613E+00   -0.38174E+00   352   0.224E+01    0.144E+00
DAV:   3    -0.197461739300E+02    0.23573E-01   -0.27510E-01   304   0.151E+01    0.808E-01
DAV:   4    -0.197419174019E+02    0.42565E-02   -0.59888E-02   336   0.701E+00    0.518E-01
DAV:   5    -0.197406898207E+02    0.12276E-02   -0.14798E-02   352   0.275E+00    0.339E-01
DAV:   6    -0.197403859379E+02    0.30388E-03   -0.83899E-03   320   0.258E+00    0.211E-01
DAV:   7    -0.197400907394E+02    0.29520E-03   -0.36242E-03   320   0.238E+00    0.121E-01
DAV:   8    -0.197400067898E+02    0.83950E-04   -0.79393E-04   256   0.108E+00
  65 F= -.19740007E+02 E0= -.19773404E+02  d E =-.127063E+00  mag=     0.0000
       N       E                     dE             d eps       ncg     rms          rms(c)
DAV:   1    -0.197312878476E+02    0.88029E-02   -0.56211E+00   240   0.951E+00    0.285E-01
DAV:   2    -0.197451524052E+02   -0.13865E-01   -0.14964E-01   336   0.367E+00    0.304E-01
DAV:   3    -0.197440455085E+02    0.11069E-02   -0.67228E-03   320   0.184E+00    0.164E-01
DAV:   4    -0.197441019976E+02   -0.56489E-04   -0.19612E-03   288   0.136E+00    0.148E-01
DAV:   5    -0.197439301419E+02    0.17186E-03   -0.69393E-04   256   0.944E-01    0.732E-02
DAV:   6    -0.197440900243E+02   -0.15988E-03   -0.43065E-04   192   0.644E-01    0.514E-02
DAV:   7    -0.197440573438E+02    0.32680E-04   -0.21500E-04   176   0.513E-01
  66 F= -.19744057E+02 E0= -.19777439E+02  d E =-.131113E+00  mag=     0.0000
       N       E                     dE             d eps       ncg     rms          rms(c)
DAV:   1    -0.197576960420E+02   -0.13606E-01   -0.79685E+00   240   0.115E+01    0.310E-01
DAV:   2    -0.197754823825E+02   -0.17786E-01   -0.19682E-01   336   0.519E+00    0.336E-01
DAV:   3    -0.197739917537E+02    0.14906E-02   -0.10815E-02   288   0.314E+00    0.174E-01
DAV:   4    -0.197739599409E+02    0.31813E-04   -0.23952E-03   320   0.112E+00    0.119E-01
DAV:   5    -0.197739312522E+02    0.28689E-04   -0.53246E-04   224   0.456E-01
  67 F= -.19773931E+02 E0= -.19807154E+02  d E =-.298739E-01  mag=     0.0000
       N       E                     dE             d eps       ncg     rms          rms(c)
DAV:   1    -0.196469332922E+02    0.12703E+00   -0.73318E+01   240   0.371E+01    0.973E-01
DAV:   2    -0.198399262231E+02   -0.19299E+00   -0.20969E+00   320   0.156E+01    0.913E-01
DAV:   3    -0.198284487276E+02    0.11477E-01   -0.91203E-02   352   0.903E+00    0.514E-01
DAV:   4    -0.198272910009E+02    0.11577E-02   -0.22577E-02   336   0.323E+00    0.373E-01
DAV:   5    -0.198263716616E+02    0.91934E-03   -0.46376E-03   336   0.147E+00    0.270E-01
DAV:   6    -0.198257634431E+02    0.60822E-03   -0.40188E-03   336   0.193E+00    0.168E-01
DAV:   7    -0.198254619971E+02    0.30145E-03   -0.28224E-03   368   0.150E+00    0.480E-02
DAV:   8    -0.198255949014E+02   -0.13290E-03   -0.51990E-04   224   0.430E-01    0.343E-02
DAV:   9    -0.198256292662E+02   -0.34365E-04   -0.12663E-04   160   0.258E-01
  68 F= -.19825629E+02 E0= -.19858721E+02  d E =-.815719E-01  mag=     0.0000
       N       E                     dE             d eps       ncg     rms          rms(c)
DAV:   1    -0.198040649653E+02    0.21530E-01   -0.11512E+01   240   0.140E+01    0.383E-01
DAV:   2    -0.198310733415E+02   -0.27008E-01   -0.29581E-01   352   0.591E+00    0.379E-01
DAV:   3    -0.198290233710E+02    0.20500E-02   -0.14120E-02   288   0.341E+00    0.193E-01
DAV:   4    -0.198289996436E+02    0.23727E-04   -0.35214E-03   320   0.129E+00    0.144E-01
DAV:   5    -0.198288978970E+02    0.10175E-03   -0.84424E-04   256   0.624E-01    0.995E-02
DAV:   6    -0.198289216102E+02   -0.23713E-04   -0.80831E-04   288   0.775E-01
  69 F= -.19828922E+02 E0= -.19861434E+02  d E =-.848643E-01  mag=     0.0000
       N       E                     dE             d eps       ncg     rms          rms(c)
DAV:   1    -0.198037628133E+02    0.25135E-01   -0.16520E+01   224   0.156E+01    0.388E-01
DAV:   2    -0.198502263720E+02   -0.46464E-01   -0.48868E-01   352   0.679E+00    0.484E-01
DAV:   3    -0.198473349247E+02    0.28914E-02   -0.16522E-02   288   0.287E+00    0.256E-01
DAV:   4    -0.198471927265E+02    0.14220E-03   -0.35535E-03   320   0.147E+00    0.214E-01
DAV:   5    -0.198467765999E+02    0.41613E-03   -0.11790E-03   352   0.978E-01    0.143E-01
DAV:   6    -0.198466862445E+02    0.90355E-04   -0.15574E-03   352   0.564E-01    0.633E-02
DAV:   7    -0.198466552858E+02    0.30959E-04   -0.29804E-04   208   0.551E-01
  70 F= -.19846655E+02 E0= -.19880218E+02  d E =-.177337E-01  mag=     0.0000
       N       E                     dE             d eps       ncg     rms          rms(c)
DAV:   1    -0.197973373533E+02    0.49349E-01   -0.21000E+01   240   0.177E+01    0.469E-01
DAV:   2    -0.198588764512E+02   -0.61539E-01   -0.65420E-01   352   0.843E+00    0.606E-01
DAV:   3    -0.198542904299E+02    0.45860E-02   -0.27760E-02   320   0.402E+00    0.307E-01
DAV:   4    -0.198540510024E+02    0.23943E-03   -0.48263E-03   336   0.165E+00    0.242E-01
DAV:   5    -0.198535819675E+02    0.46903E-03   -0.14085E-03   352   0.981E-01    0.169E-01
DAV:   6    -0.198534018833E+02    0.18008E-03   -0.13362E-03   352   0.996E-01    0.106E-01
DAV:   7    -0.198532642010E+02    0.13768E-03   -0.78082E-04   272   0.779E-01    0.322E-02
DAV:   8    -0.198533721207E+02   -0.10792E-03   -0.39852E-04   240   0.426E-01    0.347E-02
DAV:   9    -0.198533741531E+02   -0.20324E-05   -0.10692E-04   176   0.242E-01
  71 F= -.19853374E+02 E0= -.19887743E+02  d E =-.244525E-01  mag=     0.0000
       N       E                     dE             d eps       ncg     rms          rms(c)
DAV:   1    -0.198459953589E+02    0.73768E-02   -0.87270E+00   224   0.106E+01    0.240E-01
DAV:   2    -0.198664310500E+02   -0.20436E-01   -0.21565E-01   352   0.438E+00    0.311E-01
DAV:   3    -0.198650656819E+02    0.13654E-02   -0.79100E-03   336   0.166E+00    0.146E-01
DAV:   4    -0.198649603686E+02    0.10531E-03   -0.84980E-04   320   0.442E-01    0.121E-01
DAV:   5    -0.198648600827E+02    0.10029E-03   -0.12408E-04   160   0.534E-01    0.107E-01
DAV:   6    -0.198647521281E+02    0.10795E-03   -0.14529E-03   352   0.409E-01    0.513E-02
DAV:   7    -0.198647302227E+02    0.21905E-04   -0.13619E-04   160   0.409E-01
  72 F= -.19864730E+02 E0= -.19899305E+02  d E =-.113561E-01  mag=     0.0000
       N       E                     dE             d eps       ncg     rms          rms(c)
DAV:   1    -0.196722011887E+02    0.19255E+00   -0.78610E+01   224   0.324E+01    0.860E-01
DAV:   2    -0.199006303991E+02   -0.22843E+00   -0.24190E+00   352   0.143E+01    0.105E+00
DAV:   3    -0.198844023753E+02    0.16228E-01   -0.80509E-02   336   0.599E+00    0.497E-01
DAV:   4    -0.198831519140E+02    0.12505E-02   -0.11538E-02   336   0.221E+00    0.413E-01
DAV:   5    -0.198818533443E+02    0.12986E-02   -0.21838E-03   352   0.159E+00    0.329E-01
DAV:   6    -0.198800448182E+02    0.18085E-02   -0.85491E-03   336   0.636E-01    0.125E-01
DAV:   7    -0.198799350660E+02    0.10975E-03   -0.12140E-03   288   0.868E-01    0.563E-02
DAV:   8    -0.198799773233E+02   -0.42257E-04   -0.49798E-04   224   0.637E-01
  73 F= -.19879977E+02 E0= -.19915176E+02  d E =-.266032E-01  mag=     0.0000
       N       E                     dE             d eps       ncg     rms          rms(c)
DAV:   1    -0.198745713395E+02    0.53637E-02   -0.65224E+00   240   0.973E+00    0.202E-01
DAV:   2    -0.198893222472E+02   -0.14751E-01   -0.15282E-01   352   0.347E+00    0.243E-01
DAV:   3    -0.198885230347E+02    0.79921E-03   -0.44687E-03   304   0.156E+00    0.125E-01
DAV:   4    -0.198884732518E+02    0.49783E-04   -0.86631E-04   288   0.706E-01
  74 F= -.19888473E+02 E0= -.19923667E+02  d E =-.849593E-02  mag=     0.0000
       N       E                     dE             d eps       ncg     rms          rms(c)
DAV:   1    -0.197465556977E+02    0.14197E+00   -0.58760E+01   240   0.298E+01    0.685E-01
DAV:   2    -0.199151967020E+02   -0.16864E+00   -0.17529E+00   352   0.109E+01    0.818E-01
DAV:   3    -0.199057673535E+02    0.94293E-02   -0.43344E-02   336   0.398E+00    0.439E-01
DAV:   4    -0.199041345027E+02    0.16329E-02   -0.58370E-03   352   0.133E+00    0.351E-01
DAV:   5    -0.199029302098E+02    0.12043E-02   -0.39163E-03   352   0.219E+00    0.275E-01
DAV:   6    -0.199017821761E+02    0.11480E-02   -0.67354E-03   400   0.139E+00    0.687E-02
DAV:   7    -0.199019162056E+02   -0.13403E-03   -0.93638E-04   272   0.674E-01    0.500E-02
DAV:   8    -0.199019467033E+02   -0.30498E-04   -0.30907E-04   208   0.479E-01
  75 F= -.19901947E+02 E0= -.19937635E+02  d E =-.219694E-01  mag=     0.0000
       N       E                     dE             d eps       ncg     rms          rms(c)
DAV:   1    -0.198814619878E+02    0.20454E-01   -0.95858E+00   240   0.118E+01    0.270E-01
DAV:   2    -0.199048482380E+02   -0.23386E-01   -0.24645E-01   352   0.460E+00    0.343E-01
DAV:   3    -0.199031627391E+02    0.16855E-02   -0.83065E-03   320   0.174E+00    0.163E-01
DAV:   4    -0.199029851169E+02    0.17762E-03   -0.10249E-03   352   0.477E-01    0.128E-01
DAV:   5    -0.199028724725E+02    0.11264E-03   -0.36274E-04   208   0.791E-01    0.113E-01
DAV:   6    -0.199027669937E+02    0.10548E-03   -0.14321E-03   352   0.472E-01    0.377E-02
DAV:   7    -0.199027851770E+02   -0.18183E-04   -0.88616E-05   160   0.262E-01
  76 F= -.19902785E+02 E0= -.19938459E+02  d E =-.228079E-01  mag=     0.0000
       N       E                     dE             d eps       ncg     rms          rms(c)
DAV:   1    -0.198705880206E+02    0.32179E-01   -0.17971E+01   240   0.167E+01    0.390E-01
DAV:   2    -0.199158301696E+02   -0.45242E-01   -0.47789E-01   352   0.625E+00    0.471E-01
DAV:   3    -0.199124336987E+02    0.33965E-02   -0.15145E-02   320   0.256E+00    0.219E-01
DAV:   4    -0.199121208850E+02    0.31281E-03   -0.26817E-03   352   0.946E-01    0.177E-01
DAV:   5    -0.199118578466E+02    0.26304E-03   -0.68367E-04   240   0.888E-01    0.140E-01
DAV:   6    -0.199116628431E+02    0.19500E-03   -0.22334E-03   336   0.325E-01    0.535E-02
DAV:   7    -0.199116544249E+02    0.84182E-05   -0.23931E-04   208   0.406E-01
  77 F= -.19911654E+02 E0= -.19947403E+02  d E =-.886925E-02  mag=     0.0000
       N       E                     dE             d eps       ncg     rms          rms(c)
DAV:   1    -0.197857873466E+02    0.12588E+00   -0.49918E+01   240   0.283E+01    0.662E-01
DAV:   2    -0.199248789512E+02   -0.13909E+00   -0.14528E+00   352   0.100E+01    0.720E-01
DAV:   3    -0.199170779033E+02    0.78010E-02   -0.37421E-02   336   0.428E+00    0.368E-01
DAV:   4    -0.199161875889E+02    0.89031E-03   -0.72164E-03   320   0.193E+00    0.306E-01
DAV:   5    -0.199152687901E+02    0.91880E-03   -0.20552E-03   320   0.136E+00    0.221E-01
DAV:   6    -0.199145994590E+02    0.66933E-03   -0.48240E-03   368   0.704E-01    0.802E-02
DAV:   7    -0.199145666152E+02    0.32844E-04   -0.73774E-04   256   0.796E-01
  78 F= -.19914567E+02 E0= -.19950414E+02  d E =-.117814E-01  mag=     0.0000
       N       E                     dE             d eps       ncg     rms          rms(c)
DAV:   1    -0.198917973627E+02    0.22802E-01   -0.13748E+01   224   0.134E+01    0.309E-01
DAV:   2    -0.199228519812E+02   -0.31055E-01   -0.32723E-01   352   0.605E+00    0.394E-01
DAV:   3    -0.199207493202E+02    0.21027E-02   -0.12981E-02   320   0.306E+00    0.197E-01
DAV:   4    -0.199206257490E+02    0.12357E-03   -0.24461E-03   320   0.967E-01    0.160E-01
DAV:   5    -0.199203947063E+02    0.23104E-03   -0.55518E-04   224   0.479E-01    0.120E-01
DAV:   6    -0.199202794650E+02    0.11524E-03   -0.19613E-03   352   0.570E-01    0.613E-02
DAV:   7    -0.199202387322E+02    0.40733E-04   -0.22476E-04   192   0.510E-01
  79 F= -.19920239E+02 E0= -.19956239E+02  d E =-.567212E-02  mag=    -0.0000
       N       E                     dE             d eps       ncg     rms          rms(c)
DAV:   1    -0.198637118935E+02    0.56568E-01   -0.26294E+01   224   0.186E+01    0.473E-01
DAV:   2    -0.199290930242E+02   -0.65381E-01   -0.69896E-01   352   0.856E+00    0.599E-01
DAV:   3    -0.199238011755E+02    0.52918E-02   -0.27243E-02   288   0.378E+00    0.292E-01
DAV:   4    -0.199234247544E+02    0.37642E-03   -0.53143E-03   336   0.126E+00    0.230E-01
DAV:   5    -0.199229907700E+02    0.43398E-03   -0.97252E-04   320   0.872E-01    0.180E-01
DAV:   6    -0.199225409615E+02    0.44981E-03   -0.24331E-03   352   0.520E-01    0.899E-02
DAV:   7    -0.199224618089E+02    0.79153E-04   -0.58685E-04   256   0.615E-01
  80 F= -.19922462E+02 E0= -.19958484E+02  d E =-.789519E-02  mag=    -0.0000
       N       E                     dE             d eps       ncg     rms          rms(c)
DAV:   1    -0.199134952378E+02    0.90457E-02   -0.51707E+00   240   0.877E+00    0.253E-01
DAV:   2    -0.199256035773E+02   -0.12108E-01   -0.12847E-01   352   0.347E+00    0.254E-01
DAV:   3    -0.199250315547E+02    0.57202E-03   -0.56894E-03   272   0.234E+00    0.144E-01
DAV:   4    -0.199249293147E+02    0.10224E-03   -0.12450E-03   288   0.105E+00    0.954E-02
DAV:   5    -0.199249279635E+02    0.13512E-05   -0.42238E-04   224   0.449E-01
  81 F= -.19924928E+02 E0= -.19961009E+02  d E =-.246615E-02  mag=    -0.0000
       N       E                     dE             d eps       ncg     rms          rms(c)
DAV:   1    -0.199245690927E+02    0.36022E-03   -0.17385E-01   256   0.163E+00    0.448E-02
DAV:   2    -0.199250848400E+02   -0.51575E-03   -0.52826E-03   352   0.603E-01    0.482E-02
DAV:   3    -0.199250604993E+02    0.24341E-04   -0.12393E-04   160   0.226E-01
  82 F= -.19925060E+02 E0= -.19961303E+02  d E =-.259869E-02  mag=    -0.0000
