 vasp.6.1.2 22Jul20 (build Aug  2 2021 21:04:21) gamma-only                      
 executed on             LinuxPGI date 2021.12.22  03:22:10
 running on   16 total cores
 distrk:  each k-point on   16 cores,    1 groups
 distr:  one band on NCORE=   8 cores,    2 groups


--------------------------------------------------------------------------------------------------------


 INCAR:
 POTCAR:    PAW_PBE Au 04Oct2007                  
 POTCAR:    PAW_PBE Cu 22Jun2005                  
 -----------------------------------------------------------------------------
|                                                                             |
|           W    W    AA    RRRRR   N    N  II  N    N   GGGG   !!!           |
|           W    W   A  A   R    R  NN   N  II  NN   N  G    G  !!!           |
|           W    W  A    A  R    R  N N  N  II  N N  N  G       !!!           |
|           W WW W  AAAAAA  RRRRR   N  N N  II  N  N N  G  GGG   !            |
|           WW  WW  A    A  R   R   N   NN  II  N   NN  G    G                |
|           W    W  A    A  R    R  N    N  II  N    N   GGGG   !!!           |
|                                                                             |
|     You use a magnetic or noncollinear calculation, but did not specify     |
|     the initial magnetic moment with the MAGMOM tag. Note that a            |
|     default of 1 will be used for all atoms. This ferromagnetic setup       |
|     may break the symmetry of the crystal, in particular it may rule        |
|     out finding an antiferromagnetic solution. Thence, we recommend         |
|     setting the initial magnetic moment manually or verifying carefully     |
|     that this magnetic setup is desired.                                    |
|                                                                             |
 -----------------------------------------------------------------------------

 POTCAR:    PAW_PBE Au 04Oct2007                  
   SHA256 =  d0044ae04e2bdce24051b198fc5c053d722a5bc6fe3c3b100514a13fc5d2db88 Au/POTCAR             
   COPYR  = (c) Copyright 04Oct2007 Georg Kresse                                                    
   COPYR  = This file is part of the software VASP. Any use, copying, and all other rights are regul
   COPYR  = If you do not have a valid VASP license, you may not use, copy or distribute this file. 
   VRHFIN =Au: s1d10                                                                                
   LEXCH  = PE                                                                                      
   EATOM  =   926.0867 eV,   68.0654 Ry                                                             
                                                                                                    
   TITEL  = PAW_PBE Au 04Oct2007                                                                    
   LULTRA =        F    use ultrasoft PP ?                                                          
   IUNSCR =        1    unscreen: 0-lin 1-nonlin 2-no                                               
   RPACOR =    2.330    partial core radius                                                         
   POMASS =  196.966; ZVAL   =   11.000    mass and valenz                                          
   RCORE  =    2.500    outmost cutoff radius                                                       
   RWIGS  =    2.840; RWIGS  =    1.503    wigner-seitz radius (au A)                               
   ENMAX  =  229.943; ENMIN  =  172.457 eV                                                          
   ICORE  =        3    local potential                                                             
   LCOR   =        T    correct aug charges                                                         
   LPAW   =        T    paw PP                                                                      
   EAUG   =  356.670                                                                                
   DEXC   =    0.000                                                                                
   RMAX   =    2.562    core radius for proj-oper                                                   
   RAUG   =    1.300    factor for augmentation sphere                                              
   RDEP   =    2.598    radius for radial grids                                                     
   RDEPT  =    2.193    core radius for aug-charge                                                  
                                                                                                    
   Atomic configuration                                                                             
   16 entries                                                                                       
     n  l   j            E        occ.                                                              
     1  0  0.50    -80748.5001   2.0000                                                             
     2  0  0.50    -14244.7466   2.0000                                                             
     2  1  1.50    -12310.9591   6.0000                                                             
     3  0  0.50     -3362.1768   2.0000                                                             
     3  1  1.50     -2801.5463   6.0000                                                             
     3  2  2.50     -2203.8206  10.0000                                                             
     4  0  0.50      -729.8168   2.0000                                                             
     4  1  1.50      -546.0527   6.0000                                                             
     4  2  2.50      -325.7302  10.0000                                                             
     4  3  3.50       -81.1472  14.0000                                                             
     5  0  0.50      -108.3201   2.0000                                                             
     5  1  1.50       -59.7479   6.0000                                                             
     5  2  2.50        -6.8783  10.0000                                                             
     6  0  0.50        -5.7602   1.0000                                                             
     6  1  1.50        -6.8029   0.0000                                                             
     5  3  2.50        -1.3606   0.0000                                                             
   Description                                                                                      
     l       E           TYP  RCUT    TYP  RCUT                                                     
     2     -6.8782861     23  2.500                                                                 
     2     -8.2388687     23  2.500                                                                 
     0     -5.7601759     23  2.500                                                                 
     0     -0.8493231     23  2.500                                                                 
     1     -2.7211652     23  2.500                                                                 
     1     27.2116520     23  2.500                                                                 
     3     -1.3605826     23  2.500                                                                 
  local pseudopotential read in
  partial core-charges read in
  partial kinetic energy density read in
  atomic valenz-charges read in
  non local Contribution for L=            2  read in
    real space projection operators read in
  non local Contribution for L=            2  read in
    real space projection operators read in
  non local Contribution for L=            0  read in
    real space projection operators read in
  non local Contribution for L=            0  read in
    real space projection operators read in
  non local Contribution for L=            1  read in
    real space projection operators read in
  non local Contribution for L=            1  read in
    real space projection operators read in
    PAW grid and wavefunctions read in
 
   number of l-projection  operators is LMAX  =            6
   number of lm-projection operators is LMMAX =           18
 
 POTCAR:    PAW_PBE Cu 22Jun2005                  
   SHA256 =  0e71e558f37a4e8407882b4609ceaae59938afaad9ced71dfe8490308a0ab630 Cu/POTCAR             
   COPYR  = (c) Copyright 22Jun2005 Georg Kresse                                                    
   COPYR  = This file is part of the software VASP. Any use, copying, and all other rights are regul
   COPYR  = If you do not have a valid VASP license, you may not use, copy or distribute this file. 
   VRHFIN =Cu: d10 p1                                                                               
   LEXCH  = PE                                                                                      
   EATOM  =  1390.9808 eV,  102.2342 Ry                                                             
                                                                                                    
   TITEL  = PAW_PBE Cu 22Jun2005                                                                    
   LULTRA =        F    use ultrasoft PP ?                                                          
   IUNSCR =        1    unscreen: 0-lin 1-nonlin 2-no                                               
   RPACOR =    2.000    partial core radius                                                         
   POMASS =   63.546; ZVAL   =   11.000    mass and valenz                                          
   RCORE  =    2.300    outmost cutoff radius                                                       
   RWIGS  =    2.200; RWIGS  =    1.164    wigner-seitz radius (au A)                               
   ENMAX  =  295.446; ENMIN  =  221.585 eV                                                          
   ICORE  =        3    local potential                                                             
   LCOR   =        T    correct aug charges                                                         
   LPAW   =        T    paw PP                                                                      
   EAUG   =  586.980                                                                                
   DEXC   =    0.000                                                                                
   RMAX   =    2.344    core radius for proj-oper                                                   
   RAUG   =    1.300    factor for augmentation sphere                                              
   RDEP   =    2.302    radius for radial grids                                                     
   RDEPT  =    1.771    core radius for aug-charge                                                  
                                                                                                    
   Atomic configuration                                                                             
    9 entries                                                                                       
     n  l   j            E        occ.                                                              
     1  0  0.50     -8850.2468   2.0000                                                             
     2  0  0.50     -1062.3498   2.0000                                                             
     2  1  1.50      -916.8226   6.0000                                                             
     3  0  0.50      -114.6929   2.0000                                                             
     3  1  1.50       -72.1325   6.0000                                                             
     3  2  2.50        -5.0394  10.0000                                                             
     4  0  0.50        -4.6097   1.0000                                                             
     4  1  0.50        -4.0817   0.0000                                                             
     4  3  2.50        -1.3606   0.0000                                                             
   Description                                                                                      
     l       E           TYP  RCUT    TYP  RCUT                                                     
     2     -5.0393973     23  2.200                                                                 
     2     10.8846608     23  2.200                                                                 
     0     -4.6097109     23  2.200                                                                 
     0      8.2520465     23  2.200                                                                 
     1     -2.7211652     23  2.200                                                                 
     1     21.7055443     23  2.200                                                                 
     3      2.7211652     23  2.300                                                                 
  local pseudopotential read in
  partial core-charges read in
  partial kinetic energy density read in
  atomic valenz-charges read in
  non local Contribution for L=            2  read in
    real space projection operators read in
  non local Contribution for L=            2  read in
    real space projection operators read in
  non local Contribution for L=            0  read in
    real space projection operators read in
  non local Contribution for L=            0  read in
    real space projection operators read in
  non local Contribution for L=            1  read in
    real space projection operators read in
  non local Contribution for L=            1  read in
    real space projection operators read in
    PAW grid and wavefunctions read in
 
   number of l-projection  operators is LMAX  =            6
   number of lm-projection operators is LMMAX =           18
 
  PAW_PBE Au 04Oct2007                  :
 energy of atom  1       EATOM= -926.0867
 kinetic energy error for atom=    0.0062 (will be added to EATOM!!)
  PAW_PBE Cu 22Jun2005                  :
 energy of atom  2       EATOM=-1390.9808
 kinetic energy error for atom=    0.0232 (will be added to EATOM!!)
 
 
 POSCAR: Au Cu
  positions in cartesian coordinates
  No initial velocities read in
 exchange correlation table for  LEXCH =        8
   RHO(1)=    0.500       N(1)  =     2000
   RHO(2)=  100.500       N(2)  =     4000
 


--------------------------------------------------------------------------------------------------------


 ion  position               nearest neighbor table
   1  0.506  0.448  0.527-   6 2.52   5 2.55   2 2.55   7 2.58   4 2.62   8 2.69
   2  0.507  0.563  0.543-   6 2.42   8 2.49   1 2.55
   3  0.509  0.444  0.376-   5 2.51   7 2.51   4 2.54   8 2.54
   4  0.429  0.456  0.448-   3 2.54   8 2.55   7 2.56   1 2.62
   5  0.583  0.441  0.452-   8 2.50   3 2.51   7 2.51   1 2.55
   6  0.456  0.497  0.608-   2 2.42   1 2.52
   7  0.500  0.366  0.451-   5 2.51   3 2.51   4 2.56   1 2.58
   8  0.515  0.530  0.446-   2 2.49   5 2.50   3 2.54   4 2.55   1 2.69
 

IMPORTANT INFORMATION: All symmetrisations will be switched off!
NOSYMM: (Re-)initialisation of all symmetry stuff for point group C_1.


----------------------------------------------------------------------------------------

                                     Primitive cell                                     

  volume of cell :   12180.0584

  direct lattice vectors                    reciprocal lattice vectors
    22.795131814  0.000000000  0.000000000     0.043869016  0.000000000  0.000000000
     0.000000000 21.908248603  0.000000000     0.000000000  0.045644908  0.000000000
     0.000000000  0.000000000 24.389314937     0.000000000  0.000000000  0.041001562

  length of vectors
    22.795131814 21.908248603 24.389314937     0.043869016  0.045644908  0.041001562

  position of ions in fractional coordinates (direct lattice)
     0.505618515  0.447864381  0.526942733
     0.506559933  0.562773676  0.543289992
     0.508799062  0.444077202  0.376276748
     0.428561328  0.456048881  0.447714658
     0.583078748  0.441186842  0.451935238
     0.455840009  0.497408496  0.607525755
     0.499957999  0.366114464  0.451248124
     0.514802310  0.530303192  0.445804915

  ion indices of the primitive-cell ions
   primitive index   ion index
                 1           1
                 2           2
                 3           3
                 4           4
                 5           5
                 6           6
                 7           7
                 8           8

----------------------------------------------------------------------------------------

 
 
 KPOINTS: KPOINTS created by Atomic Simulation Env

Automatic generation of k-mesh.
Space group operators:
 irot       det(A)        alpha          n_x          n_y          n_z        tau_x        tau_y        tau_z
    1     1.000000     0.000000     1.000000     0.000000     0.000000     0.000000     0.000000     0.000000
 
 Subroutine IBZKPT returns following result:
 ===========================================
 
 Found      1 irreducible k-points:
 
 Following reciprocal coordinates:
            Coordinates               Weight
  0.000000  0.000000  0.000000      1.000000
 
 Following cartesian coordinates:
            Coordinates               Weight
  0.000000  0.000000  0.000000      1.000000
 


--------------------------------------------------------------------------------------------------------




 Dimension of arrays:
   k-points           NKPTS =      1   k-points in BZ     NKDIM =      1   number of bands    NBANDS=     56
   number of dos      NEDOS =    301   number of ions     NIONS =      8
   non local maximal  LDIM  =      6   non local SUM 2l+1 LMDIM =     18
   total plane-waves  NPLWV = ******
   max r-space proj   IRMAX =      1   max aug-charges    IRDMAX=   7486
   dimension x,y,z NGX =   112 NGY =  108 NGZ =  120
   dimension x,y,z NGXF=   224 NGYF=  216 NGZF=  240
   support grid    NGXF=   224 NGYF=  216 NGZF=  240
   ions per type =               4   4
   NGX,Y,Z   is equivalent  to a cutoff of   8.17,  8.20,  8.18 a.u.
   NGXF,Y,Z  is equivalent  to a cutoff of  16.34, 16.39, 16.36 a.u.

 SYSTEM =  unknown system                          
 POSCAR =  Au Cu                                   

 Startparameter for this run:
   NWRITE =      2    write-flag & timer
   PREC   = normal    normal or accurate (medium, high low for compatibility)
   ISTART =      0    job   : 0-new  1-cont  2-samecut
   ICHARG =      2    charge: 1-file 2-atom 10-const
   ISPIN  =      2    spin polarized calculation?
   LNONCOLLINEAR =      F non collinear calculations
   LSORBIT =      F    spin-orbit coupling
   INIWAV =      1    electr: 0-lowe 1-rand  2-diag
   LASPH  =      F    aspherical Exc in radial PAW
   METAGGA=      F    non-selfconsistent MetaGGA calc.

 Electronic Relaxation 1
   ENCUT  =  400.0 eV  29.40 Ry    5.42 a.u.  37.17 35.73 39.77*2*pi/ulx,y,z
   ENINI  =  400.0     initial cutoff
   ENAUG  =  587.0 eV  augmentation charge cutoff
   NELM   =     60;   NELMIN=  2; NELMDL=  0     # of ELM steps 
   EDIFF  = 0.1E-03   stopping-criterion for ELM
   LREAL  =      F    real-space projection
   NLSPLINE    = F    spline interpolate recip. space projectors
   LCOMPAT=      F    compatible to vasp.4.4
   GGA_COMPAT  = T    GGA compatible to vasp.4.4-vasp.4.6
   LMAXPAW     = -100 max onsite density
   LMAXMIX     =    2 max onsite mixed and CHGCAR
   VOSKOWN=      0    Vosko Wilk Nusair interpolation
   ROPT   =    0.00000   0.00000
 Ionic relaxation
   EDIFFG = 0.1E-02   stopping-criterion for IOM
   NSW    =   1000    number of steps for IOM
   NBLOCK =      1;   KBLOCK =   1000    inner block; outer block 
   IBRION =      2    ionic relax: 0-MD 1-quasi-New 2-CG
   NFREE  =      1    steps in history (QN), initial steepest desc. (CG)
   ISIF   =      0    stress and relaxation
   IWAVPR =     11    prediction:  0-non 1-charg 2-wave 3-comb
   ISYM   =      0    0-nonsym 1-usesym 2-fastsym
   LCORR  =      T    Harris-Foulkes like correction to forces

   POTIM  = 0.5000    time-step for ionic-motion
   TEIN   =    0.0    initial temperature
   TEBEG  =    0.0;   TEEND  =   0.0 temperature during run
   SMASS  =  -3.00    Nose mass-parameter (am)
   estimated Nose-frequenzy (Omega)   =  0.10E-29 period in steps = 0.13E+47 mass=  -0.119E-25a.u.
   SCALEE = 1.0000    scale energy and forces
   NPACO  =    256;   APACO  = 16.0  distance and # of slots for P.C.
   PSTRESS=    0.0 pullay stress

  Mass of Ions in am
   POMASS = 196.97 63.55
  Ionic Valenz
   ZVAL   =  11.00 11.00
  Atomic Wigner-Seitz radii
   RWIGS  =  -1.00 -1.00
  virtual crystal weights 
   VCA    =   1.00  1.00
   NELECT =      88.0000    total number of electrons
   NUPDOWN=      -1.0000    fix difference up-down

 DOS related values:
   EMIN   =  10.00;   EMAX   =-10.00  energy-range for DOS
   EFERMI =   0.00
   ISMEAR =     1;   SIGMA  =   0.20  broadening in eV -4-tet -1-fermi 0-gaus

 Electronic relaxation 2 (details)
   IALGO  =     38    algorithm
   LDIAG  =      T    sub-space diagonalisation (order eigenvalues)
   LSUBROT=      F    optimize rotation matrix (better conditioning)
   TURBO    =      0    0=normal 1=particle mesh
   IRESTART =      0    0=no restart 2=restart with 2 vectors
   NREBOOT  =      0    no. of reboots
   NMIN     =      0    reboot dimension
   EREF     =   0.00    reference energy to select bands
   IMIX   =      4    mixing-type and parameters
     AMIX     =   0.40;   BMIX     =  1.00
     AMIX_MAG =   1.60;   BMIX_MAG =  1.00
     AMIN     =   0.10
     WC   =   100.;   INIMIX=   1;  MIXPRE=   1;  MAXMIX= -45

 Intra band minimization:
   WEIMIN = 0.0010     energy-eigenvalue tresh-hold
   EBREAK =  0.45E-06  absolut break condition
   DEPER  =   0.30     relativ break condition  

   TIME   =   0.40     timestep for ELM

  volume/ion in A,a.u.               =    1522.51     10274.39
  Fermi-wavevector in a.u.,A,eV,Ry     =   0.316485  0.598069  1.362794  0.100163
  Thomas-Fermi vector in A             =   1.199583
 
 Write flags
   LWAVE        =      F    write WAVECAR
   LDOWNSAMPLE  =      F    k-point downsampling of WAVECAR
   LCHARG       =      F    write CHGCAR
   LVTOT        =      F    write LOCPOT, total local potential
   LVHAR        =      F    write LOCPOT, Hartree potential only
   LELF         =      F    write electronic localiz. function (ELF)
   LORBIT       =      0    0 simple, 1 ext, 2 COOP (PROOUT), +10 PAW based schemes


 Dipole corrections
   LMONO  =      F    monopole corrections only (constant potential shift)
   LDIPOL =      F    correct potential (dipole corrections)
   IDIPOL =      0    1-x, 2-y, 3-z, 4-all directions 
   EPSILON=  1.0000000 bulk dielectric constant

 Exchange correlation treatment:
   GGA     =    PE    GGA type
   LEXCH   =     8    internal setting for exchange type
   VOSKOWN=      0    Vosko Wilk Nusair interpolation
   LHFCALC =     F    Hartree Fock is set to
   LHFONE  =     F    Hartree Fock one center treatment
   AEXX    =    0.0000 exact exchange contribution

 Linear response parameters
   LEPSILON=     F    determine dielectric tensor
   LRPA    =     F    only Hartree local field effects (RPA)
   LNABLA  =     F    use nabla operator in PAW spheres
   LVEL    =     F    velocity operator in full k-point grid
   LINTERFAST=   F  fast interpolation
   KINTER  =     0    interpolate to denser k-point grid
   CSHIFT  =0.1000    complex shift for real part using Kramers Kronig
   OMEGAMAX=  -1.0    maximum frequency
   DEG_THRESHOLD= 0.2000000E-02 threshold for treating states as degnerate
   RTIME   =   -0.100 relaxation time in fs
  (WPLASMAI=    0.000 imaginary part of plasma frequency in eV, 0.658/RTIME)
   DFIELD  = 0.0000000 0.0000000 0.0000000 field for delta impulse in time
 
 Orbital magnetization related:
   ORBITALMAG=     F  switch on orbital magnetization
   LCHIMAG   =     F  perturbation theory with respect to B field
   DQ        =  0.001000  dq finite difference perturbation B field
   LLRAUG    =     F  two centre corrections for induced B field



--------------------------------------------------------------------------------------------------------


 conjugate gradient relaxation of ions
 charge density and potential will be updated during run
 spin polarized calculation
 Variant of blocked Davidson
 Davidson routine will perform the subspace rotation
 perform sub-space diagonalisation
    after iterative eigenvector-optimisation
 modified Broyden-mixing scheme, WC =      100.0
 initial mixing is a Kerker type mixing with AMIX =  0.4000 and BMIX =      1.0000
 Hartree-type preconditioning will be used
 using additional bands            12
 reciprocal scheme for non local part
 use partial core corrections
 calculate Harris-corrections to forces 
   (improved forces if not selfconsistent)
 use gradient corrections 
 use of overlap-Matrix (Vanderbilt PP)
 Methfessel and Paxton  Order N= 1 SIGMA  =   0.20


--------------------------------------------------------------------------------------------------------


  energy-cutoff  :      400.00
  volume of cell :    12180.06
      direct lattice vectors                 reciprocal lattice vectors
    22.795131814  0.000000000  0.000000000     0.043869016  0.000000000  0.000000000
     0.000000000 21.908248603  0.000000000     0.000000000  0.045644908  0.000000000
     0.000000000  0.000000000 24.389314937     0.000000000  0.000000000  0.041001562

  length of vectors
    22.795131814 21.908248603 24.389314937     0.043869016  0.045644908  0.041001562


 
 k-points in units of 2pi/SCALE and weight: KPOINTS created by Atomic Simulation Env
   0.00000000  0.00000000  0.00000000       1.000
 
 k-points in reciprocal lattice and weights: KPOINTS created by Atomic Simulation Env
   0.00000000  0.00000000  0.00000000       1.000
 
 position of ions in fractional coordinates (direct lattice) 
   0.50561852  0.44786438  0.52694273
   0.50655993  0.56277368  0.54328999
   0.50879906  0.44407720  0.37627675
   0.42856133  0.45604888  0.44771466
   0.58307875  0.44118684  0.45193524
   0.45584001  0.49740850  0.60752575
   0.49995800  0.36611446  0.45124812
   0.51480231  0.53030319  0.44580491
 
 position of ions in cartesian coordinates  (Angst):
  11.52564071  9.81192420 12.85177227
  11.54710045 12.32938560 13.25047072
  11.59814170  9.72895375  9.17713210
   9.76911196  9.99123226 10.91945380
  13.29135691  9.66563101 11.02239084
  10.39093309 10.89734898 14.81713697
  11.39660849  8.02092670 11.00563262
  11.73498652 11.61801416 10.87287646
 


--------------------------------------------------------------------------------------------------------


 use parallel FFT for orbitals z direction half grid
 k-point   1 :   0.0000 0.0000 0.0000  plane waves:  110662

 maximum and minimum number of plane-waves per node :     13844    13824

 maximum number of plane-waves:    110662
 maximum index in each direction: 
   IXMAX=   37   IYMAX=   35   IZMAX=   39
   IXMIN=  -37   IYMIN=  -35   IZMIN=    0


 parallel 3D FFT for wavefunctions:
    minimum data exchange during FFTs selected (reduces bandwidth)
 parallel 3D FFT for charge:
    minimum data exchange during FFTs selected (reduces bandwidth)


 total amount of memory used by VASP MPI-rank0   149611. kBytes
=======================================================================

   base      :      30000. kBytes
   nonl-proj :       5750. kBytes
   fftplans  :      28427. kBytes
   grid      :      73025. kBytes
   one-center:         15. kBytes
   wavefun   :      12394. kBytes
 
     INWAV:  cpu time    0.0000: real time    0.0000
 Broyden mixing: mesh for mixing (old mesh)
   NGX = 75   NGY = 71   NGZ = 79
  (NGX  =224   NGY  =216   NGZ  =240)
  gives a total of 420675 points

 initial charge density was supplied:
 charge density of overlapping atoms calculated
 number of electron      88.0000000 magnetization       8.0000000
 keeping initial charge density in first step


--------------------------------------------------------------------------------------------------------


 Maximum index for augmentation-charges           448 (set IRDMAX)


--------------------------------------------------------------------------------------------------------


 First call to EWALD:  gamma=   0.077
 Maximum number of real-space cells 3x 3x 3
 Maximum number of reciprocal cells 3x 3x 3

    FEWALD:  cpu time    0.0606: real time    0.0607


--------------------------------------- Iteration      1(   1)  ---------------------------------------


    POTLOK:  cpu time    4.8521: real time    6.8707
    SETDIJ:  cpu time    0.0810: real time    0.1251
     EDDAV:  cpu time   11.6390: real time   14.1839
       DOS:  cpu time    0.0056: real time    0.0056
    --------------------------------------------
      LOOP:  cpu time   16.5777: real time   21.1852

 eigenvalue-minimisations  :   224
 total energy-change (2. order) : 0.6701591E+03  (-0.1331815E+04)
 number of electron      88.0000000 magnetization       8.0000000
 augmentation part       88.0000000 magnetization       8.0000000

 Free energy of the ion-electron system (eV)
  ---------------------------------------------------
  alpha Z        PSCENC =         4.98158292
  Ewald energy   TEWEN  =      9156.85917128
  -Hartree energ DENC   =    -17765.08656840
  -exchange      EXHF   =         0.00000000
  -V(xc)+E(xc)   XCENC  =       238.53369224
  PAW double counting   =      8408.47588452    -8739.43322972
  entropy T*S    EENTRO =        -0.00113916
  eigenvalues    EBANDS =        97.67708400
  atomic energy  EATOM  =      9268.15263587
  Solvation  Ediel_sol  =         0.00000000
  ---------------------------------------------------
  free energy    TOTEN  =       670.15911355 eV

  energy without entropy =      670.16025270  energy(sigma->0) =      670.15949327


--------------------------------------------------------------------------------------------------------




--------------------------------------- Iteration      1(   2)  ---------------------------------------


     EDDAV:  cpu time   12.6275: real time   15.7023
       DOS:  cpu time    0.3721: real time    0.3723
    --------------------------------------------
      LOOP:  cpu time   12.9996: real time   16.0746

 eigenvalue-minimisations  :   336
 total energy-change (2. order) :-0.3271383E+03  (-0.2970999E+03)
 number of electron      88.0000000 magnetization       8.0000000
 augmentation part       88.0000000 magnetization       8.0000000

 Free energy of the ion-electron system (eV)
  ---------------------------------------------------
  alpha Z        PSCENC =         4.98158292
  Ewald energy   TEWEN  =      9156.85917128
  -Hartree energ DENC   =    -17765.08656840
  -exchange      EXHF   =         0.00000000
  -V(xc)+E(xc)   XCENC  =       238.53369224
  PAW double counting   =      8408.47588452    -8739.43322972
  entropy T*S    EENTRO =         0.02403272
  eigenvalues    EBANDS =      -229.48633792
  atomic energy  EATOM  =      9268.15263587
  Solvation  Ediel_sol  =         0.00000000
  ---------------------------------------------------
  free energy    TOTEN  =       343.02086351 eV

  energy without entropy =      342.99683078  energy(sigma->0) =      343.01285260


--------------------------------------------------------------------------------------------------------




--------------------------------------- Iteration      1(   3)  ---------------------------------------


     EDDAV:  cpu time   17.7965: real time   22.3459
       DOS:  cpu time    0.1705: real time    0.3460
    --------------------------------------------
      LOOP:  cpu time   17.9669: real time   22.6920

 eigenvalue-minimisations  :   400
 total energy-change (2. order) :-0.2370853E+03  (-0.2266859E+03)
 number of electron      88.0000000 magnetization       8.0000000
 augmentation part       88.0000000 magnetization       8.0000000

 Free energy of the ion-electron system (eV)
  ---------------------------------------------------
  alpha Z        PSCENC =         4.98158292
  Ewald energy   TEWEN  =      9156.85917128
  -Hartree energ DENC   =    -17765.08656840
  -exchange      EXHF   =         0.00000000
  -V(xc)+E(xc)   XCENC  =       238.53369224
  PAW double counting   =      8408.47588452    -8739.43322972
  entropy T*S    EENTRO =        -0.03205211
  eigenvalues    EBANDS =      -466.51551054
  atomic energy  EATOM  =      9268.15263587
  Solvation  Ediel_sol  =         0.00000000
  ---------------------------------------------------
  free energy    TOTEN  =       105.93560606 eV

  energy without entropy =      105.96765817  energy(sigma->0) =      105.94629010


--------------------------------------------------------------------------------------------------------




--------------------------------------- Iteration      1(   4)  ---------------------------------------


     EDDAV:  cpu time   19.5568: real time   23.9688
       DOS:  cpu time    0.2353: real time    0.3832
    --------------------------------------------
      LOOP:  cpu time   19.7922: real time   24.3520

 eigenvalue-minimisations  :   416
 total energy-change (2. order) :-0.1022702E+03  (-0.9706412E+02)
 number of electron      88.0000000 magnetization       8.0000000
 augmentation part       88.0000000 magnetization       8.0000000

 Free energy of the ion-electron system (eV)
  ---------------------------------------------------
  alpha Z        PSCENC =         4.98158292
  Ewald energy   TEWEN  =      9156.85917128
  -Hartree energ DENC   =    -17765.08656840
  -exchange      EXHF   =         0.00000000
  -V(xc)+E(xc)   XCENC  =       238.53369224
  PAW double counting   =      8408.47588452    -8739.43322972
  entropy T*S    EENTRO =         0.00796717
  eigenvalues    EBANDS =      -568.82575584
  atomic energy  EATOM  =      9268.15263587
  Solvation  Ediel_sol  =         0.00000000
  ---------------------------------------------------
  free energy    TOTEN  =         3.66538004 eV

  energy without entropy =        3.65741287  energy(sigma->0) =        3.66272432


--------------------------------------------------------------------------------------------------------




--------------------------------------- Iteration      1(   5)  ---------------------------------------


     EDDAV:  cpu time   16.6580: real time   21.2190
       DOS:  cpu time    0.2121: real time    0.3890
    CHARGE:  cpu time    1.0690: real time    1.3945
    MIXING:  cpu time    0.0580: real time    0.0581
    --------------------------------------------
      LOOP:  cpu time   17.9972: real time   23.0606

 eigenvalue-minimisations  :   376
 total energy-change (2. order) :-0.2003031E+02  (-0.1774231E+02)
 number of electron      87.9999951 magnetization       7.3949642
 augmentation part       42.3706643 magnetization       6.6589864

 Broyden mixing:
  rms(total) = 0.20513E+01    rms(broyden)= 0.20507E+01
  rms(prec ) = 0.20932E+01
  weight for this iteration     100.00

 Free energy of the ion-electron system (eV)
  ---------------------------------------------------
  alpha Z        PSCENC =         4.98158292
  Ewald energy   TEWEN  =      9156.85917128
  -Hartree energ DENC   =    -17765.08656840
  -exchange      EXHF   =         0.00000000
  -V(xc)+E(xc)   XCENC  =       238.53369224
  PAW double counting   =      8408.47588452    -8739.43322972
  entropy T*S    EENTRO =        -0.01250559
  eigenvalues    EBANDS =      -588.83559373
  atomic energy  EATOM  =      9268.15263587
  Solvation  Ediel_sol  =         0.00000000
  ---------------------------------------------------
  free energy    TOTEN  =       -16.36493062 eV

  energy without entropy =      -16.35242502  energy(sigma->0) =      -16.36076209


--------------------------------------------------------------------------------------------------------




--------------------------------------- Iteration      1(   6)  ---------------------------------------


    POTLOK:  cpu time    6.2653: real time    7.7895
    SETDIJ:  cpu time    0.1178: real time    0.1178
     EDDAV:  cpu time   10.7154: real time   13.2390
       DOS:  cpu time    0.0077: real time    0.0077
    CHARGE:  cpu time    0.7622: real time    1.4109
    MIXING:  cpu time    0.3042: real time    0.3044
    --------------------------------------------
      LOOP:  cpu time   18.1727: real time   22.8694

 eigenvalue-minimisations  :   312
 total energy-change (2. order) : 0.5831048E+01  (-0.7176532E+01)
 number of electron      87.9999950 magnetization       6.9952945
 augmentation part       45.5544453 magnetization       4.6779800

 Broyden mixing:
  rms(total) = 0.12903E+01    rms(broyden)= 0.12897E+01
  rms(prec ) = 0.13318E+01
  weight for this iteration     100.00

 eigenvalues of (default mixing * dielectric matrix)
  average eigenvalue GAMMA=   0.8110
  0.8110

 Free energy of the ion-electron system (eV)
  ---------------------------------------------------
  alpha Z        PSCENC =         4.98158292
  Ewald energy   TEWEN  =      9156.85917128
  -Hartree energ DENC   =    -17657.21132598
  -exchange      EXHF   =         0.00000000
  -V(xc)+E(xc)   XCENC  =       239.09510790
  PAW double counting   =      8628.26234070    -8949.39935570
  entropy T*S    EENTRO =        -0.04111660
  eigenvalues    EBANDS =      -701.23292319
  atomic energy  EATOM  =      9268.15263587
  Solvation  Ediel_sol  =         0.00000000
  ---------------------------------------------------
  free energy    TOTEN  =       -10.53388280 eV

  energy without entropy =      -10.49276620  energy(sigma->0) =      -10.52017726


--------------------------------------------------------------------------------------------------------




--------------------------------------- Iteration      1(   7)  ---------------------------------------


    POTLOK:  cpu time    4.8292: real time    6.9597
    SETDIJ:  cpu time    0.1262: real time    0.1262
     EDDAV:  cpu time   12.3459: real time   16.0695
       DOS:  cpu time    0.3264: real time    0.3746
    CHARGE:  cpu time    1.2384: real time    1.6083
    MIXING:  cpu time    0.2250: real time    0.2611
    --------------------------------------------
      LOOP:  cpu time   19.0911: real time   25.3995

 eigenvalue-minimisations  :   272
 total energy-change (2. order) : 0.4650157E+01  (-0.1761454E+01)
 number of electron      87.9999957 magnetization       6.2788177
 augmentation part       44.3531270 magnetization       3.9792074

 Broyden mixing:
  rms(total) = 0.70649E+00    rms(broyden)= 0.70639E+00
  rms(prec ) = 0.71266E+00
  weight for this iteration     100.00

 eigenvalues of (default mixing * dielectric matrix)
  average eigenvalue GAMMA=   0.9299
  1.2382  0.6216

 Free energy of the ion-electron system (eV)
  ---------------------------------------------------
  alpha Z        PSCENC =         4.98158292
  Ewald energy   TEWEN  =      9156.85917128
  -Hartree energ DENC   =    -17722.73569705
  -exchange      EXHF   =         0.00000000
  -V(xc)+E(xc)   XCENC  =       243.69754285
  PAW double counting   =      8829.84160367    -9172.90960552
  entropy T*S    EENTRO =        -0.02620845
  eigenvalues    EBANDS =      -613.74475166
  atomic energy  EATOM  =      9268.15263587
  Solvation  Ediel_sol  =         0.00000000
  ---------------------------------------------------
  free energy    TOTEN  =        -5.88372608 eV

  energy without entropy =       -5.85751763  energy(sigma->0) =       -5.87498993


--------------------------------------------------------------------------------------------------------




--------------------------------------- Iteration      1(   8)  ---------------------------------------


    POTLOK:  cpu time    4.6809: real time    6.7101
    SETDIJ:  cpu time    0.1203: real time    0.1204
     EDDAV:  cpu time   16.2987: real time   21.1311
       DOS:  cpu time    0.0065: real time    0.0066
    CHARGE:  cpu time    1.3577: real time    1.6708
    MIXING:  cpu time    0.0555: real time    0.0795
    --------------------------------------------
      LOOP:  cpu time   22.5198: real time   29.7184

 eigenvalue-minimisations  :   344
 total energy-change (2. order) :-0.5864862E-01  (-0.4027969E+00)
 number of electron      87.9999958 magnetization       5.7314395
 augmentation part       44.0398679 magnetization       3.4384367

 Broyden mixing:
  rms(total) = 0.40984E+00    rms(broyden)= 0.40979E+00
  rms(prec ) = 0.42430E+00
  weight for this iteration     100.00

 eigenvalues of (default mixing * dielectric matrix)
  average eigenvalue GAMMA=   1.0713
  0.7495  0.7495  1.7147

 Free energy of the ion-electron system (eV)
  ---------------------------------------------------
  alpha Z        PSCENC =         4.98158292
  Ewald energy   TEWEN  =      9156.85917128
  -Hartree energ DENC   =    -17746.51414341
  -exchange      EXHF   =         0.00000000
  -V(xc)+E(xc)   XCENC  =       244.20363138
  PAW double counting   =      9097.60163876    -9445.55422586
  entropy T*S    EENTRO =        -0.02434384
  eigenvalues    EBANDS =      -585.64832179
  atomic energy  EATOM  =      9268.15263587
  Solvation  Ediel_sol  =         0.00000000
  ---------------------------------------------------
  free energy    TOTEN  =        -5.94237470 eV

  energy without entropy =       -5.91803086  energy(sigma->0) =       -5.93426008


--------------------------------------------------------------------------------------------------------




--------------------------------------- Iteration      1(   9)  ---------------------------------------


    POTLOK:  cpu time    5.6126: real time    7.8022
    SETDIJ:  cpu time    0.0659: real time    0.1340
     EDDAV:  cpu time   16.6203: real time   20.0563
       DOS:  cpu time    0.0038: real time    0.0038
    CHARGE:  cpu time    0.9710: real time    1.8764
    MIXING:  cpu time    0.1036: real time    0.2052
    --------------------------------------------
      LOOP:  cpu time   23.3773: real time   30.0778

 eigenvalue-minimisations  :   336
 total energy-change (2. order) :-0.2532788E+01  (-0.2614069E+00)
 number of electron      87.9999955 magnetization       5.4303460
 augmentation part       44.4132507 magnetization       3.1238631

 Broyden mixing:
  rms(total) = 0.25003E+00    rms(broyden)= 0.24989E+00
  rms(prec ) = 0.26148E+00
  weight for this iteration     100.00

 eigenvalues of (default mixing * dielectric matrix)
  average eigenvalue GAMMA=   1.0243
  1.7839  1.1156  0.6093  0.5882

 Free energy of the ion-electron system (eV)
  ---------------------------------------------------
  alpha Z        PSCENC =         4.98158292
  Ewald energy   TEWEN  =      9156.85917128
  -Hartree energ DENC   =    -17737.92198709
  -exchange      EXHF   =         0.00000000
  -V(xc)+E(xc)   XCENC  =       241.62986004
  PAW double counting   =      9160.52847894    -9505.45304771
  entropy T*S    EENTRO =        -0.00794249
  eigenvalues    EBANDS =      -597.24391426
  atomic energy  EATOM  =      9268.15263587
  Solvation  Ediel_sol  =         0.00000000
  ---------------------------------------------------
  free energy    TOTEN  =        -8.47516251 eV

  energy without entropy =       -8.46722001  energy(sigma->0) =       -8.47251501


--------------------------------------------------------------------------------------------------------




--------------------------------------- Iteration      1(  10)  ---------------------------------------


    POTLOK:  cpu time    5.8103: real time    7.7310
    SETDIJ:  cpu time    0.0553: real time    0.1153
     EDDAV:  cpu time   15.4078: real time   19.3497
       DOS:  cpu time    0.0020: real time    0.0020
    CHARGE:  cpu time    1.0942: real time    1.4808
    MIXING:  cpu time    0.1434: real time    0.2995
    --------------------------------------------
      LOOP:  cpu time   22.5129: real time   28.9783

 eigenvalue-minimisations  :   320
 total energy-change (2. order) :-0.1848503E+01  (-0.9417413E-01)
 number of electron      87.9999955 magnetization       5.1306737
 augmentation part       44.4100639 magnetization       3.0523119

 Broyden mixing:
  rms(total) = 0.12905E+00    rms(broyden)= 0.12899E+00
  rms(prec ) = 0.13423E+00
  weight for this iteration     100.00

 eigenvalues of (default mixing * dielectric matrix)
  average eigenvalue GAMMA=   0.9984
  1.8488  1.2920  0.6606  0.6606  0.5303

 Free energy of the ion-electron system (eV)
  ---------------------------------------------------
  alpha Z        PSCENC =         4.98158292
  Ewald energy   TEWEN  =      9156.85917128
  -Hartree energ DENC   =    -17738.30095271
  -exchange      EXHF   =         0.00000000
  -V(xc)+E(xc)   XCENC  =       240.13490651
  PAW double counting   =      9163.61451113    -9508.78206480
  entropy T*S    EENTRO =        -0.03619843
  eigenvalues    EBANDS =      -596.94725754
  atomic energy  EATOM  =      9268.15263587
  Solvation  Ediel_sol  =         0.00000000
  ---------------------------------------------------
  free energy    TOTEN  =       -10.32366577 eV

  energy without entropy =      -10.28746734  energy(sigma->0) =      -10.31159962


--------------------------------------------------------------------------------------------------------




--------------------------------------- Iteration      1(  11)  ---------------------------------------


    POTLOK:  cpu time    4.1560: real time    5.2191
    SETDIJ:  cpu time    0.0345: real time    0.0346
     EDDAV:  cpu time   13.4472: real time   15.8550
       DOS:  cpu time    0.0052: real time    0.0052
    CHARGE:  cpu time    0.4921: real time    0.4958
    MIXING:  cpu time    0.0765: real time    0.0765
    --------------------------------------------
      LOOP:  cpu time   18.2115: real time   21.6862

 eigenvalue-minimisations  :   328
 total energy-change (2. order) :-0.9984153E+00  (-0.3321629E-01)
 number of electron      87.9999956 magnetization       4.6972586
 augmentation part       44.3367631 magnetization       2.9362371

 Broyden mixing:
  rms(total) = 0.10519E+00    rms(broyden)= 0.10517E+00
  rms(prec ) = 0.10717E+00
  weight for this iteration     100.00

 eigenvalues of (default mixing * dielectric matrix)
  average eigenvalue GAMMA=   0.9898
  2.1076  1.2843  0.6812  0.6812  0.6676  0.5170

 Free energy of the ion-electron system (eV)
  ---------------------------------------------------
  alpha Z        PSCENC =         4.98158292
  Ewald energy   TEWEN  =      9156.85917128
  -Hartree energ DENC   =    -17740.22258562
  -exchange      EXHF   =         0.00000000
  -V(xc)+E(xc)   XCENC  =       239.39002387
  PAW double counting   =      9165.40810033    -9511.42688912
  entropy T*S    EENTRO =        -0.04997320
  eigenvalues    EBANDS =      -594.41414739
  atomic energy  EATOM  =      9268.15263587
  Solvation  Ediel_sol  =         0.00000000
  ---------------------------------------------------
  free energy    TOTEN  =       -11.32208106 eV

  energy without entropy =      -11.27210786  energy(sigma->0) =      -11.30542332


--------------------------------------------------------------------------------------------------------




--------------------------------------- Iteration      1(  12)  ---------------------------------------


    POTLOK:  cpu time    3.8171: real time    4.6782
    SETDIJ:  cpu time    0.0448: real time    0.0448
     EDDAV:  cpu time   14.7194: real time   18.5337
       DOS:  cpu time    0.0074: real time    0.0074
    CHARGE:  cpu time    1.0257: real time    1.4344
    MIXING:  cpu time    0.2688: real time    0.3010
    --------------------------------------------
      LOOP:  cpu time   19.8833: real time   24.9994

 eigenvalue-minimisations  :   320
 total energy-change (2. order) :-0.8841792E+00  (-0.1743275E-01)
 number of electron      87.9999956 magnetization       4.5432936
 augmentation part       44.3547497 magnetization       3.1652457

 Broyden mixing:
  rms(total) = 0.10516E+00    rms(broyden)= 0.10512E+00
  rms(prec ) = 0.10800E+00
  weight for this iteration     100.00

 eigenvalues of (default mixing * dielectric matrix)
  average eigenvalue GAMMA=   0.9344
  2.2464  1.1349  0.6861  0.6861  0.6459  0.6459  0.4955

 Free energy of the ion-electron system (eV)
  ---------------------------------------------------
  alpha Z        PSCENC =         4.98158292
  Ewald energy   TEWEN  =      9156.85917128
  -Hartree energ DENC   =    -17740.11319676
  -exchange      EXHF   =         0.00000000
  -V(xc)+E(xc)   XCENC  =       238.63225757
  PAW double counting   =      9165.62744424    -9511.65414484
  entropy T*S    EENTRO =        -0.05493358
  eigenvalues    EBANDS =      -594.63707693
  atomic energy  EATOM  =      9268.15263587
  Solvation  Ediel_sol  =         0.00000000
  ---------------------------------------------------
  free energy    TOTEN  =       -12.20626023 eV

  energy without entropy =      -12.15132665  energy(sigma->0) =      -12.18794904


--------------------------------------------------------------------------------------------------------




--------------------------------------- Iteration      1(  13)  ---------------------------------------


    POTLOK:  cpu time    4.7203: real time    6.0164
    SETDIJ:  cpu time    0.1260: real time    0.1260
     EDDAV:  cpu time   12.1511: real time   15.6390
       DOS:  cpu time    0.0076: real time    0.0076
    CHARGE:  cpu time    0.7942: real time    0.9899
    MIXING:  cpu time    0.1274: real time    0.2635
    --------------------------------------------
      LOOP:  cpu time   17.9266: real time   23.0424

 eigenvalue-minimisations  :   304
 total energy-change (2. order) :-0.1596817E+00  (-0.2160262E-02)
 number of electron      87.9999956 magnetization       3.9925661
 augmentation part       44.3614606 magnetization       2.6978928

 Broyden mixing:
  rms(total) = 0.96342E-01    rms(broyden)= 0.96336E-01
  rms(prec ) = 0.99076E-01
  weight for this iteration     100.00

 eigenvalues of (default mixing * dielectric matrix)
  average eigenvalue GAMMA=   1.0294
  2.2663  1.2504  1.1295  1.1295  0.6852  0.6852  0.5921  0.4969

 Free energy of the ion-electron system (eV)
  ---------------------------------------------------
  alpha Z        PSCENC =         4.98158292
  Ewald energy   TEWEN  =      9156.85917128
  -Hartree energ DENC   =    -17740.67356698
  -exchange      EXHF   =         0.00000000
  -V(xc)+E(xc)   XCENC  =       238.50893579
  PAW double counting   =      9165.89580118    -9511.91289353
  entropy T*S    EENTRO =        -0.05423856
  eigenvalues    EBANDS =      -594.12336985
  atomic energy  EATOM  =      9268.15263587
  Solvation  Ediel_sol  =         0.00000000
  ---------------------------------------------------
  free energy    TOTEN  =       -12.36594188 eV

  energy without entropy =      -12.31170332  energy(sigma->0) =      -12.34786236


--------------------------------------------------------------------------------------------------------




--------------------------------------- Iteration      1(  14)  ---------------------------------------


    POTLOK:  cpu time    3.6368: real time    4.6597
    SETDIJ:  cpu time    0.0386: real time    0.0386
     EDDAV:  cpu time   13.2387: real time   17.2791
       DOS:  cpu time    0.1844: real time    0.3667
    CHARGE:  cpu time    0.6280: real time    0.9447
    MIXING:  cpu time    0.1644: real time    0.2032
    --------------------------------------------
      LOOP:  cpu time   17.8909: real time   23.4920

 eigenvalue-minimisations  :   336
 total energy-change (2. order) :-0.6794264E+00  (-0.1245498E-01)
 number of electron      87.9999956 magnetization       2.7465433
 augmentation part       44.3522735 magnetization       1.7164247

 Broyden mixing:
  rms(total) = 0.84772E-01    rms(broyden)= 0.84740E-01
  rms(prec ) = 0.87011E-01
  weight for this iteration     100.00

 eigenvalues of (default mixing * dielectric matrix)
  average eigenvalue GAMMA=   1.1795
  2.6190  2.6190  1.1873  1.1873  0.6958  0.6958  0.6797  0.4605  0.4713

 Free energy of the ion-electron system (eV)
  ---------------------------------------------------
  alpha Z        PSCENC =         4.98158292
  Ewald energy   TEWEN  =      9156.85917128
  -Hartree energ DENC   =    -17742.00768761
  -exchange      EXHF   =         0.00000000
  -V(xc)+E(xc)   XCENC  =       237.96426363
  PAW double counting   =      9158.05543280    -9504.06135355
  entropy T*S    EENTRO =        -0.04651036
  eigenvalues    EBANDS =      -592.94290328
  atomic energy  EATOM  =      9268.15263587
  Solvation  Ediel_sol  =         0.00000000
  ---------------------------------------------------
  free energy    TOTEN  =       -13.04536829 eV

  energy without entropy =      -12.99885793  energy(sigma->0) =      -13.02986484


--------------------------------------------------------------------------------------------------------




--------------------------------------- Iteration      1(  15)  ---------------------------------------


    POTLOK:  cpu time    6.1687: real time    7.4258
    SETDIJ:  cpu time    0.1661: real time    0.1662
     EDDAV:  cpu time   16.0770: real time   20.2044
       DOS:  cpu time    0.3556: real time    0.3558
    CHARGE:  cpu time    1.3695: real time    1.4847
    MIXING:  cpu time    0.2164: real time    0.3431
    --------------------------------------------
      LOOP:  cpu time   24.3533: real time   29.9800

 eigenvalue-minimisations  :   304
 total energy-change (2. order) :-0.1276250E+01  (-0.5029146E-01)
 number of electron      87.9999956 magnetization       2.2174605
 augmentation part       44.3588355 magnetization       1.6197291

 Broyden mixing:
  rms(total) = 0.56994E-01    rms(broyden)= 0.56868E-01
  rms(prec ) = 0.58304E-01
  weight for this iteration     100.00

 eigenvalues of (default mixing * dielectric matrix)
  average eigenvalue GAMMA=   1.2761
  3.9717  2.2077  1.3511  1.3511  0.8989  0.6951  0.6951  0.6428  0.4914  0.4557

 Free energy of the ion-electron system (eV)
  ---------------------------------------------------
  alpha Z        PSCENC =         4.98158292
  Ewald energy   TEWEN  =      9156.85917128
  -Hartree energ DENC   =    -17742.79403184
  -exchange      EXHF   =         0.00000000
  -V(xc)+E(xc)   XCENC  =       236.89133961
  PAW double counting   =      9135.94385426    -9481.75037586
  entropy T*S    EENTRO =        -0.00360951
  eigenvalues    EBANDS =      -592.60218454
  atomic energy  EATOM  =      9268.15263587
  Solvation  Ediel_sol  =         0.00000000
  ---------------------------------------------------
  free energy    TOTEN  =       -14.32161782 eV

  energy without entropy =      -14.31800830  energy(sigma->0) =      -14.32041465


--------------------------------------------------------------------------------------------------------




--------------------------------------- Iteration      1(  16)  ---------------------------------------


    POTLOK:  cpu time    3.4106: real time    4.1014
    SETDIJ:  cpu time    0.1905: real time    0.2867
     EDDAV:  cpu time   10.4436: real time   14.2704
       DOS:  cpu time    0.3130: real time    0.3817
    CHARGE:  cpu time    1.4316: real time    1.6407
    MIXING:  cpu time    0.3390: real time    0.3595
    --------------------------------------------
      LOOP:  cpu time   16.1283: real time   21.0403

 eigenvalue-minimisations  :   272
 total energy-change (2. order) :-0.7942145E+00  (-0.2460892E-01)
 number of electron      87.9999956 magnetization       1.7848870
 augmentation part       44.3898248 magnetization       1.3699934

 Broyden mixing:
  rms(total) = 0.43551E-01    rms(broyden)= 0.43506E-01
  rms(prec ) = 0.45583E-01
  weight for this iteration     100.00

 eigenvalues of (default mixing * dielectric matrix)
  average eigenvalue GAMMA=   1.3600
  5.2786  2.3323  1.3488  1.3488  0.8831  0.8831  0.6648  0.6648  0.6075  0.5083
  0.4401

 Free energy of the ion-electron system (eV)
  ---------------------------------------------------
  alpha Z        PSCENC =         4.98158292
  Ewald energy   TEWEN  =      9156.85917128
  -Hartree energ DENC   =    -17741.12491086
  -exchange      EXHF   =         0.00000000
  -V(xc)+E(xc)   XCENC  =       236.18954412
  PAW double counting   =      9131.38841596    -9476.93524011
  entropy T*S    EENTRO =         0.01628486
  eigenvalues    EBANDS =      -594.64331630
  atomic energy  EATOM  =      9268.15263587
  Solvation  Ediel_sol  =         0.00000000
  ---------------------------------------------------
  free energy    TOTEN  =       -15.11583227 eV

  energy without entropy =      -15.13211713  energy(sigma->0) =      -15.12126056


--------------------------------------------------------------------------------------------------------




--------------------------------------- Iteration      1(  17)  ---------------------------------------


    POTLOK:  cpu time    5.2547: real time    6.1986
    SETDIJ:  cpu time    0.0342: real time    0.0342
     EDDAV:  cpu time   15.0884: real time   18.4585
       DOS:  cpu time    0.0057: real time    0.0057
    CHARGE:  cpu time    0.7635: real time    1.0152
    MIXING:  cpu time    0.2965: real time    0.3447
    --------------------------------------------
      LOOP:  cpu time   21.4430: real time   26.0569

 eigenvalue-minimisations  :   328
 total energy-change (2. order) :-0.3287921E+00  (-0.7953704E-02)
 number of electron      87.9999956 magnetization       1.2510603
 augmentation part       44.3842087 magnetization       0.9032699

 Broyden mixing:
  rms(total) = 0.31978E-01    rms(broyden)= 0.31961E-01
  rms(prec ) = 0.33651E-01
  weight for this iteration     100.00

 eigenvalues of (default mixing * dielectric matrix)
  average eigenvalue GAMMA=   1.4707
  6.9237  2.3836  1.2710  1.2710  1.0516  1.0516  0.7023  0.7023  0.7740  0.5617
  0.5169  0.4390

 Free energy of the ion-electron system (eV)
  ---------------------------------------------------
  alpha Z        PSCENC =         4.98158292
  Ewald energy   TEWEN  =      9156.85917128
  -Hartree energ DENC   =    -17740.28610933
  -exchange      EXHF   =         0.00000000
  -V(xc)+E(xc)   XCENC  =       235.90478533
  PAW double counting   =      9127.70712681    -9473.17388719
  entropy T*S    EENTRO =         0.02084086
  eigenvalues    EBANDS =      -595.61077092
  atomic energy  EATOM  =      9268.15263587
  Solvation  Ediel_sol  =         0.00000000
  ---------------------------------------------------
  free energy    TOTEN  =       -15.44462437 eV

  energy without entropy =      -15.46546523  energy(sigma->0) =      -15.45157132


--------------------------------------------------------------------------------------------------------




--------------------------------------- Iteration      1(  18)  ---------------------------------------


    POTLOK:  cpu time    4.6185: real time    6.7482
    SETDIJ:  cpu time    0.0545: real time    0.1225
     EDDAV:  cpu time   18.4452: real time   24.3389
       DOS:  cpu time    0.0010: real time    0.0010
    CHARGE:  cpu time    0.8818: real time    1.0049
    MIXING:  cpu time    0.2302: real time    0.3908
    --------------------------------------------
      LOOP:  cpu time   24.2312: real time   32.6064

 eigenvalue-minimisations  :   328
 total energy-change (2. order) :-0.3197277E+00  (-0.5653549E-02)
 number of electron      87.9999956 magnetization       0.9163246
 augmentation part       44.3845391 magnetization       0.6947412

 Broyden mixing:
  rms(total) = 0.23826E-01    rms(broyden)= 0.23799E-01
  rms(prec ) = 0.25166E-01
  weight for this iteration     100.00

 eigenvalues of (default mixing * dielectric matrix)
  average eigenvalue GAMMA=   1.5129
  7.5082  2.0916  2.0916  1.3565  1.3565  0.9126  0.9126  0.6723  0.6723  0.4369
  0.5965  0.5300  0.5300

 Free energy of the ion-electron system (eV)
  ---------------------------------------------------
  alpha Z        PSCENC =         4.98158292
  Ewald energy   TEWEN  =      9156.85917128
  -Hartree energ DENC   =    -17738.61028984
  -exchange      EXHF   =         0.00000000
  -V(xc)+E(xc)   XCENC  =       235.59129544
  PAW double counting   =      9124.69924760    -9470.17536334
  entropy T*S    EENTRO =         0.02398073
  eigenvalues    EBANDS =      -597.28661271
  atomic energy  EATOM  =      9268.15263587
  Solvation  Ediel_sol  =         0.00000000
  ---------------------------------------------------
  free energy    TOTEN  =       -15.76435205 eV

  energy without entropy =      -15.78833278  energy(sigma->0) =      -15.77234563


--------------------------------------------------------------------------------------------------------




--------------------------------------- Iteration      1(  19)  ---------------------------------------


    POTLOK:  cpu time    5.1120: real time    7.2940
    SETDIJ:  cpu time    0.0663: real time    0.1344
     EDDAV:  cpu time   11.1445: real time   14.4614
       DOS:  cpu time    0.3596: real time    0.4027
    CHARGE:  cpu time    1.0511: real time    1.4849
    MIXING:  cpu time    0.2726: real time    0.3810
    --------------------------------------------
      LOOP:  cpu time   18.0061: real time   24.1583

 eigenvalue-minimisations  :   304
 total energy-change (2. order) :-0.3620007E+00  (-0.2361167E-02)
 number of electron      87.9999956 magnetization       0.5952909
 augmentation part       44.3805201 magnetization       0.4477838

 Broyden mixing:
  rms(total) = 0.16691E-01    rms(broyden)= 0.16675E-01
  rms(prec ) = 0.17955E-01
  weight for this iteration     100.00

 eigenvalues of (default mixing * dielectric matrix)
  average eigenvalue GAMMA=   1.5814
  8.2889  2.5088  2.5088  1.2753  1.2753  1.0015  1.0015  0.7097  0.7097  0.4383
  0.6539  0.6539  0.5042  0.6097

 Free energy of the ion-electron system (eV)
  ---------------------------------------------------
  alpha Z        PSCENC =         4.98158292
  Ewald energy   TEWEN  =      9156.85917128
  -Hartree energ DENC   =    -17736.83184726
  -exchange      EXHF   =         0.00000000
  -V(xc)+E(xc)   XCENC  =       235.22725338
  PAW double counting   =      9127.19489712    -9472.77821092
  entropy T*S    EENTRO =         0.02733172
  eigenvalues    EBANDS =      -598.95916690
  atomic energy  EATOM  =      9268.15263587
  Solvation  Ediel_sol  =         0.00000000
  ---------------------------------------------------
  free energy    TOTEN  =       -16.12635279 eV

  energy without entropy =      -16.15368451  energy(sigma->0) =      -16.13546337


--------------------------------------------------------------------------------------------------------




--------------------------------------- Iteration      1(  20)  ---------------------------------------


    POTLOK:  cpu time    4.9872: real time    7.2067
    SETDIJ:  cpu time    0.0361: real time    0.0361
     EDDAV:  cpu time   14.6115: real time   18.8867
       DOS:  cpu time    0.0043: real time    0.0043
    CHARGE:  cpu time    1.2894: real time    1.3541
    MIXING:  cpu time    0.3711: real time    0.4073
    --------------------------------------------
      LOOP:  cpu time   21.2996: real time   27.8953

 eigenvalue-minimisations  :   312
 total energy-change (2. order) :-0.2952200E+00  (-0.1463514E-02)
 number of electron      87.9999956 magnetization       0.3863326
 augmentation part       44.3890858 magnetization       0.2991744

 Broyden mixing:
  rms(total) = 0.11188E-01    rms(broyden)= 0.11176E-01
  rms(prec ) = 0.12024E-01
  weight for this iteration     100.00

 eigenvalues of (default mixing * dielectric matrix)
  average eigenvalue GAMMA=   1.6260
  9.1282  2.5475  2.5475  1.3983  1.3983  1.3058  0.9782  0.9782  0.6848  0.6848
  0.4386  0.6040  0.6040  0.5911  0.5000

 Free energy of the ion-electron system (eV)
  ---------------------------------------------------
  alpha Z        PSCENC =         4.98158292
  Ewald energy   TEWEN  =      9156.85917128
  -Hartree energ DENC   =    -17734.69232393
  -exchange      EXHF   =         0.00000000
  -V(xc)+E(xc)   XCENC  =       234.90665874
  PAW double counting   =      9127.15249436    -9472.63211514
  entropy T*S    EENTRO =         0.02662920
  eigenvalues    EBANDS =      -601.17630608
  atomic energy  EATOM  =      9268.15263587
  Solvation  Ediel_sol  =         0.00000000
  ---------------------------------------------------
  free energy    TOTEN  =       -16.42157278 eV

  energy without entropy =      -16.44820198  energy(sigma->0) =      -16.43044918


--------------------------------------------------------------------------------------------------------




--------------------------------------- Iteration      1(  21)  ---------------------------------------


    POTLOK:  cpu time    5.7071: real time    6.9926
    SETDIJ:  cpu time    0.1262: real time    0.1262
     EDDAV:  cpu time   15.3833: real time   19.6751
       DOS:  cpu time    0.3006: real time    0.3890
    CHARGE:  cpu time    1.3797: real time    1.5609
    MIXING:  cpu time    0.5003: real time    0.5405
    --------------------------------------------
      LOOP:  cpu time   23.3972: real time   29.2843

 eigenvalue-minimisations  :   304
 total energy-change (2. order) :-0.1450298E+00  (-0.3907967E-03)
 number of electron      87.9999956 magnetization       0.2209394
 augmentation part       44.3905592 magnetization       0.1719709

 Broyden mixing:
  rms(total) = 0.83196E-02    rms(broyden)= 0.83129E-02
  rms(prec ) = 0.91240E-02
  weight for this iteration     100.00

 eigenvalues of (default mixing * dielectric matrix)
  average eigenvalue GAMMA=   1.6918
 10.0909  2.9702  2.3819  2.3819  1.2602  1.2602  0.8374  0.8374  0.7178  0.7178
  0.8028  0.7125  0.5805  0.5805  0.4390  0.4983

 Free energy of the ion-electron system (eV)
  ---------------------------------------------------
  alpha Z        PSCENC =         4.98158292
  Ewald energy   TEWEN  =      9156.85917128
  -Hartree energ DENC   =    -17733.48838473
  -exchange      EXHF   =         0.00000000
  -V(xc)+E(xc)   XCENC  =       234.75054002
  PAW double counting   =      9127.65079850    -9473.10925243
  entropy T*S    EENTRO =         0.02653730
  eigenvalues    EBANDS =      -602.39023130
  atomic energy  EATOM  =      9268.15263587
  Solvation  Ediel_sol  =         0.00000000
  ---------------------------------------------------
  free energy    TOTEN  =       -16.56660256 eV

  energy without entropy =      -16.59313986  energy(sigma->0) =      -16.57544833


--------------------------------------------------------------------------------------------------------




--------------------------------------- Iteration      1(  22)  ---------------------------------------


    POTLOK:  cpu time    3.6429: real time    4.6480
    SETDIJ:  cpu time    0.0414: real time    0.0414
     EDDAV:  cpu time   14.0835: real time   17.2050
       DOS:  cpu time    0.2480: real time    0.2483
    CHARGE:  cpu time    0.7344: real time    1.0391
    MIXING:  cpu time    0.1875: real time    0.1877
    --------------------------------------------
      LOOP:  cpu time   18.9376: real time   23.3694

 eigenvalue-minimisations  :   216
 total energy-change (2. order) :-0.8633227E-01  (-0.1960949E-03)
 number of electron      87.9999956 magnetization       0.1238946
 augmentation part       44.3867490 magnetization       0.1053283

 Broyden mixing:
  rms(total) = 0.43810E-02    rms(broyden)= 0.43728E-02
  rms(prec ) = 0.50472E-02
  weight for this iteration     100.00

 eigenvalues of (default mixing * dielectric matrix)
  average eigenvalue GAMMA=   1.7707
 10.9935  3.5731  2.5605  2.5605  1.3226  1.3226  1.2088  0.8961  0.8961  0.7074
  0.7074  0.6259  0.6259  0.4394  0.6164  0.4956  0.5507

 Free energy of the ion-electron system (eV)
  ---------------------------------------------------
  alpha Z        PSCENC =         4.98158292
  Ewald energy   TEWEN  =      9156.85917128
  -Hartree energ DENC   =    -17732.47066722
  -exchange      EXHF   =         0.00000000
  -V(xc)+E(xc)   XCENC  =       234.65738733
  PAW double counting   =      9128.32845460    -9473.83145189
  entropy T*S    EENTRO =         0.02763263
  eigenvalues    EBANDS =      -603.35768035
  atomic energy  EATOM  =      9268.15263587
  Solvation  Ediel_sol  =         0.00000000
  ---------------------------------------------------
  free energy    TOTEN  =       -16.65293483 eV

  energy without entropy =      -16.68056746  energy(sigma->0) =      -16.66214571


--------------------------------------------------------------------------------------------------------




--------------------------------------- Iteration      1(  23)  ---------------------------------------


    POTLOK:  cpu time    3.6709: real time    5.4306
    SETDIJ:  cpu time    0.0585: real time    0.1269
     EDDAV:  cpu time   16.8360: real time   23.2809
       DOS:  cpu time    0.1769: real time    0.3468
    CHARGE:  cpu time    0.9686: real time    1.6926
    MIXING:  cpu time    0.2685: real time    0.4446
    --------------------------------------------
      LOOP:  cpu time   21.9795: real time   31.3224

 eigenvalue-minimisations  :   264
 total energy-change (2. order) :-0.4332761E-01  (-0.1023142E-03)
 number of electron      87.9999956 magnetization       0.1032002
 augmentation part       44.3893313 magnetization       0.0948400

 Broyden mixing:
  rms(total) = 0.39608E-02    rms(broyden)= 0.39587E-02
  rms(prec ) = 0.43982E-02
  weight for this iteration     100.00

 eigenvalues of (default mixing * dielectric matrix)
  average eigenvalue GAMMA=   1.7325
 11.2750  3.5541  2.8578  2.3893  1.3659  1.3659  1.0047  1.0047  0.9216  0.7349
  0.7349  0.7066  0.7066  0.5810  0.5810  0.5058  0.4412  0.4547

 Free energy of the ion-electron system (eV)
  ---------------------------------------------------
  alpha Z        PSCENC =         4.98158292
  Ewald energy   TEWEN  =      9156.85917128
  -Hartree energ DENC   =    -17731.58794301
  -exchange      EXHF   =         0.00000000
  -V(xc)+E(xc)   XCENC  =       234.60615356
  PAW double counting   =      9129.15318334    -9474.66075316
  entropy T*S    EENTRO =         0.02871041
  eigenvalues    EBANDS =      -604.22900363
  atomic energy  EATOM  =      9268.15263587
  Solvation  Ediel_sol  =         0.00000000
  ---------------------------------------------------
  free energy    TOTEN  =       -16.69626244 eV

  energy without entropy =      -16.72497284  energy(sigma->0) =      -16.70583257


--------------------------------------------------------------------------------------------------------




--------------------------------------- Iteration      1(  24)  ---------------------------------------


    POTLOK:  cpu time    5.5668: real time    8.2116
    SETDIJ:  cpu time    0.0471: real time    0.1031
     EDDAV:  cpu time   15.3855: real time   19.0803
       DOS:  cpu time    0.3876: real time    0.4158
    CHARGE:  cpu time    1.0019: real time    1.1944
    MIXING:  cpu time    0.2693: real time    0.2696
    --------------------------------------------
      LOOP:  cpu time   22.6583: real time   29.2749

 eigenvalue-minimisations  :   184
 total energy-change (2. order) :-0.6951832E-02  (-0.1561775E-04)
 number of electron      87.9999956 magnetization       0.0619754
 augmentation part       44.3896751 magnetization       0.0567033

 Broyden mixing:
  rms(total) = 0.26354E-02    rms(broyden)= 0.26350E-02
  rms(prec ) = 0.30369E-02
  weight for this iteration     100.00

 eigenvalues of (default mixing * dielectric matrix)
  average eigenvalue GAMMA=   1.7320
 11.5899  3.8460  2.6497  2.6497  1.2644  1.2644  1.2947  1.2947  0.8317  0.8317
  0.7174  0.7174  0.6709  0.6709  0.4398  0.5909  0.5735  0.4852  0.5264

 Free energy of the ion-electron system (eV)
  ---------------------------------------------------
  alpha Z        PSCENC =         4.98158292
  Ewald energy   TEWEN  =      9156.85917128
  -Hartree energ DENC   =    -17731.44022009
  -exchange      EXHF   =         0.00000000
  -V(xc)+E(xc)   XCENC  =       234.59962190
  PAW double counting   =      9129.24219220    -9474.74396531
  entropy T*S    EENTRO =         0.02823302
  eigenvalues    EBANDS =      -604.38246606
  atomic energy  EATOM  =      9268.15263587
  Solvation  Ediel_sol  =         0.00000000
  ---------------------------------------------------
  free energy    TOTEN  =       -16.70321427 eV

  energy without entropy =      -16.73144729  energy(sigma->0) =      -16.71262528


--------------------------------------------------------------------------------------------------------




--------------------------------------- Iteration      1(  25)  ---------------------------------------


    POTLOK:  cpu time    4.6596: real time    5.8488
    SETDIJ:  cpu time    0.0830: real time    0.1071
     EDDAV:  cpu time   11.4409: real time   14.4952
       DOS:  cpu time    0.3366: real time    0.3928
    CHARGE:  cpu time    1.3088: real time    1.4581
    MIXING:  cpu time    0.3853: real time    0.4418
    --------------------------------------------
      LOOP:  cpu time   18.2143: real time   22.7438

 eigenvalue-minimisations  :   176
 total energy-change (2. order) :-0.1105197E-01  (-0.2239657E-04)
 number of electron      87.9999956 magnetization       0.0326458
 augmentation part       44.3882260 magnetization       0.0328724

 Broyden mixing:
  rms(total) = 0.16388E-02    rms(broyden)= 0.16382E-02
  rms(prec ) = 0.19855E-02
  weight for this iteration     100.00

 eigenvalues of (default mixing * dielectric matrix)
  average eigenvalue GAMMA=   1.7540
 11.8460  4.2791  2.6610  2.6610  1.9411  1.3180  1.3180  0.9927  0.9927  0.8526
  0.8526  0.7240  0.7240  0.6744  0.6744  0.4400  0.5692  0.5692  0.5084  0.4816

 Free energy of the ion-electron system (eV)
  ---------------------------------------------------
  alpha Z        PSCENC =         4.98158292
  Ewald energy   TEWEN  =      9156.85917128
  -Hartree energ DENC   =    -17731.21281176
  -exchange      EXHF   =         0.00000000
  -V(xc)+E(xc)   XCENC  =       234.59064484
  PAW double counting   =      9129.61995545    -9475.13417330
  entropy T*S    EENTRO =         0.02792061
  eigenvalues    EBANDS =      -604.59919214
  atomic energy  EATOM  =      9268.15263587
  Solvation  Ediel_sol  =         0.00000000
  ---------------------------------------------------
  free energy    TOTEN  =       -16.71426624 eV

  energy without entropy =      -16.74218685  energy(sigma->0) =      -16.72357311


--------------------------------------------------------------------------------------------------------




--------------------------------------- Iteration      1(  26)  ---------------------------------------


    POTLOK:  cpu time    4.7442: real time    6.1462
    SETDIJ:  cpu time    0.1408: real time    0.1418
     EDDAV:  cpu time    8.7380: real time   10.7363
       DOS:  cpu time    0.0009: real time    0.0009
    CHARGE:  cpu time    1.0699: real time    1.4755
    MIXING:  cpu time    0.5429: real time    0.5952
    --------------------------------------------
      LOOP:  cpu time   15.2368: real time   19.0960

 eigenvalue-minimisations  :   168
 total energy-change (2. order) :-0.7336059E-02  (-0.1910792E-04)
 number of electron      87.9999956 magnetization       0.0265657
 augmentation part       44.3879626 magnetization       0.0287663

 Broyden mixing:
  rms(total) = 0.14730E-02    rms(broyden)= 0.14728E-02
  rms(prec ) = 0.16720E-02
  weight for this iteration     100.00

 eigenvalues of (default mixing * dielectric matrix)
  average eigenvalue GAMMA=   1.7486
 11.8951  4.8162  2.6734  2.6734  2.2026  1.2810  1.2810  1.1420  1.1420  0.8161
  0.8161  0.7154  0.7154  0.6648  0.6648  0.6831  0.5707  0.5707  0.4970  0.4404
  0.4591

 Free energy of the ion-electron system (eV)
  ---------------------------------------------------
  alpha Z        PSCENC =         4.98158292
  Ewald energy   TEWEN  =      9156.85917128
  -Hartree energ DENC   =    -17730.86798235
  -exchange      EXHF   =         0.00000000
  -V(xc)+E(xc)   XCENC  =       234.58188915
  PAW double counting   =      9129.69910955    -9475.21510021
  entropy T*S    EENTRO =         0.02790489
  eigenvalues    EBANDS =      -604.94081339
  atomic energy  EATOM  =      9268.15263587
  Solvation  Ediel_sol  =         0.00000000
  ---------------------------------------------------
  free energy    TOTEN  =       -16.72160230 eV

  energy without entropy =      -16.74950719  energy(sigma->0) =      -16.73090393


--------------------------------------------------------------------------------------------------------




--------------------------------------- Iteration      1(  27)  ---------------------------------------


    POTLOK:  cpu time    3.8796: real time    4.7872
    SETDIJ:  cpu time    0.0608: real time    0.1009
     EDDAV:  cpu time    9.8579: real time   11.6803
       DOS:  cpu time    0.0084: real time    0.0109
    CHARGE:  cpu time    0.8511: real time    1.3527
    MIXING:  cpu time    0.1825: real time    0.3179
    --------------------------------------------
      LOOP:  cpu time   14.8403: real time   18.2499

 eigenvalue-minimisations  :   176
 total energy-change (2. order) :-0.2756955E-02  (-0.5611922E-05)
 number of electron      87.9999956 magnetization       0.0212911
 augmentation part       44.3881811 magnetization       0.0222429

 Broyden mixing:
  rms(total) = 0.11339E-02    rms(broyden)= 0.11338E-02
  rms(prec ) = 0.12908E-02
  weight for this iteration     100.00

 eigenvalues of (default mixing * dielectric matrix)
  average eigenvalue GAMMA=   1.7418
 11.8854  5.0600  2.8508  2.8508  2.2192  1.2768  1.2768  1.2113  1.2113  0.8700
  0.8700  0.7160  0.7160  0.7478  0.7478  0.6748  0.6033  0.6033  0.5320  0.4404
  0.4928  0.4640

 Free energy of the ion-electron system (eV)
  ---------------------------------------------------
  alpha Z        PSCENC =         4.98158292
  Ewald energy   TEWEN  =      9156.85917128
  -Hartree energ DENC   =    -17730.68288371
  -exchange      EXHF   =         0.00000000
  -V(xc)+E(xc)   XCENC  =       234.57741493
  PAW double counting   =      9129.62064349    -9475.13353151
  entropy T*S    EENTRO =         0.02807443
  eigenvalues    EBANDS =      -605.12746696
  atomic energy  EATOM  =      9268.15263587
  Solvation  Ediel_sol  =         0.00000000
  ---------------------------------------------------
  free energy    TOTEN  =       -16.72435925 eV

  energy without entropy =      -16.75243369  energy(sigma->0) =      -16.73371740


--------------------------------------------------------------------------------------------------------




--------------------------------------- Iteration      1(  28)  ---------------------------------------


    POTLOK:  cpu time    3.8829: real time    5.1036
    SETDIJ:  cpu time    0.1697: real time    0.1697
     EDDAV:  cpu time   12.2277: real time   16.4939
       DOS:  cpu time    0.2189: real time    0.3630
    CHARGE:  cpu time    0.8633: real time    1.1883
    MIXING:  cpu time    0.4618: real time    0.6846
    --------------------------------------------
      LOOP:  cpu time   17.8243: real time   24.0032

 eigenvalue-minimisations  :   168
 total energy-change (2. order) :-0.2617526E-02  (-0.4568805E-05)
 number of electron      87.9999956 magnetization       0.0132838
 augmentation part       44.3885746 magnetization       0.0130528

 Broyden mixing:
  rms(total) = 0.89639E-03    rms(broyden)= 0.89621E-03
  rms(prec ) = 0.10034E-02
  weight for this iteration     100.00

 eigenvalues of (default mixing * dielectric matrix)
  average eigenvalue GAMMA=   1.7649
[...]
  -Hartree energ DENC   =    -18349.72110579
  -exchange      EXHF   =         0.00000000
  -V(xc)+E(xc)   XCENC  =       234.48696181
  PAW double counting   =      8968.93866813    -9313.02976731
  entropy T*S    EENTRO =         0.10921651
  eigenvalues    EBANDS =      -595.92530287
  atomic energy  EATOM  =      9268.15263587
  Solvation  Ediel_sol  =         0.00000000
  ---------------------------------------------------
  free energy    TOTEN  =       -19.92508484 eV

  energy without entropy =      -20.03430135  energy(sigma->0) =      -19.96149034


--------------------------------------------------------------------------------------------------------




--------------------------------------- Iteration     82(   3)  ---------------------------------------


    POTLOK:  cpu time    2.0973: real time    2.1074
    SETDIJ:  cpu time    0.0220: real time    0.0220
     EDDAV:  cpu time    3.2807: real time    3.3007
       DOS:  cpu time    0.0019: real time    0.0019
    --------------------------------------------
      LOOP:  cpu time    5.4018: real time    5.4320

 eigenvalue-minimisations  :   160
 total energy-change (2. order) : 0.2434077E-04  (-0.1239344E-04)
 number of electron      87.9999877 magnetization      -0.0000000
 augmentation part       44.3576080 magnetization      -0.0000000

 Free energy of the ion-electron system (eV)
  ---------------------------------------------------
  alpha Z        PSCENC =         4.98158292
  Ewald energy   TEWEN  =      9762.08202589
  -Hartree energ DENC   =    -18349.58692049
  -exchange      EXHF   =         0.00000000
  -V(xc)+E(xc)   XCENC  =       234.48163098
  PAW double counting   =      8968.92040594    -9312.97136381
  entropy T*S    EENTRO =         0.10872849
  eigenvalues    EBANDS =      -596.09378629
  atomic energy  EATOM  =      9268.15263587
  Solvation  Ediel_sol  =         0.00000000
  ---------------------------------------------------
  free energy    TOTEN  =       -19.92506050 eV

  energy without entropy =      -20.03378899  energy(sigma->0) =      -19.96130333


--------------------------------------------------------------------------------------------------------




 average (electrostatic) potential at core
  the test charge radii are     1.2098  0.9430
  (the norm of the test charge is              1.0000)
       1 -76.7906       2 -76.7868       3 -76.7795       4 -76.7759       5 -74.5815
       6 -74.5910       7 -74.5759       8 -74.5741
 
 
 
 E-fermi :  -5.0877     XC(G=0):  -0.3053     alpha+bet : -0.1300


 spin component 1

 k-point     1 :       0.0000    0.0000    0.0000
  band No.  band energies     occupation 
      1     -10.4229      1.00000
      2      -8.7019      1.00000
      3      -8.6876      1.00000
      4      -8.6855      1.00000
      5      -8.1097      1.00000
      6      -8.1009      1.00000
      7      -8.0950      1.00000
      8      -7.7280      1.00000
      9      -7.7216      1.00000
     10      -7.7064      1.00000
     11      -7.6779      1.00000
     12      -7.6634      1.00000
     13      -7.4923      1.00000
     14      -7.4658      1.00000
     15      -7.4507      1.00000
     16      -7.2262      1.00000
     17      -7.2175      1.00000
     18      -7.2105      1.00000
     19      -7.0345      1.00000
     20      -7.0326      1.00000
     21      -7.0296      1.00000
     22      -6.9063      1.00000
     23      -6.8003      1.00000
     24      -6.7929      1.00000
     25      -6.7882      1.00000
     26      -6.1622      1.00000
     27      -6.1253      1.00000
     28      -6.1111      1.00000
     29      -6.0923      1.00000
     30      -6.0709      1.00000
     31      -5.5519      1.00248
     32      -5.5502      1.00257
     33      -5.5200      1.00458
     34      -5.5166      1.00487
     35      -5.5132      1.00518
     36      -5.4865      1.00814
     37      -5.4768      1.00950
     38      -5.4602      1.01213
     39      -5.3375      1.03537
     40      -5.3257      1.03526
     41      -5.3082      1.03276
     42      -5.2309      0.96545
     43      -5.2204      0.94646
     44      -5.2147      0.93525
     45      -3.1821     -0.00000
     46      -2.9398     -0.00000
     47      -2.9201     -0.00000
     48      -2.8845     -0.00000
     49      -1.8659     -0.00000
     50      -1.8590     -0.00000
     51      -0.7670     -0.00000
     52      -0.7454     -0.00000
     53      -0.7346     -0.00000
     54      -0.4977     -0.00000
     55       0.0362     -0.00000
     56       0.0475     -0.00000

 spin component 2

 k-point     1 :       0.0000    0.0000    0.0000
  band No.  band energies     occupation 
      1     -10.4229      1.00000
      2      -8.7019      1.00000
      3      -8.6876      1.00000
      4      -8.6855      1.00000
      5      -8.1097      1.00000
      6      -8.1009      1.00000
      7      -8.0950      1.00000
      8      -7.7280      1.00000
      9      -7.7216      1.00000
     10      -7.7064      1.00000
     11      -7.6779      1.00000
     12      -7.6634      1.00000
     13      -7.4923      1.00000
     14      -7.4658      1.00000
     15      -7.4507      1.00000
     16      -7.2262      1.00000
     17      -7.2175      1.00000
     18      -7.2105      1.00000
     19      -7.0345      1.00000
     20      -7.0326      1.00000
     21      -7.0296      1.00000
     22      -6.9063      1.00000
     23      -6.8003      1.00000
     24      -6.7929      1.00000
     25      -6.7882      1.00000
     26      -6.1622      1.00000
     27      -6.1253      1.00000
     28      -6.1111      1.00000
     29      -6.0923      1.00000
     30      -6.0709      1.00000
     31      -5.5519      1.00248
     32      -5.5502      1.00257
     33      -5.5200      1.00458
     34      -5.5166      1.00487
     35      -5.5132      1.00518
     36      -5.4865      1.00814
     37      -5.4768      1.00950
     38      -5.4602      1.01213
     39      -5.3375      1.03537
     40      -5.3257      1.03526
     41      -5.3082      1.03276
     42      -5.2309      0.96545
     43      -5.2204      0.94646
     44      -5.2147      0.93525
     45      -3.1821     -0.00000
     46      -2.9398     -0.00000
     47      -2.9201     -0.00000
     48      -2.8845     -0.00000
     49      -1.8659     -0.00000
     50      -1.8590     -0.00000
     51      -0.7670     -0.00000
     52      -0.7454     -0.00000
     53      -0.7346     -0.00000
     54      -0.4977     -0.00000
     55       0.0362     -0.00000
     56       0.0475     -0.00000


--------------------------------------------------------------------------------------------------------


 soft charge-density along one line, spin component            1
         0         1         2         3         4         5         6         7         8         9
 total charge-density along one line
 
 soft charge-density along one line, spin component            2
         0         1         2         3         4         5         6         7         8         9
 total charge-density along one line
 
 pseudopotential strength for first ion, spin component:            1
 -9.237  -0.006  -0.020   0.023  -0.001  -9.358  -0.005  -0.020
 -0.006  -9.246   0.013   0.011  -0.025  -0.005  -9.366   0.012
 -0.020   0.013  -9.235  -0.013  -0.014  -0.020   0.012  -9.356
  0.023   0.011  -0.013  -9.227  -0.013   0.023   0.011  -0.013
 -0.001  -0.025  -0.014  -0.013  -9.225  -0.001  -0.024  -0.014
 -9.358  -0.005  -0.020   0.023  -0.001  -9.463  -0.005  -0.019
 -0.005  -9.366   0.012   0.011  -0.024  -0.005  -9.472   0.012
 -0.020   0.012  -9.356  -0.013  -0.014  -0.019   0.012  -9.462
  0.023   0.011  -0.013  -9.348  -0.013   0.022   0.011  -0.013
 -0.001  -0.024  -0.014  -0.013  -9.346  -0.001  -0.024  -0.014
 -0.009  -0.015   0.001   0.007  -0.007  -0.009  -0.015   0.001
 -0.013  -0.021   0.002   0.010  -0.010  -0.013  -0.021   0.002
  0.009   0.015   0.011   0.001   0.019   0.008   0.015   0.011
  0.001  -0.018   0.019   0.009   0.000   0.001  -0.018   0.019
 -0.019   0.001  -0.005   0.016   0.010  -0.019   0.001  -0.005
  0.010   0.017   0.013   0.001   0.021   0.009   0.017   0.013
  0.001  -0.021   0.021   0.010   0.001   0.001  -0.020   0.021
 -0.022   0.001  -0.006   0.018   0.011  -0.022   0.001  -0.006
 pseudopotential strength for first ion, spin component:            2
 -9.237  -0.006  -0.020   0.023  -0.001  -9.358  -0.005  -0.020
 -0.006  -9.246   0.013   0.011  -0.025  -0.005  -9.366   0.012
 -0.020   0.013  -9.235  -0.013  -0.014  -0.020   0.012  -9.356
  0.023   0.011  -0.013  -9.227  -0.013   0.023   0.011  -0.013
 -0.001  -0.025  -0.014  -0.013  -9.225  -0.001  -0.024  -0.014
 -9.358  -0.005  -0.020   0.023  -0.001  -9.463  -0.005  -0.019
 -0.005  -9.366   0.012   0.011  -0.024  -0.005  -9.472   0.012
 -0.020   0.012  -9.356  -0.013  -0.014  -0.019   0.012  -9.462
  0.023   0.011  -0.013  -9.348  -0.013   0.022   0.011  -0.013
 -0.001  -0.024  -0.014  -0.013  -9.346  -0.001  -0.024  -0.014
 -0.009  -0.015   0.001   0.007  -0.007  -0.009  -0.015   0.001
 -0.013  -0.021   0.002   0.010  -0.010  -0.013  -0.021   0.002
  0.009   0.015   0.011   0.001   0.019   0.008   0.015   0.011
  0.001  -0.018   0.019   0.009   0.000   0.001  -0.018   0.019
 -0.019   0.001  -0.005   0.016   0.010  -0.019   0.001  -0.005
  0.010   0.017   0.013   0.001   0.021   0.009   0.017   0.013
  0.001  -0.021   0.021   0.010   0.001   0.001  -0.020   0.021
 -0.022   0.001  -0.006   0.018   0.011  -0.022   0.001  -0.006
 total augmentation occupancy for first ion, spin component:            1
  2.593   0.270   0.053  -0.234  -0.007  -0.732  -0.202  -0.157   0.294   0.001   0.421  -0.112   0.066  -0.034  -0.091   0.006
  0.270   2.892  -0.157  -0.215   0.195  -0.202  -0.965   0.182   0.198  -0.282   0.722  -0.189   0.117  -0.127  -0.031   0.010
  0.053  -0.157   2.805  -0.106   0.060  -0.158   0.182  -0.852  -0.021  -0.126  -0.070   0.017   0.042   0.092  -0.030   0.011
 -0.234  -0.215  -0.106   2.596   0.048   0.295   0.197  -0.020  -0.669  -0.119  -0.346   0.093  -0.032   0.052   0.085   0.002
 -0.007   0.195   0.060   0.048   2.888   0.001  -0.283  -0.126  -0.120  -0.840   0.322  -0.084   0.111  -0.017   0.040   0.016
 -0.732  -0.202  -0.158   0.295   0.001   0.812   0.145   0.245  -0.346   0.003  -0.381   0.107  -0.090   0.016   0.147   0.004
 -0.202  -0.965   0.182   0.197  -0.283   0.145   0.990  -0.204  -0.182   0.355  -0.653   0.183  -0.154   0.166   0.014   0.007
 -0.157   0.182  -0.852  -0.020  -0.126   0.245  -0.204   0.859   0.125   0.181   0.063  -0.017  -0.073  -0.135   0.033   0.002
  0.294   0.198  -0.021  -0.669  -0.120  -0.346  -0.182   0.125   0.694   0.180   0.313  -0.090   0.014  -0.085  -0.123  -0.000
  0.001  -0.282  -0.126  -0.119  -0.840   0.003   0.355   0.181   0.180   0.767  -0.291   0.080  -0.147   0.016  -0.054   0.005
  0.421   0.722  -0.070  -0.346   0.322  -0.381  -0.653   0.063   0.313  -0.291   2.049  -0.238   0.204  -0.176  -0.100  -0.013
 -0.112  -0.189   0.017   0.093  -0.084   0.107   0.183  -0.017  -0.090   0.080  -0.238   0.063  -0.045   0.039   0.023   0.002
  0.066   0.117   0.042  -0.032   0.111  -0.090  -0.154  -0.073   0.014  -0.147   0.204  -0.045   0.056  -0.017  -0.010  -0.003
 -0.034  -0.127   0.092   0.052  -0.017   0.016   0.166  -0.135  -0.085   0.016  -0.176   0.039  -0.017   0.051   0.008   0.001
 -0.091  -0.031  -0.030   0.085   0.040   0.147   0.014   0.033  -0.123  -0.054  -0.100   0.023  -0.010   0.008   0.041   0.001
  0.006   0.010   0.011   0.002   0.016   0.004   0.007   0.002  -0.000   0.005  -0.013   0.002  -0.003   0.001   0.001   0.001
  0.002  -0.014   0.017   0.006   0.002  -0.000  -0.006   0.004   0.004  -0.001   0.011  -0.002   0.001  -0.003  -0.001  -0.000
 -0.016   0.002  -0.005   0.014   0.010  -0.005  -0.000  -0.000   0.004   0.000   0.006  -0.001   0.001  -0.000  -0.002  -0.000
 total augmentation occupancy for first ion, spin component:            2
 -0.000  -0.000   0.000  -0.000  -0.000   0.000   0.000  -0.000   0.000   0.000   0.000   0.000  -0.000  -0.000   0.000  -0.000
 -0.000  -0.000  -0.000  -0.000  -0.000   0.000   0.000   0.000   0.000   0.000   0.000  -0.000  -0.000   0.000  -0.000  -0.000
  0.000  -0.000   0.000  -0.000   0.000  -0.000   0.000  -0.000  -0.000  -0.000   0.000  -0.000  -0.000   0.000  -0.000   0.000
 -0.000  -0.000  -0.000  -0.000   0.000   0.000   0.000   0.000   0.000  -0.000  -0.000   0.000   0.000  -0.000  -0.000  -0.000
 -0.000  -0.000   0.000   0.000  -0.000   0.000   0.000  -0.000  -0.000   0.000   0.000  -0.000  -0.000  -0.000   0.000   0.000
  0.000   0.000  -0.000   0.000   0.000   0.000  -0.000   0.000  -0.000  -0.000  -0.000  -0.000  -0.000   0.000  -0.000   0.000
  0.000   0.000   0.000   0.000   0.000  -0.000   0.000  -0.000  -0.000  -0.000  -0.000   0.000  -0.000  -0.000   0.000   0.000
 -0.000   0.000  -0.000   0.000  -0.000   0.000  -0.000  -0.000   0.000   0.000   0.000  -0.000   0.000  -0.000   0.000  -0.000
  0.000   0.000  -0.000   0.000  -0.000  -0.000  -0.000   0.000   0.000   0.000   0.000  -0.000  -0.000   0.000   0.000   0.000
  0.000   0.000  -0.000  -0.000   0.000  -0.000  -0.000   0.000   0.000  -0.000   0.000  -0.000   0.000   0.000  -0.000  -0.000
  0.000   0.000   0.000  -0.000   0.000  -0.000  -0.000   0.000   0.000   0.000   0.000  -0.000   0.000  -0.000   0.000   0.000
  0.000  -0.000  -0.000   0.000  -0.000  -0.000   0.000  -0.000  -0.000  -0.000  -0.000   0.000   0.000   0.000  -0.000  -0.000
 -0.000  -0.000  -0.000   0.000  -0.000  -0.000  -0.000   0.000  -0.000   0.000   0.000   0.000   0.000  -0.000   0.000  -0.000
 -0.000   0.000   0.000  -0.000  -0.000   0.000  -0.000  -0.000   0.000   0.000  -0.000   0.000  -0.000  -0.000   0.000   0.000
  0.000  -0.000  -0.000  -0.000   0.000  -0.000   0.000   0.000   0.000  -0.000   0.000  -0.000   0.000   0.000  -0.000   0.000
 -0.000  -0.000   0.000  -0.000   0.000   0.000   0.000  -0.000   0.000  -0.000   0.000  -0.000  -0.000   0.000   0.000   0.000
  0.000   0.000  -0.000   0.000   0.000  -0.000   0.000   0.000  -0.000  -0.000   0.000  -0.000   0.000   0.000  -0.000  -0.000
 -0.000   0.000   0.000   0.000  -0.000   0.000  -0.000   0.000  -0.000   0.000  -0.000   0.000   0.000  -0.000   0.000  -0.000


------------------------ aborting loop because EDIFF is reached ----------------------------------------


    CHARGE:  cpu time    0.3950: real time    0.3995
    FORLOC:  cpu time    0.0525: real time    0.0565
    FORNL :  cpu time    1.1312: real time    1.1323
    FORCOR:  cpu time    1.9766: real time    1.9825
    FORHAR:  cpu time    0.2805: real time    0.2848
    MIXING:  cpu time    0.0417: real time    0.0417
    OFIELD:  cpu time    0.0000: real time    0.0000

 VOLUME and BASIS-vectors are now :
 -----------------------------------------------------------------------------
  energy-cutoff  :      400.00
  volume of cell :    12180.06
      direct lattice vectors                 reciprocal lattice vectors
    22.795131814  0.000000000  0.000000000     0.043869016  0.000000000  0.000000000
     0.000000000 21.908248603  0.000000000     0.000000000  0.045644908  0.000000000
     0.000000000  0.000000000 24.389314937     0.000000000  0.000000000  0.041001562

  length of vectors
    22.795131814 21.908248603 24.389314937     0.043869016  0.045644908  0.041001562


 FORCES acting on ions
    electron-ion (+dipol)            ewald-force                    non-local-force                 convergence-correction
 -----------------------------------------------------------------------------------------------
   -.352E+03 0.704E+03 -.612E+03   0.350E+03 -.699E+03 0.608E+03   0.232E+01 -.477E+01 0.411E+01   -.153E-01 0.677E-01 0.283E-01
   -.248E+03 -.897E+03 -.352E+03   0.246E+03 0.891E+03 0.350E+03   0.171E+01 0.606E+01 0.229E+01   0.850E-02 -.360E-01 0.690E-01
   -.390E+03 0.979E+02 0.914E+03   0.387E+03 -.973E+02 -.908E+03   0.265E+01 -.628E+00 -.612E+01   -.770E-01 -.255E-01 -.130E+00
   0.989E+03 0.944E+02 0.441E+02   -.982E+03 -.937E+02 -.437E+02   -.666E+01 -.675E+00 -.317E+00   0.855E-01 0.660E-02 -.575E-01
   -.987E+03 -.729E+02 -.520E+02   0.980E+03 0.725E+02 0.515E+02   0.617E+01 0.467E+00 0.302E+00   0.109E+00 0.987E-02 0.965E-01
   0.386E+03 -.120E+03 -.904E+03   -.384E+03 0.120E+03 0.898E+03   -.237E+01 0.741E+00 0.570E+01   -.325E-01 0.194E-02 -.579E-01
   0.231E+03 0.892E+03 0.364E+03   -.229E+03 -.886E+03 -.362E+03   -.146E+01 -.570E+01 -.226E+01   -.284E-01 0.453E-01 0.240E-01
   0.371E+03 -.698E+03 0.598E+03   -.368E+03 0.693E+03 -.595E+03   -.240E+01 0.451E+01 -.374E+01   -.691E-01 -.851E-01 0.732E-01
 -----------------------------------------------------------------------------------------------
   0.336E-01 0.165E-01 -.231E-01   0.114E-12 -.114E-12 0.000E+00   -.320E-01 -.379E-02 -.334E-01   -.193E-01 -.152E-01 0.454E-01
 
 
 POSITION                                       TOTAL-FORCE (eV/Angst)
 -----------------------------------------------------------------------------------
     12.32403      8.42441     13.32986         0.024254     -0.028255     -0.001737
     12.05257     12.59945     12.65813        -0.003204      0.013642     -0.008991
     12.42956     10.00165      9.35000         0.016709     -0.019813      0.031447
      8.81514     10.00947     11.63171         0.017051      0.016377     -0.019212
     12.94145     10.37102     11.81534        -0.017827      0.011766     -0.017994
     10.80153     10.44485     13.14758         0.000882     -0.016376     -0.016626
     11.05012      8.87784     11.17329        -0.017938     -0.014013      0.026756
     10.83947     11.33474     10.81095        -0.019928      0.036672      0.006357
 -----------------------------------------------------------------------------------
    total drift:                               -0.017730     -0.002503     -0.011091


--------------------------------------------------------------------------------------------------------



  FREE ENERGIE OF THE ION-ELECTRON SYSTEM (eV)
  ---------------------------------------------------
  free  energy   TOTEN  =       -19.92506050 eV

  energy  without entropy=      -20.03378899  energy(sigma->0) =      -19.96130333
 
 d Force = 0.3781984E-04[-0.182E-03, 0.258E-03]  d Energy = 0.1325357E-03-0.947E-04
 d Force =-0.1691691E+01[-0.170E+01,-0.169E+01]  d Ewald  =-0.1691690E+01-0.106E-05


--------------------------------------------------------------------------------------------------------


    POTLOK:  cpu time    2.1426: real time    2.1570


--------------------------------------------------------------------------------------------------------




--------------------------------------------------------------------------------------------------------


  
 reached required accuracy - stopping structural energy minimisation
     LOOP+:  cpu time   26.5938: real time   26.7185
    4ORBIT:  cpu time    0.0000: real time    0.0000

 total amount of memory used by VASP MPI-rank0   149611. kBytes
=======================================================================

   base      :      30000. kBytes
   nonl-proj :       5750. kBytes
   fftplans  :      28427. kBytes
   grid      :      73025. kBytes
   one-center:         15. kBytes
   wavefun   :      12394. kBytes
 
  
  
 General timing and accounting informations for this job:
 ========================================================
  
                  Total CPU time used (sec):    11470.654
                            User time (sec):    11358.141
                          System time (sec):      112.513
                         Elapsed time (sec):    14186.858
  
                   Maximum memory used (kb):      286668.
                   Average memory used (kb):           0.
  
                          Minor page faults:     58250972
                          Major page faults:       722810
                 Voluntary context switches:        12002
