<?xml version="1.0" encoding="ISO-8859-1"?>
<modeling>
 <generator>
  <i name="program" type="string">vasp </i>
  <i name="version" type="string">6.1.2  </i>
  <i name="subversion" type="string">22Jul20 (build Aug  2 2021 21:04:21) gamma-only                       parallel </i>
  <i name="platform" type="string">LinuxPGI </i>
  <i name="date" type="string">2021 12 22 </i>
  <i name="time" type="string">03:22:10 </i>
 </generator>
 <incar>
  <i type="int" name="ISPIN">     2</i>
  <i type="int" name="IBRION">     2</i>
  <i type="int" name="NSW">  1000</i>
  <i type="int" name="ISIF">     0</i>
  <i type="int" name="ISYM">     0</i>
  <i name="ENCUT">    400.00000000</i>
  <i type="logical" name="LREAL"> F  </i>
  <i type="int" name="ISMEAR">     1</i>
  <i name="SIGMA">      0.20000000</i>
  <i type="logical" name="LWAVE"> F  </i>
  <i type="logical" name="LCHARG"> F  </i>
  <i type="int" name="KPAR">     1</i>
  <i type="int" name="NCORE">     8</i>
  <i type="string" name="GGA"> PE</i>
  <i type="int" name="ISPIN">     2</i>
 </incar>
 <structure name="primitive_cell" >
  <crystal>
   <varray name="basis" >
    <v>      22.79513181       0.00000000       0.00000000 </v>
    <v>       0.00000000      21.90824860       0.00000000 </v>
    <v>       0.00000000       0.00000000      24.38931494 </v>
   </varray>
   <i name="volume">  12180.05838401 </i>
   <varray name="rec_basis" >
    <v>       0.04386902       0.00000000       0.00000000 </v>
    <v>       0.00000000       0.04564491       0.00000000 </v>
    <v>       0.00000000       0.00000000       0.04100156 </v>
   </varray>
  </crystal>
  <varray name="positions" >
   <v>       0.50561852       0.44786438       0.52694273 </v>
   <v>       0.50655993       0.56277368       0.54328999 </v>
   <v>       0.50879906       0.44407720       0.37627675 </v>
   <v>       0.42856133       0.45604888       0.44771466 </v>
   <v>       0.58307875       0.44118684       0.45193524 </v>
   <v>       0.45584001       0.49740850       0.60752575 </v>
   <v>       0.49995800       0.36611446       0.45124812 </v>
   <v>       0.51480231       0.53030319       0.44580491 </v>
  </varray>
 </structure>
 <varray name="primitive_index" >
  <v type="int" >        1 </v>
  <v type="int" >        2 </v>
  <v type="int" >        3 </v>
  <v type="int" >        4 </v>
  <v type="int" >        5 </v>
  <v type="int" >        6 </v>
  <v type="int" >        7 </v>
  <v type="int" >        8 </v>
 </varray>
 <kpoints>
  <generation param="Gamma">
   <v type="int" name="divisions">       1        1        1 </v>
   <v name="usershift">      0.00000000       0.00000000       0.00000000 </v>
   <v name="genvec1">      1.00000000       0.00000000       0.00000000 </v>
   <v name="genvec2">      0.00000000       1.00000000       0.00000000 </v>
   <v name="genvec3">      0.00000000       0.00000000       1.00000000 </v>
   <v name="shift">      0.00000000       0.00000000       0.00000000 </v>
  </generation>
  <varray name="kpointlist" >
   <v>       0.00000000       0.00000000       0.00000000 </v>
  </varray>
  <varray name="weights" >
   <v>       1.00000000 </v>
  </varray>
 </kpoints>
 <parameters>
  <separator name="general" >
   <i type="string" name="SYSTEM">unknown system</i>
   <i type="logical" name="LCOMPAT"> F  </i>
  </separator>
  <separator name="electronic" >
   <i type="string" name="PREC">normal</i>
   <i name="ENMAX">    400.00000000</i>
   <i name="ENAUG">    586.98000000</i>
   <i name="EDIFF">      0.00010000</i>
   <i type="int" name="IALGO">    38</i>
   <i type="int" name="IWAVPR">    11</i>
   <i type="int" name="NBANDS">    56</i>
   <i type="int" name="NBANDSLOW">    -1</i>
   <i type="int" name="NBANDSHIGH">    -1</i>
   <i name="NELECT">     88.00000000</i>
   <i type="int" name="TURBO">     0</i>
   <i type="int" name="IRESTART">     0</i>
   <i type="int" name="NREBOOT">     0</i>
   <i type="int" name="NMIN">     0</i>
   <i name="EREF">      0.00000000</i>
   <separator name="electronic smearing" >
    <i type="int" name="ISMEAR">     1</i>
    <i name="SIGMA">      0.20000000</i>
    <i name="KSPACING">      0.50000000</i>
    <i type="logical" name="KGAMMA"> T  </i>
    <i type="logical" name="KBLOWUP"> T  </i>
   </separator>
   <separator name="electronic projectors" >
    <i type="logical" name="LREAL"> F  </i>
    <v name="ROPT">      0.00000000      0.00000000</v>
    <i type="int" name="LMAXPAW">  -100</i>
    <i type="int" name="LMAXMIX">     2</i>
    <i type="logical" name="NLSPLINE"> F  </i>
   </separator>
   <separator name="electronic startup" >
    <i type="int" name="ISTART">     0</i>
    <i type="int" name="ICHARG">     2</i>
    <i type="int" name="INIWAV">     1</i>
   </separator>
   <separator name="electronic spin" >
    <i type="int" name="ISPIN">     2</i>
    <i type="logical" name="LNONCOLLINEAR"> F  </i>
    <v name="MAGMOM">      1.00000000      1.00000000      1.00000000      1.00000000      1.00000000      1.00000000      1.00000000      1.00000000</v>
    <i name="NUPDOWN">     -1.00000000</i>
    <i type="logical" name="LSORBIT"> F  </i>
    <v name="SAXIS">      0.00000000      0.00000000      1.00000000</v>
    <i type="logical" name="LSPIRAL"> F  </i>
    <v name="QSPIRAL">      0.00000000      0.00000000      0.00000000</v>
    <i type="logical" name="LZEROZ"> F  </i>
   </separator>
   <separator name="electronic exchange-correlation" >
    <i type="logical" name="LASPH"> F  </i>
    <i type="logical" name="LMETAGGA"> F  </i>
   </separator>
   <separator name="electronic convergence" >
    <i type="int" name="NELM">    60</i>
    <i type="int" name="NELMDL">     0</i>
    <i type="int" name="NELMIN">     2</i>
    <i name="ENINI">    400.00000000</i>
    <separator name="electronic convergence detail" >
     <i type="logical" name="LDIAG"> T  </i>
     <i type="logical" name="LSUBROT"> F  </i>
     <i name="WEIMIN">      0.00100000</i>
     <i name="EBREAK">      0.00000045</i>
     <i name="DEPER">      0.30000000</i>
     <i type="int" name="NRMM">     4</i>
     <i name="TIME">      0.40000000</i>
    </separator>
   </separator>
   <separator name="electronic mixer" >
    <i name="AMIX">      0.40000000</i>
    <i name="BMIX">      1.00000000</i>
    <i name="AMIN">      0.10000000</i>
    <i name="AMIX_MAG">      1.60000000</i>
    <i name="BMIX_MAG">      1.00000000</i>
    <separator name="electronic mixer details" >
     <i type="int" name="IMIX">     4</i>
     <i type="logical" name="MIXFIRST"> F  </i>
     <i type="int" name="MAXMIX">   -45</i>
     <i name="WC">    100.00000000</i>
     <i type="int" name="INIMIX">     1</i>
     <i type="int" name="MIXPRE">     1</i>
     <i type="int" name="MREMOVE">     5</i>
    </separator>
   </separator>
   <separator name="electronic dipolcorrection" >
    <i type="logical" name="LDIPOL"> F  </i>
    <i type="logical" name="LMONO"> F  </i>
    <i type="int" name="IDIPOL">     0</i>
    <i name="EPSILON">      1.00000000</i>
    <v name="DIPOL">   -100.00000000   -100.00000000   -100.00000000</v>
    <i name="EFIELD">      0.00000000</i>
   </separator>
  </separator>
  <separator name="grids" >
   <i type="int" name="NGX">   112</i>
   <i type="int" name="NGY">   108</i>
   <i type="int" name="NGZ">   120</i>
   <i type="int" name="NGXF">   224</i>
   <i type="int" name="NGYF">   216</i>
   <i type="int" name="NGZF">   240</i>
   <i type="logical" name="ADDGRID"> F  </i>
  </separator>
  <separator name="ionic" >
   <i type="int" name="NSW">  1000</i>
   <i type="int" name="IBRION">     2</i>
   <i type="int" name="MDALGO">     0</i>
   <i type="int" name="ISIF">     0</i>
   <i name="PSTRESS">      0.00000000</i>
   <i name="EDIFFG">      0.00100000</i>
   <i type="int" name="NFREE">     1</i>
   <i name="POTIM">      0.50000000</i>
   <i name="SMASS">     -3.00000000</i>
   <i name="SCALEE">      1.00000000</i>
  </separator>
  <separator name="ionic md" >
   <i name="TEBEG">      0.00010000</i>
   <i name="TEEND">      0.00010000</i>
   <i type="int" name="NBLOCK">     1</i>
   <i type="int" name="KBLOCK">  1000</i>
   <i type="int" name="NPACO">   256</i>
   <i name="APACO">     16.00000000</i>
  </separator>
  <separator name="symmetry" >
   <i type="int" name="ISYM">     0</i>
   <i name="SYMPREC">      0.00001000</i>
  </separator>
  <separator name="dos" >
   <i type="int" name="LORBIT">     0</i>
   <v name="RWIGS">     -1.00000000     -1.00000000</v>
   <i type="int" name="NEDOS">   301</i>
   <i name="EMIN">     10.00000000</i>
   <i name="EMAX">    -10.00000000</i>
   <i name="EFERMI">      0.00000000</i>
  </separator>
  <separator name="writing" >
   <i type="int" name="NWRITE">     2</i>
   <i type="logical" name="LWAVE"> F  </i>
   <i type="logical" name="LDOWNSAMPLE"> F  </i>
   <i type="logical" name="LCHARG"> F  </i>
   <i type="logical" name="LPARD"> F  </i>
   <i type="logical" name="LVTOT"> F  </i>
   <i type="logical" name="LVHAR"> F  </i>
   <i type="logical" name="LELF"> F  </i>
   <i type="logical" name="LOPTICS"> F  </i>
   <v name="STM">      0.00000000      0.00000000      0.00000000      0.00000000      0.00000000      0.00000000      0.00000000</v>
  </separator>
  <separator name="performance" >
   <i type="int" name="NPAR">     2</i>
   <i type="int" name="NSIM">     4</i>
   <i type="int" name="NBLK">    -1</i>
   <i type="logical" name="LPLANE"> T  </i>
   <i type="logical" name="LSCALAPACK"> T  </i>
   <i type="logical" name="LSCAAWARE"> F  </i>
   <i type="logical" name="LSCALU"> F  </i>
   <i type="logical" name="LASYNC"> F  </i>
   <i type="logical" name="LORBITALREAL"> F  </i>
  </separator>
  <separator name="miscellaneous" >
   <i type="int" name="IDIOT">     3</i>
   <i type="int" name="PHON_NSTRUCT">    -1</i>
   <i type="logical" name="LMUSIC"> F  </i>
   <v name="POMASS">    196.96600000     63.54600000</v>
   <v name="DARWINR">      0.00000000      0.00000000</v>
   <v name="DARWINV">      1.00000000      1.00000000</v>
   <i type="logical" name="LCORR"> T  </i>
  </separator>
  <i type="logical" name="GGA_COMPAT"> T  </i>
  <i type="logical" name="LBERRY"> F  </i>
  <i type="int" name="ICORELEVEL">     0</i>
  <i type="logical" name="LDAU"> F  </i>
  <i type="int" name="I_CONSTRAINED_M">     0</i>
  <separator name="electronic exchange-correlation" >
   <i type="string" name="GGA">PE</i>
   <i type="int" name="VOSKOWN">     0</i>
   <i type="logical" name="LHFCALC"> F  </i>
   <i type="string" name="PRECFOCK"></i>
   <i type="logical" name="LSYMGRAD"> F  </i>
   <i type="logical" name="LHFONE"> F  </i>
   <i type="logical" name="LRHFCALC"> F  </i>
   <i type="logical" name="LTHOMAS"> F  </i>
   <i type="logical" name="LMODELHF"> F  </i>
   <i type="logical" name="LFOCKACE"> F  </i>
   <i name="ENCUT4O">     -1.00000000</i>
   <i type="int" name="EXXOEP">     0</i>
   <i type="int" name="FOURORBIT">     0</i>
   <i name="AEXX">      0.00000000</i>
   <i name="HFALPHA">      0.00000000</i>
   <i name="MCALPHA">      0.00000000</i>
   <i name="ALDAX">      1.00000000</i>
   <i name="AGGAX">      1.00000000</i>
   <i name="ALDAC">      1.00000000</i>
   <i name="AGGAC">      1.00000000</i>
   <i type="int" name="NKREDX">     1</i>
   <i type="int" name="NKREDY">     1</i>
   <i type="int" name="NKREDZ">     1</i>
   <i type="logical" name="SHIFTRED"> F  </i>
   <i type="logical" name="ODDONLY"> F  </i>
   <i type="logical" name="EVENONLY"> F  </i>
   <i type="int" name="LMAXFOCK">     0</i>
   <i type="int" name="NMAXFOCKAE">     0</i>
   <i type="logical" name="LFOCKAEDFT"> F  </i>
   <i name="HFSCREEN">      0.00000000</i>
   <i name="HFSCREENC">      0.00000000</i>
   <i type="int" name="NBANDSGWLOW">     0</i>
  </separator>
  <separator name="vdW DFT" >
   <i type="logical" name="LUSE_VDW"> F  </i>
   <i name="Zab_VDW">     -0.84910000</i>
   <i name="PARAM1">      0.12340000</i>
   <i name="PARAM2">      1.00000000</i>
   <i name="PARAM3">      0.00000000</i>
  </separator>
  <separator name="model GW" >
   <i type="int" name="MODEL_GW">     0</i>
   <i name="MODEL_EPS0">    913.50437880</i>
   <i name="MODEL_ALPHA">      1.00000000</i>
  </separator>
  <separator name="linear response parameters" >
   <i type="logical" name="LEPSILON"> F  </i>
   <i type="logical" name="LRPA"> F  </i>
   <i type="logical" name="LNABLA"> F  </i>
   <i type="logical" name="LVEL"> F  </i>
   <i type="int" name="KINTER">     0</i>
   <i name="CSHIFT">      0.10000000</i>
   <i name="OMEGAMAX">     -1.00000000</i>
   <i name="DEG_THRESHOLD">      0.00200000</i>
   <i name="RTIME">     -0.10000000</i>
   <i name="WPLASMAI">      0.00000000</i>
   <v name="DFIELD">      0.00000000      0.00000000      0.00000000</v>
   <v name="WPLASMA">      0.00000000      0.00000000      0.00000000      0.00000000      0.00000000      0.00000000      0.00000000      0.00000000      0.00000000</v>
  </separator>
  <separator name="orbital magnetization" >
   <i type="logical" name="NUCIND"> F  </i>
   <v name="MAGPOS">      0.00000000      0.00000000      0.00000000</v>
   <i type="logical" name="LNICSALL"> T  </i>
   <i type="logical" name="ORBITALMAG"> F  </i>
   <i type="logical" name="LMAGBLOCH"> F  </i>
   <i type="logical" name="LCHIMAG"> F  </i>
   <i type="logical" name="LGAUGE"> T  </i>
   <i type="int" name="MAGATOM">     0</i>
   <v name="MAGDIPOL">      0.00000000      0.00000000      0.00000000</v>
   <v name="AVECCONST">      0.00000000      0.00000000      0.00000000</v>
  </separator>
  <separator name="response functions" >
   <i type="logical" name="LFINITE_TEMPERATURE"> F  </i>
   <i type="logical" name="LADDER"> F  </i>
   <i type="logical" name="LRPAFORCE"> F  </i>
   <i type="logical" name="LFXC"> F  </i>
   <i type="logical" name="LHARTREE"> T  </i>
   <i type="int" name="IBSE">     0</i>
   <v type="int" name="KPOINT">    -1     0     0     0</v>
   <i type="logical" name="LTCTC"> F  </i>
   <i type="logical" name="LTCTE"> F  </i>
   <i type="logical" name="LTETE"> F  </i>
   <i type="logical" name="LTRIPLET"> F  </i>
   <i type="logical" name="LFXCEPS"> F  </i>
   <i type="logical" name="LFXHEG"> F  </i>
   <i type="int" name="NATURALO">     2</i>
   <i type="logical" name="LHOLEGF"> F  </i>
   <i type="logical" name="L2ORDER"> F  </i>
   <i type="logical" name="LDMP1"> F  </i>
   <i type="logical" name="LMP2LT"> F  </i>
   <i type="logical" name="LSMP2LT"> F  </i>
   <i type="logical" name="LGWLF"> F  </i>
   <i name="ENCUTGW">     -2.00000000</i>
   <i name="ENCUTGWSOFT">     -2.00000000</i>
   <i name="ENCUTLF">     -1.00000000</i>
   <i type="logical" name="LESF_SPLINES"> F  </i>
   <i type="int" name="LMAXMP2">    -1</i>
   <i name="SCISSOR">      0.00000000</i>
   <i type="int" name="NOMEGA">     0</i>
   <i type="int" name="NOMEGAR">     0</i>
   <i type="int" name="NBANDSGW">    -1</i>
   <i type="int" name="NBANDSO">    -1</i>
   <i type="int" name="NBANDSV">    -1</i>
   <i type="int" name="NELM">     1</i>
   <i type="int" name="NELMHF">     1</i>
   <i type="int" name="DIM">     3</i>
   <i type="int" name="IESPILON">     4</i>
   <i type="int" name="ANTIRES">     0</i>
   <i name="OMEGAMAX">    -30.00000000</i>
   <i name="OMEGAMIN">    -30.00000000</i>
   <i name="OMEGATL">   -200.00000000</i>
   <i type="int" name="OMEGAGRID">     0</i>
   <i name="CSHIFT">     -0.10000000</i>
   <i type="logical" name="LSELFENERGY"> F  </i>
   <i type="logical" name="LSPECTRAL"> F  </i>
   <i type="logical" name="LSPECTRALGW"> F  </i>
   <i type="logical" name="LSINGLES"> F  </i>
   <i type="logical" name="LFERMIGW"> F  </i>
   <i type="logical" name="ODDONLYGW"> F  </i>
   <i type="logical" name="EVENONLYGW"> F  </i>
   <i type="int" name="NKREDLFX">     1</i>
   <i type="int" name="NKREDLFY">     1</i>
   <i type="int" name="NKREDLFZ">     1</i>
   <i type="int" name="MAXMEM">  2800</i>
   <i type="int" name="TELESCOPE">     0</i>
   <i type="int" name="NTAUPAR">    -1</i>
   <i type="int" name="NOMEGAPAR">    -1</i>
   <i name="LAMBDA">      1.00000000</i>
  </separator>
  <separator name="External order field" >
   <i name="OFIELD_KAPPA">      0.00000000</i>
   <v name="OFIELD_K">      0.00000000      0.00000000      0.00000000</v>
   <i name="OFIELD_Q6_NEAR">      0.00000000</i>
   <i name="OFIELD_Q6_FAR">      0.00000000</i>
   <i name="OFIELD_A">      0.00000000</i>
  </separator>
 </parameters>
 <atominfo>
  <atoms>       8 </atoms>
  <types>       2 </types>
  <array name="atoms" >
   <dimension dim="1">ion</dimension>
   <field type="string">element</field>
   <field type="int">atomtype</field>
   <set>
    <rc><c>Au</c><c>   1</c></rc>
    <rc><c>Au</c><c>   1</c></rc>
    <rc><c>Au</c><c>   1</c></rc>
    <rc><c>Au</c><c>   1</c></rc>
    <rc><c>Cu</c><c>   2</c></rc>
    <rc><c>Cu</c><c>   2</c></rc>
    <rc><c>Cu</c><c>   2</c></rc>
    <rc><c>Cu</c><c>   2</c></rc>
   </set>
  </array>
  <array name="atomtypes" >
   <dimension dim="1">type</dimension>
   <field type="int">atomspertype</field>
   <field type="string">element</field>
   <field>mass</field>
   <field>valence</field>
   <field type="string">pseudopotential</field>
   <set>
    <rc><c>   4</c><c>Au</c><c>    196.96600000</c><c>     11.00000000</c><c>  PAW_PBE Au 04Oct2007                  </c></rc>
    <rc><c>   4</c><c>Cu</c><c>     63.54600000</c><c>     11.00000000</c><c>  PAW_PBE Cu 22Jun2005                  </c></rc>
   </set>
  </array>
 </atominfo>
 <structure name="initialpos" >
  <crystal>
   <varray name="basis" >
    <v>      22.79513181       0.00000000       0.00000000 </v>
    <v>       0.00000000      21.90824860       0.00000000 </v>
    <v>       0.00000000       0.00000000      24.38931494 </v>
   </varray>
   <i name="volume">  12180.05838401 </i>
   <varray name="rec_basis" >
    <v>       0.04386902       0.00000000       0.00000000 </v>
    <v>       0.00000000       0.04564491       0.00000000 </v>
    <v>       0.00000000       0.00000000       0.04100156 </v>
   </varray>
  </crystal>
  <varray name="positions" >
   <v>       0.50561852       0.44786438       0.52694273 </v>
   <v>       0.50655993       0.56277368       0.54328999 </v>
   <v>       0.50879906       0.44407720       0.37627675 </v>
   <v>       0.42856133       0.45604888       0.44771466 </v>
   <v>       0.58307875       0.44118684       0.45193524 </v>
   <v>       0.45584001       0.49740850       0.60752575 </v>
   <v>       0.49995800       0.36611446       0.45124812 </v>
   <v>       0.51480231       0.53030319       0.44580491 </v>
  </varray>
 </structure>
 <calculation>
  <scstep>
   <time name="dav">   11.64   14.18</time>
   <time name="total">   16.58   21.19</time>
   <energy>
    <i name="alphaZ">      4.98158292 </i>
    <i name="ewald">   9156.85917128 </i>
    <i name="hartreedc"> -17765.08656840 </i>
    <i name="XCdc">    238.53369224 </i>
    <i name="pawpsdc">   8408.47588452 </i>
    <i name="pawaedc">  -8739.43322972 </i>
    <i name="eentropy">     -0.00113916 </i>
    <i name="bandstr">     97.67708400 </i>
    <i name="atom">   9268.15263587 </i>
    <i name="e_fr_energy">    670.15911355 </i>
    <i name="e_wo_entrp">    670.16025270 </i>
    <i name="e_0_energy">    670.15949327 </i>
   </energy>
  </scstep>
  <scstep>
   <time name="dav">   12.63   15.70</time>
   <time name="total">   13.00   16.07</time>
   <energy>
    <i name="e_fr_energy">    343.02086351 </i>
    <i name="e_wo_entrp">    342.99683078 </i>
    <i name="e_0_energy">    343.01285260 </i>
   </energy>
  </scstep>
  <scstep>
   <time name="dav">   17.80   22.35</time>
   <time name="total">   17.97   22.69</time>
   <energy>
    <i name="e_fr_energy">    105.93560606 </i>
    <i name="e_wo_entrp">    105.96765817 </i>
    <i name="e_0_energy">    105.94629010 </i>
   </energy>
  </scstep>
  <scstep>
   <time name="dav">   19.56   23.97</time>
   <time name="total">   19.79   24.35</time>
   <energy>
    <i name="e_fr_energy">      3.66538004 </i>
    <i name="e_wo_entrp">      3.65741287 </i>
    <i name="e_0_energy">      3.66272432 </i>
   </energy>
  </scstep>
  <scstep>
   <time name="dav">   16.66   21.22</time>
   <time name="total">   18.00   23.06</time>
   <energy>
    <i name="e_fr_energy">    -16.36493062 </i>
    <i name="e_wo_entrp">    -16.35242502 </i>
    <i name="e_0_energy">    -16.36076209 </i>
   </energy>
  </scstep>
  <scstep>
   <time name="dav">   10.72   13.24</time>
   <time name="total">   18.17   22.87</time>
   <energy>
    <i name="e_fr_energy">    -10.53388280 </i>
    <i name="e_wo_entrp">    -10.49276620 </i>
    <i name="e_0_energy">    -10.52017726 </i>
   </energy>
  </scstep>
  <scstep>
   <time name="dav">   12.35   16.07</time>
   <time name="total">   19.09   25.40</time>
   <energy>
    <i name="e_fr_energy">     -5.88372608 </i>
    <i name="e_wo_entrp">     -5.85751763 </i>
    <i name="e_0_energy">     -5.87498993 </i>
   </energy>
  </scstep>
  <scstep>
   <time name="dav">   16.30   21.13</time>
   <time name="total">   22.52   29.72</time>
   <energy>
    <i name="e_fr_energy">     -5.94237470 </i>
    <i name="e_wo_entrp">     -5.91803086 </i>
    <i name="e_0_energy">     -5.93426008 </i>
   </energy>
  </scstep>
  <scstep>
   <time name="dav">   16.62   20.06</time>
   <time name="total">   23.38   30.08</time>
   <energy>
    <i name="e_fr_energy">     -8.47516251 </i>
    <i name="e_wo_entrp">     -8.46722001 </i>
    <i name="e_0_energy">     -8.47251501 </i>
   </energy>
  </scstep>
  <scstep>
   <time name="dav">   15.41   19.35</time>
   <time name="total">   22.51   28.98</time>
   <energy>
    <i name="e_fr_energy">    -10.32366577 </i>
    <i name="e_wo_entrp">    -10.28746734 </i>
    <i name="e_0_energy">    -10.31159962 </i>
   </energy>
  </scstep>
  <scstep>
   <time name="dav">   13.45   15.86</time>
   <time name="total">   18.21   21.69</time>
   <energy>
    <i name="e_fr_energy">    -11.32208106 </i>
    <i name="e_wo_entrp">    -11.27210786 </i>
    <i name="e_0_energy">    -11.30542332 </i>
   </energy>
  </scstep>
  <scstep>
   <time name="dav">   14.72   18.53</time>
   <time name="total">   19.88   25.00</time>
   <energy>
    <i name="e_fr_energy">    -12.20626023 </i>
    <i name="e_wo_entrp">    -12.15132665 </i>
    <i name="e_0_energy">    -12.18794904 </i>
   </energy>
  </scstep>
  <scstep>
   <time name="dav">   12.15   15.64</time>
   <time name="total">   17.93   23.04</time>
   <energy>
    <i name="e_fr_energy">    -12.36594188 </i>
    <i name="e_wo_entrp">    -12.31170332 </i>
    <i name="e_0_energy">    -12.34786236 </i>
   </energy>
  </scstep>
  <scstep>
   <time name="dav">   13.24   17.28</time>
   <time name="total">   17.89   23.49</time>
   <energy>
    <i name="e_fr_energy">    -13.04536829 </i>
    <i name="e_wo_entrp">    -12.99885793 </i>
    <i name="e_0_energy">    -13.02986484 </i>
   </energy>
  </scstep>
  <scstep>
   <time name="dav">   16.08   20.20</time>
   <time name="total">   24.35   29.98</time>
   <energy>
    <i name="e_fr_energy">    -14.32161782 </i>
    <i name="e_wo_entrp">    -14.31800830 </i>
    <i name="e_0_energy">    -14.32041465 </i>
   </energy>
  </scstep>
  <scstep>
   <time name="dav">   10.44   14.27</time>
   <time name="total">   16.13   21.04</time>
   <energy>
    <i name="e_fr_energy">    -15.11583227 </i>
    <i name="e_wo_entrp">    -15.13211713 </i>
    <i name="e_0_energy">    -15.12126056 </i>
   </energy>
  </scstep>
  <scstep>
   <time name="dav">   15.09   18.46</time>
   <time name="total">   21.44   26.06</time>
   <energy>
    <i name="e_fr_energy">    -15.44462437 </i>
    <i name="e_wo_entrp">    -15.46546523 </i>
    <i name="e_0_energy">    -15.45157132 </i>
   </energy>
  </scstep>
  <scstep>
   <time name="dav">   18.45   24.34</time>
   <time name="total">   24.23   32.61</time>
   <energy>
    <i name="e_fr_energy">    -15.76435205 </i>
    <i name="e_wo_entrp">    -15.78833278 </i>
    <i name="e_0_energy">    -15.77234563 </i>
   </energy>
  </scstep>
  <scstep>
   <time name="dav">   11.14   14.46</time>
   <time name="total">   18.01   24.16</time>
   <energy>
    <i name="e_fr_energy">    -16.12635279 </i>
    <i name="e_wo_entrp">    -16.15368451 </i>
    <i name="e_0_energy">    -16.13546337 </i>
   </energy>
  </scstep>
  <scstep>
   <time name="dav">   14.61   18.89</time>
   <time name="total">   21.30   27.90</time>
   <energy>
    <i name="e_fr_energy">    -16.42157278 </i>
    <i name="e_wo_entrp">    -16.44820198 </i>
    <i name="e_0_energy">    -16.43044918 </i>
   </energy>
  </scstep>
  <scstep>
   <time name="dav">   15.38   19.68</time>
   <time name="total">   23.40   29.28</time>
   <energy>
    <i name="e_fr_energy">    -16.56660256 </i>
    <i name="e_wo_entrp">    -16.59313986 </i>
    <i name="e_0_energy">    -16.57544833 </i>
   </energy>
  </scstep>
  <scstep>
   <time name="dav">   14.08   17.20</time>
   <time name="total">   18.94   23.37</time>
   <energy>
    <i name="e_fr_energy">    -16.65293483 </i>
    <i name="e_wo_entrp">    -16.68056746 </i>
    <i name="e_0_energy">    -16.66214571 </i>
   </energy>
  </scstep>
  <scstep>
   <time name="dav">   16.84   23.28</time>
   <time name="total">   21.98   31.32</time>
   <energy>
    <i name="e_fr_energy">    -16.69626244 </i>
    <i name="e_wo_entrp">    -16.72497284 </i>
    <i name="e_0_energy">    -16.70583257 </i>
   </energy>
  </scstep>
  <scstep>
   <time name="dav">   15.39   19.08</time>
   <time name="total">   22.66   29.27</time>
   <energy>
    <i name="e_fr_energy">    -16.70321427 </i>
    <i name="e_wo_entrp">    -16.73144729 </i>
    <i name="e_0_energy">    -16.71262528 </i>
   </energy>
  </scstep>
  <scstep>
   <time name="dav">   11.44   14.50</time>
   <time name="total">   18.21   22.74</time>
   <energy>
    <i name="e_fr_energy">    -16.71426624 </i>
    <i name="e_wo_entrp">    -16.74218685 </i>
    <i name="e_0_energy">    -16.72357311 </i>
   </energy>
  </scstep>
  <scstep>
   <time name="dav">    8.74   10.74</time>
   <time name="total">   15.24   19.10</time>
   <energy>
    <i name="e_fr_energy">    -16.72160230 </i>
    <i name="e_wo_entrp">    -16.74950719 </i>
    <i name="e_0_energy">    -16.73090393 </i>
   </energy>
  </scstep>
  <scstep>
   <time name="dav">    9.86   11.68</time>
   <time name="total">   14.84   18.25</time>
   <energy>
    <i name="e_fr_energy">    -16.72435925 </i>
    <i name="e_wo_entrp">    -16.75243369 </i>
    <i name="e_0_energy">    -16.73371740 </i>
   </energy>
  </scstep>
  <scstep>
   <time name="dav">   12.23   16.49</time>
   <time name="total">   17.82   24.00</time>
   <energy>
    <i name="e_fr_energy">    -16.72697678 </i>
    <i name="e_wo_entrp">    -16.75492619 </i>
    <i name="e_0_energy">    -16.73629325 </i>
   </energy>
  </scstep>
  <scstep>
   <time name="dav">    9.20   11.86</time>
   <time name="total">   15.12   19.09</time>
   <energy>
    <i name="e_fr_energy">    -16.72916141 </i>
    <i name="e_wo_entrp">    -16.75718589 </i>
    <i name="e_0_energy">    -16.73850290 </i>
   </energy>
  </scstep>
  <scstep>
   <time name="dav">    7.67   10.20</time>
   <time name="total">   15.34   19.81</time>
   <energy>
    <i name="e_fr_energy">    -16.72978166 </i>
    <i name="e_wo_entrp">    -16.75790145 </i>
    <i name="e_0_energy">    -16.73915493 </i>
   </energy>
  </scstep>
  <scstep>
   <time name="dav">   10.79   13.10</time>
   <time name="total">   18.18   23.53</time>
   <energy>
    <i name="e_fr_energy">    -16.73047280 </i>
    <i name="e_wo_entrp">    -16.75855832 </i>
    <i name="e_0_energy">    -16.73983464 </i>
   </energy>
  </scstep>
  <scstep>
   <time name="dav">    9.06   10.47</time>
   <time name="total">   15.58   18.34</time>
   <energy>
    <i name="e_fr_energy">    -16.73112179 </i>
    <i name="e_wo_entrp">    -16.75911094 </i>
    <i name="e_0_energy">    -16.74045151 </i>
   </energy>
  </scstep>
  <scstep>
   <time name="dav">    8.58   10.66</time>
   <time name="total">   13.82   17.46</time>
   <energy>
    <i name="e_fr_energy">    -16.73130966 </i>
    <i name="e_wo_entrp">    -16.75931854 </i>
    <i name="e_0_energy">    -16.74064595 </i>
   </energy>
  </scstep>
  <scstep>
   <time name="dav">    6.46    8.66</time>
   <time name="total">   11.58   14.86</time>
   <energy>
    <i name="e_fr_energy">    -16.73147982 </i>
    <i name="e_wo_entrp">    -16.75952407 </i>
    <i name="e_0_energy">    -16.74082790 </i>
   </energy>
  </scstep>
  <scstep>
   <time name="dav">   10.36   13.48</time>
   <time name="total">   17.67   23.52</time>
   <energy>
    <i name="e_fr_energy">    -16.73159043 </i>
    <i name="e_wo_entrp">    -16.75962929 </i>
    <i name="e_0_energy">    -16.74093671 </i>
   </energy>
  </scstep>
  <scstep>
   <time name="dav">   10.49   13.47</time>
   <time name="total">   16.12   20.37</time>
   <energy>
    <i name="alphaZ">      4.98158292 </i>
    <i name="ewald">   9156.85917128 </i>
    <i name="hartreedc"> -17730.10253959 </i>
    <i name="XCdc">    234.56610374 </i>
    <i name="pawpsdc">   9129.58320654 </i>
    <i name="pawaedc">  -9475.09614218 </i>
    <i name="eentropy">      0.02803971 </i>
    <i name="bandstr">   -605.70369012 </i>
    <i name="atom">   9268.15263587 </i>
    <i name="e_fr_energy">    -16.73163184 </i>
    <i name="e_wo_entrp">    -16.75967155 </i>
    <i name="e_0_energy">    -16.74097841 </i>
   </energy>
  </scstep>
  <structure>
   <crystal>
    <varray name="basis" >
     <v>      22.79513181       0.00000000       0.00000000 </v>
     <v>       0.00000000      21.90824860       0.00000000 </v>
     <v>       0.00000000       0.00000000      24.38931494 </v>
    </varray>
    <i name="volume">  12180.05838401 </i>
    <varray name="rec_basis" >
     <v>       0.04386902       0.00000000       0.00000000 </v>
     <v>       0.00000000       0.04564491       0.00000000 </v>
     <v>       0.00000000       0.00000000       0.04100156 </v>
    </varray>
   </crystal>
   <varray name="positions" >
    <v>       0.50561852       0.44786438       0.52694273 </v>
    <v>       0.50655993       0.56277368       0.54328999 </v>
    <v>       0.50879906       0.44407720       0.37627675 </v>
    <v>       0.42856133       0.45604888       0.44771466 </v>
    <v>       0.58307875       0.44118684       0.45193524 </v>
    <v>       0.45584001       0.49740850       0.60752575 </v>
    <v>       0.49995800       0.36611446       0.45124812 </v>
    <v>       0.51480231       0.53030319       0.44580491 </v>
   </varray>
  </structure>
  <varray name="forces" >
   <v>       0.69886609      -1.73626796       0.57310873 </v>
   <v>       0.44984307       1.85714587      -0.08583199 </v>
   <v>       0.65957150       0.35367243      -1.59789157 </v>
   <v>      -2.29857517       0.09131966       0.04994166 </v>
   <v>       0.25351013      -0.05553108       0.40773990 </v>
   <v>      -0.22895421      -0.52424080       0.00314380 </v>
   <v>       0.22137764      -0.08668722       0.74597523 </v>
   <v>       0.24436096       0.10058911      -0.09618576 </v>
  </varray>
  <energy>
   <i name="e_fr_energy">    -16.73163184 </i>
   <i name="e_wo_entrp">    -16.75967155 </i>
   <i name="e_0_energy">    -16.74097841 </i>
  </energy>
  <time name="totalsc">  682.39  873.63</time>
 </calculation>
 <calculation>
  <scstep>
   <time name="dav">   14.34   19.87</time>
   <time name="total">   18.69   25.19</time>
   <energy>
    <i name="alphaZ">      4.98158292 </i>
    <i name="ewald">   8841.03978276 </i>
    <i name="hartreedc"> -17420.42888285 </i>
    <i name="XCdc">    233.59969798 </i>
    <i name="pawpsdc">   9129.58563972 </i>
    <i name="pawaedc">  -9475.09871871 </i>
    <i name="eentropy">      0.04467236 </i>
    <i name="bandstr">   -598.19213386 </i>
    <i name="atom">   9268.15263587 </i>
    <i name="e_fr_energy">    -16.31572381 </i>
    <i name="e_wo_entrp">    -16.36039617 </i>
    <i name="e_0_energy">    -16.33061459 </i>
   </energy>
  </scstep>
  <scstep>
   <time name="dav">   11.04   12.82</time>
   <time name="total">   18.63   21.96</time>
   <energy>
    <i name="e_fr_energy">    -17.26690300 </i>
    <i name="e_wo_entrp">    -17.30676000 </i>
    <i name="e_0_energy">    -17.28018867 </i>
   </energy>
  </scstep>
  <scstep>
   <time name="dav">   13.54   19.41</time>
   <time name="total">   18.63   26.19</time>
   <energy>
    <i name="e_fr_energy">    -17.20186283 </i>
    <i name="e_wo_entrp">    -17.23795687 </i>
    <i name="e_0_energy">    -17.21389418 </i>
   </energy>
  </scstep>
  <scstep>
   <time name="dav">   11.21   13.52</time>
   <time name="total">   17.77   21.85</time>
   <energy>
    <i name="e_fr_energy">    -17.19579508 </i>
    <i name="e_wo_entrp">    -17.23996194 </i>
    <i name="e_0_energy">    -17.21051737 </i>
   </energy>
  </scstep>
  <scstep>
   <time name="dav">    7.70    9.13</time>
   <time name="total">   11.34   13.25</time>
   <energy>
    <i name="e_fr_energy">    -17.19658958 </i>
    <i name="e_wo_entrp">    -17.23072593 </i>
    <i name="e_0_energy">    -17.20796836 </i>
   </energy>
  </scstep>
  <scstep>
   <time name="dav">   14.20   17.44</time>
   <time name="total">   21.44   27.02</time>
   <energy>
    <i name="e_fr_energy">    -17.19035700 </i>
    <i name="e_wo_entrp">    -17.22912687 </i>
    <i name="e_0_energy">    -17.20328029 </i>
   </energy>
  </scstep>
  <scstep>
   <time name="dav">   15.92   22.01</time>
   <time name="total">   22.27   30.21</time>
   <energy>
    <i name="e_fr_energy">    -17.19032644 </i>
    <i name="e_wo_entrp">    -17.22965807 </i>
    <i name="e_0_energy">    -17.20343699 </i>
   </energy>
  </scstep>
  <scstep>
   <time name="dav">   14.26   19.43</time>
   <time name="total">   20.78   27.68</time>
   <energy>
    <i name="e_fr_energy">    -17.18993174 </i>
    <i name="e_wo_entrp">    -17.22873047 </i>
    <i name="e_0_energy">    -17.20286465 </i>
   </energy>
  </scstep>
  <scstep>
   <time name="dav">   12.09   15.13</time>
   <time name="total">   17.59   22.15</time>
   <energy>
    <i name="alphaZ">      4.98158292 </i>
    <i name="ewald">   8841.03978276 </i>
    <i name="hartreedc"> -17427.22436529 </i>
    <i name="XCdc">    233.82398477 </i>
    <i name="pawpsdc">   8957.07031439 </i>
    <i name="pawaedc">  -9300.63530299 </i>
    <i name="eentropy">      0.03837233 </i>
    <i name="bandstr">   -594.43697196 </i>
    <i name="atom">   9268.15263587 </i>
    <i name="e_fr_energy">    -17.18996721 </i>
    <i name="e_wo_entrp">    -17.22833953 </i>
    <i name="e_0_energy">    -17.20275798 </i>
   </energy>
  </scstep>
  <structure>
   <crystal>
    <varray name="basis" >
     <v>      22.79513181       0.00000000       0.00000000 </v>
     <v>       0.00000000      21.90824860       0.00000000 </v>
     <v>       0.00000000       0.00000000      24.38931494 </v>
    </varray>
    <i name="volume">  12180.05838401 </i>
    <varray name="rec_basis" >
     <v>       0.04386902       0.00000000       0.00000000 </v>
     <v>       0.00000000       0.04564491       0.00000000 </v>
     <v>       0.00000000       0.00000000       0.04100156 </v>
    </varray>
   </crystal>
   <varray name="positions" >
    <v>       0.50709757       0.44404106       0.52807636 </v>
    <v>       0.50751196       0.56686317       0.54312021 </v>
    <v>       0.51019495       0.44485600       0.37311608 </v>
    <v>       0.42369672       0.45624997       0.44781344 </v>
    <v>       0.58361527       0.44106456       0.45274176 </v>
    <v>       0.45535546       0.49625410       0.60753197 </v>
    <v>       0.50042651       0.36592358       0.45272368 </v>
    <v>       0.51531947       0.53052469       0.44561466 </v>
   </varray>
  </structure>
  <varray name="forces" >
   <v>       0.19845058      -0.28967050       0.25359766 </v>
   <v>       0.16978466       0.33485512      -0.09375324 </v>
   <v>       0.01721406       0.33792060      -0.09406874 </v>
   <v>      -0.47888246      -0.08065307      -0.17800223 </v>
   <v>      -0.00249324      -0.04610077       0.19323369 </v>
   <v>       0.12601483      -0.23995017      -0.53277870 </v>
   <v>       0.04607812       0.42168761       0.33137496 </v>
   <v>      -0.07616654      -0.43808883       0.12039660 </v>
  </varray>
  <energy>
   <i name="e_fr_energy">    -17.18996721 </i>
   <i name="e_wo_entrp">    -17.22833953 </i>
   <i name="e_0_energy">    -17.20275798 </i>
  </energy>
  <time name="totalsc">  180.68  232.30</time>
 </calculation>
 <calculation>
  <scstep>
   <time name="dav">   12.44   15.64</time>
   <time name="total">   19.73   25.29</time>
   <energy>
    <i name="alphaZ">      4.98158292 </i>
    <i name="ewald">   8726.86234776 </i>
    <i name="hartreedc"> -17314.71074041 </i>
    <i name="XCdc">    233.50150801 </i>
    <i name="pawpsdc">   8956.50697067 </i>
    <i name="pawaedc">  -9300.04601940 </i>
    <i name="eentropy">      0.04303855 </i>
    <i name="bandstr">   -592.40878620 </i>
    <i name="atom">   9268.15263587 </i>
    <i name="e_fr_energy">    -17.11746223 </i>
    <i name="e_wo_entrp">    -17.16050078 </i>
    <i name="e_0_energy">    -17.13180841 </i>
   </energy>
  </scstep>
  <scstep>
   <time name="dav">   13.92   17.17</time>
   <time name="total">   21.37   27.15</time>
   <energy>
    <i name="e_fr_energy">    -17.22309284 </i>
    <i name="e_wo_entrp">    -17.26475174 </i>
    <i name="e_0_energy">    -17.23697914 </i>
   </energy>
  </scstep>
  <scstep>
   <time name="dav">   11.87   13.79</time>
   <time name="total">   17.68   21.41</time>
   <energy>
    <i name="e_fr_energy">    -17.21572672 </i>
    <i name="e_wo_entrp">    -17.25579969 </i>
    <i name="e_0_energy">    -17.22908438 </i>
   </energy>
  </scstep>
  <scstep>
   <time name="dav">   11.98   14.63</time>
   <time name="total">   18.88   23.99</time>
   <energy>
    <i name="e_fr_energy">    -17.21531957 </i>
    <i name="e_wo_entrp">    -17.25818744 </i>
    <i name="e_0_energy">    -17.22960886 </i>
   </energy>
  </scstep>
  <scstep>
   <time name="dav">   16.36   19.11</time>
   <time name="total">   22.53   27.07</time>
   <energy>
    <i name="e_fr_energy">    -17.21481325 </i>
    <i name="e_wo_entrp">    -17.25564340 </i>
    <i name="e_0_energy">    -17.22842330 </i>
   </energy>
  </scstep>
  <scstep>
   <time name="dav">   13.05   17.87</time>
   <time name="total">   19.91   26.72</time>
   <energy>
    <i name="e_fr_energy">    -17.21462767 </i>
    <i name="e_wo_entrp">    -17.25564705 </i>
    <i name="e_0_energy">    -17.22830080 </i>
   </energy>
  </scstep>
  <scstep>
   <time name="dav">   14.14   18.18</time>
   <time name="total">   19.65   24.93</time>
   <energy>
    <i name="alphaZ">      4.98158292 </i>
    <i name="ewald">   8726.86234776 </i>
    <i name="hartreedc"> -17317.45964701 </i>
    <i name="XCdc">    233.59557074 </i>
    <i name="pawpsdc">   8906.67404407 </i>
    <i name="pawaedc">  -9249.68626198 </i>
    <i name="eentropy">      0.04150177 </i>
    <i name="bandstr">   -590.37635655 </i>
    <i name="atom">   9268.15263587 </i>
    <i name="e_fr_energy">    -17.21458242 </i>
    <i name="e_wo_entrp">    -17.25608419 </i>
    <i name="e_0_energy">    -17.22841635 </i>
   </energy>
  </scstep>
  <structure>
   <crystal>
    <varray name="basis" >
     <v>      22.79513181       0.00000000       0.00000000 </v>
     <v>       0.00000000      21.90824860       0.00000000 </v>
     <v>       0.00000000       0.00000000      24.38931494 </v>
    </varray>
    <i name="volume">  12180.05838401 </i>
    <varray name="rec_basis" >
     <v>       0.04386902       0.00000000       0.00000000 </v>
     <v>       0.00000000       0.04564491       0.00000000 </v>
     <v>       0.00000000       0.00000000       0.04100156 </v>
    </varray>
   </crystal>
   <varray name="positions" >
    <v>       0.50765264       0.44260621       0.52850179 </v>
    <v>       0.50786925       0.56839792       0.54305650 </v>
    <v>       0.51071882       0.44514828       0.37192991 </v>
    <v>       0.42187108       0.45632544       0.44785052 </v>
    <v>       0.58381662       0.44101867       0.45304444 </v>
    <v>       0.45517361       0.49582087       0.60753431 </v>
    <v>       0.50060234       0.36585194       0.45327744 </v>
    <v>       0.51551355       0.53060782       0.44554326 </v>
   </varray>
  </structure>
  <varray name="forces" >
   <v>       0.06730799       0.06345060       0.20995021 </v>
   <v>       0.09306175      -0.02343301      -0.08953242 </v>
   <v>      -0.10213623       0.33228404       0.29177555 </v>
   <v>      -0.03374959      -0.12183895      -0.20320339 </v>
   <v>      -0.08762095      -0.04381460       0.11972763 </v>
   <v>       0.23513841      -0.14898830      -0.68881092 </v>
   <v>      -0.00852727       0.52640641       0.17315140 </v>
   <v>      -0.16347412      -0.58406620       0.18694194 </v>
  </varray>
  <energy>
   <i name="e_fr_energy">    -17.21458242 </i>
   <i name="e_wo_entrp">    -17.25608419 </i>
   <i name="e_0_energy">    -17.22841635 </i>
  </energy>
  <time name="totalsc">  155.64  196.13</time>
 </calculation>
 <calculation>
  <scstep>
   <time name="dav">   13.47   17.42</time>
   <time name="total">   19.15   23.76</time>
   <energy>
    <i name="alphaZ">      4.98158292 </i>
    <i name="ewald">   8786.98349545 </i>
    <i name="hartreedc"> -17377.35726594 </i>
    <i name="XCdc">    233.71668304 </i>
    <i name="pawpsdc">   8907.13247963 </i>
    <i name="pawaedc">  -9250.11038964 </i>
    <i name="eentropy">      0.05364070 </i>
    <i name="bandstr">   -590.77384586 </i>
    <i name="atom">   9268.15263587 </i>
    <i name="e_fr_energy">    -17.22098384 </i>
    <i name="e_wo_entrp">    -17.27462454 </i>
    <i name="e_0_energy">    -17.23886407 </i>
   </energy>
  </scstep>
  <scstep>
   <time name="dav">   12.84   17.96</time>
   <time name="total">   19.68   26.72</time>
   <energy>
    <i name="e_fr_energy">    -17.29568806 </i>
    <i name="e_wo_entrp">    -17.34579162 </i>
    <i name="e_0_energy">    -17.31238925 </i>
   </energy>
  </scstep>
  <scstep>
   <time name="dav">   11.91   15.82</time>
   <time name="total">   17.24   22.81</time>
   <energy>
    <i name="e_fr_energy">    -17.28890806 </i>
    <i name="e_wo_entrp">    -17.33982321 </i>
    <i name="e_0_energy">    -17.30587978 </i>
   </energy>
  </scstep>
  <scstep>
   <time name="dav">   13.36   16.68</time>
   <time name="total">   18.71   22.71</time>
   <energy>
    <i name="e_fr_energy">    -17.28865720 </i>
    <i name="e_wo_entrp">    -17.33969306 </i>
    <i name="e_0_energy">    -17.30566915 </i>
   </energy>
  </scstep>
  <scstep>
   <time name="dav">   15.71   19.46</time>
   <time name="total">   21.67   27.39</time>
   <energy>
    <i name="e_fr_energy">    -17.28839778 </i>
    <i name="e_wo_entrp">    -17.33949822 </i>
    <i name="e_0_energy">    -17.30543126 </i>
   </energy>
  </scstep>
  <scstep>
   <time name="dav">   13.76   16.84</time>
   <time name="total">   20.44   25.90</time>
   <energy>
    <i name="e_fr_energy">    -17.28832669 </i>
    <i name="e_wo_entrp">    -17.33948978 </i>
    <i name="e_0_energy">    -17.30538105 </i>
   </energy>
  </scstep>
  <scstep>
   <time name="dav">    9.60   12.90</time>
   <time name="total">   15.71   20.64</time>
   <energy>
    <i name="alphaZ">      4.98158292 </i>
    <i name="ewald">   8786.98349545 </i>
    <i name="hartreedc"> -17376.46081792 </i>
    <i name="XCdc">    233.68026747 </i>
    <i name="pawpsdc">   8921.29997526 </i>
    <i name="pawaedc">  -9264.55061793 </i>
    <i name="eentropy">      0.05119154 </i>
    <i name="bandstr">   -591.42602903 </i>
    <i name="atom">   9268.15263587 </i>
    <i name="e_fr_energy">    -17.28831638 </i>
    <i name="e_wo_entrp">    -17.33950792 </i>
    <i name="e_0_energy">    -17.30538023 </i>
   </energy>
  </scstep>
  <structure>
   <crystal>
    <varray name="basis" >
     <v>      22.79513181       0.00000000       0.00000000 </v>
     <v>       0.00000000      21.90824860       0.00000000 </v>
     <v>       0.00000000       0.00000000      24.38931494 </v>
    </varray>
    <i name="volume">  12180.05838401 </i>
    <varray name="rec_basis" >
     <v>       0.04386902       0.00000000       0.00000000 </v>
     <v>       0.00000000       0.04564491       0.00000000 </v>
     <v>       0.00000000       0.00000000       0.04100156 </v>
    </varray>
   </crystal>
   <varray name="positions" >
    <v>       0.50798187       0.44230122       0.52908322 </v>
    <v>       0.50819433       0.56882933       0.54284589 </v>
    <v>       0.51065263       0.44602762       0.37217406 </v>
    <v>       0.42121512       0.45606095       0.44743017 </v>
    <v>       0.58368114       0.44090039       0.45339506 </v>
    <v>       0.45565091       0.49533073       0.60607030 </v>
    <v>       0.50063872       0.36707538       0.45382133 </v>
    <v>       0.51520318       0.52925152       0.44591813 </v>
   </varray>
  </structure>
  <varray name="forces" >
   <v>       0.08727042       0.09500551       0.14292998 </v>
   <v>       0.10957618      -0.01549011      -0.10486481 </v>
   <v>      -0.09723819       0.27207922       0.23205085 </v>
   <v>      -0.02589910      -0.12317340      -0.14079382 </v>
   <v>       0.01352692      -0.05114533       0.10812226 </v>
   <v>       0.13607143      -0.08029524      -0.56638646 </v>
   <v>      -0.03964253       0.39702033       0.08079623 </v>
   <v>      -0.18366513      -0.49400099       0.24814577 </v>
  </varray>
  <energy>
   <i name="e_fr_energy">    -17.28831638 </i>
   <i name="e_wo_entrp">    -17.33950792 </i>
   <i name="e_0_energy">    -17.30538023 </i>
  </energy>
  <time name="totalsc">  148.48  188.71</time>
 </calculation>
 <calculation>
  <scstep>
   <time name="dav">   13.21   16.43</time>
   <time name="total">   18.55   23.42</time>
   <energy>
    <i name="alphaZ">      4.98158292 </i>
    <i name="ewald">   8970.43418652 </i>
    <i name="hartreedc"> -17559.68007947 </i>
    <i name="XCdc">    234.11422840 </i>
    <i name="pawpsdc">   8921.40540582 </i>
    <i name="pawaedc">  -9264.64801867 </i>
    <i name="eentropy">      0.04098390 </i>
    <i name="bandstr">   -591.65750450 </i>
    <i name="atom">   9268.15263587 </i>
    <i name="e_fr_energy">    -16.85657922 </i>
    <i name="e_wo_entrp">    -16.89756312 </i>
    <i name="e_0_energy">    -16.87024052 </i>
   </energy>
  </scstep>
  <scstep>
   <time name="dav">   12.60   15.94</time>
   <time name="total">   18.89   24.44</time>
   <energy>
    <i name="e_fr_energy">    -17.42857522 </i>
    <i name="e_wo_entrp">    -17.46670652 </i>
    <i name="e_0_energy">    -17.44128565 </i>
   </energy>
  </scstep>
  <scstep>
   <time name="dav">   12.89   15.15</time>
   <time name="total">   19.44   23.32</time>
   <energy>
    <i name="e_fr_energy">    -17.38963905 </i>
    <i name="e_wo_entrp">    -17.42792136 </i>
    <i name="e_0_energy">    -17.40239982 </i>
   </energy>
  </scstep>
  <scstep>
   <time name="dav">   15.46   19.59</time>
   <time name="total">   22.64   28.06</time>
   <energy>
    <i name="e_fr_energy">    -17.38680753 </i>
    <i name="e_wo_entrp">    -17.42515978 </i>
    <i name="e_0_energy">    -17.39959161 </i>
   </energy>
  </scstep>
  <scstep>
   <time name="dav">   15.30   21.66</time>
   <time name="total">   21.53   30.55</time>
   <energy>
    <i name="e_fr_energy">    -17.38463261 </i>
    <i name="e_wo_entrp">    -17.42172998 </i>
    <i name="e_0_energy">    -17.39699840 </i>
   </energy>
  </scstep>
  <scstep>
   <time name="dav">   17.28   21.75</time>
   <time name="total">   23.21   29.16</time>
   <energy>
    <i name="e_fr_energy">    -17.38396816 </i>
    <i name="e_wo_entrp">    -17.42071353 </i>
    <i name="e_0_energy">    -17.39621662 </i>
   </energy>
  </scstep>
  <scstep>
   <time name="dav">   15.23   20.66</time>
   <time name="total">   21.77   29.67</time>
   <energy>
    <i name="e_fr_energy">    -17.38412134 </i>
    <i name="e_wo_entrp">    -17.42082629 </i>
    <i name="e_0_energy">    -17.39635633 </i>
   </energy>
  </scstep>
  <scstep>
   <time name="dav">   12.34   16.28</time>
   <time name="total">   19.93   24.63</time>
   <energy>
    <i name="alphaZ">      4.98158292 </i>
    <i name="ewald">   8970.43418652 </i>
    <i name="hartreedc"> -17555.16779679 </i>
    <i name="XCdc">    233.96328112 </i>
    <i name="pawpsdc">   8974.31863109 </i>
    <i name="pawaedc">  -9318.55752602 </i>
    <i name="eentropy">      0.03663992 </i>
    <i name="bandstr">   -595.54583053 </i>
    <i name="atom">   9268.15263587 </i>
    <i name="e_fr_energy">    -17.38419590 </i>
    <i name="e_wo_entrp">    -17.42083583 </i>
    <i name="e_0_energy">    -17.39640921 </i>
   </energy>
  </scstep>
  <structure>
   <crystal>
    <varray name="basis" >
     <v>      22.79513181       0.00000000       0.00000000 </v>
     <v>       0.00000000      21.90824860       0.00000000 </v>
     <v>       0.00000000       0.00000000      24.38931494 </v>
    </varray>
    <i name="volume">  12180.05838401 </i>
    <varray name="rec_basis" >
     <v>       0.04386902       0.00000000       0.00000000 </v>
     <v>       0.00000000       0.04564491       0.00000000 </v>
     <v>       0.00000000       0.00000000       0.04100156 </v>
    </varray>
   </crystal>
   <varray name="positions" >
    <v>       0.50896957       0.44138624       0.53082749 </v>
    <v>       0.50916958       0.57012359       0.54221408 </v>
    <v>       0.51045406       0.44866565       0.37290652 </v>
    <v>       0.41924723       0.45526748       0.44616912 </v>
    <v>       0.58327470       0.44054554       0.45444693 </v>
    <v>       0.45708281       0.49386030       0.60167827 </v>
    <v>       0.50074786       0.37074570       0.45545298 </v>
    <v>       0.51427209       0.52518264       0.44704277 </v>
   </varray>
  </structure>
  <varray name="forces" >
   <v>       0.30851963       0.04595231      -0.09049875 </v>
   <v>       0.12102254      -0.01222697      -0.15765996 </v>
   <v>      -0.00215971      -0.02773000      -0.13062979 </v>
   <v>      -0.02904619      -0.12226641       0.04879257 </v>
   <v>       0.30047287      -0.05810753      -0.00993185 </v>
   <v>      -0.26637081       0.25037269       0.07465855 </v>
   <v>      -0.19971435      -0.03727304      -0.27207397 </v>
   <v>      -0.23272398      -0.03872105       0.53734320 </v>
  </varray>
  <energy>
   <i name="e_fr_energy">    -17.38419590 </i>
   <i name="e_wo_entrp">    -17.42083583 </i>
   <i name="e_0_energy">    -17.39640921 </i>
  </energy>
  <time name="totalsc">  176.92  227.91</time>
 </calculation>
 <calculation>
  <scstep>
   <time name="dav">   11.74   16.35</time>
   <time name="total">   18.93   24.96</time>
   <energy>
    <i name="alphaZ">      4.98158292 </i>
    <i name="ewald">   8996.74361075 </i>
    <i name="hartreedc"> -17581.52820954 </i>
    <i name="XCdc">    234.00092881 </i>
    <i name="pawpsdc">   8974.03824380 </i>
    <i name="pawaedc">  -9318.25731759 </i>
    <i name="eentropy">      0.03161474 </i>
    <i name="bandstr">   -595.45715280 </i>
    <i name="atom">   9268.15263587 </i>
    <i name="e_fr_energy">    -17.29406303 </i>
    <i name="e_wo_entrp">    -17.32567778 </i>
    <i name="e_0_energy">    -17.30460128 </i>
   </energy>
  </scstep>
  <scstep>
   <time name="dav">   16.14   19.64</time>
   <time name="total">   22.03   27.07</time>
   <energy>
    <i name="e_fr_energy">    -17.45736655 </i>
    <i name="e_wo_entrp">    -17.48687152 </i>
    <i name="e_0_energy">    -17.46720154 </i>
   </energy>
  </scstep>
  <scstep>
   <time name="dav">   12.39   16.20</time>
   <time name="total">   17.38   23.20</time>
   <energy>
    <i name="e_fr_energy">    -17.44481080 </i>
    <i name="e_wo_entrp">    -17.47516919 </i>
    <i name="e_0_energy">    -17.45493026 </i>
   </energy>
  </scstep>
  <scstep>
   <time name="dav">   13.02   16.59</time>
   <time name="total">   19.11   23.80</time>
   <energy>
    <i name="e_fr_energy">    -17.44394277 </i>
    <i name="e_wo_entrp">    -17.47427984 </i>
    <i name="e_0_energy">    -17.45405513 </i>
   </energy>
  </scstep>
  <scstep>
   <time name="dav">   17.33   21.03</time>
   <time name="total">   24.12   30.67</time>
   <energy>
    <i name="e_fr_energy">    -17.44307450 </i>
    <i name="e_wo_entrp">    -17.47313173 </i>
    <i name="e_0_energy">    -17.45309357 </i>
   </energy>
  </scstep>
  <scstep>
   <time name="dav">   17.91   20.61</time>
   <time name="total">   23.07   26.84</time>
   <energy>
    <i name="e_fr_energy">    -17.44235697 </i>
    <i name="e_wo_entrp">    -17.47225520 </i>
    <i name="e_0_energy">    -17.45232305 </i>
   </energy>
  </scstep>
  <scstep>
   <time name="dav">   13.23   16.73</time>
   <time name="total">   18.68   24.22</time>
   <energy>
    <i name="alphaZ">      4.98158292 </i>
    <i name="ewald">   8996.74361075 </i>
    <i name="hartreedc"> -17580.77323867 </i>
    <i name="XCdc">    233.98375235 </i>
    <i name="pawpsdc">   8976.48579104 </i>
    <i name="pawaedc">  -9320.80177170 </i>
    <i name="eentropy">      0.02990053 </i>
    <i name="bandstr">   -596.24456270 </i>
    <i name="atom">   9268.15263587 </i>
    <i name="e_fr_energy">    -17.44229962 </i>
    <i name="e_wo_entrp">    -17.47220015 </i>
    <i name="e_0_energy">    -17.45226646 </i>
   </energy>
  </scstep>
  <structure>
   <crystal>
    <varray name="basis" >
     <v>      22.79513181       0.00000000       0.00000000 </v>
     <v>       0.00000000      21.90824860       0.00000000 </v>
     <v>       0.00000000       0.00000000      24.38931494 </v>
    </varray>
    <i name="volume">  12180.05838401 </i>
    <varray name="rec_basis" >
     <v>       0.04386902       0.00000000       0.00000000 </v>
     <v>       0.00000000       0.04564491       0.00000000 </v>
     <v>       0.00000000       0.00000000       0.04100156 </v>
    </varray>
   </crystal>
   <varray name="positions" >
    <v>       0.51040664       0.44126946       0.53107401 </v>
    <v>       0.50992013       0.57048866       0.54147684 </v>
    <v>       0.51038309       0.44939913       0.37269489 </v>
    <v>       0.41851599       0.45455216       0.44593430 </v>
    <v>       0.58423933       0.44021266       0.45474748 </v>
    <v>       0.45656827       0.49434125       0.60053625 </v>
    <v>       0.50005552       0.37177116       0.45504591 </v>
    <v>       0.51312894       0.52374265       0.44922849 </v>
   </varray>
  </structure>
  <varray name="forces" >
   <v>       0.27069014      -0.00473176       0.01253578 </v>
   <v>       0.09232049       0.07598900       0.05469066 </v>
   <v>       0.05537326      -0.00185019      -0.03784766 </v>
   <v>      -0.04045619      -0.11042306       0.07074374 </v>
   <v>       0.20825497      -0.05372557      -0.11295010 </v>
   <v>      -0.26258191       0.26148434       0.02731611 </v>
   <v>      -0.14828697      -0.04124854      -0.27737498 </v>
   <v>      -0.17531379      -0.12549421       0.26288644 </v>
  </varray>
  <energy>
   <i name="e_fr_energy">    -17.44229962 </i>
   <i name="e_wo_entrp">    -17.47220015 </i>
   <i name="e_0_energy">    -17.45226646 </i>
  </energy>
  <time name="totalsc">  156.64  198.53</time>
 </calculation>
 <calculation>
  <scstep>
   <time name="dav">   13.88   18.81</time>
   <time name="total">   19.09   25.61</time>
   <energy>
    <i name="alphaZ">      4.98158292 </i>
    <i name="ewald">   9052.40069849 </i>
    <i name="hartreedc"> -17637.25455438 </i>
    <i name="XCdc">    234.12178594 </i>
    <i name="pawpsdc">   8976.48616531 </i>
    <i name="pawaedc">  -9320.83838862 </i>
    <i name="eentropy">      0.02463362 </i>
    <i name="bandstr">   -595.12331476 </i>
    <i name="atom">   9268.15263587 </i>
    <i name="e_fr_energy">    -17.04875562 </i>
    <i name="e_wo_entrp">    -17.07338924 </i>
    <i name="e_0_energy">    -17.05696682 </i>
   </energy>
  </scstep>
  <scstep>
   <time name="dav">   16.89   22.84</time>
   <time name="total">   24.10   32.10</time>
   <energy>
    <i name="e_fr_energy">    -17.54008882 </i>
    <i name="e_wo_entrp">    -17.56453744 </i>
    <i name="e_0_energy">    -17.54823836 </i>
   </energy>
  </scstep>
  <scstep>
   <time name="dav">   12.30   15.09</time>
   <time name="total">   19.74   24.47</time>
   <energy>
    <i name="e_fr_energy">    -17.48720626 </i>
    <i name="e_wo_entrp">    -17.51116030 </i>
    <i name="e_0_energy">    -17.49519094 </i>
   </energy>
  </scstep>
  <scstep>
   <time name="dav">   14.60   19.09</time>
   <time name="total">   21.76   28.69</time>
   <energy>
    <i name="e_fr_energy">    -17.48392177 </i>
    <i name="e_wo_entrp">    -17.50802605 </i>
    <i name="e_0_energy">    -17.49195653 </i>
   </energy>
  </scstep>
  <scstep>
   <time name="dav">   11.95   15.72</time>
   <time name="total">   18.24   23.99</time>
   <energy>
    <i name="e_fr_energy">    -17.48161354 </i>
    <i name="e_wo_entrp">    -17.50546224 </i>
    <i name="e_0_energy">    -17.48956311 </i>
   </energy>
  </scstep>
  <scstep>
   <time name="dav">   14.68   18.18</time>
   <time name="total">   20.15   25.65</time>
   <energy>
    <i name="e_fr_energy">    -17.48083886 </i>
    <i name="e_wo_entrp">    -17.50490884 </i>
    <i name="e_0_energy">    -17.48886219 </i>
   </energy>
  </scstep>
  <scstep>
   <time name="dav">   17.23   21.51</time>
   <time name="total">   24.11   30.33</time>
   <energy>
    <i name="e_fr_energy">    -17.48116279 </i>
    <i name="e_wo_entrp">    -17.50517322 </i>
    <i name="e_0_energy">    -17.48916626 </i>
   </energy>
  </scstep>
  <scstep>
   <time name="dav">   15.29   20.59</time>
   <time name="total">   22.04   29.43</time>
   <energy>
    <i name="e_fr_energy">    -17.48126362 </i>
    <i name="e_wo_entrp">    -17.50527394 </i>
    <i name="e_0_energy">    -17.48926706 </i>
   </energy>
  </scstep>
  <scstep>
   <time name="dav">    8.24   10.50</time>
   <time name="total">   15.05   19.34</time>
   <energy>
    <i name="e_fr_energy">    -17.48147346 </i>
    <i name="e_wo_entrp">    -17.50547082 </i>
    <i name="e_0_energy">    -17.48947258 </i>
   </energy>
  </scstep>
  <scstep>
   <time name="dav">   11.47   15.78</time>
   <time name="total">   16.61   21.60</time>
   <energy>
    <i name="e_fr_energy">    -17.48161197 </i>
    <i name="e_wo_entrp">    -17.50560170 </i>
    <i name="e_0_energy">    -17.48960855 </i>
   </energy>
  </scstep>
  <scstep>
   <time name="dav">    8.23    9.53</time>
   <time name="total">   12.82   15.58</time>
   <energy>
    <i name="alphaZ">      4.98158292 </i>
    <i name="ewald">   9052.40069849 </i>
    <i name="hartreedc"> -17635.40691281 </i>
    <i name="XCdc">    234.05831526 </i>
    <i name="pawpsdc">   8987.25413568 </i>
    <i name="pawaedc">  -9331.81188385 </i>
    <i name="eentropy">      0.02400026 </i>
    <i name="bandstr">   -597.13428220 </i>
    <i name="atom">   9268.15263587 </i>
    <i name="e_fr_energy">    -17.48171038 </i>
    <i name="e_wo_entrp">    -17.50571064 </i>
    <i name="e_0_energy">    -17.48971047 </i>
   </energy>
  </scstep>
  <structure>
   <crystal>
    <varray name="basis" >
     <v>      22.79513181       0.00000000       0.00000000 </v>
     <v>       0.00000000      21.90824860       0.00000000 </v>
     <v>       0.00000000       0.00000000      24.38931494 </v>
    </varray>
    <i name="volume">  12180.05838401 </i>
    <varray name="rec_basis" >
     <v>       0.04386902       0.00000000       0.00000000 </v>
     <v>       0.00000000       0.04564491       0.00000000 </v>
     <v>       0.00000000       0.00000000       0.04100156 </v>
    </varray>
   </crystal>
   <varray name="positions" >
    <v>       0.51386153       0.44098871       0.53166668 </v>
    <v>       0.51172456       0.57136635       0.53970440 </v>
    <v>       0.51021245       0.45116252       0.37218608 </v>
    <v>       0.41675798       0.45283244       0.44536976 </v>
    <v>       0.58655845       0.43941236       0.45547005 </v>
    <v>       0.45533124       0.49549752       0.59779067 </v>
    <v>       0.49839105       0.37423651       0.45406725 </v>
    <v>       0.51038065       0.52028072       0.45448327 </v>
   </varray>
  </structure>
  <varray name="forces" >
   <v>       0.20899409      -0.22121513       0.39880599 </v>
   <v>       0.04835937       0.42975757       0.79588522 </v>
   <v>       0.14219838       0.07451911       0.23353168 </v>
   <v>      -0.14801820      -0.04775984       0.06101824 </v>
   <v>       0.02736992      -0.04050526      -0.30694665 </v>
   <v>      -0.17302565       0.23817262      -0.11380902 </v>
   <v>       0.02442897       0.00967779      -0.25474806 </v>
   <v>      -0.13030688      -0.44264686      -0.81373740 </v>
  </varray>
  <energy>
   <i name="e_fr_energy">    -17.48171038 </i>
   <i name="e_wo_entrp">    -17.50571064 </i>
   <i name="e_0_energy">    -17.48971047 </i>
  </energy>
  <time name="totalsc">  226.09  290.74</time>
 </calculation>
 <calculation>
  <scstep>
   <time name="dav">   11.99   15.05</time>
   <time name="total">   17.22   22.17</time>
   <energy>
    <i name="alphaZ">      4.98158292 </i>
    <i name="ewald">   9040.23404098 </i>
    <i name="hartreedc"> -17623.43146723 </i>
    <i name="XCdc">    234.04193664 </i>
    <i name="pawpsdc">   8987.18808082 </i>
    <i name="pawaedc">  -9331.74627134 </i>
    <i name="eentropy">      0.02457042 </i>
    <i name="bandstr">   -596.89050341 </i>
    <i name="atom">   9268.15263587 </i>
    <i name="e_fr_energy">    -17.44539432 </i>
    <i name="e_wo_entrp">    -17.46996475 </i>
    <i name="e_0_energy">    -17.45358446 </i>
   </energy>
  </scstep>
  <scstep>
   <time name="dav">   14.79   18.08</time>
   <time name="total">   19.73   25.14</time>
   <energy>
    <i name="e_fr_energy">    -17.49006515 </i>
    <i name="e_wo_entrp">    -17.51437543 </i>
    <i name="e_0_energy">    -17.49816858 </i>
   </energy>
  </scstep>
  <scstep>
   <time name="dav">   14.04   17.64</time>
   <time name="total">   18.72   23.75</time>
   <energy>
    <i name="e_fr_energy">    -17.48721256 </i>
    <i name="e_wo_entrp">    -17.51175737 </i>
    <i name="e_0_energy">    -17.49539416 </i>
   </energy>
  </scstep>
  <scstep>
   <time name="dav">   12.67   17.80</time>
   <time name="total">   18.81   25.72</time>
   <energy>
    <i name="e_fr_energy">    -17.48689663 </i>
    <i name="e_wo_entrp">    -17.51143194 </i>
    <i name="e_0_energy">    -17.49507507 </i>
   </energy>
  </scstep>
  <scstep>
   <time name="dav">   16.75   19.60</time>
   <time name="total">   24.09   29.46</time>
   <energy>
    <i name="e_fr_energy">    -17.48667672 </i>
    <i name="e_wo_entrp">    -17.51125333 </i>
    <i name="e_0_energy">    -17.49486892 </i>
   </energy>
  </scstep>
  <scstep>
   <time name="dav">   14.16   19.62</time>
   <time name="total">   22.13   29.35</time>
   <energy>
    <i name="e_fr_energy">    -17.48665108 </i>
    <i name="e_wo_entrp">    -17.51131048 </i>
    <i name="e_0_energy">    -17.49487088 </i>
   </energy>
  </scstep>
  <scstep>
   <time name="dav">    9.28   11.88</time>
   <time name="total">   16.18   20.75</time>
   <energy>
    <i name="alphaZ">      4.98158292 </i>
    <i name="ewald">   9040.23404098 </i>
    <i name="hartreedc"> -17623.35269321 </i>
    <i name="XCdc">    234.03876805 </i>
    <i name="pawpsdc">   8983.91922631 </i>
    <i name="pawaedc">  -9328.41850880 </i>
    <i name="eentropy">      0.02462024 </i>
    <i name="bandstr">   -597.06634442 </i>
    <i name="atom">   9268.15263587 </i>
    <i name="e_fr_energy">    -17.48667205 </i>
    <i name="e_wo_entrp">    -17.51129229 </i>
    <i name="e_0_energy">    -17.49487880 </i>
   </energy>
  </scstep>
  <structure>
   <crystal>
    <varray name="basis" >
     <v>      22.79513181       0.00000000       0.00000000 </v>
     <v>       0.00000000      21.90824860       0.00000000 </v>
     <v>       0.00000000       0.00000000      24.38931494 </v>
    </varray>
    <i name="volume">  12180.05838401 </i>
    <varray name="rec_basis" >
     <v>       0.04386902       0.00000000       0.00000000 </v>
     <v>       0.00000000       0.04564491       0.00000000 </v>
     <v>       0.00000000       0.00000000       0.04100156 </v>
    </varray>
   </crystal>
   <varray name="positions" >
    <v>       0.51304481       0.44105508       0.53152657 </v>
    <v>       0.51129800       0.57115887       0.54012340 </v>
    <v>       0.51025278       0.45074566       0.37230636 </v>
    <v>       0.41717356       0.45323897       0.44550321 </v>
    <v>       0.58601022       0.43960155       0.45529924 </v>
    <v>       0.45562367       0.49522418       0.59843972 </v>
    <v>       0.49878453       0.37365371       0.45429860 </v>
    <v>       0.51103033       0.52109911       0.45324106 </v>
   </varray>
  </structure>
  <varray name="forces" >
   <v>       0.20483761      -0.15695996       0.28830821 </v>
   <v>       0.04988099       0.31829197       0.59974116 </v>
   <v>       0.13016097       0.05144119       0.16276851 </v>
   <v>      -0.10632740      -0.06452749       0.06504920 </v>
   <v>       0.06027470      -0.04556827      -0.27500464 </v>
   <v>      -0.19882821       0.24293454      -0.06679600 </v>
   <v>      -0.01540876       0.00169958      -0.26685199 </v>
   <v>      -0.12458990      -0.34731155      -0.50721445 </v>
  </varray>
  <energy>
   <i name="e_fr_energy">    -17.48667205 </i>
   <i name="e_wo_entrp">    -17.51129229 </i>
   <i name="e_0_energy">    -17.49487880 </i>
  </energy>
  <time name="totalsc">  151.60  194.19</time>
 </calculation>
 <calculation>
  <scstep>
   <time name="dav">   13.22   16.66</time>
   <time name="total">   19.27   23.75</time>
   <energy>
    <i name="alphaZ">      4.98158292 </i>
    <i name="ewald">   9029.28802262 </i>
    <i name="hartreedc"> -17612.73443311 </i>
    <i name="XCdc">    234.00001654 </i>
    <i name="pawpsdc">   8983.84960855 </i>
    <i name="pawaedc">  -9328.36120453 </i>
    <i name="eentropy">      0.02397852 </i>
    <i name="bandstr">   -596.64939576 </i>
    <i name="atom">   9268.15263587 </i>
    <i name="e_fr_energy">    -17.44918838 </i>
    <i name="e_wo_entrp">    -17.47316690 </i>
    <i name="e_0_energy">    -17.45718122 </i>
   </energy>
  </scstep>
  <scstep>
   <time name="dav">   14.57   19.40</time>
   <time name="total">   20.52   28.20</time>
   <energy>
    <i name="e_fr_energy">    -17.53552154 </i>
    <i name="e_wo_entrp">    -17.55933351 </i>
    <i name="e_0_energy">    -17.54345886 </i>
   </energy>
  </scstep>
  <scstep>
   <time name="dav">    9.14   11.71</time>
   <time name="total">   14.91   19.25</time>
   <energy>
    <i name="e_fr_energy">    -17.52813185 </i>
    <i name="e_wo_entrp">    -17.55203534 </i>
    <i name="e_0_energy">    -17.53609968 </i>
   </energy>
  </scstep>
  <scstep>
   <time name="dav">   16.85   21.73</time>
   <time name="total">   24.11   31.01</time>
   <energy>
    <i name="e_fr_energy">    -17.52743221 </i>
    <i name="e_wo_entrp">    -17.55137578 </i>
    <i name="e_0_energy">    -17.53541340 </i>
   </energy>
  </scstep>
  <scstep>
   <time name="dav">   19.17   23.60</time>
   <time name="total">   25.75   32.04</time>
   <energy>
    <i name="e_fr_energy">    -17.52676967 </i>
    <i name="e_wo_entrp">    -17.55066880 </i>
    <i name="e_0_energy">    -17.53473605 </i>
   </energy>
  </scstep>
  <scstep>
   <time name="dav">   15.77   20.22</time>
   <time name="total">   22.03   28.54</time>
   <energy>
    <i name="e_fr_energy">    -17.52628092 </i>
    <i name="e_wo_entrp">    -17.55019969 </i>
    <i name="e_0_energy">    -17.53425384 </i>
   </energy>
  </scstep>
  <scstep>
   <time name="dav">   16.32   20.33</time>
   <time name="total">   22.37   28.38</time>
   <energy>
    <i name="alphaZ">      4.98158292 </i>
    <i name="ewald">   9029.28802262 </i>
    <i name="hartreedc"> -17613.14603141 </i>
    <i name="XCdc">    234.01829718 </i>
    <i name="pawpsdc">   8977.24616806 </i>
    <i name="pawaedc">  -9321.68888184 </i>
    <i name="eentropy">      0.02392782 </i>
    <i name="bandstr">   -596.40199714 </i>
    <i name="atom">   9268.15263587 </i>
    <i name="e_fr_energy">    -17.52627593 </i>
    <i name="e_wo_entrp">    -17.55020375 </i>
    <i name="e_0_energy">    -17.53425187 </i>
   </energy>
  </scstep>
  <structure>
   <crystal>
    <varray name="basis" >
     <v>      22.79513181       0.00000000       0.00000000 </v>
     <v>       0.00000000      21.90824860       0.00000000 </v>
     <v>       0.00000000       0.00000000      24.38931494 </v>
    </varray>
    <i name="volume">  12180.05838401 </i>
    <varray name="rec_basis" >
     <v>       0.04386902       0.00000000       0.00000000 </v>
     <v>       0.00000000       0.04564491       0.00000000 </v>
     <v>       0.00000000       0.00000000       0.04100156 </v>
    </varray>
   </crystal>
   <varray name="positions" >
    <v>       0.51421545       0.44075727       0.53205120 </v>
    <v>       0.51183049       0.57184200       0.54044266 </v>
    <v>       0.51038882       0.45127265       0.37238587 </v>
    <v>       0.41657499       0.45270439       0.44544220 </v>
    <v>       0.58668930       0.43933043       0.45512968 </v>
    <v>       0.45503112       0.49587053       0.59764810 </v>
    <v>       0.49833562       0.37428951       0.45370253 </v>
    <v>       0.51015212       0.51971035       0.45393593 </v>
   </varray>
  </structure>
  <varray name="forces" >
   <v>       0.20007621      -0.18650318       0.28889448 </v>
   <v>       0.03747215       0.23937265       0.50120279 </v>
   <v>       0.14203195       0.02921645       0.11450406 </v>
   <v>      -0.16248949      -0.05033349       0.06710720 </v>
   <v>       0.00282415      -0.04173406      -0.26096654 </v>
   <v>      -0.13524110       0.21235487      -0.15431223 </v>
   <v>       0.03579016       0.05467288      -0.16551977 </v>
   <v>      -0.12046402      -0.25704610      -0.39091000 </v>
  </varray>
  <energy>
   <i name="e_fr_energy">    -17.52627593 </i>
   <i name="e_wo_entrp">    -17.55020375 </i>
   <i name="e_0_energy">    -17.53425187 </i>
  </energy>
  <time name="totalsc">  163.70  209.41</time>
 </calculation>
 <calculation>
  <scstep>
   <time name="dav">   13.60   17.44</time>
   <time name="total">   20.01   25.45</time>
   <energy>
    <i name="alphaZ">      4.98158292 </i>
    <i name="ewald">   8988.15216744 </i>
    <i name="hartreedc"> -17573.52445509 </i>
    <i name="XCdc">    233.91746311 </i>
    <i name="pawpsdc">   8977.02807710 </i>
    <i name="pawaedc">  -9321.47678722 </i>
    <i name="eentropy">      0.02504697 </i>
    <i name="bandstr">   -594.35762780 </i>
    <i name="atom">   9268.15263587 </i>
    <i name="e_fr_energy">    -17.10189673 </i>
    <i name="e_wo_entrp">    -17.12694369 </i>
    <i name="e_0_energy">    -17.11024571 </i>
   </energy>
  </scstep>
  <scstep>
   <time name="dav">   15.61   21.53</time>
   <time name="total">   21.49   29.11</time>
   <energy>
    <i name="e_fr_energy">    -17.65121645 </i>
    <i name="e_wo_entrp">    -17.67526722 </i>
    <i name="e_0_energy">    -17.65923337 </i>
   </energy>
  </scstep>
  <scstep>
   <time name="dav">   11.32   13.97</time>
   <time name="total">   15.87   20.40</time>
   <energy>
    <i name="e_fr_energy">    -17.61557569 </i>
    <i name="e_wo_entrp">    -17.64017016 </i>
    <i name="e_0_energy">    -17.62377385 </i>
   </energy>
  </scstep>
  <scstep>
   <time name="dav">   13.07   17.18</time>
   <time name="total">   16.03   20.83</time>
   <energy>
    <i name="e_fr_energy">    -17.61106794 </i>
    <i name="e_wo_entrp">    -17.63556534 </i>
    <i name="e_0_energy">    -17.61923374 </i>
   </energy>
  </scstep>
  <scstep>
   <time name="dav">   12.44   16.48</time>
   <time name="total">   18.76   23.87</time>
   <energy>
    <i name="e_fr_energy">    -17.60639007 </i>
    <i name="e_wo_entrp">    -17.63089265 </i>
    <i name="e_0_energy">    -17.61455760 </i>
   </energy>
  </scstep>
  <scstep>
   <time name="dav">   15.85   19.90</time>
   <time name="total">   21.88   27.93</time>
   <energy>
    <i name="e_fr_energy">    -17.60540697 </i>
    <i name="e_wo_entrp">    -17.62997188 </i>
    <i name="e_0_energy">    -17.61359527 </i>
   </energy>
  </scstep>
  <scstep>
   <time name="dav">   15.11   18.99</time>
   <time name="total">   20.79   25.73</time>
   <energy>
    <i name="e_fr_energy">    -17.60565691 </i>
    <i name="e_wo_entrp">    -17.63020620 </i>
    <i name="e_0_energy">    -17.61384001 </i>
   </energy>
  </scstep>
  <scstep>
   <time name="dav">    9.84   12.25</time>
   <time name="total">   15.44   19.54</time>
   <energy>
    <i name="alphaZ">      4.98158292 </i>
    <i name="ewald">   8988.15216744 </i>
    <i name="hartreedc"> -17574.49647446 </i>
    <i name="XCdc">    233.95318863 </i>
    <i name="pawpsdc">   8957.34987308 </i>
    <i name="pawaedc">  -9301.44557875 </i>
    <i name="eentropy">      0.02459633 </i>
    <i name="bandstr">   -594.27759723 </i>
    <i name="atom">   9268.15263587 </i>
    <i name="e_fr_energy">    -17.60560618 </i>
    <i name="e_wo_entrp">    -17.63020250 </i>
    <i name="e_0_energy">    -17.61380495 </i>
   </energy>
  </scstep>
  <structure>
   <crystal>
    <varray name="basis" >
     <v>      22.79513181       0.00000000       0.00000000 </v>
     <v>       0.00000000      21.90824860       0.00000000 </v>
     <v>       0.00000000       0.00000000      24.38931494 </v>
    </varray>
    <i name="volume">  12180.05838401 </i>
    <varray name="rec_basis" >
     <v>       0.04386902       0.00000000       0.00000000 </v>
     <v>       0.00000000       0.04564491       0.00000000 </v>
     <v>       0.00000000       0.00000000       0.04100156 </v>
    </varray>
   </crystal>
   <varray name="positions" >
    <v>       0.51772736       0.43986385       0.53362508 </v>
    <v>       0.51342798       0.57389140       0.54140043 </v>
    <v>       0.51079691       0.45285361       0.37262441 </v>
    <v>       0.41477928       0.45110064       0.44525914 </v>
    <v>       0.58872654       0.43851707       0.45462101 </v>
    <v>       0.45325345       0.49780958       0.59527324 </v>
    <v>       0.49698892       0.37619691       0.45191430 </v>
    <v>       0.50751748       0.51554408       0.45602054 </v>
   </varray>
  </structure>
  <varray name="forces" >
   <v>       0.12153117      -0.27898458       0.31189024 </v>
   <v>      -0.02823211      -0.02657218       0.23717126 </v>
   <v>       0.19130014      -0.04951364      -0.07548212 </v>
   <v>      -0.37110672       0.00189679       0.05121837 </v>
   <v>      -0.17894408      -0.03424305      -0.23115294 </v>
   <v>       0.04749111       0.15120646      -0.36614845 </v>
   <v>       0.22468752       0.15032258       0.10448658 </v>
   <v>      -0.00672702       0.08588762      -0.03198293 </v>
  </varray>
  <energy>
   <i name="e_fr_energy">    -17.60560618 </i>
   <i name="e_wo_entrp">    -17.63020250 </i>
   <i name="e_0_energy">    -17.61380495 </i>
  </energy>
  <time name="totalsc">  165.06  211.33</time>
 </calculation>
 <calculation>
  <scstep>
   <time name="dav">   12.51   17.04</time>
   <time name="total">   18.96   25.08</time>
   <energy>
    <i name="alphaZ">      4.98158292 </i>
    <i name="ewald">   8871.37438667 </i>
    <i name="hartreedc"> -17461.97709374 </i>
    <i name="XCdc">    233.79307107 </i>
    <i name="pawpsdc">   8956.50528595 </i>
    <i name="pawaedc">  -9300.55822768 </i>
    <i name="eentropy">      0.02471992 </i>
    <i name="bandstr">   -588.34206335 </i>
    <i name="atom">   9268.15263587 </i>
    <i name="e_fr_energy">    -16.04570237 </i>
    <i name="e_wo_entrp">    -16.07042230 </i>
    <i name="e_0_energy">    -16.05394235 </i>
   </energy>
  </scstep>
  <scstep>
   <time name="dav">   16.10   21.24</time>
   <time name="total">   22.95   30.97</time>
   <energy>
    <i name="e_fr_energy">    -17.72503833 </i>
    <i name="e_wo_entrp">    -17.76233811 </i>
    <i name="e_0_energy">    -17.73747159 </i>
   </energy>
  </scstep>
  <scstep>
   <time name="dav">   10.81   14.09</time>
   <time name="total">   17.01   21.84</time>
   <energy>
    <i name="e_fr_energy">    -17.57901781 </i>
    <i name="e_wo_entrp">    -17.60242377 </i>
    <i name="e_0_energy">    -17.58681980 </i>
   </energy>
  </scstep>
  <scstep>
   <time name="dav">   12.14   14.48</time>
   <time name="total">   18.60   22.47</time>
   <energy>
    <i name="e_fr_energy">    -17.56910213 </i>
    <i name="e_wo_entrp">    -17.59161981 </i>
    <i name="e_0_energy">    -17.57660802 </i>
   </energy>
  </scstep>
  <scstep>
   <time name="dav">   13.77   17.73</time>
   <time name="total">   21.34   28.17</time>
   <energy>
    <i name="e_fr_energy">    -17.56385767 </i>
    <i name="e_wo_entrp">    -17.58768973 </i>
    <i name="e_0_energy">    -17.57180169 </i>
   </energy>
  </scstep>
  <scstep>
   <time name="dav">   14.68   17.97</time>
   <time name="total">   19.18   24.00</time>
   <energy>
    <i name="e_fr_energy">    -17.56112324 </i>
    <i name="e_wo_entrp">    -17.58334443 </i>
    <i name="e_0_energy">    -17.56853031 </i>
   </energy>
  </scstep>
  <scstep>
   <time name="dav">   13.54   18.07</time>
   <time name="total">   18.25   23.91</time>
   <energy>
    <i name="e_fr_energy">    -17.56153756 </i>
    <i name="e_wo_entrp">    -17.58411034 </i>
    <i name="e_0_energy">    -17.56906182 </i>
   </energy>
  </scstep>
  <scstep>
   <time name="dav">   10.79   12.73</time>
   <time name="total">   18.28   22.04</time>
   <energy>
    <i name="e_fr_energy">    -17.56165251 </i>
    <i name="e_wo_entrp">    -17.58407997 </i>
    <i name="e_0_energy">    -17.56912833 </i>
   </energy>
  </scstep>
  <scstep>
   <time name="dav">    9.31   12.27</time>
   <time name="total">   15.57   19.99</time>
   <energy>
    <i name="e_fr_energy">    -17.56202376 </i>
    <i name="e_wo_entrp">    -17.58449679 </i>
    <i name="e_0_energy">    -17.56951477 </i>
   </energy>
  </scstep>
  <scstep>
   <time name="dav">   10.67   13.47</time>
   <time name="total">   17.15   21.60</time>
   <energy>
    <i name="e_fr_energy">    -17.56223625 </i>
    <i name="e_wo_entrp">    -17.58475353 </i>
    <i name="e_0_energy">    -17.56974201 </i>
   </energy>
  </scstep>
  <scstep>
   <time name="dav">    8.21   10.77</time>
   <time name="total">   12.87   16.25</time>
   <energy>
    <i name="e_fr_energy">    -17.56239845 </i>
    <i name="e_wo_entrp">    -17.58484544 </i>
    <i name="e_0_energy">    -17.56988078 </i>
   </energy>
  </scstep>
  <scstep>
   <time name="dav">   11.06   13.80</time>
   <time name="total">   18.24   23.44</time>
   <energy>
    <i name="e_fr_energy">    -17.56265842 </i>
    <i name="e_wo_entrp">    -17.58509083 </i>
    <i name="e_0_energy">    -17.57013589 </i>
   </energy>
  </scstep>
  <scstep>
   <time name="dav">    3.25    3.26</time>
   <time name="total">    8.75    9.78</time>
   <energy>
    <i name="e_fr_energy">    -17.56283202 </i>
    <i name="e_wo_entrp">    -17.58523939 </i>
    <i name="e_0_energy">    -17.57030115 </i>
   </energy>
  </scstep>
  <scstep>
   <time name="dav">    6.13    8.12</time>
   <time name="total">   10.85   14.28</time>
   <energy>
    <i name="e_fr_energy">    -17.56315218 </i>
    <i name="e_wo_entrp">    -17.58554162 </i>
    <i name="e_0_energy">    -17.57061533 </i>
   </energy>
  </scstep>
  <scstep>
   <time name="dav">    9.38   12.84</time>
   <time name="total">   14.95   20.40</time>
   <energy>
    <i name="e_fr_energy">    -17.56325977 </i>
    <i name="e_wo_entrp">    -17.58564323 </i>
[...]
       <r>    -1.8113     8.1408    49.4178 </r>
       <r>    -1.7630     6.6143    49.7368 </r>
       <r>    -1.7148     4.3130    49.9448 </r>
       <r>    -1.6666     2.0882    50.0455 </r>
       <r>    -1.6183     0.5240    50.0708 </r>
       <r>    -1.5701    -0.2531    50.0586 </r>
       <r>    -1.5219    -0.4512    50.0368 </r>
       <r>    -1.4736    -0.3682    50.0191 </r>
       <r>    -1.4254    -0.2218    50.0084 </r>
       <r>    -1.3772    -0.1101    50.0031 </r>
       <r>    -1.3289    -0.0523    50.0005 </r>
       <r>    -1.2807    -0.0411    49.9986 </r>
       <r>    -1.2325    -0.0758    49.9949 </r>
       <r>    -1.1842    -0.1713    49.9866 </r>
       <r>    -1.1360    -0.3427    49.9701 </r>
       <r>    -1.0878    -0.5586    49.9432 </r>
       <r>    -1.0395    -0.6662    49.9110 </r>
       <r>    -0.9913    -0.3395    49.8947 </r>
       <r>    -0.9431     0.8511    49.9357 </r>
       <r>    -0.8948     3.1826    50.0892 </r>
       <r>    -0.8466     6.4373    50.3997 </r>
       <r>    -0.7984     9.7669    50.8708 </r>
       <r>    -0.7501    12.0170    51.4505 </r>
       <r>    -0.7019    12.4008    52.0486 </r>
       <r>    -0.6536    11.0137    52.5799 </r>
       <r>    -0.6054     8.7287    53.0009 </r>
       <r>    -0.5572     6.5445    53.3165 </r>
       <r>    -0.5089     4.9576    53.5557 </r>
       <r>    -0.4607     3.8495    53.7414 </r>
       <r>    -0.4125     2.8539    53.8790 </r>
       <r>    -0.3642     1.7682    53.9643 </r>
       <r>    -0.3160     0.6782    53.9970 </r>
       <r>    -0.2678    -0.1662    53.9890 </r>
       <r>    -0.2195    -0.4965    53.9650 </r>
       <r>    -0.1713    -0.0797    53.9612 </r>
       <r>    -0.1231     1.2282    54.0204 </r>
       <r>    -0.0748     3.3363    54.1814 </r>
       <r>    -0.0266     5.7642    54.4594 </r>
       <r>     0.0216     7.7001    54.8308 </r>
       <r>     0.0699     8.3680    55.2344 </r>
       <r>     0.1181     7.4874    55.5956 </r>
       <r>     0.1663     5.4581    55.8589 </r>
       <r>     0.2146     3.1027    56.0085 </r>
       <r>     0.2628     1.1784    56.0654 </r>
       <r>     0.3110     0.0334    56.0670 </r>
       <r>     0.3593    -0.4071    56.0473 </r>
       <r>     0.4075    -0.4259    56.0268 </r>
       <r>     0.4557    -0.2912    56.0127 </r>
       <r>     0.5040    -0.1562    56.0052 </r>
       <r>     0.5522    -0.0696    56.0018 </r>
       <r>     0.6004    -0.0264    56.0006 </r>
       <r>     0.6487    -0.0086    56.0002 </r>
       <r>     0.6969    -0.0025    56.0000 </r>
       <r>     0.7452    -0.0006    56.0000 </r>
       <r>     0.7934    -0.0001    56.0000 </r>
       <r>     0.8416    -0.0000    56.0000 </r>
       <r>     0.8899    -0.0000    56.0000 </r>
       <r>     0.9381    -0.0000    56.0000 </r>
       <r>     0.9863    -0.0000    56.0000 </r>
       <r>     1.0346    -0.0000    56.0000 </r>
       <r>     1.0828    -0.0000    56.0000 </r>
       <r>     1.1310    -0.0000    56.0000 </r>
       <r>     1.1793    -0.0000    56.0000 </r>
       <r>     1.2275    -0.0000    56.0000 </r>
       <r>     1.2757    -0.0000    56.0000 </r>
       <r>     1.3240     0.0000    56.0000 </r>
       <r>     1.3722     0.0000    56.0000 </r>
       <r>     1.4204     0.0000    56.0000 </r>
       <r>     1.4687     0.0000    56.0000 </r>
       <r>     1.5169     0.0000    56.0000 </r>
       <r>     1.5651     0.0000    56.0000 </r>
       <r>     1.6134     0.0000    56.0000 </r>
       <r>     1.6616     0.0000    56.0000 </r>
       <r>     1.7098     0.0000    56.0000 </r>
       <r>     1.7581     0.0000    56.0000 </r>
       <r>     1.8063     0.0000    56.0000 </r>
       <r>     1.8545     0.0000    56.0000 </r>
       <r>     1.9028     0.0000    56.0000 </r>
       <r>     1.9510     0.0000    56.0000 </r>
       <r>     1.9992     0.0000    56.0000 </r>
       <r>     2.0475     0.0000    56.0000 </r>
      </set>
      <set comment="spin 2">
       <r>   -12.4229     0.0000     0.0000 </r>
       <r>   -12.3746     0.0000     0.0000 </r>
       <r>   -12.3264     0.0000     0.0000 </r>
       <r>   -12.2782     0.0000     0.0000 </r>
       <r>   -12.2299     0.0000     0.0000 </r>
       <r>   -12.1817     0.0000     0.0000 </r>
       <r>   -12.1334     0.0000     0.0000 </r>
       <r>   -12.0852     0.0000     0.0000 </r>
       <r>   -12.0370    -0.0000    -0.0000 </r>
       <r>   -11.9887    -0.0000    -0.0000 </r>
       <r>   -11.9405    -0.0000    -0.0000 </r>
       <r>   -11.8923    -0.0000    -0.0000 </r>
       <r>   -11.8440    -0.0000    -0.0000 </r>
       <r>   -11.7958    -0.0000    -0.0000 </r>
       <r>   -11.7476    -0.0000    -0.0000 </r>
       <r>   -11.6993    -0.0000    -0.0000 </r>
       <r>   -11.6511    -0.0000    -0.0000 </r>
       <r>   -11.6029    -0.0000    -0.0000 </r>
       <r>   -11.5546    -0.0000    -0.0000 </r>
       <r>   -11.5064    -0.0000    -0.0000 </r>
       <r>   -11.4582    -0.0000    -0.0000 </r>
       <r>   -11.4099    -0.0000    -0.0000 </r>
       <r>   -11.3617    -0.0000    -0.0000 </r>
       <r>   -11.3135    -0.0000    -0.0000 </r>
       <r>   -11.2652    -0.0000    -0.0000 </r>
       <r>   -11.2170    -0.0000    -0.0000 </r>
       <r>   -11.1688    -0.0000    -0.0000 </r>
       <r>   -11.1205    -0.0001    -0.0000 </r>
       <r>   -11.0723    -0.0004    -0.0000 </r>
       <r>   -11.0241    -0.0014    -0.0001 </r>
       <r>   -10.9758    -0.0049    -0.0003 </r>
       <r>   -10.9276    -0.0148    -0.0010 </r>
       <r>   -10.8794    -0.0384    -0.0029 </r>
       <r>   -10.8311    -0.0847    -0.0070 </r>
       <r>   -10.7829    -0.1544    -0.0144 </r>
       <r>   -10.7347    -0.2185    -0.0250 </r>
       <r>   -10.6864    -0.1932    -0.0343 </r>
       <r>   -10.6382     0.0606    -0.0314 </r>
       <r>   -10.5899     0.6798     0.0014 </r>
       <r>   -10.5417     1.6822     0.0826 </r>
       <r>   -10.4935     2.8664     0.2208 </r>
       <r>   -10.4452     3.8375     0.4059 </r>
       <r>   -10.3970     4.1969     0.6084 </r>
       <r>   -10.3488     3.7843     0.7909 </r>
       <r>   -10.3005     2.7832     0.9251 </r>
       <r>   -10.2523     1.6004     1.0023 </r>
       <r>   -10.2041     0.6217     1.0323 </r>
       <r>   -10.1558     0.0315     1.0339 </r>
       <r>   -10.1076    -0.2008     1.0242 </r>
       <r>   -10.0594    -0.2155     1.0138 </r>
       <r>   -10.0111    -0.1490     1.0066 </r>
       <r>    -9.9629    -0.0805     1.0027 </r>
       <r>    -9.9147    -0.0361     1.0010 </r>
       <r>    -9.8664    -0.0137     1.0003 </r>
       <r>    -9.8182    -0.0045     1.0001 </r>
       <r>    -9.7700    -0.0013     1.0000 </r>
       <r>    -9.7217    -0.0003     1.0000 </r>
       <r>    -9.6735    -0.0001     1.0000 </r>
       <r>    -9.6253    -0.0000     1.0000 </r>
       <r>    -9.5770    -0.0000     1.0000 </r>
       <r>    -9.5288    -0.0000     1.0000 </r>
       <r>    -9.4806    -0.0000     1.0000 </r>
       <r>    -9.4323    -0.0001     1.0000 </r>
       <r>    -9.3841    -0.0003     1.0000 </r>
       <r>    -9.3359    -0.0013     0.9999 </r>
       <r>    -9.2876    -0.0050     0.9997 </r>
       <r>    -9.2394    -0.0170     0.9989 </r>
       <r>    -9.1911    -0.0501     0.9964 </r>
       <r>    -9.1429    -0.1274     0.9903 </r>
       <r>    -9.0947    -0.2747     0.9771 </r>
       <r>    -9.0464    -0.4873     0.9535 </r>
       <r>    -8.9982    -0.6630     0.9216 </r>
       <r>    -8.9500    -0.5303     0.8960 </r>
       <r>    -8.9017     0.3379     0.9123 </r>
       <r>    -8.8535     2.3270     1.0245 </r>
       <r>    -8.8053     5.4267     1.2863 </r>
       <r>    -8.7570     8.9585     1.7184 </r>
       <r>    -8.7088    11.7076     2.2831 </r>
       <r>    -8.6606    12.5272     2.8873 </r>
       <r>    -8.6123    11.0363     3.4197 </r>
       <r>    -8.5641     7.8602     3.7988 </r>
       <r>    -8.5159     4.2132     4.0020 </r>
       <r>    -8.4676     1.1922     4.0595 </r>
       <r>    -8.4194    -0.6530     4.0280 </r>
       <r>    -8.3712    -1.2353     3.9685 </r>
       <r>    -8.3229    -0.5842     3.9403 </r>
       <r>    -8.2747     1.3252     4.0042 </r>
       <r>    -8.2265     4.3729     4.2151 </r>
       <r>    -8.1782     7.9440     4.5983 </r>
       <r>    -8.1300    10.8740     5.1228 </r>
       <r>    -8.0818    11.9378     5.6986 </r>
       <r>    -8.0335    10.6370     6.2117 </r>
       <r>    -7.9853     7.6974     6.5830 </r>
       <r>    -7.9371     4.8430     6.8166 </r>
       <r>    -7.8888     3.9316     7.0062 </r>
       <r>    -7.8406     5.9484     7.2931 </r>
       <r>    -7.7923    10.4255     7.7960 </r>
       <r>    -7.7441    15.6421     8.5505 </r>
       <r>    -7.6959    19.5633     9.4941 </r>
       <r>    -7.6476    20.9768    10.5059 </r>
       <r>    -7.5994    20.0386    11.4724 </r>
       <r>    -7.5512    17.8430    12.3331 </r>
       <r>    -7.5029    15.4788    13.0797 </r>
       <r>    -7.4547    13.4605    13.7290 </r>
       <r>    -7.4065    11.9058    14.3032 </r>
       <r>    -7.3582    10.9820    14.8329 </r>
       <r>    -7.3100    10.9706    15.3621 </r>
       <r>    -7.2618    11.9298    15.9375 </r>
       <r>    -7.2135    13.4816    16.5878 </r>
       <r>    -7.1653    15.0317    17.3129 </r>
       <r>    -7.1171    16.1566    18.0922 </r>
       <r>    -7.0688    16.7605    18.9006 </r>
       <r>    -7.0206    16.9736    19.7193 </r>
       <r>    -6.9724    17.0109    20.5398 </r>
       <r>    -6.9241    17.0561    21.3625 </r>
       <r>    -6.8759    17.0861    22.1867 </r>
       <r>    -6.8277    16.7212    22.9932 </r>
       <r>    -6.7794    15.3677    23.7344 </r>
       <r>    -6.7312    12.6786    24.3460 </r>
       <r>    -6.6830     8.9480    24.7776 </r>
       <r>    -6.6347     5.0261    25.0200 </r>
       <r>    -6.5865     1.8020    25.1069 </r>
       <r>    -6.5383    -0.2895    25.0930 </r>
       <r>    -6.4900    -1.3517    25.0278 </r>
       <r>    -6.4418    -1.7038    24.9456 </r>
       <r>    -6.3935    -1.4555    24.8754 </r>
       <r>    -6.3453    -0.3003    24.8609 </r>
       <r>    -6.2971     2.3047    24.9721 </r>
       <r>    -6.2488     6.6195    25.2914 </r>
       <r>    -6.2006    12.0723    25.8737 </r>
       <r>    -6.1524    17.1445    26.7006 </r>
       <r>    -6.1041    19.9659    27.6637 </r>
       <r>    -6.0559    19.3431    28.5967 </r>
       <r>    -6.0077    15.4853    29.3436 </r>
       <r>    -5.9594     9.8535    29.8189 </r>
       <r>    -5.9112     4.2768    30.0252 </r>
       <r>    -5.8630     0.0769    30.0289 </r>
       <r>    -5.8147    -2.1588    29.9247 </r>
       <r>    -5.7665    -2.1788    29.8196 </r>
       <r>    -5.7183     0.3597    29.8370 </r>
       <r>    -5.6700     5.7757    30.1156 </r>
       <r>    -5.6218    13.7220    30.7775 </r>
       <r>    -5.5736    22.6728    31.8711 </r>
       <r>    -5.5253    30.2688    33.3311 </r>
       <r>    -5.4771    34.5258    34.9964 </r>
       <r>    -5.4289    34.9913    36.6842 </r>
       <r>    -5.3806    32.8146    38.2670 </r>
       <r>    -5.3324    29.6473    39.6970 </r>
       <r>    -5.2842    26.3862    40.9697 </r>
       <r>    -5.2359    22.8471    42.0717 </r>
       <r>    -5.1877    18.4735    42.9628 </r>
       <r>    -5.1395    13.2361    43.6012 </r>
       <r>    -5.0912     7.8793    43.9813 </r>
       <r>    -5.0430     3.4309    44.1468 </r>
       <r>    -4.9947     0.5418    44.1729 </r>
       <r>    -4.9465    -0.7966    44.1345 </r>
       <r>    -4.8983    -1.0624    44.0832 </r>
       <r>    -4.8500    -0.8279    44.0433 </r>
       <r>    -4.8018    -0.4960    44.0194 </r>
       <r>    -4.7536    -0.2453    44.0076 </r>
       <r>    -4.7053    -0.1031    44.0026 </r>
       <r>    -4.6571    -0.0374    44.0008 </r>
       <r>    -4.6089    -0.0118    44.0002 </r>
       <r>    -4.5606    -0.0033    44.0000 </r>
       <r>    -4.5124    -0.0008    44.0000 </r>
       <r>    -4.4642    -0.0002    44.0000 </r>
       <r>    -4.4159    -0.0000    44.0000 </r>
       <r>    -4.3677    -0.0000    44.0000 </r>
       <r>    -4.3195    -0.0000    44.0000 </r>
       <r>    -4.2712    -0.0000    44.0000 </r>
       <r>    -4.2230    -0.0000    44.0000 </r>
       <r>    -4.1748    -0.0000    44.0000 </r>
       <r>    -4.1265    -0.0000    44.0000 </r>
       <r>    -4.0783    -0.0000    44.0000 </r>
       <r>    -4.0301    -0.0000    44.0000 </r>
       <r>    -3.9818    -0.0000    44.0000 </r>
       <r>    -3.9336    -0.0000    44.0000 </r>
       <r>    -3.8854    -0.0001    44.0000 </r>
       <r>    -3.8371    -0.0003    44.0000 </r>
       <r>    -3.7889    -0.0012    43.9999 </r>
       <r>    -3.7407    -0.0043    43.9997 </r>
       <r>    -3.6924    -0.0132    43.9991 </r>
       <r>    -3.6442    -0.0348    43.9974 </r>
       <r>    -3.5960    -0.0785    43.9936 </r>
       <r>    -3.5477    -0.1478    43.9865 </r>
       <r>    -3.4995    -0.2212    43.9758 </r>
       <r>    -3.4512    -0.2293    43.9648 </r>
       <r>    -3.4030    -0.0532    43.9622 </r>
       <r>    -3.3548     0.4253    43.9827 </r>
       <r>    -3.3065     1.2251    44.0418 </r>
       <r>    -3.2583     2.1999    44.1479 </r>
       <r>    -3.2101     3.1140    44.2981 </r>
       <r>    -3.1618     3.8678    44.4847 </r>
       <r>    -3.1136     4.6830    44.7106 </r>
       <r>    -3.0654     5.9939    44.9997 </r>
       <r>    -3.0171     8.0161    45.3863 </r>
       <r>    -2.9689    10.3366    45.8849 </r>
       <r>    -2.9207    11.9733    46.4624 </r>
       <r>    -2.8724    11.9714    47.0399 </r>
       <r>    -2.8242    10.0821    47.5262 </r>
       <r>    -2.7760     6.9536    47.8616 </r>
       <r>    -2.7277     3.6960    48.0398 </r>
       <r>    -2.6795     1.2193    48.0987 </r>
       <r>    -2.6313    -0.1521    48.0913 </r>
       <r>    -2.5830    -0.6149    48.0617 </r>
       <r>    -2.5348    -0.5752    48.0339 </r>
       <r>    -2.4866    -0.3768    48.0157 </r>
       <r>    -2.4383    -0.2016    48.0060 </r>
       <r>    -2.3901    -0.1037    48.0010 </r>
       <r>    -2.3419    -0.0821    47.9971 </r>
       <r>    -2.2936    -0.1295    47.9908 </r>
       <r>    -2.2454    -0.2415    47.9792 </r>
       <r>    -2.1972    -0.3857    47.9606 </r>
       <r>    -2.1489    -0.4478    47.9390 </r>
       <r>    -2.1007    -0.1949    47.9296 </r>
       <r>    -2.0524     0.6723    47.9620 </r>
       <r>    -2.0042     2.3337    48.0745 </r>
       <r>    -1.9560     4.6080    48.2968 </r>
       <r>    -1.9077     6.8610    48.6277 </r>
       <r>    -1.8595     8.2376    49.0251 </r>
       <r>    -1.8113     8.1408    49.4178 </r>
       <r>    -1.7630     6.6143    49.7368 </r>
       <r>    -1.7148     4.3130    49.9448 </r>
       <r>    -1.6666     2.0882    50.0455 </r>
       <r>    -1.6183     0.5240    50.0708 </r>
       <r>    -1.5701    -0.2531    50.0586 </r>
       <r>    -1.5219    -0.4512    50.0368 </r>
       <r>    -1.4736    -0.3682    50.0191 </r>
       <r>    -1.4254    -0.2218    50.0084 </r>
       <r>    -1.3772    -0.1101    50.0031 </r>
       <r>    -1.3289    -0.0523    50.0005 </r>
       <r>    -1.2807    -0.0411    49.9986 </r>
       <r>    -1.2325    -0.0758    49.9949 </r>
       <r>    -1.1842    -0.1713    49.9866 </r>
       <r>    -1.1360    -0.3427    49.9701 </r>
       <r>    -1.0878    -0.5586    49.9432 </r>
       <r>    -1.0395    -0.6662    49.9110 </r>
       <r>    -0.9913    -0.3395    49.8947 </r>
       <r>    -0.9431     0.8511    49.9357 </r>
       <r>    -0.8948     3.1826    50.0892 </r>
       <r>    -0.8466     6.4373    50.3997 </r>
       <r>    -0.7984     9.7669    50.8708 </r>
       <r>    -0.7501    12.0170    51.4505 </r>
       <r>    -0.7019    12.4008    52.0486 </r>
       <r>    -0.6536    11.0137    52.5799 </r>
       <r>    -0.6054     8.7287    53.0009 </r>
       <r>    -0.5572     6.5445    53.3165 </r>
       <r>    -0.5089     4.9576    53.5557 </r>
       <r>    -0.4607     3.8495    53.7413 </r>
       <r>    -0.4125     2.8539    53.8790 </r>
       <r>    -0.3642     1.7682    53.9643 </r>
       <r>    -0.3160     0.6782    53.9970 </r>
       <r>    -0.2678    -0.1662    53.9890 </r>
       <r>    -0.2195    -0.4965    53.9650 </r>
       <r>    -0.1713    -0.0797    53.9612 </r>
       <r>    -0.1231     1.2281    54.0204 </r>
       <r>    -0.0748     3.3363    54.1814 </r>
       <r>    -0.0266     5.7642    54.4594 </r>
       <r>     0.0216     7.7001    54.8308 </r>
       <r>     0.0699     8.3680    55.2344 </r>
       <r>     0.1181     7.4874    55.5956 </r>
       <r>     0.1663     5.4582    55.8589 </r>
       <r>     0.2146     3.1027    56.0085 </r>
       <r>     0.2628     1.1784    56.0654 </r>
       <r>     0.3110     0.0334    56.0670 </r>
       <r>     0.3593    -0.4071    56.0473 </r>
       <r>     0.4075    -0.4259    56.0268 </r>
       <r>     0.4557    -0.2912    56.0127 </r>
       <r>     0.5040    -0.1562    56.0052 </r>
       <r>     0.5522    -0.0696    56.0018 </r>
       <r>     0.6004    -0.0264    56.0006 </r>
       <r>     0.6487    -0.0086    56.0002 </r>
       <r>     0.6969    -0.0025    56.0000 </r>
       <r>     0.7452    -0.0006    56.0000 </r>
       <r>     0.7934    -0.0001    56.0000 </r>
       <r>     0.8416    -0.0000    56.0000 </r>
       <r>     0.8899    -0.0000    56.0000 </r>
       <r>     0.9381    -0.0000    56.0000 </r>
       <r>     0.9863    -0.0000    56.0000 </r>
       <r>     1.0346    -0.0000    56.0000 </r>
       <r>     1.0828    -0.0000    56.0000 </r>
       <r>     1.1310    -0.0000    56.0000 </r>
       <r>     1.1793    -0.0000    56.0000 </r>
       <r>     1.2275    -0.0000    56.0000 </r>
       <r>     1.2757    -0.0000    56.0000 </r>
       <r>     1.3240     0.0000    56.0000 </r>
       <r>     1.3722     0.0000    56.0000 </r>
       <r>     1.4204     0.0000    56.0000 </r>
       <r>     1.4687     0.0000    56.0000 </r>
       <r>     1.5169     0.0000    56.0000 </r>
       <r>     1.5651     0.0000    56.0000 </r>
       <r>     1.6134     0.0000    56.0000 </r>
       <r>     1.6616     0.0000    56.0000 </r>
       <r>     1.7098     0.0000    56.0000 </r>
       <r>     1.7581     0.0000    56.0000 </r>
       <r>     1.8063     0.0000    56.0000 </r>
       <r>     1.8545     0.0000    56.0000 </r>
       <r>     1.9028     0.0000    56.0000 </r>
       <r>     1.9510     0.0000    56.0000 </r>
       <r>     1.9992     0.0000    56.0000 </r>
       <r>     2.0475     0.0000    56.0000 </r>
      </set>
     </set>
    </array>
   </total>
  </dos>
 </calculation>
 <structure name="finalpos" >
  <crystal>
   <varray name="basis" >
    <v>      22.79513181       0.00000000       0.00000000 </v>
    <v>       0.00000000      21.90824860       0.00000000 </v>
    <v>       0.00000000       0.00000000      24.38931494 </v>
   </varray>
   <i name="volume">  12180.05838401 </i>
   <varray name="rec_basis" >
    <v>       0.04386902       0.00000000       0.00000000 </v>
    <v>       0.00000000       0.04564491       0.00000000 </v>
    <v>       0.00000000       0.00000000       0.04100156 </v>
   </varray>
  </crystal>
  <varray name="positions" >
   <v>       0.54064324       0.38453128       0.54654489 </v>
   <v>       0.52873430       0.57510068       0.51900314 </v>
   <v>       0.54527248       0.45652420       0.38336477 </v>
   <v>       0.38671146       0.45688134       0.47691826 </v>
   <v>       0.56772885       0.47338412       0.48444759 </v>
   <v>       0.47385256       0.47675409       0.53907145 </v>
   <v>       0.48475799       0.40522831       0.45812219 </v>
   <v>       0.47551704       0.51737311       0.44326587 </v>
  </varray>
 </structure>
</modeling>
