unknown system                          
            1
    22.795132    0.000000    0.000000
     0.000000   21.908249    0.000000
     0.000000    0.000000   24.389315
   Au   Cu
     4     4
Direct configuration=     1
   0.50561852  0.44786438  0.52694273
   0.50655993  0.56277368  0.54328999
   0.50879906  0.44407720  0.37627675
   0.42856133  0.45604888  0.44771466
   0.58307875  0.44118684  0.45193524
   0.45584001  0.49740850  0.60752575
   0.49995800  0.36611446  0.45124812
   0.51480231  0.53030319  0.44580491
Direct configuration=     2
   0.50709757  0.44404106  0.52807636
   0.50751196  0.56686317  0.54312021
   0.51019495  0.44485600  0.37311608
   0.42369672  0.45624997  0.44781344
   0.58361527  0.44106456  0.45274176
   0.45535546  0.49625410  0.60753197
   0.50042651  0.36592358  0.45272368
   0.51531947  0.53052469  0.44561466
Direct configuration=     3
   0.50765264  0.44260621  0.52850179
   0.50786925  0.56839792  0.54305650
   0.51071882  0.44514828  0.37192991
   0.42187108  0.45632544  0.44785052
   0.58381662  0.44101867  0.45304444
   0.45517361  0.49582087  0.60753431
   0.50060234  0.36585194  0.45327744
   0.51551355  0.53060782  0.44554326
Direct configuration=     4
   0.50798187  0.44230122  0.52908322
   0.50819433  0.56882933  0.54284589
   0.51065263  0.44602762  0.37217406
   0.42121512  0.45606095  0.44743017
   0.58368114  0.44090039  0.45339506
   0.45565091  0.49533073  0.60607030
   0.50063872  0.36707538  0.45382133
   0.51520318  0.52925152  0.44591813
Direct configuration=     5
   0.50896957  0.44138624  0.53082749
   0.50916958  0.57012359  0.54221408
   0.51045406  0.44866565  0.37290652
   0.41924723  0.45526748  0.44616912
   0.58327470  0.44054554  0.45444693
   0.45708281  0.49386030  0.60167827
   0.50074786  0.37074570  0.45545298
   0.51427209  0.52518264  0.44704277
Direct configuration=     6
   0.51040664  0.44126946  0.53107401
   0.50992013  0.57048866  0.54147684
   0.51038309  0.44939913  0.37269489
   0.41851599  0.45455216  0.44593430
   0.58423933  0.44021266  0.45474748
   0.45656827  0.49434125  0.60053625
   0.50005552  0.37177116  0.45504591
   0.51312894  0.52374265  0.44922849
Direct configuration=     7
   0.51386153  0.44098871  0.53166668
   0.51172456  0.57136635  0.53970440
   0.51021245  0.45116252  0.37218608
   0.41675798  0.45283244  0.44536976
   0.58655845  0.43941236  0.45547005
   0.45533124  0.49549752  0.59779067
   0.49839105  0.37423651  0.45406725
   0.51038065  0.52028072  0.45448327
Direct configuration=     8
   0.51304481  0.44105508  0.53152657
   0.51129800  0.57115887  0.54012340
   0.51025278  0.45074566  0.37230636
   0.41717356  0.45323897  0.44550321
   0.58601022  0.43960155  0.45529924
   0.45562367  0.49522418  0.59843972
   0.49878453  0.37365371  0.45429860
   0.51103033  0.52109911  0.45324106
Direct configuration=     9
   0.51421545  0.44075727  0.53205120
   0.51183049  0.57184200  0.54044266
   0.51038882  0.45127265  0.37238587
   0.41657499  0.45270439  0.44544220
   0.58668930  0.43933043  0.45512968
   0.45503112  0.49587053  0.59764810
   0.49833562  0.37428951  0.45370253
   0.51015212  0.51971035  0.45393593
Direct configuration=    10
   0.51772736  0.43986385  0.53362508
   0.51342798  0.57389140  0.54140043
   0.51079691  0.45285361  0.37262441
   0.41477928  0.45110064  0.44525914
   0.58872654  0.43851707  0.45462101
   0.45325345  0.49780958  0.59527324
   0.49698892  0.37619691  0.45191430
   0.50751748  0.51554408  0.45602054
Direct configuration=    11
   0.52475118  0.43807700  0.53677284
   0.51662294  0.57799019  0.54331599
   0.51161309  0.45601552  0.37310149
   0.41118784  0.44789315  0.44489304
   0.59280102  0.43689036  0.45360367
   0.44969812  0.50168768  0.59052353
   0.49429551  0.38001170  0.44833785
   0.50224820  0.50721154  0.46018976
Direct configuration=    12
   0.52015349  0.43924664  0.53471236
   0.51453156  0.57530718  0.54206209
   0.51107883  0.45394578  0.37278920
   0.41353874  0.44999273  0.44513268
   0.59013393  0.43795518  0.45426961
   0.45202539  0.49914913  0.59363262
   0.49605857  0.37751459  0.45067894
   0.50569739  0.51266589  0.45746065
Direct configuration=    13
   0.52172334  0.43839444  0.53578239
   0.51509523  0.57587973  0.54256857
   0.51159087  0.45448898  0.37261289
   0.41204184  0.44938154  0.44510167
   0.59053973  0.43755452  0.45379341
   0.45153784  0.50013113  0.59194615
   0.49604720  0.37858352  0.45029257
   0.50464186  0.51136327  0.45864052
Direct configuration=    14
   0.52643286  0.43583783  0.53899249
   0.51678622  0.57759739  0.54408798
   0.51312699  0.45611858  0.37208393
   0.40755114  0.44754799  0.44500862
   0.59175715  0.43635253  0.45236480
   0.45007520  0.50307713  0.58688674
   0.49601307  0.38179030  0.44913347
   0.50147526  0.50745539  0.46218013
Direct configuration=    15
   0.53585192  0.43072461  0.54541268
   0.52016822  0.58103271  0.54712681
   0.51619923  0.45937777  0.37102603
   0.39856975  0.44388089  0.44482251
   0.59419199  0.43394855  0.44950759
   0.44714993  0.50896913  0.57676793
   0.49594481  0.38820385  0.44681527
   0.49514208  0.49963962  0.46925935
Direct configuration=    16
   0.53142230  0.43312927  0.54239338
   0.51857772  0.57941714  0.54569770
   0.51475441  0.45784503  0.37152354
   0.40279354  0.44560547  0.44491003
   0.59304693  0.43507910  0.45085129
   0.44852563  0.50619823  0.58152663
   0.49597691  0.38518767  0.44790548
   0.49812046  0.50331524  0.46593012
Direct configuration=    17
   0.53370693  0.43147886  0.54354572
   0.51948572  0.57999062  0.54583854
   0.51609151  0.45913493  0.37151883
   0.40067705  0.44475039  0.44503243
   0.59220893  0.43469358  0.45016319
   0.44847262  0.50689768  0.57747587
   0.49625610  0.38764870  0.44868106
   0.49631904  0.50118237  0.46848252
Direct configuration=    18
   0.54056082  0.42652763  0.54700274
   0.52220971  0.58171105  0.54626107
   0.52010282  0.46300466  0.37150471
   0.39432759  0.44218518  0.44539963
   0.58969493  0.43353702  0.44809889
   0.44831359  0.50899602  0.56532359
   0.49709367  0.39503181  0.45100782
   0.49091478  0.49478377  0.47613972
Direct configuration=    19
   0.53686842  0.42919501  0.54514033
   0.52074221  0.58078420  0.54603344
   0.51794180  0.46091992  0.37151232
   0.39774824  0.44356714  0.44520181
   0.59104930  0.43416010  0.44921099
   0.44839927  0.50786558  0.57187040
   0.49664244  0.39105430  0.44975432
   0.49382622  0.49823090  0.47201455
Direct configuration=    20
   0.53822710  0.42821350  0.54582564
   0.52128221  0.58112525  0.54611720
   0.51873699  0.46168703  0.37150952
   0.39648955  0.44305863  0.44527460
   0.59055093  0.43393082  0.44880177
   0.44836774  0.50828154  0.56946138
   0.49680848  0.39251790  0.45021557
   0.49275490  0.49696246  0.47353248
Direct configuration=    21
   0.53948453  0.42694769  0.54566261
   0.52249570  0.58175253  0.54511828
   0.51995830  0.46312568  0.37222402
   0.39642736  0.44277744  0.44600247
   0.58956032  0.43461384  0.44903209
   0.44847366  0.50654047  0.56544326
   0.49548631  0.39298269  0.45189873
   0.49133174  0.49703680  0.47535669
Direct configuration=    22
   0.54066578  0.42575856  0.54550947
   0.52363569  0.58234181  0.54417987
   0.52110563  0.46447718  0.37289525
   0.39636893  0.44251329  0.44668625
   0.58862970  0.43525549  0.44924845
   0.44857316  0.50490485  0.56166854
   0.49424423  0.39341933  0.45347993
   0.48999478  0.49710663  0.47707041
Direct configuration=    23
   0.54117967  0.42497793  0.54497819
   0.52376052  0.58194455  0.54301020
   0.52136073  0.46539702  0.37444854
   0.39668620  0.44310312  0.44791046
   0.58808037  0.43632339  0.45030773
   0.44833105  0.50289279  0.56033731
   0.49305317  0.39224740  0.45454638
   0.49076620  0.49889091  0.47519935
Direct configuration=    24
   0.54272132  0.42263606  0.54338438
   0.52413502  0.58075279  0.53950120
   0.52212603  0.46815656  0.37910839
   0.39763799  0.44487258  0.45158309
   0.58643237  0.43952712  0.45348555
   0.44760473  0.49685661  0.55634363
   0.48947999  0.38873163  0.45774574
   0.49308046  0.50424378  0.46958618
Direct configuration=    25
   0.54238846  0.42314169  0.54372849
   0.52405416  0.58101010  0.54025883
   0.52196080  0.46756075  0.37810229
   0.39743249  0.44449054  0.45079014
   0.58678818  0.43883541  0.45279944
   0.44776155  0.49815987  0.55720590
   0.49025147  0.38949072  0.45705497
   0.49258079  0.50308805  0.47079811
Direct configuration=    26
   0.54149248  0.42276880  0.54444081
   0.52265590  0.57882333  0.53907372
   0.52118591  0.46808814  0.37754196
   0.39714534  0.44674682  0.45373786
   0.58710783  0.43999303  0.45446597
   0.44880368  0.49531934  0.55398955
   0.49062981  0.38922960  0.45838479
   0.49419695  0.50480808  0.46910351
Direct configuration=    27
   0.54054241  0.42237340  0.54519612
   0.52117324  0.57650456  0.53781707
   0.52036425  0.46864736  0.37694781
   0.39684086  0.44913929  0.45686351
   0.58744678  0.44122052  0.45623311
   0.44990871  0.49230734  0.55057904
   0.49103099  0.38895271  0.45979489
   0.49591067  0.50663194  0.46730662
Direct configuration=    28
   0.54020202  0.42212430  0.54606185
   0.52073501  0.57608165  0.53792508
   0.52016296  0.46838199  0.37647753
   0.39700753  0.45038244  0.45876412
   0.58740057  0.44192799  0.45667551
   0.44987825  0.49050266  0.54887867
   0.49113309  0.38949373  0.46014640
   0.49669849  0.50688239  0.46580900
Direct configuration=    29
   0.53947093  0.42158926  0.54792128
   0.51979377  0.57517331  0.53815708
   0.51973063  0.46781201  0.37546745
   0.39736549  0.45305247  0.46284626
   0.58730131  0.44344749  0.45762569
   0.44981281  0.48662657  0.54522661
   0.49135240  0.39065573  0.46090139
   0.49839058  0.50742028  0.46259240
Direct configuration=    30
   0.53979951  0.42182973  0.54708557
   0.52021680  0.57558155  0.53805281
   0.51992493  0.46806818  0.37592142
   0.39720461  0.45185245  0.46101158
   0.58734592  0.44276457  0.45719864
   0.44984222  0.48836864  0.54686800
   0.49125383  0.39013348  0.46056207
   0.49763008  0.50717853  0.46403807
Direct configuration=    31
   0.53973796  0.42178469  0.54724210
   0.52013756  0.57550509  0.53807234
   0.51988854  0.46802020  0.37583639
   0.39723474  0.45207722  0.46135522
   0.58733756  0.44289248  0.45727863
   0.44983671  0.48804235  0.54656056
   0.49127230  0.39023130  0.46062562
   0.49777253  0.50722381  0.46376730
Direct configuration=    32
   0.54023132  0.42151792  0.54774471
   0.52016230  0.57575342  0.53870118
   0.52031719  0.46700285  0.37507777
   0.39717593  0.45208484  0.46167460
   0.58694226  0.44313637  0.45703932
   0.44934310  0.48779734  0.54647238
   0.49115841  0.39114895  0.46035770
   0.49788739  0.50733545  0.46367050
Direct configuration=    33
   0.54171141  0.42071761  0.54925252
   0.52023651  0.57649839  0.54058770
   0.52160315  0.46395082  0.37280191
   0.39699949  0.45210769  0.46263273
   0.58575637  0.44386802  0.45632140
   0.44786225  0.48706231  0.54620786
   0.49081675  0.39390193  0.45955394
   0.49823197  0.50767038  0.46338011
Direct configuration=    34
   0.54197950  0.42057264  0.54952563
   0.52024995  0.57663333  0.54092941
   0.52183608  0.46339799  0.37238968
   0.39696753  0.45211183  0.46280628
   0.58554157  0.44400055  0.45619136
   0.44759402  0.48692917  0.54615995
   0.49075487  0.39440058  0.45940835
   0.49829439  0.50773104  0.46332751
Direct configuration=    35
   0.54243684  0.42047646  0.54930042
   0.51973058  0.57595921  0.54150119
   0.52244738  0.46201937  0.37226947
   0.39594474  0.45193009  0.46255355
   0.58501192  0.44419637  0.45610962
   0.44815863  0.48717426  0.54653270
   0.49095546  0.39573042  0.45932782
   0.49853236  0.50829095  0.46314339
Direct configuration=    36
   0.54343172  0.42026722  0.54881051
   0.51860075  0.57449276  0.54274500
   0.52377719  0.45902040  0.37200797
   0.39371982  0.45153476  0.46200377
   0.58385973  0.44462235  0.45593182
   0.44938684  0.48770742  0.54734357
   0.49139183  0.39862328  0.45915264
   0.49905003  0.50950894  0.46274288
Direct configuration=    37
   0.54297268  0.42036376  0.54903655
   0.51912205  0.57516938  0.54217111
   0.52316362  0.46040412  0.37212863
   0.39474639  0.45171717  0.46225744
   0.58439135  0.44442580  0.45601386
   0.44882015  0.48746142  0.54696944
   0.49119049  0.39728852  0.45923347
   0.49881118  0.50894697  0.46292768
Direct configuration=    38
   0.54329767  0.42031540  0.54866981
   0.51869122  0.57462472  0.54275394
   0.52352710  0.45938964  0.37230532
   0.39432520  0.45180939  0.46246999
   0.58505176  0.44461014  0.45622579
   0.44941747  0.48714343  0.54657753
   0.49047784  0.39827794  0.45943150
   0.49842965  0.50960648  0.46230429
Direct configuration=    39
   0.54400761  0.42020975  0.54786866
   0.51775006  0.57343491  0.54402715
   0.52432112  0.45717350  0.37269132
   0.39340510  0.45201084  0.46293429
   0.58649444  0.44501282  0.45668875
   0.45072233  0.48644878  0.54572139
   0.48892105  0.40043933  0.45986411
   0.49759619  0.51104721  0.46094249
Direct configuration=    40
   0.54465283  0.41983544  0.54784273
   0.51781181  0.57347003  0.54441356
   0.52481865  0.45633904  0.37295077
   0.39243509  0.45263890  0.46337882
   0.58689258  0.44534267  0.45689318
   0.45073273  0.48502686  0.54489232
   0.48859386  0.40104591  0.46040520
   0.49728035  0.51207829  0.45996159
Direct configuration=    41
   0.54544299  0.41937704  0.54781098
   0.51788742  0.57351304  0.54488678
   0.52542794  0.45531714  0.37326850
   0.39124720  0.45340805  0.46392320
   0.58738016  0.44574660  0.45714352
   0.45074546  0.48328552  0.54387701
   0.48819318  0.40178876  0.46106782
   0.49689356  0.51334098  0.45876035
Direct configuration=    42
   0.54634981  0.41872109  0.54832446
   0.51767544  0.57283934  0.54449287
   0.52594685  0.45476488  0.37342651
   0.39002877  0.45404619  0.46389128
   0.58711381  0.44626281  0.45740698
   0.45150626  0.48202669  0.54302874
   0.48791103  0.40254487  0.46191313
   0.49668594  0.51457127  0.45825418
Direct configuration=    43
   0.54907028  0.41675323  0.54986490
   0.51703950  0.57081825  0.54331115
   0.52750359  0.45310812  0.37390053
   0.38637348  0.45596061  0.46379552
   0.58631475  0.44781143  0.45819736
   0.45378864  0.47825020  0.54048396
   0.48706458  0.40481319  0.46444907
   0.49606309  0.51826211  0.45673568
Direct configuration=    44
   0.54989771  0.41607610  0.55039696
   0.51696882  0.57040387  0.54303512
   0.52769911  0.45286996  0.37408724
   0.38586585  0.45635632  0.46364005
   0.58583423  0.44837852  0.45869193
   0.45453436  0.47719327  0.53986914
   0.48656389  0.40576330  0.46505764
   0.49585394  0.51873582  0.45596007
Direct configuration=    45
   0.55197504  0.41437608  0.55173274
   0.51679138  0.56936351  0.54234212
   0.52818997  0.45227203  0.37455602
   0.38459138  0.45734979  0.46324974
   0.58462785  0.44980224  0.45993361
   0.45640658  0.47453972  0.53832559
   0.48530685  0.40814866  0.46658553
   0.49532885  0.51992510  0.45401282
Direct configuration=    46
   0.55103285  0.41514714  0.55112689
   0.51687186  0.56983537  0.54265644
   0.52796734  0.45254322  0.37434340
   0.38516942  0.45689919  0.46342677
   0.58517501  0.44915650  0.45937044
   0.45555743  0.47574326  0.53902568
   0.48587699  0.40706676  0.46589255
   0.49556701  0.51938569  0.45489601
Direct configuration=    47
   0.55105525  0.41492593  0.55117040
   0.51698097  0.56994542  0.54262481
   0.52769410  0.45273784  0.37432997
   0.38572548  0.45682836  0.46333476
   0.58487777  0.44935402  0.45980203
   0.45565080  0.47592461  0.53926180
   0.48579215  0.40712145  0.46567007
   0.49544138  0.51893949  0.45454431
Direct configuration=    48
   0.55111465  0.41433933  0.55128580
   0.51727031  0.57023728  0.54254093
   0.52696950  0.45325392  0.37429436
   0.38720008  0.45664053  0.46309078
   0.58408952  0.44987783  0.46094657
   0.45589842  0.47640555  0.53988799
   0.48556718  0.40726648  0.46508008
   0.49510824  0.51775621  0.45361166
Direct configuration=    49
   0.55093040  0.41372418  0.55152517
   0.51739881  0.57018924  0.54199204
   0.52676714  0.45340738  0.37408690
   0.38777905  0.45669694  0.46283187
   0.58358697  0.45038335  0.46137128
   0.45628210  0.47669303  0.54023609
   0.48574689  0.40693490  0.46496576
   0.49472655  0.51774811  0.45372905
Direct configuration=    50
   0.55037765  0.41187873  0.55224329
   0.51778429  0.57004513  0.54034538
   0.52616006  0.45386776  0.37346454
   0.38951596  0.45686619  0.46205513
   0.58207934  0.45189992  0.46264542
   0.45743313  0.47755547  0.54128038
   0.48628600  0.40594013  0.46462281
   0.49358147  0.51772381  0.45408121
Direct configuration=    51
   0.55016012  0.41115246  0.55252591
   0.51793600  0.56998842  0.53969733
   0.52592115  0.45404894  0.37321961
   0.39019952  0.45693280  0.46174945
   0.58148601  0.45249676  0.46314686
   0.45788612  0.47789488  0.54169136
   0.48649817  0.40554863  0.46448785
   0.49313082  0.51771424  0.45421980
Direct configuration=    52
   0.54998515  0.41067017  0.55267415
   0.51817391  0.57016008  0.53938747
   0.52584730  0.45415006  0.37323259
   0.39052943  0.45704154  0.46162558
   0.58113304  0.45293361  0.46335198
   0.45807469  0.47784052  0.54183634
   0.48667753  0.40529770  0.46448898
   0.49279686  0.51768346  0.45414107
Direct configuration=    53
   0.54946022  0.40922329  0.55311888
   0.51888763  0.57067507  0.53845787
   0.52562576  0.45445342  0.37327153
   0.39151914  0.45736777  0.46125396
   0.58007415  0.45424414  0.46396736
   0.45864038  0.47767744  0.54227128
   0.48721562  0.40454489  0.46449240
   0.49179499  0.51759111  0.45390487
Direct configuration=    54
   0.54841037  0.40632954  0.55400833
   0.52031508  0.57170505  0.53659868
   0.52518269  0.45506014  0.37334942
   0.39349857  0.45802022  0.46051073
   0.57795637  0.45686521  0.46519813
   0.45977177  0.47735127  0.54314116
   0.48829180  0.40303928  0.46449924
   0.48979125  0.51740642  0.45343248
Direct configuration=    55
   0.54822226  0.40586458  0.55382214
   0.52071646  0.57185598  0.53636876
   0.52531697  0.45501145  0.37374112
   0.39323572  0.45815517  0.46060239
   0.57785797  0.45750432  0.46559859
   0.46006733  0.47695119  0.54284538
   0.48838552  0.40281538  0.46470121
   0.48941568  0.51761905  0.45305858
Direct configuration=    56
   0.54765793  0.40446973  0.55326359
   0.52192061  0.57230876  0.53567898
   0.52571981  0.45486540  0.37491620
   0.39244717  0.45856002  0.46087734
   0.57756276  0.45942167  0.46679999
   0.46095398  0.47575095  0.54195804
   0.48866667  0.40214367  0.46530711
   0.48828898  0.51825694  0.45193691
Direct configuration=    57
   0.54652925  0.40168002  0.55214648
   0.52432891  0.57321431  0.53429942
   0.52652549  0.45457329  0.37726637
   0.39087007  0.45936972  0.46142726
   0.57697233  0.46325635  0.46920279
   0.46272730  0.47335047  0.54018337
   0.48922899  0.40080025  0.46651891
   0.48603557  0.51953271  0.44969355
Direct configuration=    58
   0.54650811  0.40133137  0.55210783
   0.52454614  0.57315640  0.53407868
   0.52665409  0.45447431  0.37747467
   0.39073341  0.45943024  0.46150939
   0.57685917  0.46372581  0.46951519
   0.46293819  0.47321284  0.53996637
   0.48919771  0.40072600  0.46653372
   0.48578109  0.51972016  0.44955230
Direct configuration=    59
   0.54644470  0.40028542  0.55199188
   0.52519784  0.57298266  0.53341645
   0.52703986  0.45417737  0.37809958
   0.39032344  0.45961180  0.46175580
   0.57651968  0.46513419  0.47045239
   0.46357085  0.47279995  0.53931537
   0.48910388  0.40050324  0.46657817
   0.48501766  0.52028250  0.44912853
Direct configuration=    60
   0.54631786  0.39819352  0.55175997
   0.52650123  0.57263517  0.53209200
   0.52781142  0.45358350  0.37934938
   0.38950350  0.45997492  0.46224861
   0.57584071  0.46795095  0.47232678
   0.46483618  0.47197417  0.53801336
   0.48891621  0.40005772  0.46666707
   0.48349079  0.52140717  0.44828099
Direct configuration=    61
   0.54606420  0.39400971  0.55129615
   0.52910802  0.57194021  0.52944310
   0.52935453  0.45239576  0.38184900
   0.38786363  0.46070117  0.46323423
   0.57448276  0.47358448  0.47607556
   0.46736683  0.47032261  0.53540935
   0.48854088  0.39916668  0.46684486
   0.48043707  0.52365652  0.44658590
Direct configuration=    62
   0.54555686  0.38564211  0.55036852
   0.53432159  0.57055027  0.52414528
   0.53244075  0.45002027  0.38684823
   0.38458387  0.46215365  0.46520547
   0.57176687  0.48485152  0.48357313
   0.47242815  0.46701950  0.53020133
   0.48779021  0.39738460  0.46720045
   0.47432961  0.52815522  0.44319574
Direct configuration=    63
   0.54602675  0.39339210  0.55122768
   0.52949283  0.57183761  0.52905206
   0.52958232  0.45222042  0.38221800
   0.38762155  0.46080838  0.46337973
   0.57428230  0.47441610  0.47662896
   0.46774041  0.47007881  0.53502495
   0.48848547  0.39903514  0.46687111
   0.47998627  0.52398857  0.44633567
Direct configuration=    64
   0.54660074  0.39248644  0.55147588
   0.52991122  0.57096593  0.52821755
   0.53012318  0.45186578  0.38261074
   0.38774437  0.46078356  0.46364237
   0.57316395  0.47552720  0.47772436
   0.46825835  0.47083288  0.53483920
   0.48803695  0.39907826  0.46589893
   0.47937913  0.52423709  0.44632914
Direct configuration=    65
   0.54769926  0.39075318  0.55195087
   0.53071195  0.56929769  0.52662044
   0.53115829  0.45118705  0.38336238
   0.38797943  0.46073607  0.46414500
   0.57102362  0.47765363  0.47982075
   0.46924960  0.47227604  0.53448372
   0.48717857  0.39916077  0.46403835
   0.47821719  0.52471271  0.44631665
Direct configuration=    66
   0.54745375  0.39114055  0.55184471
   0.53053299  0.56967053  0.52697738
   0.53092695  0.45133874  0.38319439
   0.38792690  0.46074668  0.46403267
   0.57150197  0.47717839  0.47935222
   0.46902807  0.47195350  0.53456317
   0.48737041  0.39914233  0.46445418
   0.47847687  0.52460641  0.44631944
Direct configuration=    67
   0.54748718  0.39131654  0.55148433
   0.53065824  0.56981199  0.52702048
   0.53140657  0.45142757  0.38312669
   0.38825017  0.46049960  0.46418247
   0.57063856  0.47662374  0.47969932
   0.46937355  0.47237261  0.53489505
   0.48715765  0.39942218  0.46421711
   0.47824597  0.52430288  0.44611271
Direct configuration=    68
   0.54758747  0.39184452  0.55040317
   0.53103400  0.57023638  0.52714976
   0.53284544  0.45169407  0.38292358
   0.38922001  0.45975838  0.46463190
   0.56804832  0.47495981  0.48074063
   0.47041002  0.47362993  0.53589071
   0.48651937  0.40026174  0.46350589
   0.47755327  0.52339230  0.44549252
Direct configuration=    69
   0.54762767  0.39205616  0.54996978
   0.53118462  0.57040650  0.52720158
   0.53342221  0.45180090  0.38284216
   0.38960877  0.45946126  0.46481205
   0.56701002  0.47429282  0.48115804
   0.47082549  0.47413393  0.53628982
   0.48626352  0.40059828  0.46322080
   0.47727559  0.52302728  0.44524392
Direct configuration=    70
   0.54759416  0.39138224  0.54996711
   0.53117064  0.57104106  0.52695805
   0.53449142  0.45210355  0.38238902
   0.38930118  0.45874445  0.46537789
   0.56635448  0.47390734  0.48108229
   0.47089728  0.47473107  0.53693887
   0.48579607  0.40084951  0.46290750
   0.47761268  0.52301792  0.44511743
Direct configuration=    71
   0.54755636  0.39062225  0.54996411
   0.53115486  0.57175668  0.52668341
   0.53569719  0.45244485  0.38187799
   0.38895430  0.45793608  0.46601601
   0.56561521  0.47347262  0.48099687
   0.47097824  0.47540447  0.53767082
   0.48526891  0.40113282  0.46255418
   0.47799282  0.52300737  0.44497478
Direct configuration=    72
   0.54690461  0.39004706  0.54985614
   0.53097021  0.57205812  0.52615961
   0.53625756  0.45268418  0.38185280
   0.38887116  0.45777680  0.46675619
   0.56595538  0.47364827  0.48094174
   0.47098585  0.47534777  0.53757467
   0.48529904  0.40154768  0.46249664
   0.47797410  0.52266726  0.44510036
Direct configuration=    73
   0.54494934  0.38832148  0.54953223
   0.53041625  0.57296245  0.52458822
   0.53793868  0.45340218  0.38177724
   0.38862175  0.45729894  0.46897676
   0.56697588  0.47417521  0.48077636
   0.47100869  0.47517768  0.53728623
   0.48538941  0.40279228  0.46232404
   0.47791791  0.52164692  0.44547708
Direct configuration=    74
   0.54441226  0.38807363  0.54928014
   0.53026595  0.57312082  0.52418537
   0.53833959  0.45359103  0.38187297
   0.38828587  0.45726292  0.46954478
   0.56730793  0.47417385  0.48105365
   0.47128028  0.47523590  0.53747904
   0.48559175  0.40302298  0.46200429
   0.47773428  0.52129601  0.44531792
Direct configuration=    75
   0.54280104  0.38733009  0.54852389
   0.52981506  0.57359594  0.52297681
   0.53954231  0.45415759  0.38216016
   0.38727821  0.45715484  0.47124885
   0.56830408  0.47416975  0.48188552
   0.47209506  0.47541056  0.53805748
   0.48619877  0.40371508  0.46104504
   0.47718338  0.52024330  0.44484041
Direct configuration=    76
   0.54214966  0.38702949  0.54821815
   0.52963277  0.57378801  0.52248822
   0.54002854  0.45438664  0.38227626
   0.38687084  0.45711114  0.47193777
   0.56870680  0.47416810  0.48222183
   0.47242445  0.47548117  0.53829133
   0.48644418  0.40399488  0.46065724
   0.47696066  0.51981771  0.44464737
Direct configuration=    77
   0.54171963  0.38650241  0.54797364
   0.52940298  0.57392138  0.52181541
   0.54086489  0.45476285  0.38238765
   0.38690712  0.45712595  0.47291596
   0.56890102  0.47415019  0.48288042
   0.47276033  0.47589294  0.53845460
   0.48617287  0.40443216  0.45989606
   0.47648907  0.51898926  0.44441442
Direct configuration=    78
   0.54100334  0.38562446  0.54756637
   0.52902022  0.57414353  0.52069473
   0.54225796  0.45538948  0.38257318
   0.38696756  0.45715061  0.47454530
   0.56922451  0.47412036  0.48397740
   0.47331979  0.47657881  0.53872655
   0.48572096  0.40516053  0.45862821
   0.47570356  0.51760934  0.44402642
Direct configuration=    79
   0.54082726  0.38527566  0.54716901
   0.52891337  0.57448104  0.52007408
   0.54339940  0.45582824  0.38271200
   0.38700174  0.45705214  0.47546169
   0.56873540  0.47382915  0.48429377
   0.47350339  0.47666412  0.53880816
   0.48529224  0.40525948  0.45843205
   0.47554510  0.51738731  0.44378739
Direct configuration=    80
   0.54058369  0.38479315  0.54661934
   0.52876557  0.57494791  0.51921553
   0.54497838  0.45643518  0.38290404
   0.38704903  0.45691593  0.47672936
   0.56805880  0.47342631  0.48473141
   0.47375737  0.47678213  0.53892104
   0.48469918  0.40539636  0.45816071
   0.47532590  0.51708016  0.44345674
Direct configuration=    81
   0.54065669  0.38447214  0.54652808
   0.52872723  0.57513518  0.51895518
   0.54533890  0.45654431  0.38346882
   0.38663523  0.45687353  0.47696092
   0.56765434  0.47337459  0.48438349
   0.47387406  0.47674776  0.53910541
   0.48477127  0.40519036  0.45811349
   0.47556020  0.51743926  0.44322277
Direct configuration=    82
   0.54064324  0.38453128  0.54654489
   0.52873430  0.57510068  0.51900314
   0.54527248  0.45652420  0.38336477
   0.38671146  0.45688134  0.47691826
   0.56772885  0.47338412  0.48444759
   0.47385256  0.47675409  0.53907145
   0.48475799  0.40522831  0.45812219
   0.47551704  0.51737311  0.44326587
