  10  10   0   0
  0.1317815E+04  0.2458302E-08  0.2483931E-08  0.2158140E-08  0.5000000E-15
   1.0000000000000000E-004
  CAR 
 unknown system                          
      2.01436501    -11.92726166  301     -3.96498014      1.00000000
    -11.927  0.0000E+00  0.0000E+00  0.0000E+00  0.0000E+00
    -11.881  0.0000E+00  0.0000E+00  0.0000E+00  0.0000E+00
    -11.834  0.0000E+00  0.0000E+00  0.0000E+00  0.0000E+00
    -11.788  0.0000E+00  0.0000E+00  0.0000E+00  0.0000E+00
    -11.741  0.0000E+00  0.0000E+00  0.0000E+00  0.0000E+00
    -11.695  0.0000E+00  0.0000E+00  0.0000E+00  0.0000E+00
    -11.648  0.0000E+00  0.0000E+00  0.0000E+00  0.0000E+00
    -11.602  0.0000E+00  0.0000E+00  0.0000E+00  0.0000E+00
    -11.555 -0.8125E-30  0.0000E+00 -0.3776E-31  0.0000E+00
    -11.509 -0.3206E-28 -0.2102E-30 -0.1528E-29 -0.9770E-32
    -11.463 -0.1160E-26 -0.8635E-29 -0.5544E-28 -0.4110E-30
    -11.416 -0.3764E-25 -0.3249E-27 -0.1805E-26 -0.1551E-28
    -11.370 -0.1094E-23 -0.1096E-25 -0.5267E-25 -0.5249E-27
    -11.323 -0.2853E-22 -0.3315E-24 -0.1378E-23 -0.1593E-25
    -11.277 -0.6664E-21 -0.8985E-23 -0.3235E-22 -0.4335E-24
    -11.230 -0.1395E-19 -0.2183E-21 -0.6805E-21 -0.1058E-22
    -11.184 -0.2616E-18 -0.4752E-20 -0.1284E-19 -0.2314E-21
    -11.137 -0.4394E-17 -0.9270E-19 -0.2170E-18 -0.4540E-20
    -11.091 -0.6372E-16 -0.1620E-17 -0.3178E-17 -0.7982E-19
    -11.044 -0.8631E-15 -0.2416E-16 -0.4329E-16 -0.1203E-17
    -10.998 -0.1037E-13 -0.3446E-15 -0.5251E-15 -0.1722E-16
    -10.951 -0.1115E-12 -0.4309E-14 -0.5707E-14 -0.2175E-15
    -10.905 -0.1072E-11 -0.4824E-13 -0.5554E-13 -0.2459E-14
    -10.858 -0.9216E-11 -0.4829E-12 -0.4839E-12 -0.2490E-13
    -10.812 -0.7074E-10 -0.4321E-11 -0.3771E-11 -0.2257E-12
    -10.765 -0.4846E-09 -0.3454E-10 -0.2629E-10 -0.1831E-11
    -10.719 -0.2960E-08 -0.2465E-09 -0.1639E-09 -0.1328E-10
    -10.673 -0.1610E-07 -0.1569E-08 -0.9122E-09 -0.8619E-10
    -10.626 -0.7792E-07 -0.8897E-08 -0.4533E-08 -0.4997E-09
    -10.580 -0.3347E-06 -0.4490E-07 -0.2009E-07 -0.2586E-08
    -10.533 -0.1273E-05 -0.2013E-06 -0.7926E-07 -0.1194E-07
    -10.487 -0.4275E-05 -0.8002E-06 -0.2779E-06 -0.4913E-07
    -10.440 -0.1261E-04 -0.2811E-05 -0.8640E-06 -0.1798E-06
    -10.394 -0.3244E-04 -0.8692E-05 -0.2372E-05 -0.5837E-06
    -10.347 -0.7196E-04 -0.2351E-04 -0.5716E-05 -0.1676E-05
    -10.301 -0.1348E-03 -0.5509E-04 -0.1198E-04 -0.4236E-05
    -10.254 -0.2039E-03 -0.1100E-03 -0.2145E-04 -0.9347E-05
    -10.208 -0.2199E-03 -0.1810E-03 -0.3167E-04 -0.1776E-04
    -10.161 -0.7084E-04 -0.2263E-03 -0.3497E-04 -0.2828E-04
    -10.115  0.3773E-03 -0.1519E-03 -0.1743E-04 -0.3534E-04
    -10.068  0.1197E-02  0.1753E-03  0.3819E-04 -0.2719E-04
    -10.022  0.2298E-02  0.8620E-03  0.1450E-03  0.1287E-04
     -9.975  0.3392E-02  0.1885E-02  0.3026E-03  0.1005E-03
     -9.929  0.4093E-02  0.3025E-02  0.4928E-03  0.2410E-03
     -9.882  0.4120E-02  0.3910E-02  0.6843E-03  0.4227E-03
     -9.836  0.3461E-02  0.4196E-02  0.8451E-03  0.6177E-03
     -9.790  0.2382E-02  0.3764E-02  0.9558E-03  0.7926E-03
     -9.743  0.1270E-02  0.2793E-02  0.1015E-02  0.9224E-03
     -9.697  0.4246E-03  0.1650E-02  0.1035E-02  0.9991E-03
     -9.650 -0.4969E-04  0.6859E-03  0.1032E-02  0.1031E-02
     -9.604 -0.2162E-03  0.7894E-04  0.1022E-02  0.1035E-02
     -9.557 -0.2079E-03 -0.1839E-03  0.1013E-02  0.1026E-02
     -9.511 -0.1400E-03 -0.2227E-03  0.1006E-02  0.1016E-02
     -9.464 -0.7580E-04 -0.1661E-03  0.1003E-02  0.1008E-02
     -9.418 -0.3457E-04 -0.9648E-04  0.1001E-02  0.1004E-02
     -9.371 -0.1358E-04 -0.4663E-04  0.1000E-02  0.1001E-02
     -9.325 -0.4648E-05 -0.1929E-04  0.1000E-02  0.1000E-02
     -9.278 -0.1397E-05 -0.6929E-05  0.1000E-02  0.1000E-02
     -9.232 -0.3706E-06 -0.2181E-05  0.1000E-02  0.1000E-02
     -9.185 -0.8711E-07 -0.6046E-06  0.1000E-02  0.1000E-02
     -9.139 -0.1863E-07 -0.1483E-06  0.1000E-02  0.1000E-02
     -9.092 -0.6343E-08 -0.3225E-07  0.1000E-02  0.1000E-02
     -9.046 -0.1684E-07 -0.6235E-08  0.1000E-02  0.1000E-02
     -9.000 -0.7936E-07 -0.1073E-08  0.1000E-02  0.1000E-02
     -8.953 -0.3432E-06 -0.1687E-09  0.1000E-02  0.1000E-02
     -8.907 -0.1319E-05 -0.5580E-10  0.9999E-03  0.1000E-02
     -8.860 -0.4488E-05 -0.2408E-09  0.9997E-03  0.1000E-02
     -8.814 -0.1347E-04 -0.1519E-08  0.9991E-03  0.1000E-02
     -8.767 -0.3551E-04 -0.8634E-08  0.9974E-03  0.1000E-02
     -8.721 -0.8147E-04 -0.4368E-07  0.9936E-03  0.1000E-02
     -8.674 -0.1604E-03 -0.1964E-06  0.9862E-03  0.1000E-02
     -8.628 -0.2635E-03 -0.7830E-06  0.9739E-03  0.1000E-02
     -8.581 -0.3374E-03 -0.2761E-05  0.9583E-03  0.9998E-03
     -8.535 -0.2608E-03 -0.8575E-05  0.9462E-03  0.9994E-03
     -8.488  0.1470E-03 -0.2334E-04  0.9530E-03  0.9983E-03
     -8.442  0.1057E-02 -0.5519E-04  0.1002E-02  0.9958E-03
     -8.395  0.2511E-02 -0.1118E-03  0.1119E-02  0.9906E-03
     -8.349  0.4313E-02 -0.1892E-03  0.1319E-02  0.9818E-03
     -8.302  0.6028E-02 -0.2514E-03  0.1599E-02  0.9701E-03
     -8.256  0.7125E-02 -0.2135E-03  0.1930E-02  0.9602E-03
     -8.209  0.7229E-02  0.5126E-04  0.2266E-02  0.9626E-03
     -8.163  0.6333E-02  0.6599E-03  0.2561E-02  0.9932E-03
     -8.117  0.4837E-02  0.1638E-02  0.2785E-02  0.1069E-02
     -8.070  0.3373E-02  0.2867E-02  0.2942E-02  0.1203E-02
     -8.024  0.2489E-02  0.4112E-02  0.3058E-02  0.1394E-02
     -7.977  0.2386E-02  0.5126E-02  0.3169E-02  0.1632E-02
     -7.931  0.2872E-02  0.5747E-02  0.3302E-02  0.1899E-02
     -7.884  0.3558E-02  0.5913E-02  0.3468E-02  0.2174E-02
     -7.838  0.4157E-02  0.5609E-02  0.3661E-02  0.2434E-02
     -7.791  0.4662E-02  0.4846E-02  0.3877E-02  0.2660E-02
     -7.745  0.5244E-02  0.3703E-02  0.4121E-02  0.2832E-02
     -7.698  0.5990E-02  0.2368E-02  0.4399E-02  0.2942E-02
     -7.652  0.6715E-02  0.1124E-02  0.4711E-02  0.2994E-02
     -7.605  0.7037E-02  0.2565E-03  0.5039E-02  0.3006E-02
     -7.559  0.6669E-02 -0.3376E-04  0.5348E-02  0.3004E-02
     -7.512  0.5700E-02  0.3146E-03  0.5613E-02  0.3019E-02
     -7.466  0.4623E-02  0.1198E-02  0.5828E-02  0.3075E-02
     -7.419  0.4059E-02  0.2338E-02  0.6017E-02  0.3183E-02
     -7.373  0.4375E-02  0.3342E-02  0.6220E-02  0.3339E-02
     -7.327  0.5463E-02  0.3858E-02  0.6474E-02  0.3518E-02
     -7.280  0.6868E-02  0.3780E-02  0.6793E-02  0.3693E-02
     -7.234  0.8159E-02  0.3342E-02  0.7172E-02  0.3849E-02
     -7.187  0.9237E-02  0.2993E-02  0.7602E-02  0.3988E-02
     -7.141  0.1033E-01  0.3124E-02  0.8082E-02  0.4133E-02
     -7.094  0.1168E-01  0.3826E-02  0.8624E-02  0.4311E-02
     -7.048  0.1324E-01  0.4856E-02  0.9240E-02  0.4537E-02
     -7.001  0.1466E-01  0.5791E-02  0.9921E-02  0.4806E-02
     -6.955  0.1549E-01  0.6234E-02  0.1064E-01  0.5095E-02
     -6.908  0.1550E-01  0.5965E-02  0.1136E-01  0.5373E-02
     -6.862  0.1480E-01  0.4999E-02  0.1205E-01  0.5605E-02
     -6.815  0.1374E-01  0.3602E-02  0.1269E-01  0.5772E-02
     -6.769  0.1269E-01  0.2248E-02  0.1328E-01  0.5877E-02
     -6.722  0.1188E-01  0.1497E-02  0.1383E-01  0.5946E-02
     -6.676  0.1135E-01  0.1796E-02  0.1436E-01  0.6030E-02
     -6.629  0.1107E-01  0.3298E-02  0.1487E-01  0.6183E-02
     -6.583  0.1106E-01  0.5781E-02  0.1539E-01  0.6452E-02
     -6.536  0.1139E-01  0.8738E-02  0.1591E-01  0.6858E-02
     -6.490  0.1206E-01  0.1155E-01  0.1648E-01  0.7395E-02
     -6.444  0.1292E-01  0.1366E-01  0.1708E-01  0.8029E-02
     -6.397  0.1354E-01  0.1467E-01  0.1770E-01  0.8711E-02
     -6.351  0.1340E-01  0.1447E-01  0.1833E-01  0.9384E-02
     -6.304  0.1216E-01  0.1325E-01  0.1889E-01  0.1000E-01
     -6.258  0.9902E-02  0.1158E-01  0.1935E-01  0.1054E-01
     -6.211  0.7239E-02  0.1014E-01  0.1969E-01  0.1101E-01
     -6.165  0.5082E-02  0.9426E-02  0.1992E-01  0.1145E-01
     -6.118  0.4274E-02  0.9487E-02  0.2012E-01  0.1189E-01
     -6.072  0.5207E-02  0.9984E-02  0.2037E-01  0.1235E-01
     -6.025  0.7644E-02  0.1046E-01  0.2072E-01  0.1284E-01
     -5.979  0.1082E-01  0.1060E-01  0.2122E-01  0.1333E-01
     -5.932  0.1375E-01  0.1037E-01  0.2186E-01  0.1381E-01
     -5.886  0.1561E-01  0.9934E-02  0.2259E-01  0.1427E-01
     -5.839  0.1611E-01  0.9536E-02  0.2334E-01  0.1472E-01
     -5.793  0.1559E-01  0.9433E-02  0.2406E-01  0.1516E-01
     -5.746  0.1479E-01  0.9793E-02  0.2475E-01  0.1561E-01
     -5.700  0.1446E-01  0.1063E-01  0.2542E-01  0.1611E-01
     -5.654  0.1495E-01  0.1177E-01  0.2612E-01  0.1665E-01
     -5.607  0.1608E-01  0.1285E-01  0.2686E-01  0.1725E-01
     -5.561  0.1739E-01  0.1343E-01  0.2767E-01  0.1787E-01
     -5.514  0.1844E-01  0.1316E-01  0.2853E-01  0.1849E-01
     -5.468  0.1909E-01  0.1207E-01  0.2941E-01  0.1905E-01
     -5.421  0.1952E-01  0.1065E-01  0.3032E-01  0.1954E-01
     -5.375  0.2012E-01  0.9618E-02  0.3126E-01  0.1999E-01
     -5.328  0.2128E-01  0.9514E-02  0.3225E-01  0.2043E-01
     -5.282  0.2318E-01  0.1032E-01  0.3332E-01  0.2091E-01
     -5.235  0.2562E-01  0.1152E-01  0.3451E-01  0.2144E-01
     -5.189  0.2806E-01  0.1252E-01  0.3582E-01  0.2203E-01
     -5.142  0.2985E-01  0.1310E-01  0.3721E-01  0.2264E-01
     -5.096  0.3069E-01  0.1344E-01  0.3863E-01  0.2326E-01
     -5.049  0.3088E-01  0.1382E-01  0.4007E-01  0.2390E-01
     -5.003  0.3119E-01  0.1423E-01  0.4152E-01  0.2456E-01
     -4.956  0.3234E-01  0.1437E-01  0.4302E-01  0.2523E-01
     -4.910  0.3429E-01  0.1399E-01  0.4461E-01  0.2588E-01
     -4.864  0.3607E-01  0.1326E-01  0.4629E-01  0.2650E-01
     -4.817  0.3628E-01  0.1276E-01  0.4797E-01  0.2709E-01
     -4.771  0.3389E-01  0.1308E-01  0.4955E-01  0.2770E-01
     -4.724  0.2885E-01  0.1441E-01  0.5089E-01  0.2837E-01
     -4.678  0.2213E-01  0.1646E-01  0.5192E-01  0.2913E-01
     -4.631  0.1527E-01  0.1869E-01  0.5263E-01  0.3000E-01
     -4.585  0.9622E-02  0.2067E-01  0.5308E-01  0.3096E-01
     -4.538  0.5912E-02  0.2228E-01  0.5335E-01  0.3200E-01
     -4.492  0.4015E-02  0.2356E-01  0.5354E-01  0.3309E-01
     -4.445  0.3234E-02  0.2460E-01  0.5369E-01  0.3424E-01
     -4.399  0.2770E-02  0.2537E-01  0.5382E-01  0.3542E-01
     -4.352  0.2137E-02  0.2575E-01  0.5391E-01  0.3661E-01
     -4.306  0.1297E-02  0.2569E-01  0.5397E-01  0.3781E-01
     -4.259  0.5290E-03  0.2519E-01  0.5400E-01  0.3898E-01
     -4.213  0.1734E-03  0.2432E-01  0.5401E-01  0.4011E-01
     -4.166  0.4370E-03  0.2322E-01  0.5403E-01  0.4119E-01
     -4.120  0.1294E-02  0.2202E-01  0.5409E-01  0.4221E-01
     -4.073  0.2478E-02  0.2094E-01  0.5420E-01  0.4318E-01
     -4.027  0.3560E-02  0.2021E-01  0.5437E-01  0.4412E-01
     -3.981  0.4119E-02  0.2013E-01  0.5456E-01  0.4506E-01
     -3.934  0.3940E-02  0.2087E-01  0.5474E-01  0.4603E-01
     -3.888  0.3120E-02  0.2237E-01  0.5489E-01  0.4707E-01
     -3.841  0.1995E-02  0.2417E-01  0.5498E-01  0.4819E-01
     -3.795  0.9496E-03  0.2549E-01  0.5502E-01  0.4937E-01
     -3.748  0.2261E-03  0.2547E-01  0.5504E-01  0.5056E-01
     -3.702 -0.1335E-03  0.2358E-01  0.5503E-01  0.5165E-01
     -3.655 -0.2283E-03  0.1991E-01  0.5502E-01  0.5258E-01
     -3.609 -0.1945E-03  0.1517E-01  0.5501E-01  0.5328E-01
     -3.562 -0.1367E-03  0.1044E-01  0.5500E-01  0.5377E-01
     -3.516 -0.1115E-03  0.6708E-02  0.5500E-01  0.5408E-01
     -3.469 -0.1430E-03  0.4470E-02  0.5499E-01  0.5429E-01
     -3.423 -0.2344E-03  0.3572E-02  0.5498E-01  0.5445E-01
     -3.376 -0.3568E-03  0.3390E-02  0.5496E-01  0.5461E-01
     -3.330 -0.4157E-03  0.3239E-02  0.5494E-01  0.5476E-01
     -3.283 -0.2249E-03  0.2731E-02  0.5493E-01  0.5489E-01
     -3.237  0.4610E-03  0.1881E-02  0.5496E-01  0.5498E-01
     -3.191  0.1822E-02  0.9484E-03  0.5504E-01  0.5502E-01
     -3.144  0.3790E-02  0.1899E-03  0.5522E-01  0.5503E-01
     -3.098  0.5939E-02 -0.2896E-03  0.5549E-01  0.5502E-01
     -3.051  0.7583E-02 -0.5197E-03  0.5584E-01  0.5499E-01
     -3.005  0.8092E-02 -0.5488E-03  0.5622E-01  0.5497E-01
     -2.958  0.7241E-02 -0.3417E-03  0.5656E-01  0.5495E-01
     -2.912  0.5356E-02  0.2339E-03  0.5681E-01  0.5496E-01
     -2.865  0.3149E-02  0.1317E-02  0.5695E-01  0.5502E-01
     -2.819  0.1368E-02  0.2910E-02  0.5702E-01  0.5516E-01
     -2.772  0.4961E-03  0.4767E-02  0.5704E-01  0.5538E-01
     -2.726  0.6247E-03  0.6417E-02  0.5707E-01  0.5568E-01
     -2.679  0.1496E-02  0.7337E-02  0.5714E-01  0.5602E-01
     -2.633  0.2636E-02  0.7197E-02  0.5726E-01  0.5635E-01
     -2.586  0.3556E-02  0.6041E-02  0.5743E-01  0.5663E-01
     -2.540  0.3963E-02  0.4300E-02  0.5761E-01  0.5683E-01
     -2.493  0.3895E-02  0.2614E-02  0.5779E-01  0.5696E-01
     -2.447  0.3649E-02  0.1559E-02  0.5796E-01  0.5703E-01
     -2.400  0.3553E-02  0.1406E-02  0.5813E-01  0.5709E-01
     -2.354  0.3730E-02  0.2019E-02  0.5830E-01  0.5719E-01
     -2.308  0.4064E-02  0.2936E-02  0.5849E-01  0.5732E-01
     -2.261  0.4367E-02  0.3616E-02  0.5869E-01  0.5749E-01
     -2.215  0.4555E-02  0.3731E-02  0.5890E-01  0.5766E-01
     -2.168  0.4652E-02  0.3347E-02  0.5912E-01  0.5782E-01
     -2.122  0.4662E-02  0.2848E-02  0.5934E-01  0.5795E-01
     -2.075  0.4466E-02  0.2648E-02  0.5954E-01  0.5808E-01
     -2.029  0.3906E-02  0.2896E-02  0.5972E-01  0.5821E-01
     -1.982  0.2958E-02  0.3401E-02  0.5986E-01  0.5837E-01
     -1.936  0.1834E-02  0.3813E-02  0.5995E-01  0.5855E-01
     -1.889  0.9059E-03  0.3931E-02  0.5999E-01  0.5873E-01
     -1.843  0.5304E-03  0.3834E-02  0.6001E-01  0.5891E-01
     -1.796  0.8690E-03  0.3761E-02  0.6005E-01  0.5908E-01
     -1.750  0.1803E-02  0.3843E-02  0.6014E-01  0.5926E-01
     -1.703  0.2958E-02  0.3954E-02  0.6028E-01  0.5944E-01
     -1.657  0.3851E-02  0.3832E-02  0.6045E-01  0.5962E-01
     -1.610  0.4101E-02  0.3353E-02  0.6064E-01  0.5978E-01
     -1.564  0.3608E-02  0.2695E-02  0.6081E-01  0.5990E-01
     -1.518  0.2582E-02  0.2249E-02  0.6093E-01  0.6001E-01
     -1.471  0.1398E-02  0.2322E-02  0.6100E-01  0.6012E-01
     -1.425  0.3888E-03  0.2893E-02  0.6102E-01  0.6025E-01
     -1.378 -0.2710E-03  0.3598E-02  0.6100E-01  0.6042E-01
     -1.332 -0.5400E-03  0.3957E-02  0.6098E-01  0.6060E-01
     -1.285 -0.3999E-03  0.3673E-02  0.6096E-01  0.6077E-01
     -1.239  0.2135E-03  0.2789E-02  0.6097E-01  0.6090E-01
     -1.192  0.1368E-02  0.1619E-02  0.6103E-01  0.6098E-01
     -1.146  0.3006E-02  0.5424E-03  0.6117E-01  0.6100E-01
     -1.099  0.4846E-02 -0.1602E-03  0.6140E-01  0.6099E-01
     -1.053  0.6413E-02 -0.3460E-03  0.6170E-01  0.6098E-01
     -1.006  0.7243E-02  0.3792E-04  0.6203E-01  0.6098E-01
     -0.960  0.7133E-02  0.9853E-03  0.6236E-01  0.6103E-01
     -0.913  0.6281E-02  0.2397E-02  0.6266E-01  0.6114E-01
     -0.867  0.5184E-02  0.4036E-02  0.6290E-01  0.6132E-01
     -0.820  0.4335E-02  0.5553E-02  0.6310E-01  0.6158E-01
     -0.774  0.3932E-02  0.6606E-02  0.6328E-01  0.6189E-01
     -0.727  0.3805E-02  0.7021E-02  0.6346E-01  0.6222E-01
     -0.681  0.3633E-02  0.6862E-02  0.6363E-01  0.6253E-01
     -0.635  0.3257E-02  0.6371E-02  0.6378E-01  0.6283E-01
     -0.588  0.2839E-02  0.5790E-02  0.6391E-01  0.6310E-01
     -0.542  0.2741E-02  0.5210E-02  0.6404E-01  0.6334E-01
     -0.495  0.3233E-02  0.4572E-02  0.6419E-01  0.6355E-01
     -0.449  0.4269E-02  0.3811E-02  0.6439E-01  0.6373E-01
     -0.402  0.5492E-02  0.3026E-02  0.6464E-01  0.6387E-01
     -0.356  0.6421E-02  0.2477E-02  0.6494E-01  0.6399E-01
     -0.309  0.6679E-02  0.2414E-02  0.6525E-01  0.6410E-01
     -0.263  0.6135E-02  0.2871E-02  0.6553E-01  0.6423E-01
     -0.216  0.4927E-02  0.3629E-02  0.6576E-01  0.6440E-01
     -0.170  0.3386E-02  0.4375E-02  0.6592E-01  0.6460E-01
     -0.123  0.1894E-02  0.4900E-02  0.6601E-01  0.6483E-01
     -0.077  0.7434E-03  0.5155E-02  0.6604E-01  0.6507E-01
     -0.030  0.4753E-04  0.5152E-02  0.6605E-01  0.6531E-01
      0.016 -0.2480E-03  0.4856E-02  0.6603E-01  0.6554E-01
      0.063 -0.2875E-03  0.4204E-02  0.6602E-01  0.6573E-01
      0.109 -0.2161E-03  0.3217E-02  0.6601E-01  0.6588E-01
      0.155 -0.1283E-03  0.2071E-02  0.6600E-01  0.6598E-01
      0.202 -0.6381E-04  0.1024E-02  0.6600E-01  0.6603E-01
      0.248 -0.2726E-04  0.2747E-03  0.6600E-01  0.6604E-01
      0.295 -0.1013E-04 -0.1212E-03  0.6600E-01  0.6603E-01
      0.341 -0.3305E-05 -0.2410E-03  0.6600E-01  0.6602E-01
      0.388 -0.9504E-06 -0.2116E-03  0.6600E-01  0.6601E-01
      0.434 -0.2419E-06 -0.1372E-03  0.6600E-01  0.6601E-01
      0.481 -0.5460E-07 -0.7265E-04  0.6600E-01  0.6600E-01
      0.527 -0.1096E-07 -0.3262E-04  0.6600E-01  0.6600E-01
      0.574 -0.1957E-08 -0.1265E-04  0.6600E-01  0.6600E-01
      0.620 -0.3115E-09 -0.4283E-05  0.6600E-01  0.6600E-01
      0.667 -0.4424E-10 -0.1275E-05  0.6600E-01  0.6600E-01
      0.713 -0.5609E-11 -0.3349E-06  0.6600E-01  0.6600E-01
      0.760 -0.6353E-12 -0.7795E-07  0.6600E-01  0.6600E-01
      0.806 -0.6432E-13 -0.1611E-07  0.6600E-01  0.6600E-01
      0.853 -0.5829E-14 -0.2960E-08  0.6600E-01  0.6600E-01
      0.899 -0.4682E-15 -0.4846E-09  0.6600E-01  0.6600E-01
      0.946 -0.3345E-16 -0.7075E-10  0.6600E-01  0.6600E-01
      0.992 -0.4778E-17 -0.9217E-11  0.6600E-01  0.6600E-01
      1.038  0.0000E+00 -0.1072E-11  0.6600E-01  0.6600E-01
      1.085  0.0000E+00 -0.1115E-12  0.6600E-01  0.6600E-01
      1.131  0.0000E+00 -0.1037E-13  0.6600E-01  0.6600E-01
      1.178  0.0000E+00 -0.8648E-15  0.6600E-01  0.6600E-01
      1.224  0.0000E+00 -0.6211E-16  0.6600E-01  0.6600E-01
      1.271  0.0000E+00 -0.4778E-17  0.6600E-01  0.6600E-01
      1.317  0.0000E+00  0.0000E+00  0.6600E-01  0.6600E-01
      1.364  0.0000E+00  0.0000E+00  0.6600E-01  0.6600E-01
      1.410  0.0000E+00  0.0000E+00  0.6600E-01  0.6600E-01
      1.457  0.0000E+00  0.0000E+00  0.6600E-01  0.6600E-01
      1.503  0.0000E+00  0.0000E+00  0.6600E-01  0.6600E-01
      1.550  0.0000E+00  0.0000E+00  0.6600E-01  0.6600E-01
      1.596  0.0000E+00  0.0000E+00  0.6600E-01  0.6600E-01
      1.643  0.0000E+00  0.0000E+00  0.6600E-01  0.6600E-01
      1.689  0.0000E+00  0.0000E+00  0.6600E-01  0.6600E-01
      1.736  0.0000E+00  0.0000E+00  0.6600E-01  0.6600E-01
      1.782  0.0000E+00  0.0000E+00  0.6600E-01  0.6600E-01
      1.828  0.0000E+00  0.0000E+00  0.6600E-01  0.6600E-01
      1.875  0.0000E+00  0.0000E+00  0.6600E-01  0.6600E-01
      1.921  0.0000E+00  0.0000E+00  0.6600E-01  0.6600E-01
      1.968  0.0000E+00  0.0000E+00  0.6600E-01  0.6600E-01
      2.014  0.0000E+00  0.0000E+00  0.6600E-01  0.6600E-01
