   10   10 1000    2
  0.1317815E+04  0.2458302E-08  0.2483931E-08  0.2158140E-08  0.5000000E-15
   1.0000000000000000E-004
  CAR 
 unknown system                          
    100      1     66
 
  0.1262379E-14  0.1262379E-14  0.1262379E-14  0.1000000E+01
    1       -9.927262     -9.864144   1.000000   1.000000
    2       -8.300527     -8.004411   1.000000   1.000000
    3       -8.196149     -7.822902   1.000000   1.000000
    4       -7.882266     -7.338992   1.000000   1.000000
    5       -7.662222     -7.045789   1.000000   1.000000
    6       -7.560001     -6.892682   1.000000   1.000000
    7       -7.292802     -6.550693   1.000000   1.000000
    8       -7.232292     -6.488096   1.000000   1.000000
    9       -7.065995     -6.397205   1.000000   1.000000
   10       -7.037616     -6.349085   1.000000   1.000000
   11       -6.968314     -6.300867   1.000000   1.000000
   12       -6.897480     -6.117497   1.000000   1.000000
   13       -6.851738     -6.079818   1.000000   1.000000
   14       -6.736403     -5.953499   1.000000   1.000000
   15       -6.670112     -5.880707   1.000000   1.000000
   16       -6.576573     -5.743408   1.000000   1.000000
   17       -6.470112     -5.668431   1.000000   1.000000
   18       -6.408020     -5.563318   1.000000   1.000000
   19       -6.324953     -5.523329   1.000000   1.000000
   20       -6.287621     -5.465462   1.000000   1.000000
   21       -6.028207     -5.282052   1.000000   1.000000
   22       -5.924347     -5.214065   1.000000   1.000000
   23       -5.902173     -5.196958   1.000000   1.000000
   24       -5.851107     -5.066674   1.000000   1.000000
   25       -5.790026     -4.970995   1.000000   1.000000
   26       -5.667212     -4.956047   1.000000   1.000000
   27       -5.625963     -4.907704   1.000000   1.000000
   28       -5.576382     -4.761358   1.000000   1.000000
   29       -5.502327     -4.698142   1.000000   1.000001
   30       -5.484210     -4.670788   1.000000   1.000004
   31       -5.410659     -4.587759   1.000000   1.000049
   32       -5.373432     -4.573052   1.000000   1.000074
   33       -5.309666     -4.526884   1.000000   1.000260
   34       -5.267257     -4.466356   1.000000   1.001123
   35       -5.221546     -4.426728   1.000000   1.002607
   36       -5.202131     -4.379821   1.000000   1.006244
   37       -5.157220     -4.364036   1.000000   1.008117
   38       -5.116615     -4.347334   1.000000   1.010520
   39       -5.100322     -4.264869   1.000000   1.027676
   40       -5.096112     -4.225618   1.000000   1.034607
   41       -5.056595     -4.190087   1.000000   1.033729
   42       -5.030057     -4.189279   1.000000   1.033575
   43       -4.929761     -4.101788   1.000000   0.954177
   44       -4.915705     -4.037042   1.000000   0.784086
   45       -4.897940     -4.029884   1.000000   0.759255
   46       -4.873581     -3.968581   1.000000   0.515233
   47       -4.858427     -3.891360   1.000000   0.210651
   48       -4.833851     -3.848527   1.000000   0.088103
   49       -4.802516     -3.817085   1.000000   0.027097
   50       -4.778210     -3.791796   1.000000  -0.005043
   51       -4.770607     -3.740758   1.000000  -0.033560
   52       -4.708862     -3.729925   1.000001  -0.035055
   53       -4.677642     -3.670160   1.000003  -0.028790
   54       -4.453716     -3.624873   1.001484  -0.018524
   55       -3.994259     -3.377641   0.622429  -0.000132
   56       -3.058846     -2.734400  -0.000000  -0.000000
   57       -3.005852     -2.630820  -0.000000  -0.000000
   58       -2.574550     -2.261576  -0.000000  -0.000000
   59       -2.304756     -1.949867  -0.000000  -0.000000
   60       -2.077954     -1.685399  -0.000000  -0.000000
   61       -1.644774     -1.352124  -0.000000  -0.000000
   62       -1.065573     -0.827434  -0.000000  -0.000000
   63       -0.963171     -0.698796  -0.000000  -0.000000
   64       -0.711153     -0.503543  -0.000000  -0.000000
   65       -0.413911     -0.193469  -0.000000  -0.000000
   66       -0.275440      0.014365  -0.000000  -0.000000
