       N       E                     dE             d eps       ncg     rms          rms(c)
DAV:   1     0.631083567652E+03    0.63108E+03   -0.15501E+04   264   0.680E+02
DAV:   2     0.123499926480E+03   -0.50758E+03   -0.46944E+03   488   0.127E+02
DAV:   3    -0.250169900119E+02   -0.14852E+03   -0.13772E+03   304   0.134E+02
DAV:   4    -0.405698182209E+02   -0.15553E+02   -0.13818E+02   294   0.573E+01
DAV:   5    -0.410472195035E+02   -0.47740E+00   -0.46973E+00   318   0.904E+00    0.203E+01
DAV:   6    -0.455994418156E+02   -0.45522E+01   -0.54947E+01   304   0.103E+02    0.482E+01
DAV:   7    -0.401012827452E+02    0.54982E+01   -0.52397E+01   288   0.988E+01    0.286E+01
DAV:   8    -0.400949343827E+02    0.63484E-02   -0.26797E+01   300   0.796E+01    0.420E+01
DAV:   9    -0.378731645768E+02    0.22218E+01   -0.20800E+01   316   0.552E+01    0.375E+01
DAV:  10    -0.365402079328E+02    0.13330E+01   -0.14639E+01   324   0.428E+01    0.292E+01
DAV:  11    -0.363365691690E+02    0.20364E+00   -0.61976E+00   372   0.379E+01    0.225E+01
DAV:  12    -0.364663350256E+02   -0.12977E+00   -0.65636E+00   294   0.367E+01    0.303E+01
DAV:  13    -0.353885194709E+02    0.10778E+01   -0.38819E+00   308   0.235E+01    0.191E+01
DAV:  14    -0.352039570173E+02    0.18456E+00   -0.13585E+00   348   0.149E+01    0.122E+01
DAV:  15    -0.350955315410E+02    0.10843E+00   -0.75602E-01   310   0.157E+01    0.951E+00
DAV:  16    -0.354201113271E+02   -0.32458E+00   -0.13844E+00   358   0.162E+01    0.166E+01
DAV:  17    -0.350561059152E+02    0.36401E+00   -0.96633E-01   284   0.128E+01    0.476E+00
DAV:  18    -0.351272377318E+02   -0.71132E-01   -0.28212E-01   380   0.845E+00    0.575E+00
DAV:  19    -0.350959310283E+02    0.31307E-01   -0.18890E-01   318   0.683E+00    0.304E+00
DAV:  20    -0.351638865709E+02   -0.67956E-01   -0.73350E-02   364   0.338E+00    0.211E+00
DAV:  21    -0.352373512384E+02   -0.73465E-01   -0.64936E-02   334   0.372E+00    0.241E+00
DAV:  22    -0.352429488659E+02   -0.55976E-02   -0.49964E-02   288   0.413E+00    0.179E+00
DAV:  23    -0.352804600223E+02   -0.37511E-01   -0.31613E-02   302   0.262E+00    0.161E+00
DAV:  24    -0.353055366707E+02   -0.25077E-01   -0.23081E-02   358   0.171E+00    0.169E+00
DAV:  25    -0.353150101033E+02   -0.94734E-02   -0.11103E-02   296   0.140E+00    0.546E-01
DAV:  26    -0.353274190732E+02   -0.12409E-01   -0.59675E-03   358   0.851E-01    0.503E-01
DAV:  27    -0.353356126921E+02   -0.81936E-02   -0.19460E-03   304   0.611E-01    0.210E-01
DAV:  28    -0.353445228141E+02   -0.89101E-02   -0.50910E-04   260   0.249E-01    0.201E-01
DAV:  29    -0.353528724594E+02   -0.83496E-02   -0.38036E-04   206   0.217E-01    0.778E-02
DAV:  30    -0.353593755419E+02   -0.65031E-02   -0.26910E-04   190   0.109E-01    0.700E-02
DAV:  31    -0.353637590279E+02   -0.43835E-02   -0.12106E-04   184   0.866E-02    0.516E-02
DAV:  32    -0.353675503239E+02   -0.37913E-02   -0.96389E-05   180   0.779E-02    0.392E-02
DAV:  33    -0.353710772670E+02   -0.35269E-02   -0.12722E-04   184   0.918E-02    0.369E-02
DAV:  34    -0.353725263961E+02   -0.14491E-02   -0.56636E-05   180   0.606E-02    0.267E-02
DAV:  35    -0.353738689470E+02   -0.13426E-02   -0.68948E-05   170   0.467E-02    0.205E-02
DAV:  36    -0.353746287992E+02   -0.75985E-03   -0.42961E-05   180   0.451E-02    0.235E-02
DAV:  37    -0.353749675325E+02   -0.33873E-03   -0.19585E-05   184   0.393E-02    0.118E-02
DAV:  38    -0.353752971850E+02   -0.32965E-03   -0.15407E-05   176   0.269E-02    0.151E-02
DAV:  39    -0.353755542696E+02   -0.25708E-03   -0.84622E-06   176   0.215E-02    0.643E-03
DAV:  40    -0.353758117964E+02   -0.25753E-03   -0.71104E-06   180   0.157E-02    0.788E-03
DAV:  41    -0.353759978170E+02   -0.18602E-03   -0.40627E-06   168   0.124E-02    0.573E-03
DAV:  42    -0.353761631081E+02   -0.16529E-03   -0.33585E-06   166   0.107E-02    0.593E-03
DAV:  43    -0.353762929714E+02   -0.12986E-03   -0.23095E-06   166   0.661E-03    0.385E-03
DAV:  44    -0.353764192105E+02   -0.12624E-03   -0.20551E-06   158   0.598E-03    0.385E-03
DAV:  45    -0.353764937653E+02   -0.74555E-04   -0.13229E-06   168   0.625E-03
   1 F= -.35376494E+02 E0= -.35367686E+02  d E =-.353765E+02  mag=     9.4919
       N       E                     dE             d eps       ncg     rms          rms(c)
DAV:   1    -0.355709215932E+02   -0.19450E+00   -0.99393E+01   264   0.391E+01    0.411E+00
DAV:   2    -0.375228663683E+02   -0.19519E+01   -0.55503E+00   364   0.401E+01    0.291E+01
DAV:   3    -0.356515201118E+02    0.18713E+01   -0.48826E+00   294   0.314E+01    0.962E+00
DAV:   4    -0.357423365037E+02   -0.90816E-01   -0.15500E+00   368   0.170E+01    0.756E+00
DAV:   5    -0.357971110436E+02   -0.54775E-01   -0.80739E-01   326   0.130E+01    0.864E+00
DAV:   6    -0.356699534760E+02    0.12716E+00   -0.60897E-01   302   0.110E+01    0.252E+00
DAV:   7    -0.357282524947E+02   -0.58299E-01   -0.13905E-01   342   0.617E+00    0.409E+00
DAV:   8    -0.356986867348E+02    0.29566E-01   -0.97124E-02   304   0.508E+00    0.191E+00
DAV:   9    -0.357026510602E+02   -0.39643E-02   -0.54001E-02   304   0.366E+00    0.162E+00
DAV:  10    -0.357140614696E+02   -0.11410E-01   -0.34598E-02   326   0.352E+00    0.251E+00
DAV:  11    -0.357028292255E+02    0.11232E-01   -0.31406E-02   312   0.334E+00    0.138E+00
DAV:  12    -0.357069683400E+02   -0.41391E-02   -0.24780E-02   332   0.246E+00    0.125E+00
DAV:  13    -0.357051059365E+02    0.18624E-02   -0.97657E-03   296   0.208E+00    0.698E-01
DAV:  14    -0.357062780547E+02   -0.11721E-02   -0.33783E-03   346   0.107E+00    0.497E-01
DAV:  15    -0.357062099597E+02    0.68095E-04   -0.15270E-03   302   0.786E-01    0.316E-01
DAV:  16    -0.357066688854E+02   -0.45893E-03   -0.91300E-04   242   0.465E-01    0.125E-01
DAV:  17    -0.357071857428E+02   -0.51686E-03   -0.30301E-04   172   0.340E-01    0.187E-01
DAV:  18    -0.357071391403E+02    0.46603E-04   -0.22202E-04   176   0.297E-01
   2 F= -.35707139E+02 E0= -.35700937E+02  d E =-.330645E+00  mag=     9.4926
       N       E                     dE             d eps       ncg     rms          rms(c)
DAV:   1    -0.357136199008E+02   -0.64342E-02   -0.38138E+01   264   0.239E+01    0.253E+00
DAV:   2    -0.364496273066E+02   -0.73601E+00   -0.22841E+00   374   0.245E+01    0.187E+01
DAV:   3    -0.356795137100E+02    0.77011E+00   -0.18739E+00   292   0.209E+01    0.433E+00
DAV:   4    -0.357813514770E+02   -0.10184E+00   -0.47272E-01   368   0.104E+01    0.469E+00
DAV:   5    -0.357879400090E+02   -0.65885E-02   -0.28013E-01   302   0.732E+00    0.497E+00
DAV:   6    -0.357509695674E+02    0.36970E-01   -0.16360E-01   294   0.598E+00    0.129E+00
DAV:   7    -0.357730341823E+02   -0.22065E-01   -0.46675E-02   358   0.334E+00    0.234E+00
DAV:   8    -0.357628766254E+02    0.10158E-01   -0.34641E-02   294   0.312E+00    0.111E+00
DAV:   9    -0.357695907005E+02   -0.67141E-02   -0.34184E-02   334   0.281E+00    0.172E+00
DAV:  10    -0.357660451065E+02    0.35456E-02   -0.17049E-02   308   0.256E+00    0.125E+00
DAV:  11    -0.357649648535E+02    0.10803E-02   -0.83825E-03   294   0.190E+00    0.829E-01
DAV:  12    -0.357659108796E+02   -0.94603E-03   -0.83230E-03   338   0.131E+00    0.563E-01
DAV:  13    -0.357661113292E+02   -0.20045E-03   -0.22171E-03   296   0.975E-01    0.382E-01
DAV:  14    -0.357661995580E+02   -0.88229E-04   -0.96597E-04   274   0.498E-01
   3 F= -.35766200E+02 E0= -.35761379E+02  d E =-.389706E+00  mag=     9.4911
       N       E                     dE             d eps       ncg     rms          rms(c)
DAV:   1    -0.357807904286E+02   -0.14679E-01   -0.92034E+00   264   0.117E+01    0.144E+00
DAV:   2    -0.360626468173E+02   -0.28186E+00   -0.84027E-01   358   0.154E+01    0.119E+01
DAV:   3    -0.357439316282E+02    0.31872E+00   -0.90477E-01   320   0.139E+01    0.335E+00
DAV:   4    -0.357885813213E+02   -0.44650E-01   -0.16588E-01   372   0.523E+00    0.213E+00
DAV:   5    -0.358012770957E+02   -0.12696E-01   -0.72193E-02   316   0.409E+00    0.257E+00
DAV:   6    -0.357874209256E+02    0.13856E-01   -0.38300E-02   292   0.359E+00    0.813E-01
DAV:   7    -0.357911765703E+02   -0.37556E-02   -0.98957E-03   318   0.171E+00    0.777E-01
DAV:   8    -0.357906292453E+02    0.54733E-03   -0.55972E-03   300   0.121E+00    0.551E-01
DAV:   9    -0.357907155707E+02   -0.86325E-04   -0.37227E-03   294   0.101E+00    0.476E-01
DAV:  10    -0.357909657146E+02   -0.25014E-03   -0.38215E-03   302   0.101E+00    0.652E-01
DAV:  11    -0.357896446646E+02    0.13211E-02   -0.23540E-03   284   0.881E-01    0.288E-01
DAV:  12    -0.357902850171E+02   -0.64035E-03   -0.15025E-03   284   0.618E-01    0.319E-01
DAV:  13    -0.357901469385E+02    0.13808E-03   -0.87267E-04   246   0.529E-01    0.141E-01
DAV:  14    -0.357903711798E+02   -0.22424E-03   -0.16542E-04   164   0.294E-01    0.138E-01
DAV:  15    -0.357904099978E+02   -0.38818E-04   -0.11999E-04   160   0.228E-01
   4 F= -.35790410E+02 E0= -.35787458E+02  d E =-.242104E-01  mag=     9.4552
       N       E                     dE             d eps       ncg     rms          rms(c)
DAV:   1    -0.357829110096E+02    0.74602E-02   -0.13182E+01   264   0.140E+01    0.170E+00
DAV:   2    -0.361697147847E+02   -0.38680E+00   -0.11017E+00   352   0.184E+01    0.135E+01
DAV:   3    -0.357417091019E+02    0.42801E+00   -0.12051E+00   318   0.162E+01    0.367E+00
DAV:   4    -0.357937867688E+02   -0.52078E-01   -0.21796E-01   380   0.612E+00    0.238E+00
DAV:   5    -0.358090776599E+02   -0.15291E-01   -0.94904E-02   324   0.472E+00    0.301E+00
DAV:   6    -0.357900600937E+02    0.19018E-01   -0.64234E-02   294   0.421E+00    0.106E+00
DAV:   7    -0.357950731183E+02   -0.50130E-02   -0.16442E-02   300   0.206E+00    0.918E-01
DAV:   8    -0.357943101401E+02    0.76298E-03   -0.78227E-03   308   0.140E+00    0.676E-01
DAV:   9    -0.357941873252E+02    0.12281E-03   -0.42821E-03   300   0.121E+00    0.498E-01
DAV:  10    -0.357949463250E+02   -0.75900E-03   -0.38963E-03   316   0.111E+00    0.719E-01
DAV:  11    -0.357934956259E+02    0.14507E-02   -0.25801E-03   294   0.101E+00    0.342E-01
DAV:  12    -0.357947131821E+02   -0.12176E-02   -0.22537E-03   334   0.770E-01    0.398E-01
DAV:  13    -0.357946677889E+02    0.45393E-04   -0.13197E-03   286   0.672E-01    0.170E-01
DAV:  14    -0.357952964564E+02   -0.62867E-03   -0.25210E-04   164   0.358E-01    0.171E-01
DAV:  15    -0.357955304241E+02   -0.23397E-03   -0.19192E-04   168   0.284E-01    0.629E-02
DAV:  16    -0.357963404395E+02   -0.81002E-03   -0.68251E-05   172   0.119E-01    0.375E-02
DAV:  17    -0.357971092847E+02   -0.76885E-03   -0.45518E-05   172   0.729E-02    0.276E-02
DAV:  18    -0.357973916457E+02   -0.28236E-03   -0.25593E-05   160   0.727E-02    0.325E-02
DAV:  19    -0.357981062945E+02   -0.71465E-03   -0.23832E-05   172   0.574E-02    0.192E-02
DAV:  20    -0.357990769217E+02   -0.97063E-03   -0.30860E-05   180   0.290E-02    0.136E-02
DAV:  21    -0.357997490316E+02   -0.67211E-03   -0.17458E-05   176   0.188E-02    0.115E-02
DAV:  22    -0.358007731052E+02   -0.10241E-02   -0.19839E-05   172   0.197E-02    0.104E-02
DAV:  23    -0.358017577992E+02   -0.98469E-03   -0.24016E-05   182   0.156E-02    0.736E-03
DAV:  24    -0.358027325248E+02   -0.97473E-03   -0.19860E-05   184   0.146E-02    0.721E-03
DAV:  25    -0.358035308441E+02   -0.79832E-03   -0.19345E-05   184   0.144E-02    0.645E-03
DAV:  26    -0.358039956345E+02   -0.46479E-03   -0.10241E-05   184   0.147E-02    0.409E-03
DAV:  27    -0.358046262712E+02   -0.63064E-03   -0.19230E-05   184   0.115E-02    0.459E-03
DAV:  28    -0.358049132127E+02   -0.28694E-03   -0.84958E-06   184   0.104E-02    0.381E-03
DAV:  29    -0.358051255450E+02   -0.21233E-03   -0.57820E-06   184   0.940E-03    0.240E-03
DAV:  30    -0.358052224029E+02   -0.96858E-04   -0.24883E-06   160   0.625E-03
   5 F= -.35805222E+02 E0= -.35803918E+02  d E =-.390228E-01  mag=     9.3277
       N       E                     dE             d eps       ncg     rms          rms(c)
DAV:   1    -0.358045047272E+02    0.62082E-03   -0.62438E+00   264   0.960E+00    0.881E-01
DAV:   2    -0.358618517451E+02   -0.57347E-01   -0.21158E-01   384   0.690E+00    0.528E+00
DAV:   3    -0.357997076121E+02    0.62144E-01   -0.25551E-01   294   0.712E+00    0.118E+00
DAV:   4    -0.358244626715E+02   -0.24755E-01   -0.74786E-02   380   0.392E+00    0.249E+00
DAV:   5    -0.358104493087E+02    0.14013E-01   -0.44526E-02   292   0.325E+00    0.103E+00
DAV:   6    -0.358116644127E+02   -0.12151E-02   -0.94033E-03   374   0.140E+00    0.485E-01
DAV:   7    -0.358133807809E+02   -0.17164E-02   -0.53087E-03   340   0.111E+00    0.702E-01
DAV:   8    -0.358125210707E+02    0.85971E-03   -0.32962E-03   302   0.107E+00    0.448E-01
DAV:   9    -0.358130429925E+02   -0.52192E-03   -0.16300E-03   302   0.862E-01    0.521E-01
DAV:  10    -0.358123780831E+02    0.66491E-03   -0.17048E-03   294   0.777E-01    0.245E-01
DAV:  11    -0.358127289289E+02   -0.35085E-03   -0.87733E-04   240   0.515E-01    0.258E-01
DAV:  12    -0.358127910360E+02   -0.62107E-04   -0.42621E-04   174   0.359E-01
   6 F= -.35812791E+02 E0= -.35811616E+02  d E =-.756863E-02  mag=     9.3120
       N       E                     dE             d eps       ncg     rms          rms(c)
DAV:   1    -0.358125813669E+02    0.14756E-03   -0.33390E-01   266   0.223E+00    0.280E-01
DAV:   2    -0.358223851383E+02   -0.98038E-02   -0.32098E-02   348   0.291E+00    0.216E+00
DAV:   3    -0.358093230077E+02    0.13062E-01   -0.30889E-02   292   0.273E+00    0.304E-01
DAV:   4    -0.358131848761E+02   -0.38619E-02   -0.49887E-03   372   0.101E+00    0.552E-01
DAV:   5    -0.358126237091E+02    0.56117E-03   -0.22974E-03   292   0.733E-01    0.230E-01
DAV:   6    -0.358128716191E+02   -0.24791E-03   -0.49929E-04   180   0.351E-01    0.156E-01
DAV:   7    -0.358130241984E+02   -0.15258E-03   -0.43068E-04   158   0.292E-01    0.201E-01
DAV:   8    -0.358129812137E+02    0.42985E-04   -0.24521E-04   158   0.286E-01
   7 F= -.35812981E+02 E0= -.35811461E+02  d E =-.775881E-02  mag=     9.3042
       N       E                     dE             d eps       ncg     rms          rms(c)
DAV:   1    -0.358136707526E+02   -0.64655E-03   -0.12799E+00   264   0.433E+00    0.529E-01
DAV:   2    -0.358495071907E+02   -0.35836E-01   -0.10031E-01   326   0.542E+00    0.421E+00
DAV:   3    -0.358011556545E+02    0.48352E-01   -0.87180E-02   302   0.514E+00    0.106E+00
DAV:   4    -0.358135474533E+02   -0.12392E-01   -0.17278E-02   356   0.219E+00    0.746E-01
DAV:   5    -0.358160956706E+02   -0.25482E-02   -0.11455E-02   332   0.147E+00    0.944E-01
DAV:   6    -0.358142133248E+02    0.18823E-02   -0.53481E-03   300   0.121E+00    0.225E-01
DAV:   7    -0.358150689659E+02   -0.85564E-03   -0.81205E-04   278   0.521E-01    0.228E-01
DAV:   8    -0.358154972925E+02   -0.42833E-03   -0.10098E-03   220   0.477E-01    0.317E-01
DAV:   9    -0.358153632892E+02    0.13400E-03   -0.64654E-04   166   0.408E-01    0.271E-01
DAV:  10    -0.358153828141E+02   -0.19525E-04   -0.52728E-04   190   0.420E-01
   8 F= -.35815383E+02 E0= -.35813713E+02  d E =-.240160E-02  mag=     9.2950
       N       E                     dE             d eps       ncg     rms          rms(c)
DAV:   1    -0.358154223767E+02   -0.59087E-04   -0.46232E-01   264   0.262E+00    0.390E-01
DAV:   2    -0.358387776857E+02   -0.23355E-01   -0.62878E-02   310   0.423E+00    0.342E+00
DAV:   3    -0.358063823394E+02    0.32395E-01   -0.53055E-02   302   0.397E+00    0.847E-01
DAV:   4    -0.358143964593E+02   -0.80141E-02   -0.81111E-03   348   0.153E+00    0.391E-01
DAV:   5    -0.358164883408E+02   -0.20919E-02   -0.48705E-03   356   0.933E-01    0.600E-01
DAV:   6    -0.358156040963E+02    0.88424E-03   -0.25268E-03   292   0.777E-01    0.146E-01
DAV:   7    -0.358160948671E+02   -0.49077E-03   -0.28707E-04   172   0.350E-01    0.145E-01
DAV:   8    -0.358163737965E+02   -0.27893E-03   -0.34038E-04   180   0.323E-01    0.202E-01
DAV:   9    -0.358163272701E+02    0.46526E-04   -0.32471E-04   158   0.283E-01
   9 F= -.35816327E+02 E0= -.35814440E+02  d E =-.334606E-02  mag=     9.2888
       N       E                     dE             d eps       ncg     rms          rms(c)
DAV:   1    -0.358164915936E+02   -0.11780E-03   -0.74110E-01   264   0.330E+00    0.357E-01
DAV:   2    -0.358285034439E+02   -0.12012E-01   -0.40197E-02   358   0.338E+00    0.234E+00
DAV:   3    -0.358134122095E+02    0.15091E-01   -0.37118E-02   294   0.327E+00    0.540E-01
DAV:   4    -0.358183357834E+02   -0.49236E-02   -0.11921E-02   356   0.142E+00    0.994E-01
DAV:   5    -0.358163339885E+02    0.20018E-02   -0.47981E-03   292   0.106E+00    0.341E-01
DAV:   6    -0.358169481029E+02   -0.61411E-03   -0.12454E-03   252   0.505E-01    0.143E-01
DAV:   7    -0.358172946344E+02   -0.34653E-03   -0.44118E-04   180   0.385E-01    0.195E-01
DAV:   8    -0.358172191467E+02    0.75488E-04   -0.38372E-04   174   0.362E-01
  10 F= -.35817219E+02 E0= -.35814980E+02  d E =-.891877E-03  mag=     9.2807
       N       E                     dE             d eps       ncg     rms          rms(c)
DAV:   1    -0.358163649668E+02    0.92967E-03   -0.98604E-01   264   0.380E+00    0.360E-01
DAV:   2    -0.358243575440E+02   -0.79926E-02   -0.30112E-02   364   0.282E+00    0.196E+00
DAV:   3    -0.358140784958E+02    0.10279E-01   -0.33239E-02   292   0.293E+00    0.580E-01
DAV:   4    -0.358192821349E+02   -0.52036E-02   -0.13878E-02   364   0.167E+00    0.115E+00
DAV:   5    -0.358160898477E+02    0.31923E-02   -0.74787E-03   292   0.135E+00    0.474E-01
DAV:   6    -0.358167050541E+02   -0.61521E-03   -0.19881E-03   284   0.713E-01    0.146E-01
DAV:   7    -0.358172309153E+02   -0.52586E-03   -0.70651E-04   196   0.440E-01    0.271E-01
DAV:   8    -0.358170502947E+02    0.18062E-03   -0.59146E-04   204   0.429E-01    0.194E-01
DAV:   9    -0.358171456158E+02   -0.95321E-04   -0.26376E-04   168   0.339E-01
  11 F= -.35817146E+02 E0= -.35815094E+02  d E =-.818346E-03  mag=     9.2678
