 vasp.6.1.2 22Jul20 (build Aug  2 2021 21:04:21) gamma-only                      
 executed on             LinuxPGI date 2021.12.25  08:35:25
 running on   16 total cores
 distrk:  each k-point on   16 cores,    1 groups
 distr:  one band on NCORE=   8 cores,    2 groups


--------------------------------------------------------------------------------------------------------


 INCAR:
 POTCAR:    PAW_PBE Ni 02Aug2007                  
 -----------------------------------------------------------------------------
|                                                                             |
|           W    W    AA    RRRRR   N    N  II  N    N   GGGG   !!!           |
|           W    W   A  A   R    R  NN   N  II  NN   N  G    G  !!!           |
|           W    W  A    A  R    R  N N  N  II  N N  N  G       !!!           |
|           W WW W  AAAAAA  RRRRR   N  N N  II  N  N N  G  GGG   !            |
|           WW  WW  A    A  R   R   N   NN  II  N   NN  G    G                |
|           W    W  A    A  R    R  N    N  II  N    N   GGGG   !!!           |
|                                                                             |
|     You use a magnetic or noncollinear calculation, but did not specify     |
|     the initial magnetic moment with the MAGMOM tag. Note that a            |
|     default of 1 will be used for all atoms. This ferromagnetic setup       |
|     may break the symmetry of the crystal, in particular it may rule        |
|     out finding an antiferromagnetic solution. Thence, we recommend         |
|     setting the initial magnetic moment manually or verifying carefully     |
|     that this magnetic setup is desired.                                    |
|                                                                             |
 -----------------------------------------------------------------------------

 POTCAR:    PAW_PBE Ni 02Aug2007                  
   SHA256 =  0534bc51ca8003dfef23f56753fef9fdd3e22eac8d719fccacb59f3e6b7a69c7 Ni/POTCAR             
   COPYR  = (c) Copyright 02Aug2007 Georg Kresse                                                    
   COPYR  = This file is part of the software VASP. Any use, copying, and all other rights are regul
   COPYR  = If you do not have a valid VASP license, you may not use, copy or distribute this file. 
   VRHFIN =Ni:                                                                                      
   LEXCH  = PE                                                                                      
   EATOM  =  1077.6739 eV,   79.2068 Ry                                                             
                                                                                                    
   TITEL  = PAW_PBE Ni 02Aug2007                                                                    
   LULTRA =        F    use ultrasoft PP ?                                                          
   IUNSCR =        1    unscreen: 0-lin 1-nonlin 2-no                                               
   RPACOR =    2.000    partial core radius                                                         
   POMASS =   58.690; ZVAL   =   10.000    mass and valenz                                          
   RCORE  =    2.300    outmost cutoff radius                                                       
   RWIGS  =    2.430; RWIGS  =    1.286    wigner-seitz radius (au A)                               
   ENMAX  =  269.532; ENMIN  =  202.149 eV                                                          
   RCLOC  =    1.201    cutoff for local pot                                                        
   LCOR   =        T    correct aug charges                                                         
   LPAW   =        T    paw PP                                                                      
   EAUG   =  544.565                                                                                
   DEXC   =    0.000                                                                                
   RMAX   =    2.357    core radius for proj-oper                                                   
   RAUG   =    1.300    factor for augmentation sphere                                              
   RDEP   =    2.390    radius for radial grids                                                     
   RDEPT  =    1.838    core radius for aug-charge                                                  
                                                                                                    
   Atomic configuration                                                                             
    9 entries                                                                                       
     n  l   j            E        occ.                                                              
     1  0  0.50     -8206.4253   2.0000                                                             
     2  0  0.50      -976.1748   2.0000                                                             
     2  1  1.50      -839.0571   6.0000                                                             
     3  0  0.50      -105.9991   2.0000                                                             
     3  1  1.50       -66.4603   6.0000                                                             
     3  2  2.50        -4.6458   9.0000                                                             
     4  0  0.50        -4.4926   1.0000                                                             
     4  1  1.50        -4.0817   0.0000                                                             
     4  3  2.50        -1.3606   0.0000                                                             
   Description                                                                                      
     l       E           TYP  RCUT    TYP  RCUT                                                     
     2     -4.6457903     23  2.300                                                                 
     2     -6.0063729     23  2.300                                                                 
     0     -4.4925590     23  2.300                                                                 
     0      5.0102601     23  2.300                                                                 
     1     -2.7211652     23  2.300                                                                 
     1     16.5183231     23  2.300                                                                 
  local pseudopotential read in
  partial core-charges read in
  partial kinetic energy density read in
  atomic valenz-charges read in
  non local Contribution for L=            2  read in
    real space projection operators read in
  non local Contribution for L=            2  read in
    real space projection operators read in
  non local Contribution for L=            0  read in
    real space projection operators read in
  non local Contribution for L=            0  read in
    real space projection operators read in
  non local Contribution for L=            1  read in
    real space projection operators read in
  non local Contribution for L=            1  read in
    real space projection operators read in
    PAW grid and wavefunctions read in
 
   number of l-projection  operators is LMAX  =            6
   number of lm-projection operators is LMMAX =           18
 
  PAW_PBE Ni 02Aug2007                  :
 energy of atom  1       EATOM=-1077.6739
 kinetic energy error for atom=    0.0101 (will be added to EATOM!!)
 
 
 POSCAR: Ni
  positions in cartesian coordinates
  No initial velocities read in
 exchange correlation table for  LEXCH =        8
   RHO(1)=    0.500       N(1)  =     2000
   RHO(2)=  100.500       N(2)  =     4000
 


--------------------------------------------------------------------------------------------------------


 ion  position               nearest neighbor table
   1  0.520  0.526  0.552-   6 2.39   2 2.42   4 2.46   9 2.47   3 2.47   8 2.48
   2  0.435  0.554  0.598-   5 2.32   1 2.42   8 2.42   9 2.48
   3  0.503  0.459  0.468-   6 2.40  10 2.41   7 2.43   9 2.43   4 2.46   1 2.47   8 2.57
   4  0.538  0.429  0.570-   6 2.39  10 2.43   8 2.44   3 2.46   1 2.46
   5  0.374  0.591  0.528-   2 2.32   9 2.34
   6  0.594  0.481  0.501-   1 2.39   4 2.39   3 2.40
   7  0.407  0.440  0.466-   8 2.41  10 2.41   3 2.43   9 2.44
   8  0.444  0.461  0.566-   7 2.41   2 2.42  10 2.43   4 2.44   9 2.46   1 2.48   3 2.57
   9  0.438  0.531  0.486-   5 2.34   3 2.43   7 2.44   8 2.46   1 2.47   2 2.48
  10  0.469  0.378  0.515-   3 2.41   7 2.41   8 2.43   4 2.43
 

IMPORTANT INFORMATION: All symmetrisations will be switched off!
NOSYMM: (Re-)initialisation of all symmetry stuff for point group C_1.


----------------------------------------------------------------------------------------

                                     Primitive cell                                     

  volume of cell :   13178.1466

  direct lattice vectors                    reciprocal lattice vectors
    24.583015856  0.000000000  0.000000000     0.040678491  0.000000000  0.000000000
     0.000000000 24.839308643  0.000000000     0.000000000  0.040258769  0.000000000
     0.000000000  0.000000000 21.581402800     0.000000000  0.000000000  0.046336191

  length of vectors
    24.583015856 24.839308643 21.581402800     0.040678491  0.040258769  0.046336191

  position of ions in fractional coordinates (direct lattice)
     0.520090080  0.525521356  0.551579654
     0.435413556  0.554186681  0.597822594
     0.503380425  0.459220005  0.468398930
     0.538038880  0.429444867  0.569538456
     0.373849725  0.590598932  0.527836571
     0.594007850  0.481027248  0.500956124
     0.406691418  0.439661366  0.466125784
     0.444232853  0.461215428  0.566479192
     0.438131267  0.531272248  0.486088326
     0.469098984  0.377796826  0.515091283

  ion indices of the primitive-cell ions
   primitive index   ion index
                 1           1
                 2           2
                 3           3
                 4           4
                 5           5
                 6           6
                 7           7
                 8           8
                 9           9
                10          10

----------------------------------------------------------------------------------------

 
 
 KPOINTS: KPOINTS created by Atomic Simulation Env

Automatic generation of k-mesh.
Space group operators:
 irot       det(A)        alpha          n_x          n_y          n_z        tau_x        tau_y        tau_z
    1     1.000000     0.000000     1.000000     0.000000     0.000000     0.000000     0.000000     0.000000
 
 Subroutine IBZKPT returns following result:
 ===========================================
 
 Found      1 irreducible k-points:
 
 Following reciprocal coordinates:
            Coordinates               Weight
  0.000000  0.000000  0.000000      1.000000
 
 Following cartesian coordinates:
            Coordinates               Weight
  0.000000  0.000000  0.000000      1.000000
 


--------------------------------------------------------------------------------------------------------




 Dimension of arrays:
   k-points           NKPTS =      1   k-points in BZ     NKDIM =      1   number of bands    NBANDS=     66
   number of dos      NEDOS =    301   number of ions     NIONS =     10
   non local maximal  LDIM  =      6   non local SUM 2l+1 LMDIM =     18
   total plane-waves  NPLWV = ******
   max r-space proj   IRMAX =      1   max aug-charges    IRDMAX=   4216
   dimension x,y,z NGX =   120 NGY =  126 NGZ =  108
   dimension x,y,z NGXF=   240 NGYF=  252 NGZF=  216
   support grid    NGXF=   240 NGYF=  252 NGZF=  216
   ions per type =              10
   NGX,Y,Z   is equivalent  to a cutoff of   8.12,  8.43,  8.32 a.u.
   NGXF,Y,Z  is equivalent  to a cutoff of  16.23, 16.87, 16.64 a.u.

 SYSTEM =  unknown system                          
 POSCAR =  Ni                                      

 Startparameter for this run:
   NWRITE =      2    write-flag & timer
   PREC   = normal    normal or accurate (medium, high low for compatibility)
   ISTART =      0    job   : 0-new  1-cont  2-samecut
   ICHARG =      2    charge: 1-file 2-atom 10-const
   ISPIN  =      2    spin polarized calculation?
   LNONCOLLINEAR =      F non collinear calculations
   LSORBIT =      F    spin-orbit coupling
   INIWAV =      1    electr: 0-lowe 1-rand  2-diag
   LASPH  =      F    aspherical Exc in radial PAW
   METAGGA=      F    non-selfconsistent MetaGGA calc.

 Electronic Relaxation 1
   ENCUT  =  400.0 eV  29.40 Ry    5.42 a.u.  40.09 40.51 35.19*2*pi/ulx,y,z
   ENINI  =  400.0     initial cutoff
   ENAUG  =  544.6 eV  augmentation charge cutoff
   NELM   =     60;   NELMIN=  2; NELMDL=  0     # of ELM steps 
   EDIFF  = 0.1E-03   stopping-criterion for ELM
   LREAL  =      F    real-space projection
   NLSPLINE    = F    spline interpolate recip. space projectors
   LCOMPAT=      F    compatible to vasp.4.4
   GGA_COMPAT  = T    GGA compatible to vasp.4.4-vasp.4.6
   LMAXPAW     = -100 max onsite density
   LMAXMIX     =    2 max onsite mixed and CHGCAR
   VOSKOWN=      0    Vosko Wilk Nusair interpolation
   ROPT   =    0.00000
 Ionic relaxation
   EDIFFG = 0.1E-02   stopping-criterion for IOM
   NSW    =   1000    number of steps for IOM
   NBLOCK =      1;   KBLOCK =   1000    inner block; outer block 
   IBRION =      2    ionic relax: 0-MD 1-quasi-New 2-CG
   NFREE  =      1    steps in history (QN), initial steepest desc. (CG)
   ISIF   =      0    stress and relaxation
   IWAVPR =     11    prediction:  0-non 1-charg 2-wave 3-comb
   ISYM   =      0    0-nonsym 1-usesym 2-fastsym
   LCORR  =      T    Harris-Foulkes like correction to forces

   POTIM  = 0.5000    time-step for ionic-motion
   TEIN   =    0.0    initial temperature
   TEBEG  =    0.0;   TEEND  =   0.0 temperature during run
   SMASS  =  -3.00    Nose mass-parameter (am)
   estimated Nose-frequenzy (Omega)   =  0.10E-29 period in steps = 0.13E+47 mass=  -0.138E-25a.u.
   SCALEE = 1.0000    scale energy and forces
   NPACO  =    256;   APACO  = 16.0  distance and # of slots for P.C.
   PSTRESS=    0.0 pullay stress

  Mass of Ions in am
   POMASS =  58.69
  Ionic Valenz
   ZVAL   =  10.00
  Atomic Wigner-Seitz radii
   RWIGS  =  -1.00
  virtual crystal weights 
   VCA    =   1.00
   NELECT =     100.0000    total number of electrons
   NUPDOWN=      -1.0000    fix difference up-down

 DOS related values:
   EMIN   =  10.00;   EMAX   =-10.00  energy-range for DOS
   EFERMI =   0.00
   ISMEAR =     1;   SIGMA  =   0.20  broadening in eV -4-tet -1-fermi 0-gaus

 Electronic relaxation 2 (details)
   IALGO  =     38    algorithm
   LDIAG  =      T    sub-space diagonalisation (order eigenvalues)
   LSUBROT=      F    optimize rotation matrix (better conditioning)
   TURBO    =      0    0=normal 1=particle mesh
   IRESTART =      0    0=no restart 2=restart with 2 vectors
   NREBOOT  =      0    no. of reboots
   NMIN     =      0    reboot dimension
   EREF     =   0.00    reference energy to select bands
   IMIX   =      4    mixing-type and parameters
     AMIX     =   0.40;   BMIX     =  1.00
     AMIX_MAG =   1.60;   BMIX_MAG =  1.00
     AMIN     =   0.10
     WC   =   100.;   INIMIX=   1;  MIXPRE=   1;  MAXMIX= -45

 Intra band minimization:
   WEIMIN = 0.0010     energy-eigenvalue tresh-hold
   EBREAK =  0.38E-06  absolut break condition
   DEPER  =   0.30     relativ break condition  

   TIME   =   0.40     timestep for ELM

  volume/ion in A,a.u.               =    1317.81      8893.05
  Fermi-wavevector in a.u.,A,eV,Ry     =   0.321704  0.607933  1.408116  0.103494
  Thomas-Fermi vector in A             =   1.209434
 
 Write flags
   LWAVE        =      F    write WAVECAR
   LDOWNSAMPLE  =      F    k-point downsampling of WAVECAR
   LCHARG       =      F    write CHGCAR
   LVTOT        =      F    write LOCPOT, total local potential
   LVHAR        =      F    write LOCPOT, Hartree potential only
   LELF         =      F    write electronic localiz. function (ELF)
   LORBIT       =      0    0 simple, 1 ext, 2 COOP (PROOUT), +10 PAW based schemes


 Dipole corrections
   LMONO  =      F    monopole corrections only (constant potential shift)
   LDIPOL =      F    correct potential (dipole corrections)
   IDIPOL =      0    1-x, 2-y, 3-z, 4-all directions 
   EPSILON=  1.0000000 bulk dielectric constant

 Exchange correlation treatment:
   GGA     =    PE    GGA type
   LEXCH   =     8    internal setting for exchange type
   VOSKOWN=      0    Vosko Wilk Nusair interpolation
   LHFCALC =     F    Hartree Fock is set to
   LHFONE  =     F    Hartree Fock one center treatment
   AEXX    =    0.0000 exact exchange contribution

 Linear response parameters
   LEPSILON=     F    determine dielectric tensor
   LRPA    =     F    only Hartree local field effects (RPA)
   LNABLA  =     F    use nabla operator in PAW spheres
   LVEL    =     F    velocity operator in full k-point grid
   LINTERFAST=   F  fast interpolation
   KINTER  =     0    interpolate to denser k-point grid
   CSHIFT  =0.1000    complex shift for real part using Kramers Kronig
   OMEGAMAX=  -1.0    maximum frequency
   DEG_THRESHOLD= 0.2000000E-02 threshold for treating states as degnerate
   RTIME   =   -0.100 relaxation time in fs
  (WPLASMAI=    0.000 imaginary part of plasma frequency in eV, 0.658/RTIME)
   DFIELD  = 0.0000000 0.0000000 0.0000000 field for delta impulse in time
 
 Orbital magnetization related:
   ORBITALMAG=     F  switch on orbital magnetization
   LCHIMAG   =     F  perturbation theory with respect to B field
   DQ        =  0.001000  dq finite difference perturbation B field
   LLRAUG    =     F  two centre corrections for induced B field



--------------------------------------------------------------------------------------------------------


 conjugate gradient relaxation of ions
 charge density and potential will be updated during run
 spin polarized calculation
 Variant of blocked Davidson
 Davidson routine will perform the subspace rotation
 perform sub-space diagonalisation
    after iterative eigenvector-optimisation
 modified Broyden-mixing scheme, WC =      100.0
 initial mixing is a Kerker type mixing with AMIX =  0.4000 and BMIX =      1.0000
 Hartree-type preconditioning will be used
 using additional bands            16
 reciprocal scheme for non local part
 use partial core corrections
 calculate Harris-corrections to forces 
   (improved forces if not selfconsistent)
 use gradient corrections 
 use of overlap-Matrix (Vanderbilt PP)
 Methfessel and Paxton  Order N= 1 SIGMA  =   0.20


--------------------------------------------------------------------------------------------------------


  energy-cutoff  :      400.00
  volume of cell :    13178.15
      direct lattice vectors                 reciprocal lattice vectors
    24.583015856  0.000000000  0.000000000     0.040678491  0.000000000  0.000000000
     0.000000000 24.839308643  0.000000000     0.000000000  0.040258769  0.000000000
     0.000000000  0.000000000 21.581402800     0.000000000  0.000000000  0.046336191

  length of vectors
    24.583015856 24.839308643 21.581402800     0.040678491  0.040258769  0.046336191


 
 k-points in units of 2pi/SCALE and weight: KPOINTS created by Atomic Simulation Env
   0.00000000  0.00000000  0.00000000       1.000
 
 k-points in reciprocal lattice and weights: KPOINTS created by Atomic Simulation Env
   0.00000000  0.00000000  0.00000000       1.000
 
 position of ions in fractional coordinates (direct lattice) 
   0.52009008  0.52552136  0.55157965
   0.43541356  0.55418668  0.59782259
   0.50338042  0.45922000  0.46839893
   0.53803888  0.42944487  0.56953846
   0.37384973  0.59059893  0.52783657
   0.59400785  0.48102725  0.50095612
   0.40669142  0.43966137  0.46612578
   0.44423285  0.46121543  0.56647919
   0.43813127  0.53127225  0.48608833
   0.46909898  0.37779683  0.51509128
 
 position of ions in cartesian coordinates  (Angst):
  12.78538268 13.05358716 11.90386268
  10.70377835 13.76561401 12.90185020
  12.37460896 11.40670743 10.10870597
  13.22661831 10.66711359 12.29143882
   9.19035373 14.67006917 11.39145365
  14.60250440 11.94838428 10.81133590
   9.99770157 10.92088438 10.05964829
  10.92058328 11.45627238 12.22541561
  10.77058788 13.19643533 10.49046796
  11.53186775  9.38421196 11.11639247
 


--------------------------------------------------------------------------------------------------------


 use parallel FFT for orbitals z direction half grid
 k-point   1 :   0.0000 0.0000 0.0000  plane waves:  119660

 maximum and minimum number of plane-waves per node :     14961    14954

 maximum number of plane-waves:    119660
 maximum index in each direction: 
   IXMAX=   40   IYMAX=   40   IZMAX=   35
   IXMIN=  -40   IYMIN=  -40   IZMIN=    0


 parallel 3D FFT for wavefunctions:
    minimum data exchange during FFTs selected (reduces bandwidth)
 parallel 3D FFT for charge:
    minimum data exchange during FFTs selected (reduces bandwidth)


 total amount of memory used by VASP MPI-rank0   158065. kBytes
=======================================================================

   base      :      30000. kBytes
   nonl-proj :       4548. kBytes
   fftplans  :      32062. kBytes
   grid      :      75606. kBytes
   one-center:         31. kBytes
   wavefun   :      15818. kBytes
 
     INWAV:  cpu time    0.0000: real time    0.0000
 Broyden mixing: mesh for mixing (old mesh)
   NGX = 81   NGY = 81   NGZ = 71
  (NGX  =240   NGY  =252   NGZ  =216)
  gives a total of 465831 points

 initial charge density was supplied:
 charge density of overlapping atoms calculated
 number of electron     100.0000000 magnetization      10.0000000
 keeping initial charge density in first step


--------------------------------------------------------------------------------------------------------


 Maximum index for augmentation-charges           304 (set IRDMAX)


--------------------------------------------------------------------------------------------------------


 First call to EWALD:  gamma=   0.075
 Maximum number of real-space cells 3x 3x 3
 Maximum number of reciprocal cells 3x 3x 3

    FEWALD:  cpu time    0.0032: real time    0.0032


--------------------------------------- Iteration      1(   1)  ---------------------------------------


    POTLOK:  cpu time    2.8354: real time    2.8460
    SETDIJ:  cpu time    0.0234: real time    0.0234
     EDDAV:  cpu time    6.7547: real time    6.7619
       DOS:  cpu time    0.0015: real time    0.0015
    --------------------------------------------
      LOOP:  cpu time    9.6150: real time    9.6328

 eigenvalue-minimisations  :   264
 total energy-change (2. order) : 0.6310836E+03  (-0.1550131E+04)
 number of electron     100.0000000 magnetization      10.0000000
 augmentation part      100.0000000 magnetization      10.0000000

 Free energy of the ion-electron system (eV)
  ---------------------------------------------------
  alpha Z        PSCENC =         3.86999799
  Ewald energy   TEWEN  =     12749.47637527
  -Hartree energ DENC   =    -22601.58549930
  -exchange      EXHF   =         0.00000000
  -V(xc)+E(xc)   XCENC  =       304.45863231
  PAW double counting   =      9628.33173603   -10296.70712275
  entropy T*S    EENTRO =         0.03281481
  eigenvalues    EBANDS =        66.56826200
  atomic energy  EATOM  =     10776.63837129
  Solvation  Ediel_sol  =         0.00000000
  ---------------------------------------------------
  free energy    TOTEN  =       631.08356765 eV

  energy without entropy =      631.05075284  energy(sigma->0) =      631.07262938


--------------------------------------------------------------------------------------------------------




--------------------------------------- Iteration      1(   2)  ---------------------------------------


     EDDAV:  cpu time   10.9297: real time   11.0042
       DOS:  cpu time    0.0057: real time    0.0057
    --------------------------------------------
      LOOP:  cpu time   10.9354: real time   11.0100

 eigenvalue-minimisations  :   488
 total energy-change (2. order) :-0.5075836E+03  (-0.4694365E+03)
 number of electron     100.0000000 magnetization      10.0000000
 augmentation part      100.0000000 magnetization      10.0000000

 Free energy of the ion-electron system (eV)
  ---------------------------------------------------
  alpha Z        PSCENC =         3.86999799
  Ewald energy   TEWEN  =     12749.47637527
  -Hartree energ DENC   =    -22601.58549930
  -exchange      EXHF   =         0.00000000
  -V(xc)+E(xc)   XCENC  =       304.45863231
  PAW double counting   =      9628.33173603   -10296.70712275
  entropy T*S    EENTRO =        -0.04570808
  eigenvalues    EBANDS =      -440.93685628
  atomic energy  EATOM  =     10776.63837129
  Solvation  Ediel_sol  =         0.00000000
  ---------------------------------------------------
  free energy    TOTEN  =       123.49992648 eV

  energy without entropy =      123.54563456  energy(sigma->0) =      123.51516251


--------------------------------------------------------------------------------------------------------




--------------------------------------- Iteration      1(   3)  ---------------------------------------


     EDDAV:  cpu time    7.4844: real time    7.4974
       DOS:  cpu time    0.0013: real time    0.0013
    --------------------------------------------
      LOOP:  cpu time    7.4857: real time    7.4987

 eigenvalue-minimisations  :   304
 total energy-change (2. order) :-0.1485169E+03  (-0.1377181E+03)
 number of electron     100.0000000 magnetization      10.0000000
 augmentation part      100.0000000 magnetization      10.0000000

 Free energy of the ion-electron system (eV)
  ---------------------------------------------------
  alpha Z        PSCENC =         3.86999799
  Ewald energy   TEWEN  =     12749.47637527
  -Hartree energ DENC   =    -22601.58549930
  -exchange      EXHF   =         0.00000000
  -V(xc)+E(xc)   XCENC  =       304.45863231
  PAW double counting   =      9628.33173603   -10296.70712275
  entropy T*S    EENTRO =        -0.00069651
  eigenvalues    EBANDS =      -589.49878435
  atomic energy  EATOM  =     10776.63837129
  Solvation  Ediel_sol  =         0.00000000
  ---------------------------------------------------
  free energy    TOTEN  =       -25.01699001 eV

  energy without entropy =      -25.01629350  energy(sigma->0) =      -25.01675784


--------------------------------------------------------------------------------------------------------




--------------------------------------- Iteration      1(   4)  ---------------------------------------


     EDDAV:  cpu time    7.3139: real time    7.3224
       DOS:  cpu time    0.0075: real time    0.0075
    --------------------------------------------
      LOOP:  cpu time    7.3214: real time    7.3299

 eigenvalue-minimisations  :   294
 total energy-change (2. order) :-0.1555283E+02  (-0.1381795E+02)
 number of electron     100.0000000 magnetization      10.0000000
 augmentation part      100.0000000 magnetization      10.0000000

 Free energy of the ion-electron system (eV)
  ---------------------------------------------------
  alpha Z        PSCENC =         3.86999799
  Ewald energy   TEWEN  =     12749.47637527
  -Hartree energ DENC   =    -22601.58549930
  -exchange      EXHF   =         0.00000000
  -V(xc)+E(xc)   XCENC  =       304.45863231
  PAW double counting   =      9628.33173603   -10296.70712275
  entropy T*S    EENTRO =        -0.01621884
  eigenvalues    EBANDS =      -605.03609022
  atomic energy  EATOM  =     10776.63837129
  Solvation  Ediel_sol  =         0.00000000
  ---------------------------------------------------
  free energy    TOTEN  =       -40.56981822 eV

  energy without entropy =      -40.55359938  energy(sigma->0) =      -40.56441194


--------------------------------------------------------------------------------------------------------




--------------------------------------- Iteration      1(   5)  ---------------------------------------


     EDDAV:  cpu time    7.7467: real time    7.7598
       DOS:  cpu time    0.0064: real time    0.0064
    CHARGE:  cpu time    0.7131: real time    0.7138
    MIXING:  cpu time    0.0440: real time    0.0441
    --------------------------------------------
      LOOP:  cpu time    8.5102: real time    8.5241

 eigenvalue-minimisations  :   318
 total energy-change (2. order) :-0.4774013E+00  (-0.4697259E+00)
 number of electron      99.9999802 magnetization       9.9777290
 augmentation part       59.3035600 magnetization       7.7993503

 Broyden mixing:
  rms(total) = 0.20267E+01    rms(broyden)= 0.20259E+01
  rms(prec ) = 0.21246E+01
  weight for this iteration     100.00

 Free energy of the ion-electron system (eV)
  ---------------------------------------------------
  alpha Z        PSCENC =         3.86999799
  Ewald energy   TEWEN  =     12749.47637527
  -Hartree energ DENC   =    -22601.58549930
  -exchange      EXHF   =         0.00000000
  -V(xc)+E(xc)   XCENC  =       304.45863231
  PAW double counting   =      9628.33173603   -10296.70712275
  entropy T*S    EENTRO =        -0.01871442
  eigenvalues    EBANDS =      -605.51099593
  atomic energy  EATOM  =     10776.63837129
  Solvation  Ediel_sol  =         0.00000000
  ---------------------------------------------------
  free energy    TOTEN  =       -41.04721950 eV

  energy without entropy =      -41.02850509  energy(sigma->0) =      -41.04098136


--------------------------------------------------------------------------------------------------------




--------------------------------------- Iteration      1(   6)  ---------------------------------------


    POTLOK:  cpu time    2.7738: real time    2.7842
    SETDIJ:  cpu time    0.0245: real time    0.0245
     EDDAV:  cpu time    7.4351: real time    7.4435
       DOS:  cpu time    0.0079: real time    0.0079
    CHARGE:  cpu time    0.7213: real time    0.7243
    MIXING:  cpu time    0.0469: real time    0.0469
    --------------------------------------------
      LOOP:  cpu time   11.0095: real time   11.0314

 eigenvalue-minimisations  :   304
 total energy-change (2. order) :-0.4552222E+01  (-0.5494728E+01)
 number of electron      99.9999772 magnetization       9.9191115
 augmentation part       63.8356544 magnetization       8.5267881

 Broyden mixing:
  rms(total) = 0.48228E+01    rms(broyden)= 0.48223E+01
  rms(prec ) = 0.50647E+01
  weight for this iteration     100.00

 eigenvalues of (default mixing * dielectric matrix)
  average eigenvalue GAMMA=   0.2042
  0.2042

 Free energy of the ion-electron system (eV)
  ---------------------------------------------------
  alpha Z        PSCENC =         3.86999799
  Ewald energy   TEWEN  =     12749.47637527
  -Hartree energ DENC   =    -22494.30175711
  -exchange      EXHF   =         0.00000000
  -V(xc)+E(xc)   XCENC  =       297.71855398
  PAW double counting   =      9925.47821171   -10568.21173349
  entropy T*S    EENTRO =        -0.02365689
  eigenvalues    EBANDS =      -736.24380456
  atomic energy  EATOM  =     10776.63837129
  Solvation  Ediel_sol  =         0.00000000
  ---------------------------------------------------
  free energy    TOTEN  =       -45.59944182 eV

  energy without entropy =      -45.57578492  energy(sigma->0) =      -45.59155619


--------------------------------------------------------------------------------------------------------




--------------------------------------- Iteration      1(   7)  ---------------------------------------


    POTLOK:  cpu time    2.8465: real time    2.8497
    SETDIJ:  cpu time    0.0253: real time    0.0253
     EDDAV:  cpu time    7.1548: real time    7.1630
       DOS:  cpu time    0.0080: real time    0.0080
    CHARGE:  cpu time    0.7341: real time    0.7349
    MIXING:  cpu time    0.0508: real time    0.0509
    --------------------------------------------
      LOOP:  cpu time   10.8195: real time   10.8318

 eigenvalue-minimisations  :   288
 total energy-change (2. order) : 0.5498159E+01  (-0.5239666E+01)
 number of electron      99.9999823 magnetization       9.8495324
 augmentation part       64.6594916 magnetization       8.4230151

 Broyden mixing:
  rms(total) = 0.28627E+01    rms(broyden)= 0.28616E+01
  rms(prec ) = 0.29954E+01
  weight for this iteration     100.00

 eigenvalues of (default mixing * dielectric matrix)
  average eigenvalue GAMMA=   0.2400
  0.3185  0.1616

 Free energy of the ion-electron system (eV)
  ---------------------------------------------------
  alpha Z        PSCENC =         3.86999799
  Ewald energy   TEWEN  =     12749.47637527
  -Hartree energ DENC   =    -22508.51466824
  -exchange      EXHF   =         0.00000000
  -V(xc)+E(xc)   XCENC  =       298.19835673
  PAW double counting   =     10007.52685759   -10656.79417369
  entropy T*S    EENTRO =        -0.00242925
  eigenvalues    EBANDS =      -710.49997044
  atomic energy  EATOM  =     10776.63837129
  Solvation  Ediel_sol  =         0.00000000
  ---------------------------------------------------
  free energy    TOTEN  =       -40.10128275 eV

  energy without entropy =      -40.09885349  energy(sigma->0) =      -40.10047299


--------------------------------------------------------------------------------------------------------




--------------------------------------- Iteration      1(   8)  ---------------------------------------


    POTLOK:  cpu time    2.8554: real time    2.8732
    SETDIJ:  cpu time    0.0241: real time    0.0241
     EDDAV:  cpu time    7.3561: real time    7.3666
       DOS:  cpu time    0.0091: real time    0.0091
    CHARGE:  cpu time    0.7302: real time    0.7309
    MIXING:  cpu time    0.0543: real time    0.0544
    --------------------------------------------
      LOOP:  cpu time   11.0291: real time   11.0584

 eigenvalue-minimisations  :   300
 total energy-change (2. order) : 0.6348363E-02  (-0.2679684E+01)
 number of electron      99.9999784 magnetization       9.7985926
 augmentation part       63.3747539 magnetization       8.1337993

 Broyden mixing:
  rms(total) = 0.41957E+01    rms(broyden)= 0.41951E+01
  rms(prec ) = 0.44428E+01
  weight for this iteration     100.00

 eigenvalues of (default mixing * dielectric matrix)
  average eigenvalue GAMMA=   0.2557
  0.4980  0.1345  0.1345

 Free energy of the ion-electron system (eV)
  ---------------------------------------------------
  alpha Z        PSCENC =         3.86999799
  Ewald energy   TEWEN  =     12749.47637527
  -Hartree energ DENC   =    -22552.10022395
  -exchange      EXHF   =         0.00000000
  -V(xc)+E(xc)   XCENC  =       299.39652590
  PAW double counting   =     10133.56026287   -10794.01159315
  entropy T*S    EENTRO =         0.00963249
  eigenvalues    EBANDS =      -656.93428309
  atomic energy  EATOM  =     10776.63837129
  Solvation  Ediel_sol  =         0.00000000
  ---------------------------------------------------
  free energy    TOTEN  =       -40.09493438 eV

  energy without entropy =      -40.10456687  energy(sigma->0) =      -40.09814521


--------------------------------------------------------------------------------------------------------




--------------------------------------- Iteration      1(   9)  ---------------------------------------


    POTLOK:  cpu time    2.8480: real time    2.8540
    SETDIJ:  cpu time    0.0241: real time    0.0241
     EDDAV:  cpu time    7.6387: real time    7.6473
       DOS:  cpu time    0.0098: real time    0.0098
    CHARGE:  cpu time    0.7353: real time    0.7361
    MIXING:  cpu time    0.0561: real time    0.0562
    --------------------------------------------
      LOOP:  cpu time   11.3121: real time   11.3275

 eigenvalue-minimisations  :   316
 total energy-change (2. order) : 0.2221770E+01  (-0.2080028E+01)
 number of electron      99.9999766 magnetization       9.7768344
 augmentation part       62.7665879 magnetization       7.6746020

 Broyden mixing:
  rms(total) = 0.37467E+01    rms(broyden)= 0.37463E+01
  rms(prec ) = 0.39894E+01
  weight for this iteration     100.00

 eigenvalues of (default mixing * dielectric matrix)
  average eigenvalue GAMMA=   0.2369
  0.5501  0.1613  0.1613  0.0747

 Free energy of the ion-electron system (eV)
  ---------------------------------------------------
  alpha Z        PSCENC =         3.86999799
  Ewald energy   TEWEN  =     12749.47637527
  -Hartree energ DENC   =    -22579.73191590
  -exchange      EXHF   =         0.00000000
  -V(xc)+E(xc)   XCENC  =       300.06283630
  PAW double counting   =     10222.60037433   -10890.25397105
  entropy T*S    EENTRO =         0.00047859
  eigenvalues    EBANDS =      -620.53571141
  atomic energy  EATOM  =     10776.63837129
  Solvation  Ediel_sol  =         0.00000000
  ---------------------------------------------------
  free energy    TOTEN  =       -37.87316458 eV

  energy without entropy =      -37.87364317  energy(sigma->0) =      -37.87332411


--------------------------------------------------------------------------------------------------------




--------------------------------------- Iteration      1(  10)  ---------------------------------------


    POTLOK:  cpu time    2.8553: real time    2.8606
    SETDIJ:  cpu time    0.0243: real time    0.0243
     EDDAV:  cpu time    7.8144: real time    7.8258
       DOS:  cpu time    0.0092: real time    0.0092
    CHARGE:  cpu time    0.7227: real time    0.7257
    MIXING:  cpu time    0.0620: real time    0.0621
    --------------------------------------------
      LOOP:  cpu time   11.4879: real time   11.5077

 eigenvalue-minimisations  :   324
 total energy-change (2. order) : 0.1332957E+01  (-0.1463926E+01)
 number of electron      99.9999834 magnetization       9.7538604
 augmentation part       62.5322261 magnetization       7.5703811

 Broyden mixing:
  rms(total) = 0.29202E+01    rms(broyden)= 0.29196E+01
  rms(prec ) = 0.30847E+01
  weight for this iteration     100.00

 eigenvalues of (default mixing * dielectric matrix)
  average eigenvalue GAMMA=   0.2337
  0.6041  0.1999  0.1999  0.0980  0.0668

 Free energy of the ion-electron system (eV)
  ---------------------------------------------------
  alpha Z        PSCENC =         3.86999799
  Ewald energy   TEWEN  =     12749.47637527
  -Hartree energ DENC   =    -22588.15089240
  -exchange      EXHF   =         0.00000000
  -V(xc)+E(xc)   XCENC  =       300.17282320
  PAW double counting   =     10263.13830953   -10933.35723138
  entropy T*S    EENTRO =        -0.07604606
  eigenvalues    EBANDS =      -608.25191539
  atomic energy  EATOM  =     10776.63837129
  Solvation  Ediel_sol  =         0.00000000
  ---------------------------------------------------
  free energy    TOTEN  =       -36.54020793 eV

  energy without entropy =      -36.46416187  energy(sigma->0) =      -36.51485925


--------------------------------------------------------------------------------------------------------




--------------------------------------- Iteration      1(  11)  ---------------------------------------


    POTLOK:  cpu time    2.8573: real time    2.8646
    SETDIJ:  cpu time    0.0249: real time    0.0250
     EDDAV:  cpu time    8.6950: real time    8.7062
       DOS:  cpu time    0.0008: real time    0.0008
    CHARGE:  cpu time    0.7216: real time    0.7223
    MIXING:  cpu time    0.0736: real time    0.0737
    --------------------------------------------
      LOOP:  cpu time   12.3732: real time   12.3926

 eigenvalue-minimisations  :   372
 total energy-change (2. order) : 0.2036388E+00  (-0.6197571E+00)
 number of electron      99.9999823 magnetization       9.7170028
 augmentation part       62.1315379 magnetization       7.4004067

 Broyden mixing:
  rms(total) = 0.22480E+01    rms(broyden)= 0.22475E+01
  rms(prec ) = 0.23591E+01
  weight for this iteration     100.00

 eigenvalues of (default mixing * dielectric matrix)
  average eigenvalue GAMMA=   0.3004
  0.8680  0.4875  0.1303  0.1303  0.1172  0.0688

 Free energy of the ion-electron system (eV)
  ---------------------------------------------------
  alpha Z        PSCENC =         3.86999799
  Ewald energy   TEWEN  =     12749.47637527
  -Hartree energ DENC   =    -22595.58166828
  -exchange      EXHF   =         0.00000000
  -V(xc)+E(xc)   XCENC  =       300.27509357
  PAW double counting   =     10309.04543190   -10981.50251215
  entropy T*S    EENTRO =        -0.03710179
  eigenvalues    EBANDS =      -598.52055697
  atomic energy  EATOM  =     10776.63837129
  Solvation  Ediel_sol  =         0.00000000
  ---------------------------------------------------
  free energy    TOTEN  =       -36.33656917 eV

  energy without entropy =      -36.29946738  energy(sigma->0) =      -36.32420191


--------------------------------------------------------------------------------------------------------




--------------------------------------- Iteration      1(  12)  ---------------------------------------


    POTLOK:  cpu time    2.8509: real time    2.8577
    SETDIJ:  cpu time    0.0264: real time    0.0264
     EDDAV:  cpu time    7.2467: real time    7.2548
       DOS:  cpu time    0.0009: real time    0.0009
    CHARGE:  cpu time    0.7090: real time    0.7098
    MIXING:  cpu time    0.0735: real time    0.0736
    --------------------------------------------
      LOOP:  cpu time   10.9074: real time   10.9232

 eigenvalue-minimisations  :   294
 total energy-change (2. order) :-0.1297659E+00  (-0.6563647E+00)
 number of electron      99.9999784 magnetization       9.7095478
 augmentation part       62.1989757 magnetization       7.5062523

 Broyden mixing:
  rms(total) = 0.30295E+01    rms(broyden)= 0.30293E+01
  rms(prec ) = 0.32072E+01
  weight for this iteration     100.00

 eigenvalues of (default mixing * dielectric matrix)
  average eigenvalue GAMMA=   0.2847
  0.9748  0.4806  0.1402  0.1402  0.0945  0.0945  0.0681

 Free energy of the ion-electron system (eV)
  ---------------------------------------------------
  alpha Z        PSCENC =         3.86999799
  Ewald energy   TEWEN  =     12749.47637527
  -Hartree energ DENC   =    -22599.70831043
  -exchange      EXHF   =         0.00000000
  -V(xc)+E(xc)   XCENC  =       300.30799200
  PAW double counting   =     10402.20571556   -11078.07648129
  entropy T*S    EENTRO =        -0.00275675
  eigenvalues    EBANDS =      -591.17723867
  atomic energy  EATOM  =     10776.63837129
  Solvation  Ediel_sol  =         0.00000000
  ---------------------------------------------------
  free energy    TOTEN  =       -36.46633503 eV

  energy without entropy =      -36.46357827  energy(sigma->0) =      -36.46541611


--------------------------------------------------------------------------------------------------------




--------------------------------------- Iteration      1(  13)  ---------------------------------------


    POTLOK:  cpu time    2.8418: real time    2.8493
    SETDIJ:  cpu time    0.0246: real time    0.0246
     EDDAV:  cpu time    7.4993: real time    7.5076
       DOS:  cpu time    0.0008: real time    0.0008
    CHARGE:  cpu time    0.7234: real time    0.7241
    MIXING:  cpu time    0.0789: real time    0.0790
    --------------------------------------------
      LOOP:  cpu time   11.1688: real time   11.1854

 eigenvalue-minimisations  :   308
 total energy-change (2. order) : 0.1077816E+01  (-0.3881887E+00)
 number of electron      99.9999782 magnetization       9.7007919
 augmentation part       62.1376457 magnetization       7.6350559

 Broyden mixing:
  rms(total) = 0.19054E+01    rms(broyden)= 0.19051E+01
  rms(prec ) = 0.20042E+01
  weight for this iteration     100.00

 eigenvalues of (default mixing * dielectric matrix)
  average eigenvalue GAMMA=   0.2877
  1.0622  0.4082  0.2340  0.2340  0.1125  0.1125  0.0692  0.0692

 Free energy of the ion-electron system (eV)
  ---------------------------------------------------
  alpha Z        PSCENC =         3.86999799
  Ewald energy   TEWEN  =     12749.47637527
  -Hartree energ DENC   =    -22601.90367457
  -exchange      EXHF   =         0.00000000
  -V(xc)+E(xc)   XCENC  =       300.34300656
  PAW double counting   =     10419.65923837   -11096.38250819
  entropy T*S    EENTRO =        -0.02486250
  eigenvalues    EBANDS =      -587.06446369
  atomic energy  EATOM  =     10776.63837129
  Solvation  Ediel_sol  =         0.00000000
  ---------------------------------------------------
  free energy    TOTEN  =       -35.38851947 eV

  energy without entropy =      -35.36365697  energy(sigma->0) =      -35.38023197


--------------------------------------------------------------------------------------------------------




--------------------------------------- Iteration      1(  14)  ---------------------------------------


    POTLOK:  cpu time    2.8389: real time    2.8451
    SETDIJ:  cpu time    0.0249: real time    0.0249
     EDDAV:  cpu time    8.2530: real time    8.2665
       DOS:  cpu time    0.0008: real time    0.0008
    CHARGE:  cpu time    0.7263: real time    0.7271
    MIXING:  cpu time    0.0872: real time    0.0873
    --------------------------------------------
      LOOP:  cpu time   11.9312: real time   11.9517

 eigenvalue-minimisations  :   348
 total energy-change (2. order) : 0.1845625E+00  (-0.1358471E+00)
 number of electron      99.9999780 magnetization       9.6937855
 augmentation part       62.0851905 magnetization       7.6932050

 Broyden mixing:
  rms(total) = 0.12216E+01    rms(broyden)= 0.12211E+01
  rms(prec ) = 0.12829E+01
  weight for this iteration     100.00

 eigenvalues of (default mixing * dielectric matrix)
  average eigenvalue GAMMA=   0.2725
  1.1103  0.3005  0.2884  0.2884  0.1152  0.1152  0.0958  0.0695  0.0695

 Free energy of the ion-electron system (eV)
  ---------------------------------------------------
  alpha Z        PSCENC =         3.86999799
  Ewald energy   TEWEN  =     12749.47637527
  -Hartree energ DENC   =    -22604.29331375
  -exchange      EXHF   =         0.00000000
  -V(xc)+E(xc)   XCENC  =       300.39264422
  PAW double counting   =     10437.95731446   -11115.51377284
  entropy T*S    EENTRO =        -0.04812591
  eigenvalues    EBANDS =      -583.68344776
  atomic energy  EATOM  =     10776.63837129
  Solvation  Ediel_sol  =         0.00000000
  ---------------------------------------------------
  free energy    TOTEN  =       -35.20395702 eV

  energy without entropy =      -35.15583111  energy(sigma->0) =      -35.18791505


--------------------------------------------------------------------------------------------------------




--------------------------------------- Iteration      1(  15)  ---------------------------------------


    POTLOK:  cpu time    2.8349: real time    2.8390
    SETDIJ:  cpu time    0.0241: real time    0.0241
     EDDAV:  cpu time    7.5630: real time    7.5737
       DOS:  cpu time    0.0008: real time    0.0008
    CHARGE:  cpu time    0.7211: real time    0.7219
    MIXING:  cpu time    0.0936: real time    0.0937
    --------------------------------------------
      LOOP:  cpu time   11.2375: real time   11.2532

 eigenvalue-minimisations  :   310
 total energy-change (2. order) : 0.1084255E+00  (-0.7560176E-01)
 number of electron      99.9999789 magnetization       9.6732364
 augmentation part       62.1126709 magnetization       7.6827711

 Broyden mixing:
  rms(total) = 0.95081E+00    rms(broyden)= 0.95038E+00
  rms(prec ) = 0.10021E+01
  weight for this iteration     100.00

 eigenvalues of (default mixing * dielectric matrix)
  average eigenvalue GAMMA=   0.3236
  1.3860  0.4621  0.4621  0.2395  0.2395  0.1174  0.1174  0.0690  0.0690  0.0743

 Free energy of the ion-electron system (eV)
  ---------------------------------------------------
  alpha Z        PSCENC =         3.86999799
  Ewald energy   TEWEN  =     12749.47637527
  -Hartree energ DENC   =    -22605.47957185
  -exchange      EXHF   =         0.00000000
  -V(xc)+E(xc)   XCENC  =       300.40102556
  PAW double counting   =     10449.72839320   -11127.63765556
  entropy T*S    EENTRO =        -0.03392128
  eigenvalues    EBANDS =      -582.05854617
  atomic energy  EATOM  =     10776.63837129
  Solvation  Ediel_sol  =         0.00000000
  ---------------------------------------------------
  free energy    TOTEN  =       -35.09553154 eV

  energy without entropy =      -35.06161026  energy(sigma->0) =      -35.08422445


--------------------------------------------------------------------------------------------------------




--------------------------------------- Iteration      1(  16)  ---------------------------------------


    POTLOK:  cpu time    2.8273: real time    2.8355
    SETDIJ:  cpu time    0.0243: real time    0.0243
     EDDAV:  cpu time    8.4259: real time    8.4376
       DOS:  cpu time    0.0010: real time    0.0010
    CHARGE:  cpu time    0.7191: real time    0.7225
    MIXING:  cpu time    0.1010: real time    0.1011
    --------------------------------------------
      LOOP:  cpu time   12.0987: real time   12.1220

 eigenvalue-minimisations  :   358
 total energy-change (2. order) :-0.3245798E+00  (-0.1384378E+00)
 number of electron      99.9999790 magnetization       9.6618524
 augmentation part       62.2497315 magnetization       7.7565293

 Broyden mixing:
  rms(total) = 0.16580E+01    rms(broyden)= 0.16576E+01
  rms(prec ) = 0.17538E+01
  weight for this iteration     100.00

 eigenvalues of (default mixing * dielectric matrix)
  average eigenvalue GAMMA=   0.3216
  1.4964  0.5251  0.5251  0.2404  0.2404  0.1161  0.1161  0.0775  0.0693  0.0657
  0.0657

 Free energy of the ion-electron system (eV)
  ---------------------------------------------------
  alpha Z        PSCENC =         3.86999799
  Ewald energy   TEWEN  =     12749.47637527
  -Hartree energ DENC   =    -22605.23497817
  -exchange      EXHF   =         0.00000000
  -V(xc)+E(xc)   XCENC  =       300.20293840
  PAW double counting   =     10479.27063732   -11157.22961806
  entropy T*S    EENTRO =        -0.03139143
  eigenvalues    EBANDS =      -582.38244394
  atomic energy  EATOM  =     10776.63837129
  Solvation  Ediel_sol  =         0.00000000
  ---------------------------------------------------
  free energy    TOTEN  =       -35.42011133 eV

  energy without entropy =      -35.38871989  energy(sigma->0) =      -35.40964752


--------------------------------------------------------------------------------------------------------




--------------------------------------- Iteration      1(  17)  ---------------------------------------


    POTLOK:  cpu time    2.8467: real time    2.8523
    SETDIJ:  cpu time    0.0268: real time    0.0268
     EDDAV:  cpu time    7.0697: real time    7.0799
       DOS:  cpu time    0.0012: real time    0.0011
    CHARGE:  cpu time    0.7164: real time    0.7172
    MIXING:  cpu time    0.1154: real time    0.1155
    --------------------------------------------
      LOOP:  cpu time   10.7761: real time   10.7929

 eigenvalue-minimisations  :   284
 total energy-change (2. order) : 0.3640054E+00  (-0.9663348E-01)
 number of electron      99.9999798 magnetization       9.6423679
 augmentation part       62.3289504 magnetization       7.7109387

 Broyden mixing:
  rms(total) = 0.47580E+00    rms(broyden)= 0.47500E+00
  rms(prec ) = 0.49802E+00
  weight for this iteration     100.00

 eigenvalues of (default mixing * dielectric matrix)
  average eigenvalue GAMMA=   0.3506
  1.6157  0.5967  0.5967  0.3360  0.3360  0.2072  0.1172  0.1172  0.0883  0.0672
  0.0672  0.0625

 Free energy of the ion-electron system (eV)
  ---------------------------------------------------
  alpha Z        PSCENC =         3.86999799
  Ewald energy   TEWEN  =     12749.47637527
  -Hartree energ DENC   =    -22605.48488325
  -exchange      EXHF   =         0.00000000
  -V(xc)+E(xc)   XCENC  =       300.12404631
  PAW double counting   =     10491.39762065   -11169.37748560
  entropy T*S    EENTRO =        -0.02598517
  eigenvalues    EBANDS =      -581.67416341
  atomic energy  EATOM  =     10776.63837129
  Solvation  Ediel_sol  =         0.00000000
  ---------------------------------------------------
  free energy    TOTEN  =       -35.05610592 eV

  energy without entropy =      -35.03012075  energy(sigma->0) =      -35.04744419


--------------------------------------------------------------------------------------------------------




--------------------------------------- Iteration      1(  18)  ---------------------------------------


    POTLOK:  cpu time    2.8178: real time    2.8232
    SETDIJ:  cpu time    0.0243: real time    0.0244
     EDDAV:  cpu time    8.8565: real time    8.8663
       DOS:  cpu time    0.0064: real time    0.0064
    CHARGE:  cpu time    0.7108: real time    0.7115
    MIXING:  cpu time    0.1188: real time    0.1189
    --------------------------------------------
      LOOP:  cpu time   12.5346: real time   12.5506

 eigenvalue-minimisations  :   380
 total energy-change (2. order) :-0.7113182E-01  (-0.2821192E-01)
 number of electron      99.9999801 magnetization       9.6297674
 augmentation part       62.3616172 magnetization       7.6879593

 Broyden mixing:
  rms(total) = 0.57491E+00    rms(broyden)= 0.57465E+00
  rms(prec ) = 0.60460E+00
  weight for this iteration     100.00

 eigenvalues of (default mixing * dielectric matrix)
  average eigenvalue GAMMA=   0.3413
  1.6380  0.6347  0.6347  0.3622  0.3622  0.2125  0.1169  0.1169  0.0839  0.0762
  0.0659  0.0659  0.0665

 Free energy of the ion-electron system (eV)
  ---------------------------------------------------
  alpha Z        PSCENC =         3.86999799
  Ewald energy   TEWEN  =     12749.47637527
  -Hartree energ DENC   =    -22607.52774988
  -exchange      EXHF   =         0.00000000
  -V(xc)+E(xc)   XCENC  =       300.03971027
  PAW double counting   =     10503.03587597   -11181.09966015
  entropy T*S    EENTRO =        -0.03313891
  eigenvalues    EBANDS =      -579.52701958
  atomic energy  EATOM  =     10776.63837129
  Solvation  Ediel_sol  =         0.00000000
  ---------------------------------------------------
  free energy    TOTEN  =       -35.12723773 eV

  energy without entropy =      -35.09409882  energy(sigma->0) =      -35.11619143


--------------------------------------------------------------------------------------------------------




--------------------------------------- Iteration      1(  19)  ---------------------------------------


    POTLOK:  cpu time    2.8206: real time    2.8291
    SETDIJ:  cpu time    0.0239: real time    0.0239
     EDDAV:  cpu time    7.6884: real time    7.6969
       DOS:  cpu time    0.0052: real time    0.0052
    CHARGE:  cpu time    0.7135: real time    0.7143
    MIXING:  cpu time    0.1298: real time    0.1299
    --------------------------------------------
      LOOP:  cpu time   11.3814: real time   11.3993

 eigenvalue-minimisations  :   318
 total energy-change (2. order) : 0.3130670E-01  (-0.1889008E-01)
 number of electron      99.9999798 magnetization       9.6030759
 augmentation part       62.4117011 magnetization       7.6637730

 Broyden mixing:
  rms(total) = 0.30365E+00    rms(broyden)= 0.30341E+00
  rms(prec ) = 0.31785E+00
  weight for this iteration     100.00

 eigenvalues of (default mixing * dielectric matrix)
  average eigenvalue GAMMA=   0.3791
  1.7591  0.7297  0.7297  0.4857  0.4857  0.2907  0.2184  0.1171  0.1171  0.0880
  0.0880  0.0671  0.0671  0.0637

 Free energy of the ion-electron system (eV)
  ---------------------------------------------------
  alpha Z        PSCENC =         3.86999799
  Ewald energy   TEWEN  =     12749.47637527
  -Hartree energ DENC   =    -22608.27804590
  -exchange      EXHF   =         0.00000000
  -V(xc)+E(xc)   XCENC  =       299.99802902
  PAW double counting   =     10508.66657539   -11186.66448793
  entropy T*S    EENTRO =        -0.04192202
  eigenvalues    EBANDS =      -578.76082413
  atomic energy  EATOM  =     10776.63837129
  Solvation  Ediel_sol  =         0.00000000
  ---------------------------------------------------
  free energy    TOTEN  =       -35.09593103 eV

  energy without entropy =      -35.05400900  energy(sigma->0) =      -35.08195702


--------------------------------------------------------------------------------------------------------




--------------------------------------- Iteration      1(  20)  ---------------------------------------


    POTLOK:  cpu time    2.8207: real time    2.8255
    SETDIJ:  cpu time    0.0247: real time    0.0247
     EDDAV:  cpu time    8.5451: real time    8.5564
       DOS:  cpu time    0.0067: real time    0.0067
    CHARGE:  cpu time    0.7076: real time    0.7083
    MIXING:  cpu time    0.1412: real time    0.1413
    --------------------------------------------
      LOOP:  cpu time   12.2459: real time   12.2629

 eigenvalue-minimisations  :   364
 total energy-change (2. order) :-0.6795554E-01  (-0.7335022E-02)
 number of electron      99.9999793 magnetization       9.5739622
 augmentation part       62.4473179 magnetization       7.6653405

 Broyden mixing:
  rms(total) = 0.21139E+00    rms(broyden)= 0.21118E+00
  rms(prec ) = 0.22016E+00
  weight for this iteration     100.00

 eigenvalues of (default mixing * dielectric matrix)
  average eigenvalue GAMMA=   0.4276
  1.9096  0.8710  0.8710  0.5469  0.5469  0.5351  0.3082  0.2169  0.1171  0.1171
  0.0881  0.0881  0.0671  0.0671  0.0638

 Free energy of the ion-electron system (eV)
  ---------------------------------------------------
  alpha Z        PSCENC =         3.86999799
  Ewald energy   TEWEN  =     12749.47637527
  -Hartree energ DENC   =    -22611.50743986
  -exchange      EXHF   =         0.00000000
  -V(xc)+E(xc)   XCENC  =       299.96626052
  PAW double counting   =     10518.13157778   -11196.23107252
  entropy T*S    EENTRO =        -0.04169360
  eigenvalues    EBANDS =      -575.46626345
  atomic energy  EATOM  =     10776.63837129
  Solvation  Ediel_sol  =         0.00000000
  ---------------------------------------------------
  free energy    TOTEN  =       -35.16388657 eV

  energy without entropy =      -35.12219297  energy(sigma->0) =      -35.14998870


--------------------------------------------------------------------------------------------------------




--------------------------------------- Iteration      1(  21)  ---------------------------------------


    POTLOK:  cpu time    2.8223: real time    2.8380
    SETDIJ:  cpu time    0.0246: real time    0.0246
     EDDAV:  cpu time    8.0291: real time    8.0427
       DOS:  cpu time    0.0071: real time    0.0071
    CHARGE:  cpu time    0.7172: real time    0.7179
    MIXING:  cpu time    0.1481: real time    0.1483
    --------------------------------------------
      LOOP:  cpu time   11.7484: real time   11.7785

 eigenvalue-minimisations  :   334
 total energy-change (2. order) :-0.7346467E-01  (-0.6493614E-02)
 number of electron      99.9999796 magnetization       9.5704608
 augmentation part       62.4663691 magnetization       7.6702602

 Broyden mixing:
  rms(total) = 0.24116E+00    rms(broyden)= 0.24093E+00
  rms(prec ) = 0.25247E+00
  weight for this iteration     100.00

 eigenvalues of (default mixing * dielectric matrix)
  average eigenvalue GAMMA=   0.4146
  1.9106  0.9127  0.9127  0.5516  0.5516  0.5058  0.3103  0.2165  0.1171  0.1171
  0.1533  0.0882  0.0882  0.0671  0.0671  0.0638

 Free energy of the ion-electron system (eV)
  ---------------------------------------------------
  alpha Z        PSCENC =         3.86999799
  Ewald energy   TEWEN  =     12749.47637527
  -Hartree energ DENC   =    -22615.39183548
  -exchange      EXHF   =         0.00000000
  -V(xc)+E(xc)   XCENC  =       299.95333009
  PAW double counting   =     10521.39845303   -11199.42658273
  entropy T*S    EENTRO =        -0.03454508
  eigenvalues    EBANDS =      -571.72091562
  atomic energy  EATOM  =     10776.63837129
  Solvation  Ediel_sol  =         0.00000000
  ---------------------------------------------------
  free energy    TOTEN  =       -35.23735124 eV

  energy without entropy =      -35.20280616  energy(sigma->0) =      -35.22583621


--------------------------------------------------------------------------------------------------------




--------------------------------------- Iteration      1(  22)  ---------------------------------------


    POTLOK:  cpu time    2.8243: real time    2.8322
    SETDIJ:  cpu time    0.0241: real time    0.0241
     EDDAV:  cpu time    7.1918: real time    7.1999
       DOS:  cpu time    0.0078: real time    0.0078
    CHARGE:  cpu time    0.7191: real time    0.7199
    MIXING:  cpu time    0.1572: real time    0.1574
    --------------------------------------------
      LOOP:  cpu time   10.9242: real time   10.9413

 eigenvalue-minimisations  :   288
 total energy-change (2. order) :-0.5597627E-02  (-0.4996434E-02)
 number of electron      99.9999795 magnetization       9.5551231
 augmentation part       62.4748291 magnetization       7.6608318

 Broyden mixing:
  rms(total) = 0.17943E+00    rms(broyden)= 0.17927E+00
  rms(prec ) = 0.18894E+00
  weight for this iteration     100.00

 eigenvalues of (default mixing * dielectric matrix)
  average eigenvalue GAMMA=   0.4544
  1.9721  1.1760  0.7952  0.7952  0.6419  0.5596  0.5596  0.3023  0.2173  0.1171
  0.1171  0.0638  0.0671  0.0671  0.0882  0.0882  0.0972

 Free energy of the ion-electron system (eV)
  ---------------------------------------------------
  alpha Z        PSCENC =         3.86999799
  Ewald energy   TEWEN  =     12749.47637527
  -Hartree energ DENC   =    -22616.00573422
  -exchange      EXHF   =         0.00000000
  -V(xc)+E(xc)   XCENC  =       299.95074984
  PAW double counting   =     10520.71448138   -11198.73671111
  entropy T*S    EENTRO =        -0.03163035
  eigenvalues    EBANDS =      -571.11884896
  atomic energy  EATOM  =     10776.63837129
  Solvation  Ediel_sol  =         0.00000000
  ---------------------------------------------------
  free energy    TOTEN  =       -35.24294887 eV

  energy without entropy =      -35.21131851  energy(sigma->0) =      -35.23240542


--------------------------------------------------------------------------------------------------------




--------------------------------------- Iteration      1(  23)  ---------------------------------------


    POTLOK:  cpu time    2.8112: real time    2.8209
    SETDIJ:  cpu time    0.0242: real time    0.0243
     EDDAV:  cpu time    7.4167: real time    7.4298
       DOS:  cpu time    0.0078: real time    0.0078
    CHARGE:  cpu time    0.7086: real time    0.7093
    MIXING:  cpu time    0.1708: real time    0.1710
    --------------------------------------------
      LOOP:  cpu time   11.1394: real time   11.1632

 eigenvalue-minimisations  :   302
 total energy-change (2. order) :-0.3751116E-01  (-0.3161257E-02)
 number of electron      99.9999797 magnetization       9.5419573
 augmentation part       62.4629343 magnetization       7.6492947

 Broyden mixing:
  rms(total) = 0.16078E+00    rms(broyden)= 0.16069E+00
  rms(prec ) = 0.16978E+00
  weight for this iteration     100.00

 eigenvalues of (default mixing * dielectric matrix)
  average eigenvalue GAMMA=   0.4986
  2.2882  1.4867  0.8098  0.8098  0.7488  0.5415  0.5415  0.5200  0.3052  0.2171
  0.1171  0.1171  0.0638  0.0671  0.0671  0.0881  0.0881  0.0977

 Free energy of the ion-electron system (eV)
  ---------------------------------------------------
  alpha Z        PSCENC =         3.86999799
  Ewald energy   TEWEN  =     12749.47637527
  -Hartree energ DENC   =    -22618.69090678
  -exchange      EXHF   =         0.00000000
  -V(xc)+E(xc)   XCENC  =       299.95171330
  PAW double counting   =     10519.23309887   -11197.29725795
  entropy T*S    EENTRO =        -0.03227313
  eigenvalues    EBANDS =      -568.42957889
  atomic energy  EATOM  =     10776.63837129
  Solvation  Ediel_sol  =         0.00000000
  ---------------------------------------------------
  free energy    TOTEN  =       -35.28046002 eV

  energy without entropy =      -35.24818689  energy(sigma->0) =      -35.26970231


--------------------------------------------------------------------------------------------------------




--------------------------------------- Iteration      1(  24)  ---------------------------------------


    POTLOK:  cpu time    2.8186: real time    2.8222
    SETDIJ:  cpu time    0.0242: real time    0.0242
     EDDAV:  cpu time    8.4563: real time    8.4659
       DOS:  cpu time    0.0078: real time    0.0078
    CHARGE:  cpu time    0.7139: real time    0.7147
    MIXING:  cpu time    0.1863: real time    0.1865
    --------------------------------------------
      LOOP:  cpu time   12.2072: real time   12.2214

 eigenvalue-minimisations  :   358
 total energy-change (2. order) :-0.2507665E-01  (-0.2308138E-02)
 number of electron      99.9999797 magnetization       9.5351352
 augmentation part       62.4611602 magnetization       7.6575448

 Broyden mixing:
  rms(total) = 0.16864E+00    rms(broyden)= 0.16855E+00
  rms(prec ) = 0.17879E+00
  weight for this iteration     100.00

 eigenvalues of (default mixing * dielectric matrix)
  average eigenvalue GAMMA=   0.5139
  2.3126  1.4492  0.9648  0.7251  0.7251  0.6235  0.6235  0.5570  0.5570  0.3029
  0.2173  0.1171  0.1171  0.0638  0.0671  0.0671  0.0881  0.0881  0.0981

 Free energy of the ion-electron system (eV)
  ---------------------------------------------------
  alpha Z        PSCENC =         3.86999799
  Ewald energy   TEWEN  =     12749.47637527
  -Hartree energ DENC   =    -22620.81680429
  -exchange      EXHF   =         0.00000000
  -V(xc)+E(xc)   XCENC  =       299.95732614
  PAW double counting   =     10518.53529958   -11196.71612830
  entropy T*S    EENTRO =        -0.02963124
  eigenvalues    EBANDS =      -566.22034311
  atomic energy  EATOM  =     10776.63837129
  Solvation  Ediel_sol  =         0.00000000
  ---------------------------------------------------
  free energy    TOTEN  =       -35.30553667 eV

  energy without entropy =      -35.27590543  energy(sigma->0) =      -35.29565959


--------------------------------------------------------------------------------------------------------




--------------------------------------- Iteration      1(  25)  ---------------------------------------


    POTLOK:  cpu time    2.8205: real time    2.8281
    SETDIJ:  cpu time    0.0241: real time    0.0241
     EDDAV:  cpu time    7.3157: real time    7.3241
       DOS:  cpu time    0.0078: real time    0.0078
    CHARGE:  cpu time    0.7186: real time    0.7194
    MIXING:  cpu time    0.1946: real time    0.1949
    --------------------------------------------
      LOOP:  cpu time   11.0812: real time   11.0983

 eigenvalue-minimisations  :   296
 total energy-change (2. order) :-0.9473433E-02  (-0.1110318E-02)
 number of electron      99.9999796 magnetization       9.5262264
 augmentation part       62.4569975 magnetization       7.6494250

 Broyden mixing:
  rms(total) = 0.54565E-01    rms(broyden)= 0.54482E-01
  rms(prec ) = 0.58166E-01
  weight for this iteration     100.00

 eigenvalues of (default mixing * dielectric matrix)
  average eigenvalue GAMMA=   0.5382
  2.4625  1.5525  0.8775  0.8775  0.7309  0.6691  0.6691  0.5575  0.5575  0.5828
  0.3033  0.2173  0.1171  0.1171  0.0638  0.0671  0.0671  0.0881  0.0881  0.0981

 Free energy of the ion-electron system (eV)
  ---------------------------------------------------
  alpha Z        PSCENC =         3.86999799
  Ewald energy   TEWEN  =     12749.47637527
  -Hartree energ DENC   =    -22621.89429888
  -exchange      EXHF   =         0.00000000
  -V(xc)+E(xc)   XCENC  =       299.94664228
  PAW double counting   =     10516.70266177   -11194.93202255
  entropy T*S    EENTRO =        -0.02791397
  eigenvalues    EBANDS =      -565.09482331
  atomic energy  EATOM  =     10776.63837129
  Solvation  Ediel_sol  =         0.00000000
  ---------------------------------------------------
  free energy    TOTEN  =       -35.31501010 eV

  energy without entropy =      -35.28709614  energy(sigma->0) =      -35.30570545


--------------------------------------------------------------------------------------------------------




--------------------------------------- Iteration      1(  26)  ---------------------------------------


    POTLOK:  cpu time    2.8374: real time    2.8408
    SETDIJ:  cpu time    0.0246: real time    0.0246
     EDDAV:  cpu time    8.4755: real time    8.4849
       DOS:  cpu time    0.0039: real time    0.0039
    CHARGE:  cpu time    0.7038: real time    0.7069
    MIXING:  cpu time    0.2089: real time    0.2092
    --------------------------------------------
      LOOP:  cpu time   12.2541: real time   12.2702

 eigenvalue-minimisations  :   358
 total energy-change (2. order) :-0.1240897E-01  (-0.5967500E-03)
 number of electron      99.9999796 magnetization       9.5201839
 augmentation part       62.4519951 magnetization       7.6368285

 Broyden mixing:
  rms(total) = 0.50334E-01    rms(broyden)= 0.50239E-01
  rms(prec ) = 0.53287E-01
  weight for this iteration     100.00

 eigenvalues of (default mixing * dielectric matrix)
  average eigenvalue GAMMA=   0.5675
  2.6340  1.4096  1.1125  0.9345  0.9345  0.6749  0.6749  0.6089  0.6089  0.5490
  0.5490  0.3033  0.2173  0.1171  0.1171  0.0638  0.0671  0.0671  0.0881  0.0881
  0.0981

 Free energy of the ion-electron system (eV)
  ---------------------------------------------------
  alpha Z        PSCENC =         3.86999799
  Ewald energy   TEWEN  =     12749.47637527
  -Hartree energ DENC   =    -22623.26244626
  -exchange      EXHF   =         0.00000000
  -V(xc)+E(xc)   XCENC  =       299.94406479
  PAW double counting   =     10515.04321417   -11193.28704311
  entropy T*S    EENTRO =        -0.02726084
  eigenvalues    EBANDS =      -563.72269237
  atomic energy  EATOM  =     10776.63837129
  Solvation  Ediel_sol  =         0.00000000
  ---------------------------------------------------
  free energy    TOTEN  =       -35.32741907 eV

  energy without entropy =      -35.30015823  energy(sigma->0) =      -35.31833213


--------------------------------------------------------------------------------------------------------




--------------------------------------- Iteration      1(  27)  ---------------------------------------


    POTLOK:  cpu time    2.8157: real time    2.8206
    SETDIJ:  cpu time    0.0242: real time    0.0242
     EDDAV:  cpu time    7.4871: real time    7.4956
       DOS:  cpu time    0.0039: real time    0.0039
    CHARGE:  cpu time    0.7051: real time    0.7059
    MIXING:  cpu time    0.2162: real time    0.2164
    --------------------------------------------
      LOOP:  cpu time   11.2522: real time   11.2667

 eigenvalue-minimisations  :   304
 total energy-change (2. order) :-0.8193619E-02  (-0.1946018E-03)
 number of electron      99.9999796 magnetization       9.5128192
 augmentation part       62.4517628 magnetization       7.6312445

 Broyden mixing:
  rms(total) = 0.21048E-01    rms(broyden)= 0.21005E-01
  rms(prec ) = 0.22854E-01
  weight for this iteration     100.00

 eigenvalues of (default mixing * dielectric matrix)
  average eigenvalue GAMMA=   0.5968
  2.7990  1.4392  1.4392  0.9497  0.9497  0.6400  0.6400  0.6896  0.6896  0.5509
  0.5509  0.5649  0.3033  0.2173  0.1171  0.1171  0.0638  0.0671  0.0671  0.0881
  0.0881  0.0981

 Free energy of the ion-electron system (eV)
  ---------------------------------------------------
  alpha Z        PSCENC =         3.86999799
  Ewald energy   TEWEN  =     12749.47637527
  -Hartree energ DENC   =    -22624.24279984
  -exchange      EXHF   =         0.00000000
  -V(xc)+E(xc)   XCENC  =       299.94629859
  PAW double counting   =     10513.81640741   -11192.09161261
  entropy T*S    EENTRO =        -0.02775543
  eigenvalues    EBANDS =      -562.72089537
  atomic energy  EATOM  =     10776.63837129
  Solvation  Ediel_sol  =         0.00000000
  ---------------------------------------------------
  free energy    TOTEN  =       -35.33561269 eV

  energy without entropy =      -35.30785727  energy(sigma->0) =      -35.32636088


--------------------------------------------------------------------------------------------------------




--------------------------------------- Iteration      1(  28)  ---------------------------------------


    POTLOK:  cpu time    2.8219: real time    2.8252
    SETDIJ:  cpu time    0.0242: real time    0.0242
     EDDAV:  cpu time    6.6877: real time    6.6955
       DOS:  cpu time    0.0040: real time    0.0040
    CHARGE:  cpu time    0.7134: real time    0.7142
    MIXING:  cpu time    0.2357: real time    0.2359
    --------------------------------------------
      LOOP:  cpu time   10.4868: real time   10.4991

 eigenvalue-minimisations  :   260
 total energy-change (2. order) :-0.8910122E-02  (-0.5091035E-04)
 number of electron      99.9999796 magnetization       9.5059487
 augmentation part       62.4514520 magnetization       7.6236341

 Broyden mixing:
  rms(total) = 0.20147E-01    rms(broyden)= 0.20136E-01
  rms(prec ) = 0.21925E-01
  weight for this iteration     100.00

 eigenvalues of (default mixing * dielectric matrix)
  average eigenvalue GAMMA=   0.6313
  2.9380  1.7130  1.7130  0.9376  0.9376  0.6491  0.6491  0.7259  0.7259  0.5511
  0.5511  0.6011  0.6011  0.3033  0.2173  0.1171  0.1171  0.0638  0.0671  0.0671
  0.0881  0.0881  0.0981

 Free energy of the ion-electron system (eV)
  ---------------------------------------------------
  alpha Z        PSCENC =         3.86999799
  Ewald energy   TEWEN  =     12749.47637527
  -Hartree energ DENC   =    -22625.43320720
  -exchange      EXHF   =         0.00000000
  -V(xc)+E(xc)   XCENC  =       299.94421196
  PAW double counting   =     10512.33748283   -11190.63883155
  entropy T*S    EENTRO =        -0.02733010
  eigenvalues    EBANDS =      -561.51159331
  atomic energy  EATOM  =     10776.63837129
  Solvation  Ediel_sol  =         0.00000000
  ---------------------------------------------------
  free energy    TOTEN  =       -35.34452281 eV

  energy without entropy =      -35.31719272  energy(sigma->0) =      -35.33541278


--------------------------------------------------------------------------------------------------------




--------------------------------------- Iteration      1(  29)  ---------------------------------------


    POTLOK:  cpu time    2.8280: real time    2.8368
    SETDIJ:  cpu time    0.0247: real time    0.0248
     EDDAV:  cpu time    5.6858: real time    5.6941
       DOS:  cpu time    0.0043: real time    0.0043
    CHARGE:  cpu time    0.7097: real time    0.7106
    MIXING:  cpu time    0.2543: real time    0.2546
    --------------------------------------------
      LOOP:  cpu time    9.5069: real time    9.5251

 eigenvalue-minimisations  :   206
 total energy-change (2. order) :-0.8349645E-02  (-0.3803601E-04)
 number of electron      99.9999797 magnetization       9.4999296
 augmentation part       62.4528762 magnetization       7.6161254

 Broyden mixing:
  rms(total) = 0.77825E-02    rms(broyden)= 0.77543E-02
  rms(prec ) = 0.91584E-02
  weight for this iteration     100.00

 eigenvalues of (default mixing * dielectric matrix)
  average eigenvalue GAMMA=   0.6564
  3.1490  1.8218  1.8218  0.9483  0.9483  0.7599  0.7599  0.6392  0.6392  0.5508
  0.5508  0.6792  0.6792  0.5803  0.3033  0.2173  0.1171  0.1171  0.0638  0.0671
  0.0671  0.0881  0.0881  0.0981

 Free energy of the ion-electron system (eV)
  ---------------------------------------------------
  alpha Z        PSCENC =         3.86999799
  Ewald energy   TEWEN  =     12749.47637527
  -Hartree energ DENC   =    -22626.57515086
  -exchange      EXHF   =         0.00000000
  -V(xc)+E(xc)   XCENC  =       299.94041692
  PAW double counting   =     10510.75216716   -11189.06932927
  entropy T*S    EENTRO =        -0.02711313
  eigenvalues    EBANDS =      -560.35860784
  atomic energy  EATOM  =     10776.63837129
  Solvation  Ediel_sol  =         0.00000000
  ---------------------------------------------------
  free energy    TOTEN  =       -35.35287246 eV

  energy without entropy =      -35.32575933  energy(sigma->0) =      -35.34383475


--------------------------------------------------------------------------------------------------------




--------------------------------------- Iteration      1(  30)  ---------------------------------------


    POTLOK:  cpu time    2.8157: real time    2.8236
    SETDIJ:  cpu time    0.0241: real time    0.0241
     EDDAV:  cpu time    5.3988: real time    5.4048
       DOS:  cpu time    0.0044: real time    0.0044
    CHARGE:  cpu time    0.7061: real time    0.7068
    MIXING:  cpu time    0.2600: real time    0.2602
    --------------------------------------------
      LOOP:  cpu time    9.2090: real time    9.2239

 eigenvalue-minimisations  :   190
 total energy-change (2. order) :-0.6503083E-02  (-0.2690966E-04)
 number of electron      99.9999797 magnetization       9.4957359
 augmentation part       62.4529049 magnetization       7.6103471

 Broyden mixing:
  rms(total) = 0.69956E-02    rms(broyden)= 0.69807E-02
  rms(prec ) = 0.80335E-02
  weight for this iteration     100.00

 eigenvalues of (default mixing * dielectric matrix)
  average eigenvalue GAMMA=   0.6827
  3.4175  1.8922  1.8922  0.9634  0.9634  0.8614  0.8041  0.8041  0.6419  0.6419
  0.5510  0.5510  0.6424  0.6424  0.5726  0.3033  0.2173  0.1171  0.1171  0.0638
  0.0671  0.0671  0.0881  0.0881  0.0981

 Free energy of the ion-electron system (eV)
  ---------------------------------------------------
  alpha Z        PSCENC =         3.86999799
  Ewald energy   TEWEN  =     12749.47637527
  -Hartree energ DENC   =    -22627.68191864
  -exchange      EXHF   =         0.00000000
  -V(xc)+E(xc)   XCENC  =       299.94077170
  PAW double counting   =     10509.61257130   -11187.94978653
  entropy T*S    EENTRO =        -0.02686398
  eigenvalues    EBANDS =      -559.23889394
  atomic energy  EATOM  =     10776.63837129
  Solvation  Ediel_sol  =         0.00000000
  ---------------------------------------------------
  free energy    TOTEN  =       -35.35937554 eV

  energy without entropy =      -35.33251156  energy(sigma->0) =      -35.35042088


--------------------------------------------------------------------------------------------------------




--------------------------------------- Iteration      1(  31)  ---------------------------------------


    POTLOK:  cpu time    2.8286: real time    2.8329
    SETDIJ:  cpu time    0.0243: real time    0.0243
     EDDAV:  cpu time    5.2699: real time    5.2793
       DOS:  cpu time    0.0008: real time    0.0008
    CHARGE:  cpu time    0.7112: real time    0.7120
    MIXING:  cpu time    0.2879: real time    0.2883
    --------------------------------------------
      LOOP:  cpu time    9.1227: real time    9.1376

 eigenvalue-minimisations  :   184
 total energy-change (2. order) :-0.4383486E-02  (-0.1210620E-04)
 number of electron      99.9999797 magnetization       9.4929095
 augmentation part       62.4511868 magnetization       7.6059590

 Broyden mixing:
  rms(total) = 0.51573E-02    rms(broyden)= 0.51472E-02
  rms(prec ) = 0.60163E-02
  weight for this iteration     100.00

 eigenvalues of (default mixing * dielectric matrix)
  average eigenvalue GAMMA=   0.7100
  3.6594  1.9828  1.9828  0.9747  0.9747  0.9291  0.9291  0.7811  0.7811  0.6445
[...]
 total energy-change (2. order) :-0.9532109E-04  (-0.2637593E-04)
 number of electron     100.0000182 magnetization       9.2699360
 augmentation part       62.2933247 magnetization       7.4816531

 Free energy of the ion-electron system (eV)
  ---------------------------------------------------
  alpha Z        PSCENC =         3.86999799
  Ewald energy   TEWEN  =     13489.92625783
  -Hartree energ DENC   =    -23354.68608521
  -exchange      EXHF   =         0.00000000
  -V(xc)+E(xc)   XCENC  =       301.18669839
  PAW double counting   =     10796.68177190   -11478.40515765
  entropy T*S    EENTRO =        -0.00615354
  eigenvalues    EBANDS =      -571.02284661
  atomic energy  EATOM  =     10776.63837129
  Solvation  Ediel_sol  =         0.00000000
  ---------------------------------------------------
  free energy    TOTEN  =       -35.81714562 eV

  energy without entropy =      -35.81099207  energy(sigma->0) =      -35.81509444


--------------------------------------------------------------------------------------------------------




 average (electrostatic) potential at core
  the test charge radii are     0.9791
  (the norm of the test charge is              1.0000)
       1 -95.1205       2 -95.0748       3 -95.1815       4 -95.0828       5 -94.7091
       6 -94.8527       7 -94.9656       8 -95.1333       9 -95.2881      10 -94.9378
 
 
 
 E-fermi :  -3.9650     XC(G=0):  -0.2527     alpha+bet : -0.1359


 spin component 1

 k-point     1 :       0.0000    0.0000    0.0000
  band No.  band energies     occupation 
      1      -9.9273      1.00000
      2      -8.3005      1.00000
      3      -8.1961      1.00000
      4      -7.8823      1.00000
      5      -7.6622      1.00000
      6      -7.5600      1.00000
      7      -7.2928      1.00000
      8      -7.2323      1.00000
      9      -7.0660      1.00000
     10      -7.0376      1.00000
     11      -6.9683      1.00000
     12      -6.8975      1.00000
     13      -6.8517      1.00000
     14      -6.7364      1.00000
     15      -6.6701      1.00000
     16      -6.5766      1.00000
     17      -6.4701      1.00000
     18      -6.4080      1.00000
     19      -6.3250      1.00000
     20      -6.2876      1.00000
     21      -6.0282      1.00000
     22      -5.9243      1.00000
     23      -5.9022      1.00000
     24      -5.8511      1.00000
     25      -5.7900      1.00000
     26      -5.6672      1.00000
     27      -5.6260      1.00000
     28      -5.5764      1.00000
     29      -5.5023      1.00000
     30      -5.4842      1.00000
     31      -5.4107      1.00000
     32      -5.3734      1.00000
     33      -5.3097      1.00000
     34      -5.2673      1.00000
     35      -5.2215      1.00000
     36      -5.2021      1.00000
     37      -5.1572      1.00000
     38      -5.1166      1.00000
     39      -5.1003      1.00000
     40      -5.0961      1.00000
     41      -5.0566      1.00000
     42      -5.0301      1.00000
     43      -4.9298      1.00000
     44      -4.9157      1.00000
     45      -4.8979      1.00000
     46      -4.8736      1.00000
     47      -4.8584      1.00000
     48      -4.8339      1.00000
     49      -4.8025      1.00000
     50      -4.7782      1.00000
     51      -4.7706      1.00000
     52      -4.7089      1.00000
     53      -4.6776      1.00000
     54      -4.4537      1.00148
     55      -3.9943      0.62243
     56      -3.0588     -0.00000
     57      -3.0059     -0.00000
     58      -2.5745     -0.00000
     59      -2.3048     -0.00000
     60      -2.0780     -0.00000
     61      -1.6448     -0.00000
     62      -1.0656     -0.00000
     63      -0.9632     -0.00000
     64      -0.7112     -0.00000
     65      -0.4139     -0.00000
     66      -0.2754     -0.00000

 spin component 2

 k-point     1 :       0.0000    0.0000    0.0000
  band No.  band energies     occupation 
      1      -9.8641      1.00000
      2      -8.0044      1.00000
      3      -7.8229      1.00000
      4      -7.3390      1.00000
      5      -7.0458      1.00000
      6      -6.8927      1.00000
      7      -6.5507      1.00000
      8      -6.4881      1.00000
      9      -6.3972      1.00000
     10      -6.3491      1.00000
     11      -6.3009      1.00000
     12      -6.1175      1.00000
     13      -6.0798      1.00000
     14      -5.9535      1.00000
     15      -5.8807      1.00000
     16      -5.7434      1.00000
     17      -5.6684      1.00000
     18      -5.5633      1.00000
     19      -5.5233      1.00000
     20      -5.4655      1.00000
     21      -5.2821      1.00000
     22      -5.2141      1.00000
     23      -5.1970      1.00000
     24      -5.0667      1.00000
     25      -4.9710      1.00000
     26      -4.9560      1.00000
     27      -4.9077      1.00000
     28      -4.7614      1.00000
     29      -4.6981      1.00000
     30      -4.6708      1.00000
     31      -4.5878      1.00005
     32      -4.5731      1.00007
     33      -4.5269      1.00026
     34      -4.4664      1.00112
     35      -4.4267      1.00261
     36      -4.3798      1.00624
     37      -4.3640      1.00812
     38      -4.3473      1.01052
     39      -4.2649      1.02768
     40      -4.2256      1.03461
     41      -4.1901      1.03373
     42      -4.1893      1.03358
     43      -4.1018      0.95418
     44      -4.0370      0.78409
     45      -4.0299      0.75925
     46      -3.9686      0.51523
     47      -3.8914      0.21065
     48      -3.8485      0.08810
     49      -3.8171      0.02710
     50      -3.7918     -0.00504
     51      -3.7408     -0.03356
     52      -3.7299     -0.03505
     53      -3.6702     -0.02879
     54      -3.6249     -0.01852
     55      -3.3776     -0.00013
     56      -2.7344     -0.00000
     57      -2.6308     -0.00000
     58      -2.2616     -0.00000
     59      -1.9499     -0.00000
     60      -1.6854     -0.00000
     61      -1.3521     -0.00000
     62      -0.8274     -0.00000
     63      -0.6988     -0.00000
     64      -0.5035     -0.00000
     65      -0.1935     -0.00000
     66       0.0144     -0.00000


--------------------------------------------------------------------------------------------------------


 soft charge-density along one line, spin component            1
         0         1         2         3         4         5         6         7         8         9
 total charge-density along one line
 
 soft charge-density along one line, spin component            2
         0         1         2         3         4         5         6         7         8         9
 total charge-density along one line
 
 pseudopotential strength for first ion, spin component:            1
-10.041   0.060  -0.064  -0.091   0.061 -10.322   0.057  -0.061
  0.060  -9.943  -0.075   0.056   0.005   0.057 -10.229  -0.071
 -0.064  -0.075  -9.934  -0.045   0.047  -0.061  -0.071 -10.219
 -0.091   0.056  -0.045 -10.070   0.070  -0.087   0.053  -0.043
  0.061   0.005   0.047   0.070 -10.126   0.059   0.004   0.045
-10.322   0.057  -0.061  -0.087   0.059 -10.549   0.054  -0.058
  0.057 -10.229  -0.071   0.053   0.004   0.054 -10.459  -0.068
 -0.061  -0.071 -10.219  -0.043   0.045  -0.058  -0.068 -10.450
 -0.087   0.053  -0.043 -10.350   0.067  -0.084   0.051  -0.041
  0.059   0.004   0.045   0.067 -10.403   0.056   0.004   0.042
 -0.017   0.016  -0.014  -0.015   0.017  -0.017   0.016  -0.014
 -0.031   0.027  -0.024  -0.027   0.029  -0.030   0.027  -0.024
  0.006   0.008  -0.005  -0.001  -0.009   0.006   0.007  -0.005
 -0.001   0.010   0.006   0.004  -0.002  -0.000   0.010   0.005
  0.011  -0.001  -0.007   0.004   0.010   0.010  -0.000  -0.007
  0.005   0.008  -0.004  -0.001  -0.007   0.005   0.008  -0.004
 -0.001   0.009   0.006   0.002  -0.003  -0.001   0.008   0.005
  0.010  -0.001  -0.008   0.003   0.010   0.009  -0.001  -0.007
 pseudopotential strength for first ion, spin component:            2
 -9.341   0.019  -0.044  -0.015  -0.032  -9.655   0.018  -0.042
  0.019  -9.236  -0.004   0.044   0.059   0.018  -9.554  -0.003
 -0.044  -0.004  -9.252   0.050   0.036  -0.042  -0.003  -9.570
 -0.015   0.044   0.050  -9.282   0.020  -0.014   0.042   0.048
 -0.032   0.059   0.036   0.020  -9.300  -0.031   0.057   0.034
 -9.655   0.018  -0.042  -0.014  -0.031  -9.913   0.017  -0.040
  0.018  -9.554  -0.003   0.042   0.057   0.017  -9.816  -0.003
 -0.042  -0.003  -9.570   0.048   0.034  -0.040  -0.003  -9.831
 -0.014   0.042   0.048  -9.598   0.018  -0.013   0.040   0.046
 -0.031   0.057   0.034   0.018  -9.616  -0.030   0.055   0.033
 -0.011   0.006  -0.007  -0.007   0.006  -0.010   0.006  -0.007
 -0.018   0.010  -0.013  -0.012   0.011  -0.018   0.010  -0.013
  0.012   0.006  -0.009  -0.000  -0.016   0.011   0.006  -0.009
 -0.000   0.017   0.008   0.012   0.001  -0.000   0.016   0.007
  0.017  -0.000  -0.006   0.007   0.010   0.015  -0.000  -0.006
  0.012   0.006  -0.010  -0.000  -0.017   0.012   0.006  -0.009
 -0.000   0.018   0.008   0.013   0.001  -0.000   0.016   0.008
  0.017  -0.000  -0.006   0.008   0.011   0.016  -0.000  -0.005
 total augmentation occupancy for first ion, spin component:            1
  3.052   0.028  -0.060   0.033   0.165  -1.315   0.060  -0.031  -0.160  -0.041   0.273   0.012   0.039  -0.032   0.196   0.011
  0.028   2.759  -0.104   0.213  -0.209   0.057  -0.942  -0.034  -0.088   0.160  -0.354   0.052   0.116   0.180  -0.043  -0.010
 -0.060  -0.104   2.819  -0.125   0.055  -0.030  -0.035  -0.937   0.014   0.004   0.442  -0.063  -0.089   0.096  -0.108   0.001
  0.033   0.213  -0.125   2.525   0.261  -0.154  -0.083   0.014  -0.936  -0.098   0.199   0.015  -0.031   0.082   0.076   0.004
  0.165  -0.209   0.055   0.261   2.791  -0.044   0.157   0.004  -0.100  -1.220  -0.209  -0.008  -0.182  -0.011   0.218  -0.002
 -1.315   0.057  -0.030  -0.154  -0.044   1.372  -0.113   0.093   0.235  -0.022  -0.305   0.009  -0.078   0.027  -0.232   0.005
  0.060  -0.942  -0.035  -0.083   0.157  -0.113   0.923   0.116  -0.015  -0.141   0.355  -0.056  -0.105  -0.226   0.034   0.015
 -0.031  -0.034  -0.937   0.014   0.004   0.093   0.116   0.867   0.040  -0.050  -0.403   0.066   0.125  -0.119   0.092  -0.015
 -0.160  -0.088   0.014  -0.936  -0.100   0.235  -0.015   0.040   1.073  -0.014  -0.240   0.005   0.024  -0.141  -0.107  -0.004
 -0.041   0.160   0.004  -0.098  -1.220  -0.022  -0.141  -0.050  -0.014   1.353   0.257  -0.012   0.244  -0.003  -0.224  -0.023
  0.273  -0.354   0.442   0.199  -0.209  -0.305   0.355  -0.403  -0.240   0.257   2.039  -0.222  -0.267  -0.108  -0.171   0.047
  0.012   0.052  -0.063   0.015  -0.008   0.009  -0.056   0.066   0.005  -0.012  -0.222   0.033   0.044   0.019   0.028  -0.007
  0.039   0.116  -0.089  -0.031  -0.182  -0.078  -0.105   0.125   0.024   0.244  -0.267   0.044   0.181   0.028  -0.040  -0.021
 -0.032   0.180   0.096   0.082  -0.011   0.027  -0.226  -0.119  -0.141  -0.003  -0.108   0.019   0.028   0.161  -0.038  -0.004
  0.196  -0.043  -0.108   0.076   0.218  -0.232   0.034   0.092  -0.107  -0.224  -0.171   0.028  -0.040  -0.038   0.254   0.001
  0.011  -0.010   0.001   0.004  -0.002   0.005   0.015  -0.015  -0.004  -0.023   0.047  -0.007  -0.021  -0.004   0.001   0.003
  0.003   0.003   0.002   0.006   0.003  -0.003   0.021   0.008   0.011  -0.001   0.019  -0.003  -0.004  -0.014   0.001   0.001
  0.004   0.002   0.006   0.000  -0.014   0.021  -0.002  -0.013   0.009   0.027   0.030  -0.004   0.001   0.001  -0.024   0.000
 total augmentation occupancy for first ion, spin component:            2
  0.879  -0.140   0.118   0.273  -0.257  -0.415   0.071  -0.069  -0.140   0.119   0.024   0.013   0.024  -0.002   0.021   0.005
 -0.140   0.777   0.178  -0.089   0.127   0.070  -0.344  -0.077   0.051  -0.057  -0.015  -0.006  -0.019   0.014  -0.004   0.000
  0.118   0.178   0.745   0.247  -0.084  -0.069  -0.074  -0.340  -0.114   0.048  -0.034  -0.005  -0.004   0.002   0.024  -0.003
  0.273  -0.089   0.247   1.109  -0.199  -0.143   0.048  -0.114  -0.521   0.104   0.070   0.019   0.011   0.045   0.020   0.001
 -0.257   0.127  -0.084  -0.199   1.176   0.119  -0.055   0.048   0.107  -0.538  -0.062  -0.020  -0.029   0.017  -0.017  -0.009
 -0.415   0.070  -0.069  -0.143   0.119   0.108  -0.028   0.031   0.064  -0.046   0.001  -0.009  -0.005   0.002  -0.005  -0.003
  0.071  -0.344  -0.074   0.048  -0.055  -0.028   0.073   0.025  -0.017   0.024   0.004   0.006   0.008   0.003   0.004  -0.001
 -0.069  -0.077  -0.340  -0.114   0.048   0.031   0.025   0.076   0.049  -0.018   0.023  -0.003  -0.005   0.006  -0.011   0.002
 -0.140   0.051  -0.114  -0.521   0.107   0.064  -0.017   0.049   0.148  -0.044  -0.034  -0.011  -0.006  -0.014  -0.003  -0.000
  0.119  -0.057   0.048   0.104  -0.538  -0.046   0.024  -0.018  -0.044   0.147   0.025   0.011   0.003  -0.005   0.010   0.006
  0.024  -0.015  -0.034   0.070  -0.062   0.001   0.004   0.023  -0.034   0.025  -0.119   0.048   0.022   0.012   0.011  -0.003
  0.013  -0.006  -0.005   0.019  -0.020  -0.009   0.006  -0.003  -0.011   0.011   0.048  -0.007  -0.005  -0.002  -0.004   0.001
  0.024  -0.019  -0.004   0.011  -0.029  -0.005   0.008  -0.005  -0.006   0.003   0.022  -0.005  -0.011  -0.002   0.004   0.002
 -0.002   0.014   0.002   0.045   0.017   0.002   0.003   0.006  -0.014  -0.005   0.012  -0.002  -0.002  -0.004   0.001   0.000
  0.021  -0.004   0.024   0.020  -0.017  -0.005   0.004  -0.011  -0.003   0.010   0.011  -0.004   0.004   0.001  -0.016  -0.000
  0.005   0.000  -0.003   0.001  -0.009  -0.003  -0.001   0.002  -0.000   0.006  -0.003   0.001   0.002   0.000  -0.000  -0.000
  0.000   0.007   0.004   0.005   0.000   0.000  -0.004  -0.003  -0.003   0.000  -0.001   0.000   0.000   0.001  -0.000  -0.000
  0.007  -0.001  -0.001   0.003   0.003  -0.004   0.001   0.001  -0.002  -0.003  -0.002   0.001  -0.000  -0.000   0.002   0.000


------------------------ aborting loop because EDIFF is reached ----------------------------------------


    CHARGE:  cpu time    0.7071: real time    0.7078
    FORLOC:  cpu time    0.0748: real time    0.0748
    FORNL :  cpu time    2.9870: real time    2.9891
    FORCOR:  cpu time    2.7414: real time    2.7439
    FORHAR:  cpu time    0.3556: real time    0.3560
    MIXING:  cpu time    0.0807: real time    0.0807
    OFIELD:  cpu time    0.0000: real time    0.0000

 VOLUME and BASIS-vectors are now :
 -----------------------------------------------------------------------------
  energy-cutoff  :      400.00
  volume of cell :    13178.15
      direct lattice vectors                 reciprocal lattice vectors
    24.583015856  0.000000000  0.000000000     0.040678491  0.000000000  0.000000000
     0.000000000 24.839308643  0.000000000     0.000000000  0.040258769  0.000000000
     0.000000000  0.000000000 21.581402800     0.000000000  0.000000000  0.046336191

  length of vectors
    24.583015856 24.839308643 21.581402800     0.040678491  0.040258769  0.046336191


 FORCES acting on ions
    electron-ion (+dipol)            ewald-force                    non-local-force                 convergence-correction
 -----------------------------------------------------------------------------------------------
   -.593E+03 -.715E+03 -.331E+03   0.590E+03 0.711E+03 0.330E+03   0.217E+01 0.376E+01 0.957E+00   -.496E-02 -.121E+00 -.107E+00
   0.230E+03 -.551E+03 -.821E+03   -.229E+03 0.549E+03 0.815E+03   -.573E+00 0.253E+01 0.632E+01   -.166E+00 -.202E+00 0.906E-01
   -.352E+03 0.169E+03 0.910E+03   0.351E+03 -.168E+03 -.907E+03   0.732E+00 -.107E+01 -.269E+01   0.456E-01 -.140E+00 -.910E-01
   -.642E+03 0.587E+03 -.641E+03   0.639E+03 -.585E+03 0.637E+03   0.314E+01 -.281E+01 0.450E+01   -.478E-01 -.265E-01 -.169E+00
   0.653E+03 -.668E+03 0.634E+02   -.646E+03 0.662E+03 -.621E+02   -.673E+01 0.519E+01 -.128E+01   -.244E-01 0.120E-01 -.313E-02
   -.103E+04 -.108E+03 0.262E+03   0.102E+04 0.107E+03 -.259E+03   0.843E+01 0.132E+01 -.293E+01   0.286E+00 -.501E-02 -.193E+00
   0.809E+03 0.397E+03 0.631E+03   -.802E+03 -.395E+03 -.627E+03   -.684E+01 -.196E+01 -.390E+01   0.444E-01 -.904E-01 0.160E+00
   0.518E+03 0.341E+03 -.745E+03   -.515E+03 -.340E+03 0.744E+03   -.264E+01 -.109E+01 0.161E+01   -.255E+00 -.197E+00 0.335E-01
   0.297E+03 -.551E+03 0.647E+03   -.297E+03 0.549E+03 -.644E+03   0.141E+00 0.186E+01 -.243E+01   -.996E-01 -.188E+00 -.171E-02
   0.110E+03 0.110E+04 0.270E+02   -.109E+03 -.109E+04 -.264E+02   -.662E+00 -.803E+01 -.579E+00   -.168E+00 0.929E-02 0.269E-01
 -----------------------------------------------------------------------------------------------
   0.321E+01 0.126E+01 0.681E+00   0.711E-13 -.682E-12 -.234E-12   -.282E+01 -.289E+00 -.419E+00   -.389E+00 -.949E+00 -.255E+00
 
 
 POSITION                                       TOTAL-FORCE (eV/Angst)
 -----------------------------------------------------------------------------------
     12.72883     13.01779     11.85594         0.026662      0.012651      0.013361
     10.72058     13.65915     12.81339         0.004323      0.008962      0.047034
     12.37926     11.42895     10.12554         0.044395     -0.023818      0.000699
     13.20503     10.69673     12.21758        -0.002480     -0.005662     -0.004456
      9.28386     14.63992     11.37979         0.003781      0.052333     -0.016986
     14.49979     11.95214     10.84537        -0.051902      0.029532      0.000383
     10.11490     10.98534     10.09941        -0.021060     -0.031720     -0.009469
     10.92395     11.44591     12.24496         0.000030     -0.035986     -0.005419
     10.73244     13.16855     10.54661        -0.012355      0.003793     -0.030999
     11.51535      9.47479     11.17198         0.008607     -0.010085      0.005854
 -----------------------------------------------------------------------------------
    total drift:                               -0.004695      0.018543      0.007414


--------------------------------------------------------------------------------------------------------



  FREE ENERGIE OF THE ION-ELECTRON SYSTEM (eV)
  ---------------------------------------------------
  free  energy   TOTEN  =       -35.81714562 eV

  energy  without entropy=      -35.81099207  energy(sigma->0) =      -35.81509444
 
 d Force = 0.4556249E-03[ 0.424E-04, 0.869E-03]  d Energy =-0.7353087E-04 0.529E-03
 d Force =-0.3384729E+01[-0.336E+01,-0.341E+01]  d Ewald  =-0.3384732E+01 0.267E-05


--------------------------------------------------------------------------------------------------------


    POTLOK:  cpu time    2.8747: real time    2.8823


--------------------------------------------------------------------------------------------------------




--------------------------------------------------------------------------------------------------------


  
 reached required accuracy - stopping structural energy minimisation
     LOOP+:  cpu time  103.0638: real time  103.2671
    4ORBIT:  cpu time    0.0000: real time    0.0000

 total amount of memory used by VASP MPI-rank0   158065. kBytes
=======================================================================

   base      :      30000. kBytes
   nonl-proj :       4548. kBytes
   fftplans  :      32062. kBytes
   grid      :      75606. kBytes
   one-center:         31. kBytes
   wavefun   :      15818. kBytes
 
  
  
 General timing and accounting informations for this job:
 ========================================================
  
                  Total CPU time used (sec):     1982.515
                            User time (sec):     1967.780
                          System time (sec):       14.735
                         Elapsed time (sec):     1989.356
  
                   Maximum memory used (kb):      346860.
                   Average memory used (kb):           0.
  
                          Minor page faults:      4135360
                          Major page faults:        71602
                 Voluntary context switches:         4329
