<?xml version="1.0" encoding="ISO-8859-1"?>
<modeling>
 <generator>
  <i name="program" type="string">vasp </i>
  <i name="version" type="string">6.1.2  </i>
  <i name="subversion" type="string">22Jul20 (build Aug  2 2021 21:04:21) gamma-only                       parallel </i>
  <i name="platform" type="string">LinuxPGI </i>
  <i name="date" type="string">2021 12 25 </i>
  <i name="time" type="string">08:35:25 </i>
 </generator>
 <incar>
  <i type="int" name="ISPIN">     2</i>
  <i type="int" name="IBRION">     2</i>
  <i type="int" name="NSW">  1000</i>
  <i type="int" name="ISIF">     0</i>
  <i type="int" name="ISYM">     0</i>
  <i name="ENCUT">    400.00000000</i>
  <i type="logical" name="LREAL"> F  </i>
  <i type="int" name="ISMEAR">     1</i>
  <i name="SIGMA">      0.20000000</i>
  <i type="logical" name="LWAVE"> F  </i>
  <i type="logical" name="LCHARG"> F  </i>
  <i type="int" name="KPAR">     1</i>
  <i type="int" name="NCORE">     8</i>
  <i type="string" name="GGA"> PE</i>
  <i type="int" name="ISPIN">     2</i>
 </incar>
 <structure name="primitive_cell" >
  <crystal>
   <varray name="basis" >
    <v>      24.58301586       0.00000000       0.00000000 </v>
    <v>       0.00000000      24.83930864       0.00000000 </v>
    <v>       0.00000000       0.00000000      21.58140280 </v>
   </varray>
   <i name="volume">  13178.14663588 </i>
   <varray name="rec_basis" >
    <v>       0.04067849       0.00000000       0.00000000 </v>
    <v>       0.00000000       0.04025877       0.00000000 </v>
    <v>       0.00000000       0.00000000       0.04633619 </v>
   </varray>
  </crystal>
  <varray name="positions" >
   <v>       0.52009008       0.52552136       0.55157965 </v>
   <v>       0.43541356       0.55418668       0.59782259 </v>
   <v>       0.50338042       0.45922000       0.46839893 </v>
   <v>       0.53803888       0.42944487       0.56953846 </v>
   <v>       0.37384973       0.59059893       0.52783657 </v>
   <v>       0.59400785       0.48102725       0.50095612 </v>
   <v>       0.40669142       0.43966137       0.46612578 </v>
   <v>       0.44423285       0.46121543       0.56647919 </v>
   <v>       0.43813127       0.53127225       0.48608833 </v>
   <v>       0.46909898       0.37779683       0.51509128 </v>
  </varray>
 </structure>
 <varray name="primitive_index" >
  <v type="int" >        1 </v>
  <v type="int" >        2 </v>
  <v type="int" >        3 </v>
  <v type="int" >        4 </v>
  <v type="int" >        5 </v>
  <v type="int" >        6 </v>
  <v type="int" >        7 </v>
  <v type="int" >        8 </v>
  <v type="int" >        9 </v>
  <v type="int" >       10 </v>
 </varray>
 <kpoints>
  <generation param="Gamma">
   <v type="int" name="divisions">       1        1        1 </v>
   <v name="usershift">      0.00000000       0.00000000       0.00000000 </v>
   <v name="genvec1">      1.00000000       0.00000000       0.00000000 </v>
   <v name="genvec2">      0.00000000       1.00000000       0.00000000 </v>
   <v name="genvec3">      0.00000000       0.00000000       1.00000000 </v>
   <v name="shift">      0.00000000       0.00000000       0.00000000 </v>
  </generation>
  <varray name="kpointlist" >
   <v>       0.00000000       0.00000000       0.00000000 </v>
  </varray>
  <varray name="weights" >
   <v>       1.00000000 </v>
  </varray>
 </kpoints>
 <parameters>
  <separator name="general" >
   <i type="string" name="SYSTEM">unknown system</i>
   <i type="logical" name="LCOMPAT"> F  </i>
  </separator>
  <separator name="electronic" >
   <i type="string" name="PREC">normal</i>
   <i name="ENMAX">    400.00000000</i>
   <i name="ENAUG">    544.56500000</i>
   <i name="EDIFF">      0.00010000</i>
   <i type="int" name="IALGO">    38</i>
   <i type="int" name="IWAVPR">    11</i>
   <i type="int" name="NBANDS">    66</i>
   <i type="int" name="NBANDSLOW">    -1</i>
   <i type="int" name="NBANDSHIGH">    -1</i>
   <i name="NELECT">    100.00000000</i>
   <i type="int" name="TURBO">     0</i>
   <i type="int" name="IRESTART">     0</i>
   <i type="int" name="NREBOOT">     0</i>
   <i type="int" name="NMIN">     0</i>
   <i name="EREF">      0.00000000</i>
   <separator name="electronic smearing" >
    <i type="int" name="ISMEAR">     1</i>
    <i name="SIGMA">      0.20000000</i>
    <i name="KSPACING">      0.50000000</i>
    <i type="logical" name="KGAMMA"> T  </i>
    <i type="logical" name="KBLOWUP"> T  </i>
   </separator>
   <separator name="electronic projectors" >
    <i type="logical" name="LREAL"> F  </i>
    <v name="ROPT">      0.00000000</v>
    <i type="int" name="LMAXPAW">  -100</i>
    <i type="int" name="LMAXMIX">     2</i>
    <i type="logical" name="NLSPLINE"> F  </i>
   </separator>
   <separator name="electronic startup" >
    <i type="int" name="ISTART">     0</i>
    <i type="int" name="ICHARG">     2</i>
    <i type="int" name="INIWAV">     1</i>
   </separator>
   <separator name="electronic spin" >
    <i type="int" name="ISPIN">     2</i>
    <i type="logical" name="LNONCOLLINEAR"> F  </i>
    <v name="MAGMOM">      1.00000000      1.00000000      1.00000000      1.00000000      1.00000000      1.00000000      1.00000000      1.00000000      1.00000000      1.00000000</v>
    <i name="NUPDOWN">     -1.00000000</i>
    <i type="logical" name="LSORBIT"> F  </i>
    <v name="SAXIS">      0.00000000      0.00000000      1.00000000</v>
    <i type="logical" name="LSPIRAL"> F  </i>
    <v name="QSPIRAL">      0.00000000      0.00000000      0.00000000</v>
    <i type="logical" name="LZEROZ"> F  </i>
   </separator>
   <separator name="electronic exchange-correlation" >
    <i type="logical" name="LASPH"> F  </i>
    <i type="logical" name="LMETAGGA"> F  </i>
   </separator>
   <separator name="electronic convergence" >
    <i type="int" name="NELM">    60</i>
    <i type="int" name="NELMDL">     0</i>
    <i type="int" name="NELMIN">     2</i>
    <i name="ENINI">    400.00000000</i>
    <separator name="electronic convergence detail" >
     <i type="logical" name="LDIAG"> T  </i>
     <i type="logical" name="LSUBROT"> F  </i>
     <i name="WEIMIN">      0.00100000</i>
     <i name="EBREAK">      0.00000038</i>
     <i name="DEPER">      0.30000000</i>
     <i type="int" name="NRMM">     4</i>
     <i name="TIME">      0.40000000</i>
    </separator>
   </separator>
   <separator name="electronic mixer" >
    <i name="AMIX">      0.40000000</i>
    <i name="BMIX">      1.00000000</i>
    <i name="AMIN">      0.10000000</i>
    <i name="AMIX_MAG">      1.60000000</i>
    <i name="BMIX_MAG">      1.00000000</i>
    <separator name="electronic mixer details" >
     <i type="int" name="IMIX">     4</i>
     <i type="logical" name="MIXFIRST"> F  </i>
     <i type="int" name="MAXMIX">   -45</i>
     <i name="WC">    100.00000000</i>
     <i type="int" name="INIMIX">     1</i>
     <i type="int" name="MIXPRE">     1</i>
     <i type="int" name="MREMOVE">     5</i>
    </separator>
   </separator>
   <separator name="electronic dipolcorrection" >
    <i type="logical" name="LDIPOL"> F  </i>
    <i type="logical" name="LMONO"> F  </i>
    <i type="int" name="IDIPOL">     0</i>
    <i name="EPSILON">      1.00000000</i>
    <v name="DIPOL">   -100.00000000   -100.00000000   -100.00000000</v>
    <i name="EFIELD">      0.00000000</i>
   </separator>
  </separator>
  <separator name="grids" >
   <i type="int" name="NGX">   120</i>
   <i type="int" name="NGY">   126</i>
   <i type="int" name="NGZ">   108</i>
   <i type="int" name="NGXF">   240</i>
   <i type="int" name="NGYF">   252</i>
   <i type="int" name="NGZF">   216</i>
   <i type="logical" name="ADDGRID"> F  </i>
  </separator>
  <separator name="ionic" >
   <i type="int" name="NSW">  1000</i>
   <i type="int" name="IBRION">     2</i>
   <i type="int" name="MDALGO">     0</i>
   <i type="int" name="ISIF">     0</i>
   <i name="PSTRESS">      0.00000000</i>
   <i name="EDIFFG">      0.00100000</i>
   <i type="int" name="NFREE">     1</i>
   <i name="POTIM">      0.50000000</i>
   <i name="SMASS">     -3.00000000</i>
   <i name="SCALEE">      1.00000000</i>
  </separator>
  <separator name="ionic md" >
   <i name="TEBEG">      0.00010000</i>
   <i name="TEEND">      0.00010000</i>
   <i type="int" name="NBLOCK">     1</i>
   <i type="int" name="KBLOCK">  1000</i>
   <i type="int" name="NPACO">   256</i>
   <i name="APACO">     16.00000000</i>
  </separator>
  <separator name="symmetry" >
   <i type="int" name="ISYM">     0</i>
   <i name="SYMPREC">      0.00001000</i>
  </separator>
  <separator name="dos" >
   <i type="int" name="LORBIT">     0</i>
   <v name="RWIGS">     -1.00000000</v>
   <i type="int" name="NEDOS">   301</i>
   <i name="EMIN">     10.00000000</i>
   <i name="EMAX">    -10.00000000</i>
   <i name="EFERMI">      0.00000000</i>
  </separator>
  <separator name="writing" >
   <i type="int" name="NWRITE">     2</i>
   <i type="logical" name="LWAVE"> F  </i>
   <i type="logical" name="LDOWNSAMPLE"> F  </i>
   <i type="logical" name="LCHARG"> F  </i>
   <i type="logical" name="LPARD"> F  </i>
   <i type="logical" name="LVTOT"> F  </i>
   <i type="logical" name="LVHAR"> F  </i>
   <i type="logical" name="LELF"> F  </i>
   <i type="logical" name="LOPTICS"> F  </i>
   <v name="STM">      0.00000000      0.00000000      0.00000000      0.00000000      0.00000000      0.00000000      0.00000000</v>
  </separator>
  <separator name="performance" >
   <i type="int" name="NPAR">     2</i>
   <i type="int" name="NSIM">     4</i>
   <i type="int" name="NBLK">    -1</i>
   <i type="logical" name="LPLANE"> T  </i>
   <i type="logical" name="LSCALAPACK"> T  </i>
   <i type="logical" name="LSCAAWARE"> F  </i>
   <i type="logical" name="LSCALU"> F  </i>
   <i type="logical" name="LASYNC"> F  </i>
   <i type="logical" name="LORBITALREAL"> F  </i>
  </separator>
  <separator name="miscellaneous" >
   <i type="int" name="IDIOT">     3</i>
   <i type="int" name="PHON_NSTRUCT">    -1</i>
   <i type="logical" name="LMUSIC"> F  </i>
   <v name="POMASS">     58.69000000</v>
   <v name="DARWINR">      0.00000000</v>
   <v name="DARWINV">      1.00000000</v>
   <i type="logical" name="LCORR"> T  </i>
  </separator>
  <i type="logical" name="GGA_COMPAT"> T  </i>
  <i type="logical" name="LBERRY"> F  </i>
  <i type="int" name="ICORELEVEL">     0</i>
  <i type="logical" name="LDAU"> F  </i>
  <i type="int" name="I_CONSTRAINED_M">     0</i>
  <separator name="electronic exchange-correlation" >
   <i type="string" name="GGA">PE</i>
   <i type="int" name="VOSKOWN">     0</i>
   <i type="logical" name="LHFCALC"> F  </i>
   <i type="string" name="PRECFOCK"></i>
   <i type="logical" name="LSYMGRAD"> F  </i>
   <i type="logical" name="LHFONE"> F  </i>
   <i type="logical" name="LRHFCALC"> F  </i>
   <i type="logical" name="LTHOMAS"> F  </i>
   <i type="logical" name="LMODELHF"> F  </i>
   <i type="logical" name="LFOCKACE"> F  </i>
   <i name="ENCUT4O">     -1.00000000</i>
   <i type="int" name="EXXOEP">     0</i>
   <i type="int" name="FOURORBIT">     0</i>
   <i name="AEXX">      0.00000000</i>
   <i name="HFALPHA">      0.00000000</i>
   <i name="MCALPHA">      0.00000000</i>
   <i name="ALDAX">      1.00000000</i>
   <i name="AGGAX">      1.00000000</i>
   <i name="ALDAC">      1.00000000</i>
   <i name="AGGAC">      1.00000000</i>
   <i type="int" name="NKREDX">     1</i>
   <i type="int" name="NKREDY">     1</i>
   <i type="int" name="NKREDZ">     1</i>
   <i type="logical" name="SHIFTRED"> F  </i>
   <i type="logical" name="ODDONLY"> F  </i>
   <i type="logical" name="EVENONLY"> F  </i>
   <i type="int" name="LMAXFOCK">     0</i>
   <i type="int" name="NMAXFOCKAE">     0</i>
   <i type="logical" name="LFOCKAEDFT"> F  </i>
   <i name="HFSCREEN">      0.00000000</i>
   <i name="HFSCREENC">      0.00000000</i>
   <i type="int" name="NBANDSGWLOW">     0</i>
  </separator>
  <separator name="vdW DFT" >
   <i type="logical" name="LUSE_VDW"> F  </i>
   <i name="Zab_VDW">     -0.84910000</i>
   <i name="PARAM1">      0.12340000</i>
   <i name="PARAM2">      1.00000000</i>
   <i name="PARAM3">      0.00000000</i>
  </separator>
  <separator name="model GW" >
   <i type="int" name="MODEL_GW">     0</i>
   <i name="MODEL_EPS0">    790.68879815</i>
   <i name="MODEL_ALPHA">      1.00000000</i>
  </separator>
  <separator name="linear response parameters" >
   <i type="logical" name="LEPSILON"> F  </i>
   <i type="logical" name="LRPA"> F  </i>
   <i type="logical" name="LNABLA"> F  </i>
   <i type="logical" name="LVEL"> F  </i>
   <i type="int" name="KINTER">     0</i>
   <i name="CSHIFT">      0.10000000</i>
   <i name="OMEGAMAX">     -1.00000000</i>
   <i name="DEG_THRESHOLD">      0.00200000</i>
   <i name="RTIME">     -0.10000000</i>
   <i name="WPLASMAI">      0.00000000</i>
   <v name="DFIELD">      0.00000000      0.00000000      0.00000000</v>
   <v name="WPLASMA">      0.00000000      0.00000000      0.00000000      0.00000000      0.00000000      0.00000000      0.00000000      0.00000000      0.00000000</v>
  </separator>
  <separator name="orbital magnetization" >
   <i type="logical" name="NUCIND"> F  </i>
   <v name="MAGPOS">      0.00000000      0.00000000      0.00000000</v>
   <i type="logical" name="LNICSALL"> T  </i>
   <i type="logical" name="ORBITALMAG"> F  </i>
   <i type="logical" name="LMAGBLOCH"> F  </i>
   <i type="logical" name="LCHIMAG"> F  </i>
   <i type="logical" name="LGAUGE"> T  </i>
   <i type="int" name="MAGATOM">     0</i>
   <v name="MAGDIPOL">      0.00000000      0.00000000      0.00000000</v>
   <v name="AVECCONST">      0.00000000      0.00000000      0.00000000</v>
  </separator>
  <separator name="response functions" >
   <i type="logical" name="LFINITE_TEMPERATURE"> F  </i>
   <i type="logical" name="LADDER"> F  </i>
   <i type="logical" name="LRPAFORCE"> F  </i>
   <i type="logical" name="LFXC"> F  </i>
   <i type="logical" name="LHARTREE"> T  </i>
   <i type="int" name="IBSE">     0</i>
   <v type="int" name="KPOINT">    -1     0     0     0</v>
   <i type="logical" name="LTCTC"> F  </i>
   <i type="logical" name="LTCTE"> F  </i>
   <i type="logical" name="LTETE"> F  </i>
   <i type="logical" name="LTRIPLET"> F  </i>
   <i type="logical" name="LFXCEPS"> F  </i>
   <i type="logical" name="LFXHEG"> F  </i>
   <i type="int" name="NATURALO">     2</i>
   <i type="logical" name="LHOLEGF"> F  </i>
   <i type="logical" name="L2ORDER"> F  </i>
   <i type="logical" name="LDMP1"> F  </i>
   <i type="logical" name="LMP2LT"> F  </i>
   <i type="logical" name="LSMP2LT"> F  </i>
   <i type="logical" name="LGWLF"> F  </i>
   <i name="ENCUTGW">     -2.00000000</i>
   <i name="ENCUTGWSOFT">     -2.00000000</i>
   <i name="ENCUTLF">     -1.00000000</i>
   <i type="logical" name="LESF_SPLINES"> F  </i>
   <i type="int" name="LMAXMP2">    -1</i>
   <i name="SCISSOR">      0.00000000</i>
   <i type="int" name="NOMEGA">     0</i>
   <i type="int" name="NOMEGAR">     0</i>
   <i type="int" name="NBANDSGW">    -1</i>
   <i type="int" name="NBANDSO">    -1</i>
   <i type="int" name="NBANDSV">    -1</i>
   <i type="int" name="NELM">     1</i>
   <i type="int" name="NELMHF">     1</i>
   <i type="int" name="DIM">     3</i>
   <i type="int" name="IESPILON">     4</i>
   <i type="int" name="ANTIRES">     0</i>
   <i name="OMEGAMAX">    -30.00000000</i>
   <i name="OMEGAMIN">    -30.00000000</i>
   <i name="OMEGATL">   -200.00000000</i>
   <i type="int" name="OMEGAGRID">     0</i>
   <i name="CSHIFT">     -0.10000000</i>
   <i type="logical" name="LSELFENERGY"> F  </i>
   <i type="logical" name="LSPECTRAL"> F  </i>
   <i type="logical" name="LSPECTRALGW"> F  </i>
   <i type="logical" name="LSINGLES"> F  </i>
   <i type="logical" name="LFERMIGW"> F  </i>
   <i type="logical" name="ODDONLYGW"> F  </i>
   <i type="logical" name="EVENONLYGW"> F  </i>
   <i type="int" name="NKREDLFX">     1</i>
   <i type="int" name="NKREDLFY">     1</i>
   <i type="int" name="NKREDLFZ">     1</i>
   <i type="int" name="MAXMEM">  2800</i>
   <i type="int" name="TELESCOPE">     0</i>
   <i type="int" name="NTAUPAR">    -1</i>
   <i type="int" name="NOMEGAPAR">    -1</i>
   <i name="LAMBDA">      1.00000000</i>
  </separator>
  <separator name="External order field" >
   <i name="OFIELD_KAPPA">      0.00000000</i>
   <v name="OFIELD_K">      0.00000000      0.00000000      0.00000000</v>
   <i name="OFIELD_Q6_NEAR">      0.00000000</i>
   <i name="OFIELD_Q6_FAR">      0.00000000</i>
   <i name="OFIELD_A">      0.00000000</i>
  </separator>
 </parameters>
 <atominfo>
  <atoms>      10 </atoms>
  <types>       1 </types>
  <array name="atoms" >
   <dimension dim="1">ion</dimension>
   <field type="string">element</field>
   <field type="int">atomtype</field>
   <set>
    <rc><c>Ni</c><c>   1</c></rc>
    <rc><c>Ni</c><c>   1</c></rc>
    <rc><c>Ni</c><c>   1</c></rc>
    <rc><c>Ni</c><c>   1</c></rc>
    <rc><c>Ni</c><c>   1</c></rc>
    <rc><c>Ni</c><c>   1</c></rc>
    <rc><c>Ni</c><c>   1</c></rc>
    <rc><c>Ni</c><c>   1</c></rc>
    <rc><c>Ni</c><c>   1</c></rc>
    <rc><c>Ni</c><c>   1</c></rc>
   </set>
  </array>
  <array name="atomtypes" >
   <dimension dim="1">type</dimension>
   <field type="int">atomspertype</field>
   <field type="string">element</field>
   <field>mass</field>
   <field>valence</field>
   <field type="string">pseudopotential</field>
   <set>
    <rc><c>  10</c><c>Ni</c><c>     58.69000000</c><c>     10.00000000</c><c>  PAW_PBE Ni 02Aug2007                  </c></rc>
   </set>
  </array>
 </atominfo>
 <structure name="initialpos" >
  <crystal>
   <varray name="basis" >
    <v>      24.58301586       0.00000000       0.00000000 </v>
    <v>       0.00000000      24.83930864       0.00000000 </v>
    <v>       0.00000000       0.00000000      21.58140280 </v>
   </varray>
   <i name="volume">  13178.14663588 </i>
   <varray name="rec_basis" >
    <v>       0.04067849       0.00000000       0.00000000 </v>
    <v>       0.00000000       0.04025877       0.00000000 </v>
    <v>       0.00000000       0.00000000       0.04633619 </v>
   </varray>
  </crystal>
  <varray name="positions" >
   <v>       0.52009008       0.52552136       0.55157965 </v>
   <v>       0.43541356       0.55418668       0.59782259 </v>
   <v>       0.50338042       0.45922000       0.46839893 </v>
   <v>       0.53803888       0.42944487       0.56953846 </v>
   <v>       0.37384973       0.59059893       0.52783657 </v>
   <v>       0.59400785       0.48102725       0.50095612 </v>
   <v>       0.40669142       0.43966137       0.46612578 </v>
   <v>       0.44423285       0.46121543       0.56647919 </v>
   <v>       0.43813127       0.53127225       0.48608833 </v>
   <v>       0.46909898       0.37779683       0.51509128 </v>
  </varray>
 </structure>
 <calculation>
  <scstep>
   <time name="dav">    6.75    6.76</time>
   <time name="total">    9.61    9.63</time>
   <energy>
    <i name="alphaZ">      3.86999799 </i>
    <i name="ewald">  12749.47637527 </i>
    <i name="hartreedc"> -22601.58549930 </i>
    <i name="XCdc">    304.45863231 </i>
    <i name="pawpsdc">   9628.33173603 </i>
    <i name="pawaedc"> -10296.70712275 </i>
    <i name="eentropy">      0.03281481 </i>
    <i name="bandstr">     66.56826200 </i>
    <i name="atom">  10776.63837129 </i>
    <i name="e_fr_energy">    631.08356765 </i>
    <i name="e_wo_entrp">    631.05075284 </i>
    <i name="e_0_energy">    631.07262938 </i>
   </energy>
  </scstep>
  <scstep>
   <time name="dav">   10.93   11.00</time>
   <time name="total">   10.94   11.01</time>
   <energy>
    <i name="e_fr_energy">    123.49992648 </i>
    <i name="e_wo_entrp">    123.54563456 </i>
    <i name="e_0_energy">    123.51516251 </i>
   </energy>
  </scstep>
  <scstep>
   <time name="dav">    7.48    7.50</time>
   <time name="total">    7.49    7.50</time>
   <energy>
    <i name="e_fr_energy">    -25.01699001 </i>
    <i name="e_wo_entrp">    -25.01629350 </i>
    <i name="e_0_energy">    -25.01675784 </i>
   </energy>
  </scstep>
  <scstep>
   <time name="dav">    7.31    7.32</time>
   <time name="total">    7.32    7.33</time>
   <energy>
    <i name="e_fr_energy">    -40.56981822 </i>
    <i name="e_wo_entrp">    -40.55359938 </i>
    <i name="e_0_energy">    -40.56441194 </i>
   </energy>
  </scstep>
  <scstep>
   <time name="dav">    7.75    7.76</time>
   <time name="total">    8.51    8.52</time>
   <energy>
    <i name="e_fr_energy">    -41.04721950 </i>
    <i name="e_wo_entrp">    -41.02850509 </i>
    <i name="e_0_energy">    -41.04098136 </i>
   </energy>
  </scstep>
  <scstep>
   <time name="dav">    7.44    7.44</time>
   <time name="total">   11.01   11.03</time>
   <energy>
    <i name="e_fr_energy">    -45.59944182 </i>
    <i name="e_wo_entrp">    -45.57578492 </i>
    <i name="e_0_energy">    -45.59155619 </i>
   </energy>
  </scstep>
  <scstep>
   <time name="dav">    7.15    7.16</time>
   <time name="total">   10.82   10.83</time>
   <energy>
    <i name="e_fr_energy">    -40.10128275 </i>
    <i name="e_wo_entrp">    -40.09885349 </i>
    <i name="e_0_energy">    -40.10047299 </i>
   </energy>
  </scstep>
  <scstep>
   <time name="dav">    7.36    7.37</time>
   <time name="total">   11.03   11.06</time>
   <energy>
    <i name="e_fr_energy">    -40.09493438 </i>
    <i name="e_wo_entrp">    -40.10456687 </i>
    <i name="e_0_energy">    -40.09814521 </i>
   </energy>
  </scstep>
  <scstep>
   <time name="dav">    7.64    7.65</time>
   <time name="total">   11.31   11.33</time>
   <energy>
    <i name="e_fr_energy">    -37.87316458 </i>
    <i name="e_wo_entrp">    -37.87364317 </i>
    <i name="e_0_energy">    -37.87332411 </i>
   </energy>
  </scstep>
  <scstep>
   <time name="dav">    7.81    7.83</time>
   <time name="total">   11.49   11.51</time>
   <energy>
    <i name="e_fr_energy">    -36.54020793 </i>
    <i name="e_wo_entrp">    -36.46416187 </i>
    <i name="e_0_energy">    -36.51485925 </i>
   </energy>
  </scstep>
  <scstep>
   <time name="dav">    8.70    8.71</time>
   <time name="total">   12.37   12.39</time>
   <energy>
    <i name="e_fr_energy">    -36.33656917 </i>
    <i name="e_wo_entrp">    -36.29946738 </i>
    <i name="e_0_energy">    -36.32420191 </i>
   </energy>
  </scstep>
  <scstep>
   <time name="dav">    7.25    7.25</time>
   <time name="total">   10.91   10.92</time>
   <energy>
    <i name="e_fr_energy">    -36.46633503 </i>
    <i name="e_wo_entrp">    -36.46357827 </i>
    <i name="e_0_energy">    -36.46541611 </i>
   </energy>
  </scstep>
  <scstep>
   <time name="dav">    7.50    7.51</time>
   <time name="total">   11.17   11.19</time>
   <energy>
    <i name="e_fr_energy">    -35.38851947 </i>
    <i name="e_wo_entrp">    -35.36365697 </i>
    <i name="e_0_energy">    -35.38023197 </i>
   </energy>
  </scstep>
  <scstep>
   <time name="dav">    8.25    8.27</time>
   <time name="total">   11.93   11.95</time>
   <energy>
    <i name="e_fr_energy">    -35.20395702 </i>
    <i name="e_wo_entrp">    -35.15583111 </i>
    <i name="e_0_energy">    -35.18791505 </i>
   </energy>
  </scstep>
  <scstep>
   <time name="dav">    7.56    7.57</time>
   <time name="total">   11.24   11.25</time>
   <energy>
    <i name="e_fr_energy">    -35.09553154 </i>
    <i name="e_wo_entrp">    -35.06161026 </i>
    <i name="e_0_energy">    -35.08422445 </i>
   </energy>
  </scstep>
  <scstep>
   <time name="dav">    8.43    8.44</time>
   <time name="total">   12.10   12.12</time>
   <energy>
    <i name="e_fr_energy">    -35.42011133 </i>
    <i name="e_wo_entrp">    -35.38871989 </i>
    <i name="e_0_energy">    -35.40964752 </i>
   </energy>
  </scstep>
  <scstep>
   <time name="dav">    7.07    7.08</time>
   <time name="total">   10.78   10.79</time>
   <energy>
    <i name="e_fr_energy">    -35.05610592 </i>
    <i name="e_wo_entrp">    -35.03012075 </i>
    <i name="e_0_energy">    -35.04744419 </i>
   </energy>
  </scstep>
  <scstep>
   <time name="dav">    8.86    8.87</time>
   <time name="total">   12.53   12.55</time>
   <energy>
    <i name="e_fr_energy">    -35.12723773 </i>
    <i name="e_wo_entrp">    -35.09409882 </i>
    <i name="e_0_energy">    -35.11619143 </i>
   </energy>
  </scstep>
  <scstep>
   <time name="dav">    7.69    7.70</time>
   <time name="total">   11.38   11.40</time>
   <energy>
    <i name="e_fr_energy">    -35.09593103 </i>
    <i name="e_wo_entrp">    -35.05400900 </i>
    <i name="e_0_energy">    -35.08195702 </i>
   </energy>
  </scstep>
  <scstep>
   <time name="dav">    8.55    8.56</time>
   <time name="total">   12.25   12.26</time>
   <energy>
    <i name="e_fr_energy">    -35.16388657 </i>
    <i name="e_wo_entrp">    -35.12219297 </i>
    <i name="e_0_energy">    -35.14998870 </i>
   </energy>
  </scstep>
  <scstep>
   <time name="dav">    8.03    8.04</time>
   <time name="total">   11.75   11.78</time>
   <energy>
    <i name="e_fr_energy">    -35.23735124 </i>
    <i name="e_wo_entrp">    -35.20280616 </i>
    <i name="e_0_energy">    -35.22583621 </i>
   </energy>
  </scstep>
  <scstep>
   <time name="dav">    7.19    7.20</time>
   <time name="total">   10.92   10.94</time>
   <energy>
    <i name="e_fr_energy">    -35.24294887 </i>
    <i name="e_wo_entrp">    -35.21131851 </i>
    <i name="e_0_energy">    -35.23240542 </i>
   </energy>
  </scstep>
  <scstep>
   <time name="dav">    7.42    7.43</time>
   <time name="total">   11.14   11.16</time>
   <energy>
    <i name="e_fr_energy">    -35.28046002 </i>
    <i name="e_wo_entrp">    -35.24818689 </i>
    <i name="e_0_energy">    -35.26970231 </i>
   </energy>
  </scstep>
  <scstep>
   <time name="dav">    8.46    8.47</time>
   <time name="total">   12.21   12.22</time>
   <energy>
    <i name="e_fr_energy">    -35.30553667 </i>
    <i name="e_wo_entrp">    -35.27590543 </i>
    <i name="e_0_energy">    -35.29565959 </i>
   </energy>
  </scstep>
  <scstep>
   <time name="dav">    7.32    7.32</time>
   <time name="total">   11.08   11.10</time>
   <energy>
    <i name="e_fr_energy">    -35.31501010 </i>
    <i name="e_wo_entrp">    -35.28709614 </i>
    <i name="e_0_energy">    -35.30570545 </i>
   </energy>
  </scstep>
  <scstep>
   <time name="dav">    8.48    8.48</time>
   <time name="total">   12.25   12.27</time>
   <energy>
    <i name="e_fr_energy">    -35.32741907 </i>
    <i name="e_wo_entrp">    -35.30015823 </i>
    <i name="e_0_energy">    -35.31833213 </i>
   </energy>
  </scstep>
  <scstep>
   <time name="dav">    7.49    7.50</time>
   <time name="total">   11.25   11.27</time>
   <energy>
    <i name="e_fr_energy">    -35.33561269 </i>
    <i name="e_wo_entrp">    -35.30785727 </i>
    <i name="e_0_energy">    -35.32636088 </i>
   </energy>
  </scstep>
  <scstep>
   <time name="dav">    6.69    6.70</time>
   <time name="total">   10.49   10.50</time>
   <energy>
    <i name="e_fr_energy">    -35.34452281 </i>
    <i name="e_wo_entrp">    -35.31719272 </i>
    <i name="e_0_energy">    -35.33541278 </i>
   </energy>
  </scstep>
  <scstep>
   <time name="dav">    5.69    5.69</time>
   <time name="total">    9.51    9.53</time>
   <energy>
    <i name="e_fr_energy">    -35.35287246 </i>
    <i name="e_wo_entrp">    -35.32575933 </i>
    <i name="e_0_energy">    -35.34383475 </i>
   </energy>
  </scstep>
  <scstep>
   <time name="dav">    5.40    5.40</time>
   <time name="total">    9.21    9.22</time>
   <energy>
    <i name="e_fr_energy">    -35.35937554 </i>
    <i name="e_wo_entrp">    -35.33251156 </i>
    <i name="e_0_energy">    -35.35042088 </i>
   </energy>
  </scstep>
  <scstep>
   <time name="dav">    5.27    5.28</time>
   <time name="total">    9.12    9.14</time>
   <energy>
    <i name="e_fr_energy">    -35.36375903 </i>
    <i name="e_wo_entrp">    -35.33704508 </i>
    <i name="e_0_energy">    -35.35485438 </i>
   </energy>
  </scstep>
  <scstep>
   <time name="dav">    5.20    5.20</time>
   <time name="total">    9.06    9.08</time>
   <energy>
    <i name="e_fr_energy">    -35.36755032 </i>
    <i name="e_wo_entrp">    -35.34091493 </i>
    <i name="e_0_energy">    -35.35867186 </i>
   </energy>
  </scstep>
  <scstep>
   <time name="dav">    5.26    5.27</time>
   <time name="total">    9.12    9.14</time>
   <energy>
    <i name="e_fr_energy">    -35.37107727 </i>
    <i name="e_wo_entrp">    -35.34463537 </i>
    <i name="e_0_energy">    -35.36226330 </i>
   </energy>
  </scstep>
  <scstep>
   <time name="dav">    5.18    5.19</time>
   <time name="total">    9.06    9.08</time>
   <energy>
    <i name="e_fr_energy">    -35.37252640 </i>
    <i name="e_wo_entrp">    -35.34609990 </i>
    <i name="e_0_energy">    -35.36371756 </i>
   </energy>
  </scstep>
  <scstep>
   <time name="dav">    5.00    5.00</time>
   <time name="total">    8.91    8.92</time>
   <energy>
    <i name="e_fr_energy">    -35.37386895 </i>
    <i name="e_wo_entrp">    -35.34747427 </i>
    <i name="e_0_energy">    -35.36507072 </i>
   </energy>
  </scstep>
  <scstep>
   <time name="dav">    5.19    5.20</time>
   <time name="total">    9.14    9.16</time>
   <energy>
    <i name="e_fr_energy">    -35.37462880 </i>
    <i name="e_wo_entrp">    -35.34813185 </i>
    <i name="e_0_energy">    -35.36579648 </i>
   </energy>
  </scstep>
  <scstep>
   <time name="dav">    5.28    5.29</time>
   <time name="total">    9.21    9.23</time>
   <energy>
    <i name="e_fr_energy">    -35.37496753 </i>
    <i name="e_wo_entrp">    -35.34855651 </i>
    <i name="e_0_energy">    -35.36616386 </i>
   </energy>
  </scstep>
  <scstep>
   <time name="dav">    5.12    5.13</time>
   <time name="total">    9.08    9.10</time>
   <energy>
    <i name="e_fr_energy">    -35.37529718 </i>
    <i name="e_wo_entrp">    -35.34884304 </i>
    <i name="e_0_energy">    -35.36647914 </i>
   </energy>
  </scstep>
  <scstep>
   <time name="dav">    5.13    5.14</time>
   <time name="total">    9.14    9.15</time>
   <energy>
    <i name="e_fr_energy">    -35.37555427 </i>
    <i name="e_wo_entrp">    -35.34911115 </i>
    <i name="e_0_energy">    -35.36673990 </i>
   </energy>
  </scstep>
  <scstep>
   <time name="dav">    5.20    5.21</time>
   <time name="total">    9.24    9.25</time>
   <energy>
    <i name="e_fr_energy">    -35.37581180 </i>
    <i name="e_wo_entrp">    -35.34937354 </i>
    <i name="e_0_energy">    -35.36699905 </i>
   </energy>
  </scstep>
  <scstep>
   <time name="dav">    4.98    4.98</time>
   <time name="total">    9.01    9.03</time>
   <energy>
    <i name="e_fr_energy">    -35.37599782 </i>
    <i name="e_wo_entrp">    -35.34958084 </i>
    <i name="e_0_energy">    -35.36719216 </i>
   </energy>
  </scstep>
  <scstep>
   <time name="dav">    4.96    4.96</time>
   <time name="total">    9.01    9.03</time>
   <energy>
    <i name="e_fr_energy">    -35.37616311 </i>
    <i name="e_wo_entrp">    -35.34972858 </i>
    <i name="e_0_energy">    -35.36735160 </i>
   </energy>
  </scstep>
  <scstep>
   <time name="dav">    4.95    4.96</time>
   <time name="total">    9.03    9.04</time>
   <energy>
    <i name="e_fr_energy">    -35.37629297 </i>
    <i name="e_wo_entrp">    -35.34985833 </i>
    <i name="e_0_energy">    -35.36748142 </i>
   </energy>
  </scstep>
  <scstep>
   <time name="dav">    4.81    4.81</time>
   <time name="total">    8.89    8.91</time>
   <energy>
    <i name="e_fr_energy">    -35.37641921 </i>
    <i name="e_wo_entrp">    -35.34998377 </i>
    <i name="e_0_energy">    -35.36760740 </i>
   </energy>
  </scstep>
  <scstep>
   <time name="dav">    5.00    5.01</time>
   <time name="total">    7.85    7.87</time>
   <energy>
    <i name="alphaZ">      3.86999799 </i>
    <i name="ewald">  12749.47637527 </i>
    <i name="hartreedc"> -22631.34868993 </i>
    <i name="XCdc">    299.94108219 </i>
    <i name="pawpsdc">  10506.92901106 </i>
    <i name="pawaedc"> -11185.27046994 </i>
    <i name="eentropy">     -0.02642363 </i>
    <i name="bandstr">   -555.58574807 </i>
    <i name="atom">  10776.63837129 </i>
    <i name="e_fr_energy">    -35.37649377 </i>
    <i name="e_wo_entrp">    -35.35007013 </i>
    <i name="e_0_energy">    -35.36768589 </i>
   </energy>
  </scstep>
  <structure>
   <crystal>
    <varray name="basis" >
     <v>      24.58301586       0.00000000       0.00000000 </v>
     <v>       0.00000000      24.83930864       0.00000000 </v>
     <v>       0.00000000       0.00000000      21.58140280 </v>
    </varray>
    <i name="volume">  13178.14663588 </i>
    <varray name="rec_basis" >
     <v>       0.04067849       0.00000000       0.00000000 </v>
     <v>       0.00000000       0.04025877       0.00000000 </v>
     <v>       0.00000000       0.00000000       0.04633619 </v>
    </varray>
   </crystal>
   <varray name="positions" >
    <v>       0.52009008       0.52552136       0.55157965 </v>
    <v>       0.43541356       0.55418668       0.59782259 </v>
    <v>       0.50338042       0.45922000       0.46839893 </v>
    <v>       0.53803888       0.42944487       0.56953846 </v>
    <v>       0.37384973       0.59059893       0.52783657 </v>
    <v>       0.59400785       0.48102725       0.50095612 </v>
    <v>       0.40669142       0.43966137       0.46612578 </v>
    <v>       0.44423285       0.46121543       0.56647919 </v>
    <v>       0.43813127       0.53127225       0.48608833 </v>
    <v>       0.46909898       0.37779683       0.51509128 </v>
   </varray>
  </structure>
  <varray name="forces" >
   <v>      -0.36747618      -0.58148090      -0.31616830 </v>
   <v>       0.11053416      -0.56886915      -1.05542120 </v>
   <v>      -0.03084350       0.01850432       0.76188740 </v>
   <v>      -0.21871146       0.47181311      -0.85464684 </v>
   <v>       0.69032520      -0.49619144       0.04879470 </v>
   <v>      -1.12585401      -0.19839846       0.40996143 </v>
   <v>       0.97692334       0.31426718       0.51641509 </v>
   <v>       0.26979323       0.24433585      -0.53681417 </v>
   <v>      -0.27203193      -0.17460178       0.88172945 </v>
   <v>      -0.03265885       0.97062126       0.14426244 </v>
  </varray>
  <energy>
   <i name="e_fr_energy">    -35.37649377 </i>
   <i name="e_wo_entrp">    -35.35007013 </i>
   <i name="e_0_energy">    -35.36768589 </i>
  </energy>
  <time name="totalsc">  471.91  472.76</time>
 </calculation>
 <calculation>
  <scstep>
   <time name="dav">    6.70    6.71</time>
   <time name="total">   10.33   10.34</time>
   <energy>
    <i name="alphaZ">      3.86999799 </i>
    <i name="ewald">  13170.19653864 </i>
    <i name="hartreedc"> -23046.54432473 </i>
    <i name="XCdc">    300.99695516 </i>
    <i name="pawpsdc">  10506.92058987 </i>
    <i name="pawaedc"> -11185.26203445 </i>
    <i name="eentropy">     -0.00521153 </i>
    <i name="bandstr">   -562.38180383 </i>
    <i name="atom">  10776.63837129 </i>
    <i name="e_fr_energy">    -35.57092159 </i>
    <i name="e_wo_entrp">    -35.56571007 </i>
    <i name="e_0_energy">    -35.56918442 </i>
   </energy>
  </scstep>
  <scstep>
   <time name="dav">    8.60    8.61</time>
   <time name="total">   12.21   12.22</time>
   <energy>
    <i name="e_fr_energy">    -37.52286637 </i>
    <i name="e_wo_entrp">    -37.51622955 </i>
    <i name="e_0_energy">    -37.52065409 </i>
   </energy>
  </scstep>
  <scstep>
   <time name="dav">    7.30    7.31</time>
   <time name="total">   10.93   10.95</time>
   <energy>
    <i name="e_fr_energy">    -35.65152011 </i>
    <i name="e_wo_entrp">    -35.59803316 </i>
    <i name="e_0_energy">    -35.63369113 </i>
   </energy>
  </scstep>
  <scstep>
   <time name="dav">    8.66    8.67</time>
   <time name="total">   12.29   12.31</time>
   <energy>
    <i name="e_fr_energy">    -35.74233650 </i>
    <i name="e_wo_entrp">    -35.72549646 </i>
    <i name="e_0_energy">    -35.73672315 </i>
   </energy>
  </scstep>
  <scstep>
   <time name="dav">    7.91    7.92</time>
   <time name="total">   11.52   11.53</time>
   <energy>
    <i name="e_fr_energy">    -35.79711104 </i>
    <i name="e_wo_entrp">    -35.77116998 </i>
    <i name="e_0_energy">    -35.78846402 </i>
   </energy>
  </scstep>
  <scstep>
   <time name="dav">    7.47    7.48</time>
   <time name="total">   11.07   11.09</time>
   <energy>
    <i name="e_fr_energy">    -35.66995348 </i>
    <i name="e_wo_entrp">    -35.64817059 </i>
    <i name="e_0_energy">    -35.66269251 </i>
   </energy>
  </scstep>
  <scstep>
   <time name="dav">    8.11    8.12</time>
   <time name="total">   11.71   11.73</time>
   <energy>
    <i name="e_fr_energy">    -35.72825249 </i>
    <i name="e_wo_entrp">    -35.71524832 </i>
    <i name="e_0_energy">    -35.72391777 </i>
   </energy>
  </scstep>
  <scstep>
   <time name="dav">    7.42    7.43</time>
   <time name="total">   11.06   11.08</time>
   <energy>
    <i name="e_fr_energy">    -35.69868673 </i>
    <i name="e_wo_entrp">    -35.67814358 </i>
    <i name="e_0_energy">    -35.69183902 </i>
   </energy>
  </scstep>
  <scstep>
   <time name="dav">    7.42    7.43</time>
   <time name="total">   11.07   11.09</time>
   <energy>
    <i name="e_fr_energy">    -35.70265106 </i>
    <i name="e_wo_entrp">    -35.67903424 </i>
    <i name="e_0_energy">    -35.69477879 </i>
   </energy>
  </scstep>
  <scstep>
   <time name="dav">    7.85    7.87</time>
   <time name="total">   11.51   11.53</time>
   <energy>
    <i name="e_fr_energy">    -35.71406147 </i>
    <i name="e_wo_entrp">    -35.69782301 </i>
    <i name="e_0_energy">    -35.70864865 </i>
   </energy>
  </scstep>
  <scstep>
   <time name="dav">    7.58    7.59</time>
   <time name="total">   11.25   11.27</time>
   <energy>
    <i name="e_fr_energy">    -35.70282923 </i>
    <i name="e_wo_entrp">    -35.68292317 </i>
    <i name="e_0_energy">    -35.69619388 </i>
   </energy>
  </scstep>
  <scstep>
   <time name="dav">    7.95    7.96</time>
   <time name="total">   11.63   11.65</time>
   <energy>
    <i name="e_fr_energy">    -35.70696834 </i>
    <i name="e_wo_entrp">    -35.69185635 </i>
    <i name="e_0_energy">    -35.70193101 </i>
   </energy>
  </scstep>
  <scstep>
   <time name="dav">    7.25    7.26</time>
   <time name="total">   10.94   10.95</time>
   <energy>
    <i name="e_fr_energy">    -35.70510594 </i>
    <i name="e_wo_entrp">    -35.68609023 </i>
    <i name="e_0_energy">    -35.69876737 </i>
   </energy>
  </scstep>
  <scstep>
   <time name="dav">    8.18    8.19</time>
   <time name="total">   11.88   11.89</time>
   <energy>
    <i name="e_fr_energy">    -35.70627805 </i>
    <i name="e_wo_entrp">    -35.68571314 </i>
    <i name="e_0_energy">    -35.69942308 </i>
   </energy>
  </scstep>
  <scstep>
   <time name="dav">    7.39    7.40</time>
   <time name="total">   11.09   11.10</time>
   <energy>
    <i name="e_fr_energy">    -35.70620996 </i>
    <i name="e_wo_entrp">    -35.68656607 </i>
    <i name="e_0_energy">    -35.69966200 </i>
   </energy>
  </scstep>
  <scstep>
   <time name="dav">    6.25    6.26</time>
   <time name="total">    9.96    9.98</time>
   <energy>
    <i name="e_fr_energy">    -35.70666889 </i>
    <i name="e_wo_entrp">    -35.68806133 </i>
    <i name="e_0_energy">    -35.70046637 </i>
   </energy>
  </scstep>
  <scstep>
   <time name="dav">    5.05    5.05</time>
   <time name="total">    8.77    8.79</time>
   <energy>
    <i name="e_fr_energy">    -35.70718574 </i>
    <i name="e_wo_entrp">    -35.68862802 </i>
    <i name="e_0_energy">    -35.70099984 </i>
   </energy>
  </scstep>
  <scstep>
   <time name="dav">    5.15    5.16</time>
   <time name="total">    8.02    8.03</time>
   <energy>
    <i name="alphaZ">      3.86999799 </i>
    <i name="ewald">  13170.19653864 </i>
    <i name="hartreedc"> -23041.13299992 </i>
    <i name="XCdc">    300.65608206 </i>
    <i name="pawpsdc">  10672.70459092 </i>
    <i name="pawaedc"> -11353.10398229 </i>
    <i name="eentropy">     -0.01860730 </i>
    <i name="bandstr">   -565.51713054 </i>
    <i name="atom">  10776.63837129 </i>
    <i name="e_fr_energy">    -35.70713914 </i>
    <i name="e_wo_entrp">    -35.68853184 </i>
    <i name="e_0_energy">    -35.70093671 </i>
   </energy>
  </scstep>
  <structure>
   <crystal>
    <varray name="basis" >
     <v>      24.58301586       0.00000000       0.00000000 </v>
     <v>       0.00000000      24.83930864       0.00000000 </v>
     <v>       0.00000000       0.00000000      21.58140280 </v>
    </varray>
    <i name="volume">  13178.14663588 </i>
    <varray name="rec_basis" >
     <v>       0.04067849       0.00000000       0.00000000 </v>
     <v>       0.00000000       0.04025877       0.00000000 </v>
     <v>       0.00000000       0.00000000       0.04633619 </v>
    </varray>
   </crystal>
   <varray name="positions" >
    <v>       0.51936893       0.52439201       0.55087290 </v>
    <v>       0.43563047       0.55308183       0.59546333 </v>
    <v>       0.50331990       0.45925594       0.47010204 </v>
    <v>       0.53760967       0.43036122       0.56762799 </v>
    <v>       0.37520445       0.58963523       0.52794565 </v>
    <v>       0.59179843       0.48064192       0.50187254 </v>
    <v>       0.40860857       0.44027173       0.46728017 </v>
    <v>       0.44476231       0.46168998       0.56527921 </v>
    <v>       0.43759742       0.53093314       0.48805933 </v>
    <v>       0.46903489       0.37968196       0.51541376 </v>
   </varray>
  </structure>
  <varray name="forces" >
   <v>      -0.17999320      -0.11811153      -0.12373027 </v>
   <v>       0.15253967      -0.42135758      -0.54624295 </v>
   <v>       0.00347155       0.05877792       0.15766310 </v>
   <v>      -0.05360430       0.11612330      -0.33788351 </v>
   <v>       0.32407548      -0.21605242      -0.03337087 </v>
   <v>      -0.54754572      -0.06808323       0.18260994 </v>
   <v>       0.53868820       0.23476655       0.21385656 </v>
   <v>       0.01165794       0.03487065      -0.02782688 </v>
   <v>      -0.19789374      -0.03872662       0.36568241 </v>
   <v>      -0.05139588       0.41779296       0.14924248 </v>
  </varray>
  <energy>
   <i name="e_fr_energy">    -35.70713914 </i>
   <i name="e_wo_entrp">    -35.68853184 </i>
   <i name="e_0_energy">    -35.70093671 </i>
  </energy>
  <time name="totalsc">  207.82  208.17</time>
 </calculation>
 <calculation>
  <scstep>
   <time name="dav">    6.73    6.74</time>
   <time name="total">   10.36   10.38</time>
   <energy>
    <i name="alphaZ">      3.86999799 </i>
    <i name="ewald">  13440.70990877 </i>
    <i name="hartreedc"> -23307.19544632 </i>
    <i name="XCdc">    301.34274096 </i>
    <i name="pawpsdc">  10672.70451912 </i>
    <i name="pawaedc"> -11353.08936978 </i>
    <i name="eentropy">     -0.00673010 </i>
    <i name="bandstr">   -570.68761184 </i>
    <i name="atom">  10776.63837129 </i>
    <i name="e_fr_energy">    -35.71361990 </i>
    <i name="e_wo_entrp">    -35.70688980 </i>
    <i name="e_0_energy">    -35.71137653 </i>
   </energy>
  </scstep>
  <scstep>
   <time name="dav">    8.74    8.75</time>
   <time name="total">   12.37   12.39</time>
   <energy>
    <i name="e_fr_energy">    -36.44962731 </i>
    <i name="e_wo_entrp">    -36.42419096 </i>
    <i name="e_0_energy">    -36.44114852 </i>
   </energy>
  </scstep>
  <scstep>
   <time name="dav">    7.24    7.25</time>
   <time name="total">   10.87   10.89</time>
   <energy>
    <i name="e_fr_energy">    -35.67951371 </i>
    <i name="e_wo_entrp">    -35.65341103 </i>
    <i name="e_0_energy">    -35.67081282 </i>
   </energy>
  </scstep>
  <scstep>
   <time name="dav">    8.63    8.64</time>
   <time name="total">   12.26   12.28</time>
   <energy>
    <i name="e_fr_energy">    -35.78135148 </i>
    <i name="e_wo_entrp">    -35.76949772 </i>
    <i name="e_0_energy">    -35.77740023 </i>
   </energy>
  </scstep>
  <scstep>
   <time name="dav">    7.43    7.44</time>
   <time name="total">   11.06   11.07</time>
   <energy>
    <i name="e_fr_energy">    -35.78794001 </i>
    <i name="e_wo_entrp">    -35.76753048 </i>
    <i name="e_0_energy">    -35.78113683 </i>
   </energy>
  </scstep>
  <scstep>
   <time name="dav">    7.26    7.27</time>
   <time name="total">   10.93   10.95</time>
   <energy>
    <i name="e_fr_energy">    -35.75096957 </i>
    <i name="e_wo_entrp">    -35.73752569 </i>
    <i name="e_0_energy">    -35.74648827 </i>
   </energy>
  </scstep>
  <scstep>
   <time name="dav">    8.44    8.45</time>
   <time name="total">   12.08   12.10</time>
   <energy>
    <i name="e_fr_energy">    -35.77303418 </i>
    <i name="e_wo_entrp">    -35.76284715 </i>
    <i name="e_0_energy">    -35.76963850 </i>
   </energy>
  </scstep>
  <scstep>
   <time name="dav">    7.28    7.29</time>
   <time name="total">   10.92   10.93</time>
   <energy>
    <i name="e_fr_energy">    -35.76287663 </i>
    <i name="e_wo_entrp">    -35.74685793 </i>
    <i name="e_0_energy">    -35.75753706 </i>
   </energy>
  </scstep>
  <scstep>
   <time name="dav">    8.02    8.03</time>
   <time name="total">   11.67   11.69</time>
   <energy>
    <i name="e_fr_energy">    -35.76959070 </i>
    <i name="e_wo_entrp">    -35.75088236 </i>
    <i name="e_0_energy">    -35.76335459 </i>
   </energy>
  </scstep>
  <scstep>
   <time name="dav">    7.54    7.55</time>
   <time name="total">   11.20   11.22</time>
   <energy>
    <i name="e_fr_energy">    -35.76604511 </i>
    <i name="e_wo_entrp">    -35.75277915 </i>
    <i name="e_0_energy">    -35.76162312 </i>
   </energy>
  </scstep>
  <scstep>
   <time name="dav">    7.30    7.30</time>
   <time name="total">   10.99   11.00</time>
   <energy>
    <i name="e_fr_energy">    -35.76496485 </i>
    <i name="e_wo_entrp">    -35.75087161 </i>
    <i name="e_0_energy">    -35.76026711 </i>
   </energy>
  </scstep>
  <scstep>
   <time name="dav">    8.08    8.09</time>
   <time name="total">   11.78   11.79</time>
   <energy>
    <i name="e_fr_energy">    -35.76591088 </i>
    <i name="e_wo_entrp">    -35.75421913 </i>
    <i name="e_0_energy">    -35.76201363 </i>
   </energy>
  </scstep>
  <scstep>
   <time name="dav">    7.31    7.33</time>
   <time name="total">   11.01   11.03</time>
   <energy>
    <i name="e_fr_energy">    -35.76611133 </i>
    <i name="e_wo_entrp">    -35.75252634 </i>
    <i name="e_0_energy">    -35.76158300 </i>
   </energy>
  </scstep>
  <scstep>
   <time name="dav">    6.91    6.92</time>
   <time name="total">    9.79    9.80</time>
   <energy>
    <i name="alphaZ">      3.86999799 </i>
    <i name="ewald">  13440.70990877 </i>
    <i name="hartreedc"> -23303.73908074 </i>
    <i name="XCdc">    301.14013177 </i>
    <i name="pawpsdc">  10791.26767153 </i>
    <i name="pawaedc"> -11473.12702606 </i>
    <i name="eentropy">     -0.01446217 </i>
    <i name="bandstr">   -572.51171194 </i>
    <i name="atom">  10776.63837129 </i>
    <i name="e_fr_energy">    -35.76619956 </i>
    <i name="e_wo_entrp">    -35.75173738 </i>
    <i name="e_0_energy">    -35.76137883 </i>
   </energy>
  </scstep>
  <structure>
   <crystal>
    <varray name="basis" >
     <v>      24.58301586       0.00000000       0.00000000 </v>
     <v>       0.00000000      24.83930864       0.00000000 </v>
     <v>       0.00000000       0.00000000      21.58140280 </v>
    </varray>
    <i name="volume">  13178.14663588 </i>
    <varray name="rec_basis" >
     <v>       0.04067849       0.00000000       0.00000000 </v>
     <v>       0.00000000       0.04025877       0.00000000 </v>
     <v>       0.00000000       0.00000000       0.04633619 </v>
    </varray>
   </crystal>
   <varray name="positions" >
    <v>       0.51892043       0.52368964       0.55043335 </v>
    <v>       0.43576538       0.55239469       0.59399604 </v>
    <v>       0.50328225       0.45927829       0.47116124 </v>
    <v>       0.53734274       0.43093112       0.56643983 </v>
    <v>       0.37604698       0.58903589       0.52801348 </v>
    <v>       0.59042434       0.48040228       0.50244249 </v>
    <v>       0.40980089       0.44065134       0.46799811 </v>
    <v>       0.44509159       0.46198511       0.56453291 </v>
    <v>       0.43726541       0.53072224       0.48928514 </v>
    <v>       0.46899503       0.38085437       0.51561432 </v>
   </varray>
  </structure>
  <varray name="forces" >
   <v>      -0.05202322       0.23171379       0.02307272 </v>
   <v>       0.18612023      -0.29914474      -0.08589261 </v>
   <v>       0.01133671       0.09548677      -0.33467332 </v>
   <v>       0.04893404      -0.18060099       0.10709114 </v>
   <v>       0.04658260       0.01173274      -0.08922718 </v>
   <v>      -0.08553564       0.04739647      -0.01886377 </v>
   <v>       0.19507782       0.18402763      -0.02404798 </v>
   <v>      -0.16413730      -0.11417955       0.35303835 </v>
   <v>      -0.12663541       0.03166980      -0.09064318 </v>
   <v>      -0.05971983      -0.00810192       0.16014583 </v>
  </varray>
  <energy>
   <i name="e_fr_energy">    -35.76619956 </i>
   <i name="e_wo_entrp">    -35.75173738 </i>
   <i name="e_0_energy">    -35.76137883 </i>
  </energy>
  <time name="totalsc">  167.89  168.16</time>
 </calculation>
 <calculation>
  <scstep>
   <time name="dav">    6.70    6.70</time>
   <time name="total">   10.34   10.35</time>
   <energy>
    <i name="alphaZ">      3.86999799 </i>
    <i name="ewald">  13458.06624975 </i>
    <i name="hartreedc"> -23321.35042404 </i>
    <i name="XCdc">    301.17266446 </i>
    <i name="pawpsdc">  10791.26699998 </i>
    <i name="pawaedc"> -11473.13070056 </i>
    <i name="eentropy">     -0.00555013 </i>
    <i name="bandstr">   -572.30839917 </i>
    <i name="atom">  10776.63837129 </i>
    <i name="e_fr_energy">    -35.78079043 </i>
    <i name="e_wo_entrp">    -35.77524030 </i>
    <i name="e_0_energy">    -35.77894039 </i>
   </energy>
  </scstep>
  <scstep>
   <time name="dav">    8.49    8.50</time>
   <time name="total">   12.09   12.11</time>
   <energy>
    <i name="e_fr_energy">    -36.06264682 </i>
    <i name="e_wo_entrp">    -36.03678462 </i>
    <i name="e_0_energy">    -36.05402608 </i>
   </energy>
  </scstep>
  <scstep>
   <time name="dav">    7.78    7.79</time>
   <time name="total">   11.40   11.42</time>
   <energy>
    <i name="e_fr_energy">    -35.74393163 </i>
    <i name="e_wo_entrp">    -35.72034228 </i>
    <i name="e_0_energy">    -35.73606851 </i>
   </energy>
  </scstep>
  <scstep>
   <time name="dav">    8.72    8.73</time>
   <time name="total">   12.34   12.36</time>
   <energy>
    <i name="e_fr_energy">    -35.78858132 </i>
    <i name="e_wo_entrp">    -35.78304991 </i>
    <i name="e_0_energy">    -35.78673752 </i>
   </energy>
  </scstep>
  <scstep>
   <time name="dav">    7.71    7.72</time>
   <time name="total">   11.37   11.39</time>
   <energy>
    <i name="e_fr_energy">    -35.80127710 </i>
    <i name="e_wo_entrp">    -35.79321930 </i>
    <i name="e_0_energy">    -35.79859116 </i>
   </energy>
  </scstep>
  <scstep>
   <time name="dav">    7.26    7.27</time>
   <time name="total">   10.92   10.94</time>
   <energy>
    <i name="e_fr_energy">    -35.78742093 </i>
    <i name="e_wo_entrp">    -35.77919104 </i>
    <i name="e_0_energy">    -35.78467763 </i>
   </energy>
  </scstep>
  <scstep>
   <time name="dav">    7.66    7.67</time>
   <time name="total">   11.32   11.34</time>
   <energy>
    <i name="e_fr_energy">    -35.79117657 </i>
    <i name="e_wo_entrp">    -35.78485609 </i>
    <i name="e_0_energy">    -35.78906974 </i>
   </energy>
  </scstep>
  <scstep>
   <time name="dav">    7.37    7.38</time>
   <time name="total">   11.04   11.06</time>
   <energy>
    <i name="e_fr_energy">    -35.79062925 </i>
    <i name="e_wo_entrp">    -35.78116678 </i>
    <i name="e_0_energy">    -35.78747509 </i>
   </energy>
  </scstep>
  <scstep>
   <time name="dav">    7.26    7.27</time>
   <time name="total">   10.93   10.95</time>
   <energy>
    <i name="e_fr_energy">    -35.79071557 </i>
    <i name="e_wo_entrp">    -35.78050164 </i>
    <i name="e_0_energy">    -35.78731093 </i>
   </energy>
  </scstep>
  <scstep>
   <time name="dav">    7.41    7.42</time>
   <time name="total">   11.09   11.11</time>
   <energy>
    <i name="e_fr_energy">    -35.79096571 </i>
    <i name="e_wo_entrp">    -35.78130546 </i>
    <i name="e_0_energy">    -35.78774563 </i>
   </energy>
  </scstep>
  <scstep>
   <time name="dav">    7.08    7.09</time>
   <time name="total">   10.74   10.76</time>
   <energy>
    <i name="e_fr_energy">    -35.78964466 </i>
    <i name="e_wo_entrp">    -35.78072336 </i>
    <i name="e_0_energy">    -35.78667090 </i>
   </energy>
  </scstep>
  <scstep>
   <time name="dav">    7.05    7.06</time>
   <time name="total">   10.74   10.76</time>
   <energy>
    <i name="e_fr_energy">    -35.79028502 </i>
    <i name="e_wo_entrp">    -35.78251833 </i>
    <i name="e_0_energy">    -35.78769612 </i>
   </energy>
  </scstep>
  <scstep>
   <time name="dav">    6.35    6.36</time>
   <time name="total">   10.04   10.05</time>
   <energy>
    <i name="e_fr_energy">    -35.79014694 </i>
    <i name="e_wo_entrp">    -35.78208540 </i>
    <i name="e_0_energy">    -35.78745976 </i>
   </energy>
  </scstep>
  <scstep>
   <time name="dav">    4.88    4.88</time>
   <time name="total">    8.58    8.60</time>
   <energy>
    <i name="e_fr_energy">    -35.79037118 </i>
    <i name="e_wo_entrp">    -35.78167160 </i>
    <i name="e_0_energy">    -35.78747132 </i>
   </energy>
  </scstep>
  <scstep>
   <time name="dav">    4.83    4.83</time>
   <time name="total">    7.70    7.72</time>
   <energy>
    <i name="alphaZ">      3.86999799 </i>
    <i name="ewald">  13458.06624975 </i>
    <i name="hartreedc"> -23321.47235018 </i>
    <i name="XCdc">    301.16019958 </i>
    <i name="pawpsdc">  10793.08208522 </i>
    <i name="pawaedc"> -11474.90794067 </i>
    <i name="eentropy">     -0.00885653 </i>
    <i name="bandstr">   -572.21816645 </i>
    <i name="atom">  10776.63837129 </i>
    <i name="e_fr_energy">    -35.79041000 </i>
    <i name="e_wo_entrp">    -35.78155347 </i>
    <i name="e_0_energy">    -35.78745782 </i>
   </energy>
  </scstep>
  <structure>
   <crystal>
    <varray name="basis" >
     <v>      24.58301586       0.00000000       0.00000000 </v>
     <v>       0.00000000      24.83930864       0.00000000 </v>
     <v>       0.00000000       0.00000000      21.58140280 </v>
    </varray>
    <i name="volume">  13178.14663588 </i>
    <varray name="rec_basis" >
     <v>       0.04067849       0.00000000       0.00000000 </v>
     <v>       0.00000000       0.04025877       0.00000000 </v>
     <v>       0.00000000       0.00000000       0.04633619 </v>
    </varray>
   </crystal>
   <varray name="positions" >
    <v>       0.51872717       0.52407277       0.55041444 </v>
    <v>       0.43619966       0.55162121       0.59352344 </v>
    <v>       0.50330068       0.45949073       0.47050538 </v>
    <v>       0.53740401       0.43063644       0.56650112 </v>
    <v>       0.37629717       0.58895665       0.52780108 </v>
    <v>       0.58999519       0.48046385       0.50249479 </v>
    <v>       0.41043995       0.44111962       0.46806328 </v>
    <v>       0.44478702       0.46178740       0.56528967 </v>
    <v>       0.43692790       0.53075450       0.48927178 </v>
    <v>       0.46885629       0.38104180       0.51605193 </v>
   </varray>
  </structure>
  <varray name="forces" >
   <v>      -0.03093188       0.08159148      -0.03699300 </v>
   <v>       0.08650189      -0.16640029       0.03788369 </v>
   <v>       0.02205785       0.09554820      -0.17412717 </v>
   <v>      -0.02505291      -0.08827409       0.04188696 </v>
   <v>       0.01438695       0.04993428      -0.05910271 </v>
   <v>      -0.03852596       0.05152265      -0.01828340 </v>
   <v>       0.09078076       0.13632328      -0.04556648 </v>
   <v>      -0.05145599      -0.13650764       0.25673960 </v>
   <v>      -0.04116434      -0.03361295      -0.14242674 </v>
   <v>      -0.02659636       0.00987508       0.13998925 </v>
  </varray>
  <energy>
   <i name="e_fr_energy">    -35.79041000 </i>
   <i name="e_wo_entrp">    -35.78155347 </i>
   <i name="e_0_energy">    -35.78745782 </i>
  </energy>
  <time name="totalsc">  171.25  171.55</time>
 </calculation>
 <calculation>
  <scstep>
   <time name="dav">    6.69    6.69</time>
   <time name="total">   10.31   10.33</time>
   <energy>
    <i name="alphaZ">      3.86999799 </i>
    <i name="ewald">  13479.24609671 </i>
    <i name="hartreedc"> -23342.84186542 </i>
    <i name="XCdc">    301.20524563 </i>
    <i name="pawpsdc">  10793.10587395 </i>
    <i name="pawaedc"> -11474.93285208 </i>
    <i name="eentropy">      0.00110456 </i>
    <i name="bandstr">   -572.07488366 </i>
    <i name="atom">  10776.63837129 </i>
    <i name="e_fr_energy">    -35.78291101 </i>
    <i name="e_wo_entrp">    -35.78401557 </i>
    <i name="e_0_energy">    -35.78327920 </i>
   </energy>
  </scstep>
  <scstep>
   <time name="dav">    8.35    8.36</time>
   <time name="total">   11.98   11.99</time>
   <energy>
    <i name="e_fr_energy">    -36.16971478 </i>
    <i name="e_wo_entrp">    -36.15095183 </i>
    <i name="e_0_energy">    -36.16346047 </i>
   </energy>
  </scstep>
  <scstep>
   <time name="dav">    7.73    7.73</time>
   <time name="total">   11.38   11.40</time>
   <energy>
    <i name="e_fr_energy">    -35.74170910 </i>
    <i name="e_wo_entrp">    -35.72124358 </i>
    <i name="e_0_energy">    -35.73488726 </i>
   </energy>
  </scstep>
  <scstep>
   <time name="dav">    8.85    8.86</time>
   <time name="total">   12.49   12.51</time>
   <energy>
    <i name="e_fr_energy">    -35.79378677 </i>
    <i name="e_wo_entrp">    -35.79495530 </i>
    <i name="e_0_energy">    -35.79417628 </i>
   </energy>
  </scstep>
  <scstep>
   <time name="dav">    7.81    7.83</time>
   <time name="total">   11.45   11.48</time>
   <energy>
    <i name="e_fr_energy">    -35.80907766 </i>
    <i name="e_wo_entrp">    -35.80384383 </i>
    <i name="e_0_energy">    -35.80733305 </i>
   </energy>
  </scstep>
  <scstep>
   <time name="dav">    7.29    7.30</time>
   <time name="total">   10.92   10.94</time>
   <energy>
    <i name="e_fr_energy">    -35.79006009 </i>
    <i name="e_wo_entrp">    -35.78756938 </i>
    <i name="e_0_energy">    -35.78922985 </i>
   </energy>
  </scstep>
  <scstep>
   <time name="dav">    7.37    7.38</time>
   <time name="total">   11.03   11.04</time>
   <energy>
    <i name="e_fr_energy">    -35.79507312 </i>
    <i name="e_wo_entrp">    -35.79473891 </i>
    <i name="e_0_energy">    -35.79496171 </i>
   </energy>
  </scstep>
  <scstep>
   <time name="dav">    7.50    7.51</time>
   <time name="total">   11.15   11.17</time>
   <energy>
    <i name="e_fr_energy">    -35.79431014 </i>
    <i name="e_wo_entrp">    -35.79099795 </i>
    <i name="e_0_energy">    -35.79320608 </i>
   </energy>
  </scstep>
  <scstep>
   <time name="dav">    7.38    7.39</time>
   <time name="total">   11.04   11.05</time>
   <energy>
    <i name="e_fr_energy">    -35.79418733 </i>
    <i name="e_wo_entrp">    -35.78933528 </i>
    <i name="e_0_energy">    -35.79256998 </i>
   </energy>
  </scstep>
  <scstep>
   <time name="dav">    7.65    7.66</time>
   <time name="total">   11.31   11.33</time>
   <energy>
    <i name="e_fr_energy">    -35.79494632 </i>
    <i name="e_wo_entrp">    -35.79026307 </i>
    <i name="e_0_energy">    -35.79338524 </i>
   </energy>
  </scstep>
  <scstep>
   <time name="dav">    7.25    7.26</time>
   <time name="total">   10.93   10.94</time>
   <energy>
    <i name="e_fr_energy">    -35.79349563 </i>
    <i name="e_wo_entrp">    -35.78981355 </i>
    <i name="e_0_energy">    -35.79226827 </i>
   </energy>
  </scstep>
  <scstep>
   <time name="dav">    7.97    7.98</time>
   <time name="total">   11.67   11.69</time>
   <energy>
    <i name="e_fr_energy">    -35.79471318 </i>
    <i name="e_wo_entrp">    -35.79244111 </i>
    <i name="e_0_energy">    -35.79395582 </i>
   </energy>
  </scstep>
  <scstep>
   <time name="dav">    7.07    7.08</time>
   <time name="total">   10.77   10.79</time>
   <energy>
    <i name="e_fr_energy">    -35.79466779 </i>
    <i name="e_wo_entrp">    -35.79218281 </i>
    <i name="e_0_energy">    -35.79383946 </i>
   </energy>
  </scstep>
  <scstep>
   <time name="dav">    4.88    4.89</time>
   <time name="total">    8.58    8.59</time>
   <energy>
    <i name="e_fr_energy">    -35.79529646 </i>
    <i name="e_wo_entrp">    -35.79216334 </i>
    <i name="e_0_energy">    -35.79425209 </i>
   </energy>
  </scstep>
  <scstep>
   <time name="dav">    4.97    4.97</time>
   <time name="total">    8.67    8.68</time>
   <energy>
    <i name="e_fr_energy">    -35.79553042 </i>
    <i name="e_wo_entrp">    -35.79202205 </i>
    <i name="e_0_energy">    -35.79436097 </i>
   </energy>
  </scstep>
  <scstep>
   <time name="dav">    5.04    5.05</time>
   <time name="total">    8.76    8.77</time>
   <energy>
    <i name="e_fr_energy">    -35.79634044 </i>
    <i name="e_wo_entrp">    -35.79308677 </i>
    <i name="e_0_energy">    -35.79525588 </i>
   </energy>
  </scstep>
  <scstep>
   <time name="dav">    5.06    5.07</time>
   <time name="total">    8.80    8.82</time>
   <energy>
    <i name="e_fr_energy">    -35.79710928 </i>
    <i name="e_wo_entrp">    -35.79378775 </i>
    <i name="e_0_energy">    -35.79600211 </i>
   </energy>
  </scstep>
  <scstep>
   <time name="dav">    4.81    4.82</time>
   <time name="total">    8.55    8.56</time>
   <energy>
    <i name="e_fr_energy">    -35.79739165 </i>
    <i name="e_wo_entrp">    -35.79408442 </i>
    <i name="e_0_energy">    -35.79628924 </i>
   </energy>
  </scstep>
  <scstep>
   <time name="dav">    5.04    5.04</time>
   <time name="total">    8.80    8.81</time>
   <energy>
    <i name="e_fr_energy">    -35.79810629 </i>
    <i name="e_wo_entrp">    -35.79474930 </i>
    <i name="e_0_energy">    -35.79698730 </i>
   </energy>
  </scstep>
  <scstep>
   <time name="dav">    5.18    5.18</time>
   <time name="total">    8.94    8.96</time>
   <energy>
    <i name="e_fr_energy">    -35.79907692 </i>
    <i name="e_wo_entrp">    -35.79565760 </i>
    <i name="e_0_energy">    -35.79793715 </i>
   </energy>
  </scstep>
  <scstep>
   <time name="dav">    5.12    5.13</time>
   <time name="total">    8.89    8.90</time>
   <energy>
    <i name="e_fr_energy">    -35.79974903 </i>
    <i name="e_wo_entrp">    -35.79628704 </i>
    <i name="e_0_energy">    -35.79859503 </i>
   </energy>
  </scstep>
  <scstep>
   <time name="dav">    5.02    5.03</time>
   <time name="total">    8.82    8.84</time>
   <energy>
    <i name="e_fr_energy">    -35.80077311 </i>
    <i name="e_wo_entrp">    -35.79721628 </i>
    <i name="e_0_energy">    -35.79958750 </i>
   </energy>
  </scstep>
  <scstep>
   <time name="dav">    5.23    5.23</time>
   <time name="total">    9.05    9.06</time>
   <energy>
    <i name="e_fr_energy">    -35.80175780 </i>
    <i name="e_wo_entrp">    -35.79811102 </i>
    <i name="e_0_energy">    -35.80054221 </i>
   </energy>
  </scstep>
  <scstep>
   <time name="dav">    5.25    5.26</time>
   <time name="total">    9.07    9.08</time>
   <energy>
    <i name="e_fr_energy">    -35.80273252 </i>
    <i name="e_wo_entrp">    -35.79900300 </i>
    <i name="e_0_energy">    -35.80148935 </i>
   </energy>
  </scstep>
  <scstep>
   <time name="dav">    5.27    5.28</time>
   <time name="total">    9.11    9.13</time>
   <energy>
    <i name="e_fr_energy">    -35.80353084 </i>
    <i name="e_wo_entrp">    -35.79975438 </i>
    <i name="e_0_energy">    -35.80227202 </i>
   </energy>
  </scstep>
  <scstep>
   <time name="dav">    5.25    5.26</time>
   <time name="total">    9.11    9.13</time>
   <energy>
    <i name="e_fr_energy">    -35.80399563 </i>
    <i name="e_wo_entrp">    -35.80017530 </i>
    <i name="e_0_energy">    -35.80272219 </i>
   </energy>
  </scstep>
  <scstep>
   <time name="dav">    5.28    5.28</time>
   <time name="total">    9.16    9.18</time>
   <energy>
    <i name="e_fr_energy">    -35.80462627 </i>
    <i name="e_wo_entrp">    -35.80076719 </i>
    <i name="e_0_energy">    -35.80333991 </i>
   </energy>
  </scstep>
  <scstep>
   <time name="dav">    5.26    5.26</time>
   <time name="total">    9.15    9.16</time>
   <energy>
    <i name="e_fr_energy">    -35.80491321 </i>
    <i name="e_wo_entrp">    -35.80103133 </i>
    <i name="e_0_energy">    -35.80361925 </i>
   </energy>
  </scstep>
  <scstep>
   <time name="dav">    5.26    5.27</time>
   <time name="total">    9.16    9.18</time>
   <energy>
    <i name="e_fr_energy">    -35.80512555 </i>
    <i name="e_wo_entrp">    -35.80121755 </i>
    <i name="e_0_energy">    -35.80382288 </i>
   </energy>
  </scstep>
  <scstep>
   <time name="dav">    4.85    4.85</time>
   <time name="total">    7.72    7.73</time>
   <energy>
    <i name="alphaZ">      3.86999799 </i>
    <i name="ewald">  13479.24609671 </i>
    <i name="hartreedc"> -23343.02687023 </i>
    <i name="XCdc">    301.18166729 </i>
    <i name="pawpsdc">  10797.49605156 </i>
    <i name="pawaedc"> -11479.30742825 </i>
    <i name="eentropy">     -0.00391292 </i>
    <i name="bandstr">   -571.89919585 </i>
    <i name="atom">  10776.63837129 </i>
    <i name="e_fr_energy">    -35.80522240 </i>
    <i name="e_wo_entrp">    -35.80130948 </i>
    <i name="e_0_energy">    -35.80391810 </i>
   </energy>
  </scstep>
  <structure>
   <crystal>
    <varray name="basis" >
     <v>      24.58301586       0.00000000       0.00000000 </v>
     <v>       0.00000000      24.83930864       0.00000000 </v>
     <v>       0.00000000       0.00000000      21.58140280 </v>
    </varray>
    <i name="volume">  13178.14663588 </i>
    <varray name="rec_basis" >
     <v>       0.04067849       0.00000000       0.00000000 </v>
     <v>       0.00000000       0.04025877       0.00000000 </v>
     <v>       0.00000000       0.00000000       0.04633619 </v>
    </varray>
   </crystal>
   <varray name="positions" >
    <v>       0.51849587       0.52453131       0.55039180 </v>
    <v>       0.43671944       0.55069546       0.59295781 </v>
    <v>       0.50332274       0.45974498       0.46972041 </v>
    <v>       0.53747734       0.43028374       0.56657447 </v>
    <v>       0.37659662       0.58886181       0.52754687 </v>
    <v>       0.58948157       0.48053755       0.50255739 </v>
    <v>       0.41120480       0.44168010       0.46814127 </v>
    <v>       0.44442250       0.46155078       0.56619541 </v>
    <v>       0.43652394       0.53079311       0.48925579 </v>
    <v>       0.46869022       0.38126612       0.51657568 </v>
   </varray>
  </structure>
  <varray name="forces" >
   <v>       0.00975140      -0.09791811      -0.11625880 </v>
   <v>      -0.05206038       0.02127134       0.20329662 </v>
   <v>       0.04139136       0.09621233       0.00997480 </v>
   <v>      -0.10773784       0.01620441      -0.02252356 </v>
   <v>      -0.02837274       0.09744514      -0.01227072 </v>
   <v>       0.02166762       0.05972491      -0.01654463 </v>
   <v>      -0.04336655       0.07274257      -0.06687108 </v>
   <v>       0.08079649      -0.17392667       0.12579537 </v>
   <v>       0.06860047      -0.11293430      -0.21589455 </v>
   <v>       0.00933016       0.02117837       0.11129655 </v>
  </varray>
  <energy>
   <i name="e_fr_energy">    -35.80522240 </i>
   <i name="e_wo_entrp">    -35.80130948 </i>
   <i name="e_0_energy">    -35.80391810 </i>
  </energy>
  <time name="totalsc">  307.61  308.12</time>
 </calculation>
 <calculation>
  <scstep>
   <time name="dav">    6.72    6.73</time>
   <time name="total">   10.37   10.39</time>
   <energy>
    <i name="alphaZ">      3.86999799 </i>
    <i name="ewald">  13467.34540578 </i>
    <i name="hartreedc"> -23331.66742490 </i>
    <i name="XCdc">    301.13654920 </i>
    <i name="pawpsdc">  10797.49862099 </i>
    <i name="pawaedc"> -11479.31001884 </i>
    <i name="eentropy">     -0.00353862 </i>
    <i name="bandstr">   -571.31246762 </i>
    <i name="atom">  10776.63837129 </i>
    <i name="e_fr_energy">    -35.80450473 </i>
    <i name="e_wo_entrp">    -35.80096610 </i>
    <i name="e_0_energy">    -35.80332519 </i>
   </energy>
  </scstep>
  <scstep>
   <time name="dav">    8.95    8.96</time>
   <time name="total">   12.55   12.57</time>
   <energy>
    <i name="e_fr_energy">    -35.86185175 </i>
    <i name="e_wo_entrp">    -35.84893650 </i>
    <i name="e_0_energy">    -35.85754666 </i>
   </energy>
  </scstep>
  <scstep>
   <time name="dav">    7.29    7.31</time>
   <time name="total">   10.93   10.95</time>
   <energy>
    <i name="e_fr_energy">    -35.79970761 </i>
    <i name="e_wo_entrp">    -35.79465274 </i>
    <i name="e_0_energy">    -35.79802266 </i>
   </energy>
  </scstep>
  <scstep>
   <time name="dav">    8.88    8.89</time>
   <time name="total">   12.51   12.53</time>
   <energy>
    <i name="e_fr_energy">    -35.82446267 </i>
    <i name="e_wo_entrp">    -35.82460124 </i>
    <i name="e_0_energy">    -35.82450886 </i>
   </energy>
  </scstep>
  <scstep>
   <time name="dav">    7.28    7.29</time>
   <time name="total">   10.93   10.94</time>
   <energy>
    <i name="e_fr_energy">    -35.81044931 </i>
    <i name="e_wo_entrp">    -35.80752033 </i>
    <i name="e_0_energy">    -35.80947298 </i>
   </energy>
  </scstep>
  <scstep>
   <time name="dav">    8.76    8.77</time>
   <time name="total">   12.40   12.42</time>
   <energy>
    <i name="e_fr_energy">    -35.81166441 </i>
    <i name="e_wo_entrp">    -35.80658200 </i>
    <i name="e_0_energy">    -35.80997028 </i>
   </energy>
  </scstep>
  <scstep>
   <time name="dav">    8.08    8.09</time>
   <time name="total">   11.73   11.75</time>
   <energy>
    <i name="e_fr_energy">    -35.81338078 </i>
    <i name="e_wo_entrp">    -35.81074490 </i>
    <i name="e_0_energy">    -35.81250215 </i>
   </energy>
  </scstep>
  <scstep>
   <time name="dav">    7.39    7.39</time>
   <time name="total">   11.03   11.04</time>
   <energy>
    <i name="e_fr_energy">    -35.81252107 </i>
    <i name="e_wo_entrp">    -35.80743108 </i>
    <i name="e_0_energy">    -35.81082441 </i>
   </energy>
  </scstep>
  <scstep>
   <time name="dav">    7.40    7.41</time>
   <time name="total">   11.06   11.07</time>
   <energy>
    <i name="e_fr_energy">    -35.81304299 </i>
    <i name="e_wo_entrp">    -35.80825260 </i>
    <i name="e_0_energy">    -35.81144619 </i>
   </energy>
  </scstep>
  <scstep>
   <time name="dav">    7.24    7.25</time>
   <time name="total">   10.91   10.93</time>
   <energy>
    <i name="e_fr_energy">    -35.81237808 </i>
    <i name="e_wo_entrp">    -35.80834266 </i>
    <i name="e_0_energy">    -35.81103294 </i>
   </energy>
  </scstep>
  <scstep>
   <time name="dav">    6.26    6.26</time>
   <time name="total">    9.94    9.95</time>
   <energy>
    <i name="e_fr_energy">    -35.81272893 </i>
    <i name="e_wo_entrp">    -35.80905639 </i>
    <i name="e_0_energy">    -35.81150475 </i>
   </energy>
  </scstep>
  <scstep>
   <time name="dav">    5.09    5.10</time>
   <time name="total">    7.96    7.97</time>
   <energy>
    <i name="alphaZ">      3.86999799 </i>
    <i name="ewald">  13467.34540578 </i>
    <i name="hartreedc"> -23332.02961109 </i>
    <i name="XCdc">    301.14490936 </i>
    <i name="pawpsdc">  10788.02663494 </i>
    <i name="pawaedc"> -11469.68776092 </i>
    <i name="eentropy">     -0.00352575 </i>
    <i name="bandstr">   -571.11721264 </i>
    <i name="atom">  10776.63837129 </i>
    <i name="e_fr_energy">    -35.81279104 </i>
    <i name="e_wo_entrp">    -35.80926529 </i>
    <i name="e_0_energy">    -35.81161579 </i>
   </energy>
  </scstep>
  <structure>
   <crystal>
    <varray name="basis" >
     <v>      24.58301586       0.00000000       0.00000000 </v>
     <v>       0.00000000      24.83930864       0.00000000 </v>
     <v>       0.00000000       0.00000000      21.58140280 </v>
    </varray>
    <i name="volume">  13178.14663588 </i>
    <varray name="rec_basis" >
     <v>       0.04067849       0.00000000       0.00000000 </v>
     <v>       0.00000000       0.04025877       0.00000000 </v>
     <v>       0.00000000       0.00000000       0.04633619 </v>
    </varray>
   </crystal>
   <varray name="positions" >
    <v>       0.51844126       0.52442742       0.55002170 </v>
    <v>       0.43675971       0.55042774       0.59339233 </v>
    <v>       0.50344368       0.46009472       0.46947565 </v>
    <v>       0.53720848       0.43020367       0.56653008 </v>
    <v>       0.37662425       0.58909222       0.52741932 </v>
    <v>       0.58936034       0.48072509       0.50252785 </v>
    <v>       0.41135497       0.44207392       0.46796037 </v>
    <v>       0.44451537       0.46099690       0.56690554 </v>
    <v>       0.43656960       0.53050102       0.48857765 </v>
    <v>       0.46865739       0.38140227       0.51710641 </v>
   </varray>
  </structure>
  <varray name="forces" >
   <v>      -0.05891444      -0.07196366      -0.06731691 </v>
   <v>      -0.07398347      -0.00778616       0.01452932 </v>
   <v>       0.01333856       0.02761543       0.00775172 </v>
   <v>      -0.04097978       0.04597708      -0.03040545 </v>
   <v>       0.08902288      -0.00107772       0.00592908 </v>
   <v>       0.05212105       0.03394521      -0.00628287 </v>
   <v>      -0.01984208       0.02141112      -0.01842868 </v>
   <v>       0.02611415      -0.01917618       0.03863686 </v>
   <v>       0.01483220      -0.02283685       0.01245584 </v>
   <v>      -0.00170906      -0.00610828       0.04313110 </v>
  </varray>
  <energy>
   <i name="e_fr_energy">    -35.81279104 </i>
   <i name="e_wo_entrp">    -35.80926529 </i>
   <i name="e_0_energy">    -35.81161579 </i>
  </energy>
  <time name="totalsc">  142.90  143.14</time>
 </calculation>
 <calculation>
  <scstep>
   <time name="dav">    6.75    6.76</time>
   <time name="total">   10.37   10.39</time>
   <energy>
    <i name="alphaZ">      3.86999799 </i>
    <i name="ewald">  13464.62385855 </i>
    <i name="hartreedc"> -23329.42304597 </i>
    <i name="XCdc">    301.13405671 </i>
    <i name="pawpsdc">  10787.92581948 </i>
    <i name="pawaedc"> -11469.58432109 </i>
    <i name="eentropy">     -0.00426845 </i>
    <i name="bandstr">   -570.99304988 </i>
    <i name="atom">  10776.63837129 </i>
    <i name="e_fr_energy">    -35.81258137 </i>
    <i name="e_wo_entrp">    -35.80831292 </i>
    <i name="e_0_energy">    -35.81115855 </i>
   </energy>
  </scstep>
  <scstep>
   <time name="dav">    8.27    8.28</time>
   <time name="total">   11.89   11.91</time>
   <energy>
    <i name="e_fr_energy">    -35.82238514 </i>
    <i name="e_wo_entrp">    -35.81535119 </i>
    <i name="e_0_energy">    -35.82004049 </i>
   </energy>
  </scstep>
  <scstep>
   <time name="dav">    7.22    7.23</time>
   <time name="total">   10.86   10.87</time>
   <energy>
    <i name="e_fr_energy">    -35.80932301 </i>
    <i name="e_wo_entrp">    -35.80423173 </i>
    <i name="e_0_energy">    -35.80762592 </i>
   </energy>
  </scstep>
  <scstep>
   <time name="dav">    8.71    8.72</time>
   <time name="total">   12.35   12.37</time>
   <energy>
    <i name="e_fr_energy">    -35.81318488 </i>
    <i name="e_wo_entrp">    -35.80976569 </i>
    <i name="e_0_energy">    -35.81204515 </i>
   </energy>
  </scstep>
  <scstep>
   <time name="dav">    7.22    7.23</time>
   <time name="total">   10.88   10.90</time>
   <energy>
    <i name="e_fr_energy">    -35.81262371 </i>
    <i name="e_wo_entrp">    -35.80815666 </i>
    <i name="e_0_energy">    -35.81113469 </i>
   </energy>
  </scstep>
  <scstep>
   <time name="dav">    5.20    5.21</time>
   <time name="total">    8.85    8.87</time>
   <energy>
    <i name="e_fr_energy">    -35.81287162 </i>
    <i name="e_wo_entrp">    -35.80822812 </i>
    <i name="e_0_energy">    -35.81132379 </i>
   </energy>
  </scstep>
  <scstep>
   <time name="dav">    4.78    4.79</time>
   <time name="total">    8.42    8.43</time>
   <energy>
    <i name="e_fr_energy">    -35.81302420 </i>
    <i name="e_wo_entrp">    -35.80922066 </i>
    <i name="e_0_energy">    -35.81175635 </i>
   </energy>
  </scstep>
  <scstep>
   <time name="dav">    4.79    4.79</time>
   <time name="total">    7.65    7.67</time>
   <energy>
    <i name="alphaZ">      3.86999799 </i>
    <i name="ewald">  13464.62385855 </i>
    <i name="hartreedc"> -23329.55610349 </i>
    <i name="XCdc">    301.13634661 </i>
    <i name="pawpsdc">  10786.30235445 </i>
    <i name="pawaedc"> -11467.93944555 </i>
    <i name="eentropy">     -0.00456014 </i>
    <i name="bandstr">   -570.88380092 </i>
    <i name="atom">  10776.63837129 </i>
    <i name="e_fr_energy">    -35.81298121 </i>
    <i name="e_wo_entrp">    -35.80842108 </i>
    <i name="e_0_energy">    -35.81146117 </i>
   </energy>
  </scstep>
  <structure>
   <crystal>
    <varray name="basis" >
     <v>      24.58301586       0.00000000       0.00000000 </v>
     <v>       0.00000000      24.83930864       0.00000000 </v>
     <v>       0.00000000       0.00000000      21.58140280 </v>
    </varray>
    <i name="volume">  13178.14663588 </i>
    <varray name="rec_basis" >
     <v>       0.04067849       0.00000000       0.00000000 </v>
     <v>       0.00000000       0.04025877       0.00000000 </v>
     <v>       0.00000000       0.00000000       0.04633619 </v>
    </varray>
   </crystal>
   <varray name="positions" >
    <v>       0.51842861       0.52440337       0.54993600 </v>
    <v>       0.43676903       0.55036575       0.59349294 </v>
    <v>       0.50347168       0.46017569       0.46941899 </v>
    <v>       0.53714623       0.43018513       0.56651981 </v>
    <v>       0.37663065       0.58914557       0.52738979 </v>
    <v>       0.58933227       0.48076851       0.50252101 </v>
    <v>       0.41138973       0.44216510       0.46791848 </v>
    <v>       0.44453687       0.46086866       0.56706996 </v>
    <v>       0.43658017       0.53043339       0.48842064 </v>
    <v>       0.46864978       0.38143379       0.51722930 </v>
   </varray>
  </structure>
  <varray name="forces" >
   <v>      -0.07238312      -0.06149086      -0.05103051 </v>
   <v>      -0.08127272      -0.00731426      -0.01946759 </v>
   <v>       0.00143737       0.00933355       0.01958594 </v>
   <v>      -0.02127337       0.05092252      -0.02745456 </v>
   <v>       0.11661218      -0.02777285       0.00973076 </v>
   <v>       0.07133233       0.02866042      -0.00719029 </v>
   <v>      -0.02942787       0.00047676      -0.01349862 </v>
   <v>       0.02245504       0.02355421       0.00119494 </v>
   <v>      -0.00132961       0.00472766       0.06379327 </v>
   <v>      -0.00615021      -0.02109714       0.02433666 </v>
  </varray>
  <energy>
   <i name="e_fr_energy">    -35.81298121 </i>
   <i name="e_wo_entrp">    -35.80842108 </i>
   <i name="e_0_energy">    -35.81146117 </i>
  </energy>
  <time name="totalsc">   91.82   91.98</time>
 </calculation>
 <calculation>
  <scstep>
   <time name="dav">    6.70    6.71</time>
   <time name="total">   10.32   10.33</time>
   <energy>
    <i name="alphaZ">      3.86999799 </i>
    <i name="ewald">  13476.44552025 </i>
    <i name="hartreedc"> -23341.20652003 </i>
    <i name="XCdc">    301.16436959 </i>
    <i name="pawpsdc">  10786.17708591 </i>
    <i name="pawaedc"> -11467.81266667 </i>
    <i name="eentropy">     -0.00692600 </i>
    <i name="bandstr">   -571.08290309 </i>
    <i name="atom">  10776.63837129 </i>
    <i name="e_fr_energy">    -35.81367075 </i>
    <i name="e_wo_entrp">    -35.80674475 </i>
    <i name="e_0_energy">    -35.81136209 </i>
   </energy>
  </scstep>
  <scstep>
   <time name="dav">    7.87    7.88</time>
   <time name="total">   11.52   11.53</time>
   <energy>
[...]
       <r>    -1.6105     4.1011    60.6448 </r>
       <r>    -1.5640     3.6080    60.8124 </r>
       <r>    -1.5175     2.5821    60.9324 </r>
       <r>    -1.4710     1.3977    60.9974 </r>
       <r>    -1.4246     0.3888    61.0155 </r>
       <r>    -1.3781    -0.2710    61.0029 </r>
       <r>    -1.3316    -0.5400    60.9778 </r>
       <r>    -1.2852    -0.3999    60.9592 </r>
       <r>    -1.2387     0.2135    60.9691 </r>
       <r>    -1.1922     1.3677    61.0327 </r>
       <r>    -1.1457     3.0060    61.1724 </r>
       <r>    -1.0993     4.8456    61.3975 </r>
       <r>    -1.0528     6.4132    61.6956 </r>
       <r>    -1.0063     7.2433    62.0322 </r>
       <r>    -0.9598     7.1331    62.3637 </r>
       <r>    -0.9134     6.2811    62.6556 </r>
       <r>    -0.8669     5.1837    62.8965 </r>
       <r>    -0.8204     4.3351    63.0979 </r>
       <r>    -0.7740     3.9319    63.2807 </r>
       <r>    -0.7275     3.8054    63.4575 </r>
       <r>    -0.6810     3.6332    63.6263 </r>
       <r>    -0.6345     3.2567    63.7777 </r>
       <r>    -0.5881     2.8389    63.9096 </r>
       <r>    -0.5416     2.7415    64.0370 </r>
       <r>    -0.4951     3.2330    64.1873 </r>
       <r>    -0.4487     4.2687    64.3856 </r>
       <r>    -0.4022     5.4918    64.6409 </r>
       <r>    -0.3557     6.4212    64.9393 </r>
       <r>    -0.3092     6.6790    65.2496 </r>
       <r>    -0.2628     6.1345    65.5347 </r>
       <r>    -0.2163     4.9267    65.7637 </r>
       <r>    -0.1698     3.3856    65.9210 </r>
       <r>    -0.1234     1.8942    66.0090 </r>
       <r>    -0.0769     0.7434    66.0436 </r>
       <r>    -0.0304     0.0475    66.0458 </r>
       <r>     0.0161    -0.2480    66.0343 </r>
       <r>     0.0625    -0.2875    66.0209 </r>
       <r>     0.1090    -0.2161    66.0109 </r>
       <r>     0.1555    -0.1283    66.0049 </r>
       <r>     0.2020    -0.0638    66.0019 </r>
       <r>     0.2484    -0.0273    66.0007 </r>
       <r>     0.2949    -0.0101    66.0002 </r>
       <r>     0.3414    -0.0033    66.0001 </r>
       <r>     0.3878    -0.0010    66.0000 </r>
       <r>     0.4343    -0.0002    66.0000 </r>
       <r>     0.4808    -0.0001    66.0000 </r>
       <r>     0.5273    -0.0000    66.0000 </r>
       <r>     0.5737    -0.0000    66.0000 </r>
       <r>     0.6202    -0.0000    66.0000 </r>
       <r>     0.6667    -0.0000    66.0000 </r>
       <r>     0.7131    -0.0000    66.0000 </r>
       <r>     0.7596    -0.0000    66.0000 </r>
       <r>     0.8061    -0.0000    66.0000 </r>
       <r>     0.8526    -0.0000    66.0000 </r>
       <r>     0.8990    -0.0000    66.0000 </r>
       <r>     0.9455    -0.0000    66.0000 </r>
       <r>     0.9920    -0.0000    66.0000 </r>
       <r>     1.0385     0.0000    66.0000 </r>
       <r>     1.0849     0.0000    66.0000 </r>
       <r>     1.1314     0.0000    66.0000 </r>
       <r>     1.1779     0.0000    66.0000 </r>
       <r>     1.2243     0.0000    66.0000 </r>
       <r>     1.2708     0.0000    66.0000 </r>
       <r>     1.3173     0.0000    66.0000 </r>
       <r>     1.3638     0.0000    66.0000 </r>
       <r>     1.4102     0.0000    66.0000 </r>
       <r>     1.4567     0.0000    66.0000 </r>
       <r>     1.5032     0.0000    66.0000 </r>
       <r>     1.5496     0.0000    66.0000 </r>
       <r>     1.5961     0.0000    66.0000 </r>
       <r>     1.6426     0.0000    66.0000 </r>
       <r>     1.6891     0.0000    66.0000 </r>
       <r>     1.7355     0.0000    66.0000 </r>
       <r>     1.7820     0.0000    66.0000 </r>
       <r>     1.8285     0.0000    66.0000 </r>
       <r>     1.8749     0.0000    66.0000 </r>
       <r>     1.9214     0.0000    66.0000 </r>
       <r>     1.9679     0.0000    66.0000 </r>
       <r>     2.0144     0.0000    66.0000 </r>
      </set>
      <set comment="spin 2">
       <r>   -11.9273     0.0000     0.0000 </r>
       <r>   -11.8808     0.0000     0.0000 </r>
       <r>   -11.8343     0.0000     0.0000 </r>
       <r>   -11.7878     0.0000     0.0000 </r>
       <r>   -11.7414     0.0000     0.0000 </r>
       <r>   -11.6949     0.0000     0.0000 </r>
       <r>   -11.6484     0.0000     0.0000 </r>
       <r>   -11.6020     0.0000     0.0000 </r>
       <r>   -11.5555     0.0000     0.0000 </r>
       <r>   -11.5090    -0.0000    -0.0000 </r>
       <r>   -11.4625    -0.0000    -0.0000 </r>
       <r>   -11.4161    -0.0000    -0.0000 </r>
       <r>   -11.3696    -0.0000    -0.0000 </r>
       <r>   -11.3231    -0.0000    -0.0000 </r>
       <r>   -11.2767    -0.0000    -0.0000 </r>
       <r>   -11.2302    -0.0000    -0.0000 </r>
       <r>   -11.1837    -0.0000    -0.0000 </r>
       <r>   -11.1372    -0.0000    -0.0000 </r>
       <r>   -11.0908    -0.0000    -0.0000 </r>
       <r>   -11.0443    -0.0000    -0.0000 </r>
       <r>   -10.9978    -0.0000    -0.0000 </r>
       <r>   -10.9513    -0.0000    -0.0000 </r>
       <r>   -10.9049    -0.0000    -0.0000 </r>
       <r>   -10.8584    -0.0000    -0.0000 </r>
       <r>   -10.8119    -0.0000    -0.0000 </r>
       <r>   -10.7655    -0.0000    -0.0000 </r>
       <r>   -10.7190    -0.0000    -0.0000 </r>
       <r>   -10.6725    -0.0000    -0.0000 </r>
       <r>   -10.6260    -0.0000    -0.0000 </r>
       <r>   -10.5796    -0.0000    -0.0000 </r>
       <r>   -10.5331    -0.0002    -0.0000 </r>
       <r>   -10.4866    -0.0008    -0.0000 </r>
       <r>   -10.4402    -0.0028    -0.0002 </r>
       <r>   -10.3937    -0.0087    -0.0006 </r>
       <r>   -10.3472    -0.0235    -0.0017 </r>
       <r>   -10.3007    -0.0551    -0.0042 </r>
       <r>   -10.2543    -0.1100    -0.0093 </r>
       <r>   -10.2078    -0.1810    -0.0178 </r>
       <r>   -10.1613    -0.2263    -0.0283 </r>
       <r>   -10.1149    -0.1519    -0.0353 </r>
       <r>   -10.0684     0.1753    -0.0272 </r>
       <r>   -10.0219     0.8620     0.0129 </r>
       <r>    -9.9754     1.8853     0.1005 </r>
       <r>    -9.9290     3.0247     0.2410 </r>
       <r>    -9.8825     3.9095     0.4227 </r>
       <r>    -9.8360     4.1957     0.6177 </r>
       <r>    -9.7895     3.7637     0.7926 </r>
       <r>    -9.7431     2.7925     0.9224 </r>
       <r>    -9.6966     1.6499     0.9991 </r>
       <r>    -9.6501     0.6859     1.0310 </r>
       <r>    -9.6037     0.0789     1.0346 </r>
       <r>    -9.5572    -0.1839     1.0261 </r>
       <r>    -9.5107    -0.2227     1.0157 </r>
       <r>    -9.4642    -0.1661     1.0080 </r>
       <r>    -9.4178    -0.0965     1.0035 </r>
       <r>    -9.3713    -0.0466     1.0014 </r>
       <r>    -9.3248    -0.0193     1.0005 </r>
       <r>    -9.2784    -0.0069     1.0001 </r>
       <r>    -9.2319    -0.0022     1.0000 </r>
       <r>    -9.1854    -0.0006     1.0000 </r>
       <r>    -9.1389    -0.0001     1.0000 </r>
       <r>    -9.0925    -0.0000     1.0000 </r>
       <r>    -9.0460    -0.0000     1.0000 </r>
       <r>    -8.9995    -0.0000     1.0000 </r>
       <r>    -8.9530    -0.0000     1.0000 </r>
       <r>    -8.9066    -0.0000     1.0000 </r>
       <r>    -8.8601    -0.0000     1.0000 </r>
       <r>    -8.8136    -0.0000     1.0000 </r>
       <r>    -8.7672    -0.0000     1.0000 </r>
       <r>    -8.7207    -0.0000     1.0000 </r>
       <r>    -8.6742    -0.0002     1.0000 </r>
       <r>    -8.6277    -0.0008     1.0000 </r>
       <r>    -8.5813    -0.0028     0.9998 </r>
       <r>    -8.5348    -0.0086     0.9994 </r>
       <r>    -8.4883    -0.0233     0.9983 </r>
       <r>    -8.4419    -0.0552     0.9958 </r>
       <r>    -8.3954    -0.1118     0.9906 </r>
       <r>    -8.3489    -0.1892     0.9818 </r>
       <r>    -8.3024    -0.2514     0.9701 </r>
       <r>    -8.2560    -0.2135     0.9602 </r>
       <r>    -8.2095     0.0513     0.9626 </r>
       <r>    -8.1630     0.6599     0.9932 </r>
       <r>    -8.1166     1.6382     1.0694 </r>
       <r>    -8.0701     2.8672     1.2026 </r>
       <r>    -8.0236     4.1119     1.3937 </r>
       <r>    -7.9771     5.1260     1.6319 </r>
       <r>    -7.9307     5.7474     1.8990 </r>
       <r>    -7.8842     5.9129     2.1738 </r>
       <r>    -7.8377     5.6085     2.4344 </r>
       <r>    -7.7912     4.8461     2.6596 </r>
       <r>    -7.7448     3.7027     2.8317 </r>
       <r>    -7.6983     2.3680     2.9418 </r>
       <r>    -7.6518     1.1238     2.9940 </r>
       <r>    -7.6054     0.2565     3.0059 </r>
       <r>    -7.5589    -0.0338     3.0043 </r>
       <r>    -7.5124     0.3146     3.0190 </r>
       <r>    -7.4659     1.1976     3.0746 </r>
       <r>    -7.4195     2.3378     3.1833 </r>
       <r>    -7.3730     3.3415     3.3385 </r>
       <r>    -7.3265     3.8576     3.5178 </r>
       <r>    -7.2801     3.7800     3.6935 </r>
       <r>    -7.2336     3.3419     3.8488 </r>
       <r>    -7.1871     2.9933     3.9879 </r>
       <r>    -7.1406     3.1240     4.1331 </r>
       <r>    -7.0942     3.8261     4.3109 </r>
       <r>    -7.0477     4.8563     4.5366 </r>
       <r>    -7.0012     5.7908     4.8057 </r>
       <r>    -6.9547     6.2339     5.0954 </r>
       <r>    -6.9083     5.9646     5.3726 </r>
       <r>    -6.8618     4.9991     5.6049 </r>
       <r>    -6.8153     3.6025     5.7723 </r>
       <r>    -6.7689     2.2484     5.8768 </r>
       <r>    -6.7224     1.4967     5.9463 </r>
       <r>    -6.6759     1.7963     6.0298 </r>
       <r>    -6.6294     3.2977     6.1831 </r>
       <r>    -6.5830     5.7809     6.4517 </r>
       <r>    -6.5365     8.7380     6.8578 </r>
       <r>    -6.4900    11.5510     7.3946 </r>
       <r>    -6.4436    13.6593     8.0294 </r>
       <r>    -6.3971    14.6739     8.7113 </r>
       <r>    -6.3506    14.4671     9.3836 </r>
       <r>    -6.3041    13.2540     9.9995 </r>
       <r>    -6.2577    11.5840    10.5379 </r>
       <r>    -6.2112    10.1441    11.0093 </r>
       <r>    -6.1647     9.4264    11.4474 </r>
       <r>    -6.1183     9.4867    11.8882 </r>
       <r>    -6.0718     9.9844    12.3522 </r>
       <r>    -6.0253    10.4578    12.8382 </r>
       <r>    -5.9788    10.6022    13.3309 </r>
       <r>    -5.9324    10.3741    13.8130 </r>
       <r>    -5.8859     9.9340    14.2747 </r>
       <r>    -5.8394     9.5362    14.7179 </r>
       <r>    -5.7929     9.4330    15.1562 </r>
       <r>    -5.7465     9.7929    15.6113 </r>
       <r>    -5.7000    10.6319    16.1054 </r>
       <r>    -5.6535    11.7723    16.6525 </r>
       <r>    -5.6071    12.8528    17.2498 </r>
       <r>    -5.5606    13.4251    17.8737 </r>
       <r>    -5.5141    13.1559    18.4851 </r>
       <r>    -5.4676    12.0701    19.0460 </r>
       <r>    -5.4212    10.6480    19.5408 </r>
       <r>    -5.3747     9.6184    19.9878 </r>
       <r>    -5.3282     9.5144    20.4300 </r>
       <r>    -5.2818    10.3201    20.9096 </r>
       <r>    -5.2353    11.5192    21.4449 </r>
       <r>    -5.1888    12.5222    22.0268 </r>
       <r>    -5.1423    13.1001    22.6356 </r>
       <r>    -5.0959    13.4425    23.2603 </r>
       <r>    -5.0494    13.8227    23.9027 </r>
       <r>    -5.0029    14.2328    24.5641 </r>
       <r>    -4.9564    14.3704    25.2319 </r>
       <r>    -4.9100    13.9913    25.8821 </r>
       <r>    -4.8635    13.2649    26.4986 </r>
       <r>    -4.8170    12.7638    27.0917 </r>
       <r>    -4.7706    13.0797    27.6996 </r>
       <r>    -4.7241    14.4094    28.3692 </r>
       <r>    -4.6776    16.4568    29.1340 </r>
       <r>    -4.6311    18.6867    30.0024 </r>
       <r>    -4.5847    20.6749    30.9632 </r>
       <r>    -4.5382    22.2797    31.9986 </r>
       <r>    -4.4917    23.5631    33.0936 </r>
       <r>    -4.4453    24.6008    34.2369 </r>
       <r>    -4.3988    25.3653    35.4156 </r>
       <r>    -4.3523    25.7541    36.6125 </r>
       <r>    -4.3058    25.6912    37.8064 </r>
       <r>    -4.2594    25.1868    38.9769 </r>
       <r>    -4.2129    24.3230    40.1072 </r>
       <r>    -4.1664    23.2183    41.1862 </r>
       <r>    -4.1200    22.0227    42.2097 </r>
       <r>    -4.0735    20.9356    43.1826 </r>
       <r>    -4.0270    20.2124    44.1219 </r>
       <r>    -3.9805    20.1277    45.0573 </r>
       <r>    -3.9341    20.8682    46.0271 </r>
       <r>    -3.8876    22.3668    47.0665 </r>
       <r>    -3.8411    24.1716    48.1898 </r>
       <r>    -3.7946    25.4911    49.3744 </r>
       <r>    -3.7482    25.4703    50.5581 </r>
       <r>    -3.7017    23.5806    51.6539 </r>
       <r>    -3.6552    19.9077    52.5791 </r>
       <r>    -3.6088    15.1689    53.2840 </r>
       <r>    -3.5623    10.4396    53.7692 </r>
       <r>    -3.5158     6.7083    54.0809 </r>
       <r>    -3.4693     4.4704    54.2887 </r>
       <r>    -3.4229     3.5715    54.4546 </r>
       <r>    -3.3764     3.3897    54.6122 </r>
       <r>    -3.3299     3.2390    54.7627 </r>
       <r>    -3.2835     2.7310    54.8896 </r>
       <r>    -3.2370     1.8808    54.9770 </r>
       <r>    -3.1905     0.9484    55.0211 </r>
       <r>    -3.1440     0.1899    55.0299 </r>
       <r>    -3.0976    -0.2896    55.0165 </r>
       <r>    -3.0511    -0.5197    54.9923 </r>
       <r>    -3.0046    -0.5488    54.9668 </r>
       <r>    -2.9581    -0.3417    54.9509 </r>
       <r>    -2.9117     0.2339    54.9618 </r>
       <r>    -2.8652     1.3172    55.0230 </r>
       <r>    -2.8187     2.9098    55.1582 </r>
       <r>    -2.7723     4.7667    55.3797 </r>
       <r>    -2.7258     6.4173    55.6780 </r>
       <r>    -2.6793     7.3375    56.0190 </r>
       <r>    -2.6328     7.1967    56.3534 </r>
       <r>    -2.5864     6.0409    56.6341 </r>
       <r>    -2.5399     4.3004    56.8340 </r>
       <r>    -2.4934     2.6143    56.9555 </r>
       <r>    -2.4470     1.5587    57.0279 </r>
       <r>    -2.4005     1.4056    57.0932 </r>
       <r>    -2.3540     2.0190    57.1871 </r>
       <r>    -2.3075     2.9364    57.3235 </r>
       <r>    -2.2611     3.6157    57.4916 </r>
       <r>    -2.2146     3.7309    57.6649 </r>
       <r>    -2.1681     3.3474    57.8205 </r>
       <r>    -2.1217     2.8481    57.9529 </r>
       <r>    -2.0752     2.6476    58.0759 </r>
       <r>    -2.0287     2.8964    58.2105 </r>
       <r>    -1.9822     3.4006    58.3685 </r>
       <r>    -1.9358     3.8135    58.5458 </r>
       <r>    -1.8893     3.9307    58.7284 </r>
       <r>    -1.8428     3.8337    58.9066 </r>
       <r>    -1.7963     3.7614    59.0814 </r>
       <r>    -1.7499     3.8433    59.2600 </r>
       <r>    -1.7034     3.9540    59.4437 </r>
       <r>    -1.6569     3.8322    59.6218 </r>
       <r>    -1.6105     3.3528    59.7776 </r>
       <r>    -1.5640     2.6954    59.9029 </r>
       <r>    -1.5175     2.2488    60.0074 </r>
       <r>    -1.4710     2.3216    60.1153 </r>
       <r>    -1.4246     2.8930    60.2497 </r>
       <r>    -1.3781     3.5982    60.4170 </r>
       <r>    -1.3316     3.9571    60.6009 </r>
       <r>    -1.2852     3.6730    60.7715 </r>
       <r>    -1.2387     2.7892    60.9012 </r>
       <r>    -1.1922     1.6190    60.9764 </r>
       <r>    -1.1457     0.5424    61.0016 </r>
       <r>    -1.0993    -0.1602    60.9942 </r>
       <r>    -1.0528    -0.3460    60.9781 </r>
       <r>    -1.0063     0.0379    60.9799 </r>
       <r>    -0.9598     0.9853    61.0256 </r>
       <r>    -0.9134     2.3973    61.1370 </r>
       <r>    -0.8669     4.0365    61.3246 </r>
       <r>    -0.8204     5.5528    61.5827 </r>
       <r>    -0.7740     6.6060    61.8897 </r>
       <r>    -0.7275     7.0205    62.2159 </r>
       <r>    -0.6810     6.8619    62.5348 </r>
       <r>    -0.6345     6.3709    62.8309 </r>
       <r>    -0.5881     5.7896    63.0999 </r>
       <r>    -0.5416     5.2102    63.3421 </r>
       <r>    -0.4951     4.5719    63.5545 </r>
       <r>    -0.4487     3.8114    63.7317 </r>
       <r>    -0.4022     3.0257    63.8723 </r>
       <r>    -0.3557     2.4769    63.9874 </r>
       <r>    -0.3092     2.4142    64.0996 </r>
       <r>    -0.2628     2.8712    64.2330 </r>
       <r>    -0.2163     3.6291    64.4017 </r>
       <r>    -0.1698     4.3750    64.6050 </r>
       <r>    -0.1234     4.8998    64.8327 </r>
       <r>    -0.0769     5.1549    65.0722 </r>
       <r>    -0.0304     5.1520    65.3117 </r>
       <r>     0.0161     4.8561    65.5373 </r>
       <r>     0.0625     4.2036    65.7327 </r>
       <r>     0.1090     3.2174    65.8822 </r>
       <r>     0.1555     2.0715    65.9785 </r>
       <r>     0.2020     1.0236    66.0260 </r>
       <r>     0.2484     0.2747    66.0388 </r>
       <r>     0.2949    -0.1212    66.0332 </r>
       <r>     0.3414    -0.2410    66.0220 </r>
       <r>     0.3878    -0.2116    66.0121 </r>
       <r>     0.4343    -0.1372    66.0058 </r>
       <r>     0.4808    -0.0727    66.0024 </r>
       <r>     0.5273    -0.0326    66.0009 </r>
       <r>     0.5737    -0.0126    66.0003 </r>
       <r>     0.6202    -0.0043    66.0001 </r>
       <r>     0.6667    -0.0013    66.0000 </r>
       <r>     0.7131    -0.0003    66.0000 </r>
       <r>     0.7596    -0.0001    66.0000 </r>
       <r>     0.8061    -0.0000    66.0000 </r>
       <r>     0.8526    -0.0000    66.0000 </r>
       <r>     0.8990    -0.0000    66.0000 </r>
       <r>     0.9455    -0.0000    66.0000 </r>
       <r>     0.9920    -0.0000    66.0000 </r>
       <r>     1.0385    -0.0000    66.0000 </r>
       <r>     1.0849    -0.0000    66.0000 </r>
       <r>     1.1314    -0.0000    66.0000 </r>
       <r>     1.1779    -0.0000    66.0000 </r>
       <r>     1.2243    -0.0000    66.0000 </r>
       <r>     1.2708    -0.0000    66.0000 </r>
       <r>     1.3173     0.0000    66.0000 </r>
       <r>     1.3638     0.0000    66.0000 </r>
       <r>     1.4102     0.0000    66.0000 </r>
       <r>     1.4567     0.0000    66.0000 </r>
       <r>     1.5032     0.0000    66.0000 </r>
       <r>     1.5496     0.0000    66.0000 </r>
       <r>     1.5961     0.0000    66.0000 </r>
       <r>     1.6426     0.0000    66.0000 </r>
       <r>     1.6891     0.0000    66.0000 </r>
       <r>     1.7355     0.0000    66.0000 </r>
       <r>     1.7820     0.0000    66.0000 </r>
       <r>     1.8285     0.0000    66.0000 </r>
       <r>     1.8749     0.0000    66.0000 </r>
       <r>     1.9214     0.0000    66.0000 </r>
       <r>     1.9679     0.0000    66.0000 </r>
       <r>     2.0144     0.0000    66.0000 </r>
      </set>
     </set>
    </array>
   </total>
  </dos>
 </calculation>
 <structure name="finalpos" >
  <crystal>
   <varray name="basis" >
    <v>      24.58301586       0.00000000       0.00000000 </v>
    <v>       0.00000000      24.83930864       0.00000000 </v>
    <v>       0.00000000       0.00000000      21.58140280 </v>
   </varray>
   <i name="volume">  13178.14663588 </i>
   <varray name="rec_basis" >
    <v>       0.04067849       0.00000000       0.00000000 </v>
    <v>       0.00000000       0.04025877       0.00000000 </v>
    <v>       0.00000000       0.00000000       0.04633619 </v>
   </varray>
  </crystal>
  <varray name="positions" >
   <v>       0.51778948       0.52408025       0.54935915 </v>
   <v>       0.43609685       0.54990066       0.59372361 </v>
   <v>       0.50356981       0.46011552       0.46917905 </v>
   <v>       0.53716075       0.43063733       0.56611611 </v>
   <v>       0.37765350       0.58938534       0.52729596 </v>
   <v>       0.58982963       0.48117849       0.50253311 </v>
   <v>       0.41145878       0.44225610       0.46796821 </v>
   <v>       0.44436963       0.46079825       0.56738490 </v>
   <v>       0.43657967       0.53014943       0.48868973 </v>
   <v>       0.46842695       0.38144358       0.51766710 </v>
  </varray>
 </structure>
</modeling>
