unknown system                          
            1
    24.583016    0.000000    0.000000
     0.000000   24.839309    0.000000
     0.000000    0.000000   21.581403
   Ni
    10
Direct configuration=     1
   0.52009008  0.52552136  0.55157965
   0.43541356  0.55418668  0.59782259
   0.50338042  0.45922000  0.46839893
   0.53803888  0.42944487  0.56953846
   0.37384973  0.59059893  0.52783657
   0.59400785  0.48102725  0.50095612
   0.40669142  0.43966137  0.46612578
   0.44423285  0.46121543  0.56647919
   0.43813127  0.53127225  0.48608833
   0.46909898  0.37779683  0.51509128
Direct configuration=     2
   0.51936893  0.52439201  0.55087290
   0.43563047  0.55308183  0.59546333
   0.50331990  0.45925594  0.47010204
   0.53760967  0.43036122  0.56762799
   0.37520445  0.58963523  0.52794565
   0.59179843  0.48064192  0.50187254
   0.40860857  0.44027173  0.46728017
   0.44476231  0.46168998  0.56527921
   0.43759742  0.53093314  0.48805933
   0.46903489  0.37968196  0.51541376
Direct configuration=     3
   0.51892043  0.52368964  0.55043335
   0.43576538  0.55239469  0.59399604
   0.50328225  0.45927829  0.47116124
   0.53734274  0.43093112  0.56643983
   0.37604698  0.58903589  0.52801348
   0.59042434  0.48040228  0.50244249
   0.40980089  0.44065134  0.46799811
   0.44509159  0.46198511  0.56453291
   0.43726541  0.53072224  0.48928514
   0.46899503  0.38085437  0.51561432
Direct configuration=     4
   0.51872717  0.52407277  0.55041444
   0.43619966  0.55162121  0.59352344
   0.50330068  0.45949073  0.47050538
   0.53740401  0.43063644  0.56650112
   0.37629717  0.58895665  0.52780108
   0.58999519  0.48046385  0.50249479
   0.41043995  0.44111962  0.46806328
   0.44478702  0.46178740  0.56528967
   0.43692790  0.53075450  0.48927178
   0.46885629  0.38104180  0.51605193
Direct configuration=     5
   0.51849587  0.52453131  0.55039180
   0.43671944  0.55069546  0.59295781
   0.50332274  0.45974498  0.46972041
   0.53747734  0.43028374  0.56657447
   0.37659662  0.58886181  0.52754687
   0.58948157  0.48053755  0.50255739
   0.41120480  0.44168010  0.46814127
   0.44442250  0.46155078  0.56619541
   0.43652394  0.53079311  0.48925579
   0.46869022  0.38126612  0.51657568
Direct configuration=     6
   0.51844126  0.52442742  0.55002170
   0.43675971  0.55042774  0.59339233
   0.50344368  0.46009472  0.46947565
   0.53720848  0.43020367  0.56653008
   0.37662425  0.58909222  0.52741932
   0.58936034  0.48072509  0.50252785
   0.41135497  0.44207392  0.46796037
   0.44451537  0.46099690  0.56690554
   0.43656960  0.53050102  0.48857765
   0.46865739  0.38140227  0.51710641
Direct configuration=     7
   0.51842861  0.52440337  0.54993600
   0.43676903  0.55036575  0.59349294
   0.50347168  0.46017569  0.46941899
   0.53714623  0.43018513  0.56651981
   0.37663065  0.58914557  0.52738979
   0.58933227  0.48076851  0.50252101
   0.41138973  0.44216510  0.46791848
   0.44453687  0.46086866  0.56706996
   0.43658017  0.53043339  0.48842064
   0.46864978  0.38143379  0.51722930
Direct configuration=     8
   0.51821011  0.52420757  0.54969250
   0.43654488  0.55028921  0.59352010
   0.50350102  0.46027505  0.46943178
   0.53702929  0.43031264  0.56642107
   0.37697008  0.58911497  0.52739491
   0.58951110  0.48088878  0.50249142
   0.41133684  0.44224857  0.46783677
   0.44462049  0.46081986  0.56722193
   0.43658588  0.53038587  0.48848715
   0.46862534  0.38140243  0.51741929
Direct configuration=     9
   0.51807879  0.52408990  0.54954615
   0.43641016  0.55024321  0.59353642
   0.50351865  0.46033477  0.46943948
   0.53695901  0.43038927  0.56636172
   0.37717409  0.58909657  0.52739799
   0.58961858  0.48096106  0.50247363
   0.41130506  0.44229874  0.46778765
   0.44467074  0.46079053  0.56731327
   0.43658932  0.53035731  0.48852713
   0.46861065  0.38138359  0.51753348
Direct configuration=    10
   0.51794445  0.52408542  0.54945932
   0.43626468  0.55008415  0.59362334
   0.50354240  0.46023297  0.46931855
   0.53705268  0.43050445  0.56624768
   0.37739669  0.58923065  0.52735061
   0.58971657  0.48106202  0.50250125
   0.41137643  0.44227894  0.46787149
   0.44453093  0.46079412  0.56734653
   0.43658484  0.53026079  0.48860263
   0.46852535  0.38141144  0.51759552
Direct configuration=    11
   0.51778948  0.52408025  0.54935915
   0.43609685  0.54990066  0.59372361
   0.50356981  0.46011552  0.46917905
   0.53716075  0.43063733  0.56611611
   0.37765350  0.58938534  0.52729596
   0.58982963  0.48117849  0.50253311
   0.41145878  0.44225610  0.46796821
   0.44436963  0.46079825  0.56738490
   0.43657967  0.53014943  0.48868973
   0.46842695  0.38144358  0.51766710
