   7   7   0   0
  0.1559380E+04  0.2459523E-08  0.2235453E-08  0.1985334E-08  0.5000000E-15
   1.0000000000000000E-004
  CAR 
 unknown system                          
      1.17966136    -14.31397367  301     -4.00179288      1.00000000
    -14.314  0.0000E+00  0.0000E+00  0.0000E+00  0.0000E+00
    -14.262  0.0000E+00  0.0000E+00  0.0000E+00  0.0000E+00
    -14.211  0.0000E+00  0.0000E+00  0.0000E+00  0.0000E+00
    -14.159  0.0000E+00  0.0000E+00  0.0000E+00  0.0000E+00
    -14.107  0.0000E+00  0.0000E+00  0.0000E+00  0.0000E+00
    -14.056  0.0000E+00  0.0000E+00  0.0000E+00  0.0000E+00
    -14.004  0.0000E+00  0.0000E+00  0.0000E+00  0.0000E+00
    -13.952 -0.3183E-30  0.0000E+00 -0.1644E-31  0.0000E+00
    -13.901 -0.1952E-28  0.0000E+00 -0.1025E-29  0.0000E+00
    -13.849 -0.1061E-26 -0.1806E-30 -0.5582E-28 -0.9329E-32
    -13.798 -0.5039E-25 -0.1128E-28 -0.2658E-26 -0.5920E-30
    -13.746 -0.2091E-23 -0.6245E-27 -0.1107E-24 -0.3284E-28
    -13.694 -0.7582E-22 -0.3021E-25 -0.4027E-23 -0.1593E-26
    -13.643 -0.2401E-20 -0.1277E-23 -0.1280E-21 -0.6752E-25
    -13.591 -0.6640E-19 -0.4713E-22 -0.3557E-20 -0.2502E-23
    -13.539 -0.1603E-17 -0.1520E-20 -0.8636E-19 -0.8100E-22
    -13.488 -0.3272E-16 -0.4281E-19 -0.1776E-17 -0.2292E-20
    -13.436 -0.6021E-15 -0.1053E-17 -0.3287E-16 -0.5666E-19
    -13.384 -0.9626E-14 -0.2152E-16 -0.5300E-15 -0.1168E-17
    -13.333 -0.1342E-12 -0.4104E-15 -0.7458E-14 -0.2236E-16
    -13.281 -0.1629E-11 -0.6681E-14 -0.9156E-13 -0.3674E-15
    -13.229 -0.1721E-10 -0.9486E-13 -0.9802E-12 -0.5266E-14
    -13.178 -0.1581E-09 -0.1173E-11 -0.9146E-11 -0.6585E-13
    -13.126 -0.1262E-08 -0.1263E-10 -0.7433E-10 -0.7181E-12
    -13.074 -0.8740E-08 -0.1183E-09 -0.5257E-09 -0.6826E-11
    -13.023 -0.5241E-07 -0.9621E-09 -0.3233E-08 -0.5652E-10
    -12.971 -0.2716E-06 -0.6792E-08 -0.1726E-07 -0.4073E-09
    -12.920 -0.1212E-05 -0.4153E-07 -0.7985E-07 -0.2552E-08
    -12.868 -0.4638E-05 -0.2195E-06 -0.3194E-06 -0.1389E-07
    -12.816 -0.1512E-04 -0.9998E-06 -0.1100E-05 -0.6552E-07
    -12.765 -0.4155E-04 -0.3907E-05 -0.3246E-05 -0.2673E-06
    -12.713 -0.9449E-04 -0.1302E-04 -0.8126E-05 -0.9398E-06
    -12.661 -0.1714E-03 -0.3664E-04 -0.1698E-04 -0.2832E-05
    -12.610 -0.2250E-03 -0.8562E-04 -0.2860E-04 -0.7254E-05
    -12.558 -0.1327E-03 -0.1607E-03 -0.3545E-04 -0.1555E-04
    -12.506  0.2852E-03 -0.2228E-03 -0.2073E-04 -0.2706E-04
    -12.455  0.1153E-02 -0.1601E-03  0.3880E-04 -0.3532E-04
    -12.403  0.2371E-02  0.2039E-03  0.1612E-03 -0.2479E-04
    -12.351  0.3548E-02  0.1010E-02  0.3445E-03  0.2738E-04
    -12.300  0.4169E-02  0.2198E-02  0.5598E-03  0.1409E-03
    -12.248  0.3924E-02  0.3411E-02  0.7625E-03  0.3171E-03
    -12.197  0.2938E-02  0.4133E-02  0.9142E-03  0.5305E-03
    -12.145  0.1676E-02  0.4008E-02  0.1001E-02  0.7375E-03
    -12.093  0.6199E-03  0.3099E-02  0.1033E-02  0.8976E-03
    -12.042  0.4866E-05  0.1843E-02  0.1033E-02  0.9928E-03
    -11.990 -0.2117E-03  0.7383E-03  0.1022E-02  0.1031E-02
    -11.938 -0.2039E-03  0.6136E-04  0.1012E-02  0.1034E-02
    -11.887 -0.1276E-03 -0.1998E-03  0.1005E-02  0.1024E-02
    -11.835 -0.6171E-04 -0.2116E-03  0.1002E-02  0.1013E-02
    -11.783 -0.2439E-04 -0.1382E-03  0.1001E-02  0.1006E-02
    -11.732 -0.8067E-05 -0.6891E-04  0.1000E-02  0.1002E-02
    -11.680 -0.2264E-05 -0.2793E-04  0.1000E-02  0.1001E-02
    -11.628 -0.5434E-06 -0.9455E-05  0.1000E-02  0.1000E-02
    -11.577 -0.1121E-06 -0.2711E-05  0.1000E-02  0.1000E-02
    -11.525 -0.1996E-07 -0.6643E-06  0.1000E-02  0.1000E-02
    -11.473 -0.3076E-08 -0.1399E-06  0.1000E-02  0.1000E-02
    -11.422 -0.4107E-09 -0.2540E-07  0.1000E-02  0.1000E-02
    -11.370 -0.4762E-10 -0.3989E-08  0.1000E-02  0.1000E-02
    -11.319 -0.4800E-11 -0.5431E-09  0.1000E-02  0.1000E-02
    -11.267 -0.4209E-12 -0.6417E-10  0.1000E-02  0.1000E-02
    -11.215 -0.3214E-13 -0.6590E-11  0.1000E-02  0.1000E-02
    -11.164 -0.2141E-14 -0.5888E-12  0.1000E-02  0.1000E-02
    -11.112 -0.1204E-15 -0.4581E-13  0.1000E-02  0.1000E-02
    -11.060 -0.8599E-17 -0.3104E-14  0.1000E-02  0.1000E-02
    -11.009 -0.1357E-20 -0.1849E-15  0.1000E-02  0.1000E-02
    -10.957 -0.3840E-19 -0.8599E-17  0.1000E-02  0.1000E-02
    -10.905 -0.9485E-18 -0.4203E-24  0.1000E-02  0.1000E-02
    -10.854 -0.1938E-16 -0.1616E-22  0.1000E-02  0.1000E-02
    -10.802 -0.3730E-15 -0.5428E-21  0.1000E-02  0.1000E-02
    -10.750 -0.6103E-14 -0.1592E-19  0.1000E-02  0.1000E-02
    -10.699 -0.8704E-13 -0.4079E-18  0.1000E-02  0.1000E-02
    -10.647 -0.1081E-11 -0.9120E-17  0.1000E-02  0.1000E-02
    -10.596 -0.1170E-10 -0.1726E-15  0.1000E-02  0.1000E-02
    -10.544 -0.1100E-09 -0.2929E-14  0.1000E-02  0.1000E-02
    -10.492 -0.8994E-09 -0.4336E-13  0.1000E-02  0.1000E-02
    -10.441 -0.6379E-08 -0.5590E-12  0.1000E-02  0.1000E-02
    -10.389 -0.3920E-07 -0.6274E-11  0.1000E-02  0.1000E-02
    -10.337 -0.2082E-06 -0.6127E-10  0.1000E-02  0.1000E-02
    -10.286 -0.9530E-06 -0.5201E-09  0.9999E-03  0.1000E-02
    -10.234 -0.3744E-05 -0.3832E-08  0.9997E-03  0.1000E-02
    -10.182 -0.1254E-04 -0.2447E-07  0.9991E-03  0.1000E-02
    -10.131 -0.3551E-04 -0.1352E-06  0.9973E-03  0.1000E-02
    -10.079 -0.8351E-04 -0.6440E-06  0.9929E-03  0.1000E-02
    -10.027 -0.1580E-03 -0.2637E-05  0.9848E-03  0.9998E-03
     -9.976 -0.2219E-03 -0.9226E-05  0.9733E-03  0.9993E-03
     -9.924 -0.1659E-03 -0.2735E-04  0.9648E-03  0.9979E-03
     -9.872  0.1851E-03 -0.6775E-04  0.9743E-03  0.9944E-03
     -9.821  0.9761E-03 -0.1365E-03  0.1025E-02  0.9874E-03
     -9.769  0.2155E-02 -0.2105E-03  0.1136E-02  0.9765E-03
     -9.718  0.3376E-02 -0.2019E-03  0.1310E-02  0.9661E-03
     -9.666  0.4122E-02  0.5207E-04  0.1523E-02  0.9688E-03
     -9.614  0.4026E-02  0.7193E-03  0.1731E-02  0.1006E-02
     -9.563  0.3138E-02  0.1816E-02  0.1893E-02  0.1100E-02
     -9.511  0.1883E-02  0.3074E-02  0.1990E-02  0.1259E-02
     -9.459  0.7617E-03  0.3994E-02  0.2030E-02  0.1465E-02
     -9.408  0.5333E-04  0.4133E-02  0.2033E-02  0.1678E-02
     -9.356 -0.2597E-03  0.3411E-02  0.2019E-02  0.1854E-02
     -9.304 -0.3589E-03  0.2162E-02  0.2001E-02  0.1966E-02
     -9.253 -0.4112E-03  0.8846E-03  0.1979E-02  0.2012E-02
     -9.201 -0.4473E-03 -0.6263E-04  0.1956E-02  0.2008E-02
     -9.149 -0.3173E-03 -0.5532E-03  0.1940E-02  0.1980E-02
     -9.098  0.2697E-03 -0.5430E-03  0.1954E-02  0.1952E-02
     -9.046  0.1582E-02  0.9561E-04  0.2036E-02  0.1957E-02
     -8.994  0.3607E-02  0.1529E-02  0.2222E-02  0.2036E-02
     -8.943  0.5861E-02  0.3696E-02  0.2525E-02  0.2227E-02
     -8.891  0.7516E-02  0.6066E-02  0.2913E-02  0.2540E-02
     -8.840  0.7843E-02  0.7748E-02  0.3318E-02  0.2940E-02
     -8.788  0.6688E-02  0.7984E-02  0.3663E-02  0.3352E-02
     -8.736  0.4580E-02  0.6665E-02  0.3900E-02  0.3697E-02
     -8.685  0.2373E-02  0.4413E-02  0.4022E-02  0.3925E-02
     -8.633  0.7355E-03  0.2155E-02  0.4060E-02  0.4036E-02
     -8.581 -0.1240E-03  0.5577E-03  0.4054E-02  0.4065E-02
     -8.530 -0.3777E-03 -0.2211E-03  0.4034E-02  0.4053E-02
     -8.478 -0.3248E-03 -0.4065E-03  0.4018E-02  0.4032E-02
     -8.426 -0.1948E-03 -0.3189E-03  0.4007E-02  0.4016E-02
     -8.375 -0.9248E-04 -0.1807E-03  0.4003E-02  0.4006E-02
     -8.323 -0.3629E-04 -0.8182E-04  0.4001E-02  0.4002E-02
     -8.271 -0.1202E-04 -0.3075E-04  0.4000E-02  0.4001E-02
     -8.220 -0.3396E-05 -0.9771E-05  0.4000E-02  0.4000E-02
     -8.168 -0.8242E-06 -0.2652E-05  0.4000E-02  0.4000E-02
     -8.117 -0.1726E-06 -0.6189E-06  0.4000E-02  0.4000E-02
     -8.065 -0.3126E-07 -0.1247E-06  0.4000E-02  0.4000E-02
     -8.013 -0.4912E-08 -0.2174E-07  0.4000E-02  0.4000E-02
     -7.962 -0.6701E-09 -0.3290E-08  0.4000E-02  0.4000E-02
     -7.910 -0.7948E-10 -0.4326E-09  0.4000E-02  0.4000E-02
     -7.858 -0.8205E-11 -0.4948E-10  0.4000E-02  0.4000E-02
     -7.807 -0.7377E-12 -0.4928E-11  0.4000E-02  0.4000E-02
     -7.755 -0.5841E-13 -0.4276E-12  0.4000E-02  0.4000E-02
     -7.703 -0.1386E-13 -0.3235E-13  0.4000E-02  0.4000E-02
     -7.652 -0.1382E-12 -0.2137E-14  0.4000E-02  0.4000E-02
     -7.600 -0.1673E-11 -0.1204E-15  0.4000E-02  0.4000E-02
     -7.548 -0.1765E-10 -0.8645E-17  0.4000E-02  0.4000E-02
     -7.497 -0.1619E-09 -0.1136E-17  0.4000E-02  0.4000E-02
     -7.445 -0.1290E-08 -0.2324E-16  0.4000E-02  0.4000E-02
     -7.393 -0.8922E-08 -0.4399E-15  0.4000E-02  0.4000E-02
     -7.342 -0.5342E-07 -0.7140E-14  0.4000E-02  0.4000E-02
     -7.290 -0.2763E-06 -0.1010E-12  0.4000E-02  0.4000E-02
     -7.239 -0.1231E-05 -0.1245E-11  0.4000E-02  0.4000E-02
     -7.187 -0.4703E-05 -0.1336E-10  0.4000E-02  0.4000E-02
     -7.135 -0.1530E-04 -0.1247E-09  0.3999E-02  0.4000E-02
     -7.084 -0.4197E-04 -0.1011E-08  0.3997E-02  0.4000E-02
     -7.032 -0.9524E-04 -0.7111E-08  0.3992E-02  0.4000E-02
     -6.980 -0.1722E-03 -0.4333E-07  0.3983E-02  0.4000E-02
     -6.929 -0.2251E-03 -0.2282E-06  0.3971E-02  0.4000E-02
     -6.877 -0.1302E-03 -0.1035E-05  0.3965E-02  0.4000E-02
     -6.825  0.2922E-03 -0.4031E-05  0.3980E-02  0.4000E-02
     -6.774  0.1165E-02 -0.1338E-04  0.4040E-02  0.3999E-02
     -6.722  0.2385E-02 -0.3750E-04  0.4163E-02  0.3997E-02
     -6.670  0.3559E-02 -0.8721E-04  0.4347E-02  0.3993E-02
     -6.619  0.4170E-02 -0.1627E-03  0.4562E-02  0.3984E-02
     -6.567  0.3913E-02 -0.2239E-03  0.4764E-02  0.3973E-02
     -6.516  0.2910E-02 -0.1578E-03  0.4914E-02  0.3964E-02
     -6.464  0.1619E-02  0.2093E-03  0.4998E-02  0.3975E-02
     -6.412  0.5047E-03  0.1008E-02  0.5024E-02  0.4027E-02
     -6.361 -0.2116E-03  0.2154E-02  0.5013E-02  0.4139E-02
     -6.309 -0.5442E-03  0.3269E-02  0.4985E-02  0.4307E-02
     -6.257 -0.5451E-03  0.3837E-02  0.4957E-02  0.4506E-02
     -6.206 -0.1323E-03  0.3591E-02  0.4950E-02  0.4691E-02
     -6.154  0.8922E-03  0.2813E-02  0.4996E-02  0.4836E-02
     -6.102  0.2624E-02  0.2259E-02  0.5132E-02  0.4953E-02
     -6.051  0.4801E-02  0.2670E-02  0.5380E-02  0.5091E-02
     -5.999  0.6760E-02  0.4209E-02  0.5729E-02  0.5308E-02
     -5.947  0.7722E-02  0.6241E-02  0.6128E-02  0.5631E-02
     -5.896  0.7262E-02  0.7684E-02  0.6503E-02  0.6027E-02
     -5.844  0.5590E-02  0.7701E-02  0.6791E-02  0.6425E-02
     -5.792  0.3411E-02  0.6231E-02  0.6968E-02  0.6747E-02
     -5.741  0.1491E-02  0.3963E-02  0.7045E-02  0.6952E-02
     -5.689  0.2597E-03  0.1811E-02  0.7058E-02  0.7045E-02
     -5.638 -0.2768E-03  0.3689E-03  0.7044E-02  0.7064E-02
     -5.586 -0.3665E-03 -0.2852E-03  0.7025E-02  0.7049E-02
     -5.534 -0.2851E-03 -0.4103E-03  0.7010E-02  0.7028E-02
     -5.483 -0.2144E-03 -0.3247E-03  0.6999E-02  0.7012E-02
     -5.431 -0.2356E-03 -0.2442E-03  0.6987E-02  0.6999E-02
     -5.379 -0.3569E-03 -0.2646E-03  0.6968E-02  0.6985E-02
     -5.328 -0.5039E-03 -0.3921E-03  0.6942E-02  0.6965E-02
     -5.276 -0.4670E-03 -0.5361E-03  0.6918E-02  0.6937E-02
     -5.224  0.1190E-03 -0.4557E-03  0.6924E-02  0.6914E-02
     -5.173  0.1654E-02  0.2484E-03  0.7010E-02  0.6927E-02
     -5.121  0.4274E-02  0.1980E-02  0.7231E-02  0.7029E-02
     -5.069  0.7536E-02  0.4810E-02  0.7620E-02  0.7277E-02
     -5.018  0.1040E-01  0.8166E-02  0.8157E-02  0.7699E-02
     -4.966  0.1168E-01  0.1089E-01  0.8760E-02  0.8262E-02
     -4.915  0.1079E-01  0.1182E-01  0.9317E-02  0.8872E-02
     -4.863  0.8098E-02  0.1049E-01  0.9736E-02  0.9413E-02
     -4.811  0.4749E-02  0.7509E-02  0.9981E-02  0.9801E-02
     -4.760  0.1908E-02  0.4122E-02  0.1008E-01  0.1001E-01
     -4.708  0.1733E-03  0.1447E-02  0.1009E-01  0.1009E-01
     -4.656 -0.5219E-03 -0.5439E-04  0.1006E-01  0.1009E-01
     -4.605 -0.6024E-03 -0.5614E-03  0.1003E-01  0.1006E-01
     -4.553 -0.4840E-03 -0.5249E-03  0.1001E-01  0.1003E-01
     -4.501 -0.3830E-03 -0.3274E-03  0.9986E-02  0.1001E-01
     -4.450 -0.2982E-03 -0.1594E-03  0.9970E-02  0.1000E-01
     -4.398 -0.7225E-04 -0.6371E-04  0.9966E-02  0.1000E-01
     -4.346  0.5005E-03 -0.2139E-04  0.9992E-02  0.1000E-01
     -4.295  0.1509E-02 -0.6111E-05  0.1007E-01  0.1000E-01
     -4.243  0.2770E-02 -0.1496E-05  0.1021E-01  0.1000E-01
     -4.191  0.3826E-02 -0.3161E-06  0.1041E-01  0.1000E-01
     -4.140  0.4189E-02 -0.6336E-07  0.1063E-01  0.1000E-01
     -4.088  0.3676E-02 -0.4577E-07  0.1082E-01  0.1000E-01
     -4.037  0.2545E-02 -0.1977E-06  0.1095E-01  0.1000E-01
     -3.985  0.1303E-02 -0.9067E-06  0.1102E-01  0.1000E-01
     -3.933  0.3711E-03 -0.3597E-05  0.1103E-01  0.1000E-01
     -3.882 -0.1156E-03 -0.1221E-04  0.1103E-01  0.9999E-02
     -3.830 -0.2705E-03 -0.3520E-04  0.1101E-01  0.9997E-02
     -3.778 -0.2872E-03 -0.8517E-04  0.1100E-01  0.9993E-02
     -3.727 -0.3007E-03 -0.1693E-03  0.1098E-01  0.9984E-02
     -3.675 -0.3263E-03 -0.2644E-03  0.1097E-01  0.9971E-02
     -3.623 -0.2521E-03 -0.2832E-03  0.1095E-01  0.9956E-02
     -3.572  0.1227E-03 -0.6727E-04  0.1096E-01  0.9952E-02
     -3.520  0.9868E-03  0.5597E-03  0.1101E-01  0.9981E-02
     -3.468  0.2366E-02  0.1689E-02  0.1113E-01  0.1007E-01
     -3.417  0.4027E-02  0.3256E-02  0.1134E-01  0.1024E-01
     -3.365  0.5524E-02  0.5070E-02  0.1163E-01  0.1050E-01
     -3.313  0.6411E-02  0.6872E-02  0.1196E-01  0.1085E-01
     -3.262  0.6472E-02  0.8355E-02  0.1229E-01  0.1128E-01
     -3.210  0.5856E-02  0.9163E-02  0.1260E-01  0.1176E-01
     -3.159  0.5008E-02  0.9037E-02  0.1285E-01  0.1222E-01
     -3.107  0.4404E-02  0.8068E-02  0.1308E-01  0.1264E-01
     -3.055  0.4218E-02  0.6731E-02  0.1330E-01  0.1299E-01
     -3.004  0.4201E-02  0.5558E-02  0.1352E-01  0.1328E-01
     -2.952  0.3913E-02  0.4722E-02  0.1372E-01  0.1352E-01
     -2.900  0.3111E-02  0.3986E-02  0.1388E-01  0.1373E-01
     -2.849  0.1946E-02  0.3060E-02  0.1398E-01  0.1388E-01
     -2.797  0.7935E-03  0.1930E-02  0.1402E-01  0.1398E-01
     -2.745 -0.4829E-04  0.8442E-03  0.1402E-01  0.1403E-01
     -2.694 -0.4900E-03  0.4945E-04  0.1399E-01  0.1403E-01
     -2.642 -0.5462E-03 -0.3987E-03  0.1396E-01  0.1401E-01
     -2.590 -0.1649E-03 -0.5839E-03  0.1396E-01  0.1398E-01
     -2.539  0.7996E-03 -0.5414E-03  0.1400E-01  0.1395E-01
     -2.487  0.2419E-02 -0.1291E-03  0.1412E-01  0.1394E-01
     -2.436  0.4469E-02  0.9127E-03  0.1435E-01  0.1399E-01
     -2.384  0.6374E-02  0.2711E-02  0.1468E-01  0.1413E-01
     -2.332  0.7433E-02  0.4986E-02  0.1507E-01  0.1439E-01
     -2.281  0.7207E-02  0.7006E-02  0.1544E-01  0.1475E-01
     -2.229  0.5794E-02  0.7928E-02  0.1574E-01  0.1516E-01
     -2.177  0.3766E-02  0.7320E-02  0.1593E-01  0.1554E-01
     -2.126  0.1823E-02  0.5459E-02  0.1603E-01  0.1582E-01
     -2.074  0.4330E-03  0.3133E-02  0.1605E-01  0.1598E-01
     -2.022 -0.3098E-03  0.1140E-02  0.1603E-01  0.1604E-01
     -1.971 -0.5561E-03 -0.9577E-04  0.1600E-01  0.1604E-01
     -1.919 -0.4624E-03 -0.5374E-03  0.1598E-01  0.1601E-01
     -1.867 -0.4364E-04 -0.3058E-03  0.1598E-01  0.1599E-01
     -1.816  0.7764E-03  0.4922E-03  0.1602E-01  0.1602E-01
     -1.764  0.1967E-02  0.1716E-02  0.1612E-01  0.1611E-01
     -1.712  0.3230E-02  0.3046E-02  0.1629E-01  0.1626E-01
     -1.661  0.4068E-02  0.3989E-02  0.1650E-01  0.1647E-01
     -1.609  0.4086E-02  0.4128E-02  0.1671E-01  0.1668E-01
     -1.558  0.3279E-02  0.3410E-02  0.1688E-01  0.1686E-01
     -1.506  0.2041E-02  0.2198E-02  0.1698E-01  0.1697E-01
     -1.454  0.8857E-03  0.1010E-02  0.1703E-01  0.1702E-01
     -1.403  0.1316E-03  0.2017E-03  0.1703E-01  0.1704E-01
     -1.351 -0.1983E-03 -0.1681E-03  0.1702E-01  0.1703E-01
     -1.299 -0.2674E-03 -0.2472E-03  0.1701E-01  0.1701E-01
     -1.248 -0.2573E-03 -0.2224E-03  0.1700E-01  0.1700E-01
     -1.196 -0.2626E-03 -0.2132E-03  0.1698E-01  0.1699E-01
     -1.144 -0.2568E-03 -0.2405E-03  0.1697E-01  0.1698E-01
     -1.093 -0.1007E-03 -0.2247E-03  0.1697E-01  0.1697E-01
     -1.041  0.3975E-03  0.9585E-06  0.1699E-01  0.1697E-01
     -0.989  0.1343E-02  0.6189E-03  0.1706E-01  0.1700E-01
     -0.938  0.2589E-02  0.1676E-02  0.1719E-01  0.1709E-01
     -0.886  0.3707E-02  0.2938E-02  0.1738E-01  0.1724E-01
     -0.835  0.4191E-02  0.3924E-02  0.1760E-01  0.1744E-01
     -0.783  0.3798E-02  0.4169E-02  0.1779E-01  0.1766E-01
     -0.731  0.2727E-02  0.3548E-02  0.1793E-01  0.1784E-01
     -0.680  0.1470E-02  0.2371E-02  0.1801E-01  0.1796E-01
     -0.628  0.4815E-03  0.1153E-02  0.1803E-01  0.1802E-01
     -0.576 -0.5634E-04  0.2852E-03  0.1803E-01  0.1804E-01
     -0.525 -0.2211E-03 -0.1327E-03  0.1802E-01  0.1803E-01
     -0.473 -0.1925E-03 -0.2250E-03  0.1801E-01  0.1802E-01
     -0.421 -0.1145E-03 -0.1714E-03  0.1800E-01  0.1801E-01
     -0.370 -0.5335E-04 -0.9449E-04  0.1800E-01  0.1800E-01
     -0.318 -0.2042E-04 -0.4155E-04  0.1800E-01  0.1800E-01
     -0.266 -0.6564E-05 -0.1512E-04  0.1800E-01  0.1800E-01
     -0.215 -0.1793E-05 -0.4638E-05  0.1800E-01  0.1800E-01
     -0.163 -0.4191E-06 -0.1212E-05  0.1800E-01  0.1800E-01
     -0.111 -0.8431E-07 -0.2716E-06  0.1800E-01  0.1800E-01
     -0.060 -0.1464E-07 -0.5241E-07  0.1800E-01  0.1800E-01
     -0.008 -0.2201E-08 -0.8740E-08  0.1800E-01  0.1800E-01
      0.043 -0.2869E-09 -0.1262E-08  0.1800E-01  0.1800E-01
      0.095 -0.3247E-10 -0.1581E-09  0.1800E-01  0.1800E-01
      0.147 -0.3195E-11 -0.1721E-10  0.1800E-01  0.1800E-01
      0.198 -0.2736E-12 -0.1629E-11  0.1800E-01  0.1800E-01
      0.250 -0.2040E-13 -0.1342E-12  0.1800E-01  0.1800E-01
      0.302 -0.1329E-14 -0.9626E-14  0.1800E-01  0.1800E-01
      0.353 -0.7309E-16 -0.6019E-15  0.1800E-01  0.1800E-01
      0.405 -0.4299E-17 -0.3440E-16  0.1800E-01  0.1800E-01
      0.457  0.0000E+00  0.0000E+00  0.1800E-01  0.1800E-01
      0.508  0.0000E+00  0.0000E+00  0.1800E-01  0.1800E-01
      0.560  0.0000E+00  0.0000E+00  0.1800E-01  0.1800E-01
      0.612  0.0000E+00  0.0000E+00  0.1800E-01  0.1800E-01
      0.663  0.0000E+00  0.0000E+00  0.1800E-01  0.1800E-01
      0.715  0.0000E+00  0.0000E+00  0.1800E-01  0.1800E-01
      0.766  0.0000E+00  0.0000E+00  0.1800E-01  0.1800E-01
      0.818  0.0000E+00  0.0000E+00  0.1800E-01  0.1800E-01
      0.870  0.0000E+00  0.0000E+00  0.1800E-01  0.1800E-01
      0.921  0.0000E+00  0.0000E+00  0.1800E-01  0.1800E-01
      0.973  0.0000E+00  0.0000E+00  0.1800E-01  0.1800E-01
      1.025  0.0000E+00  0.0000E+00  0.1800E-01  0.1800E-01
      1.076  0.0000E+00  0.0000E+00  0.1800E-01  0.1800E-01
      1.128  0.0000E+00  0.0000E+00  0.1800E-01  0.1800E-01
      1.180  0.0000E+00  0.0000E+00  0.1800E-01  0.1800E-01
