    7    7 1000    2
  0.1559380E+04  0.2459523E-08  0.2235453E-08  0.1985334E-08  0.5000000E-15
   1.0000000000000000E-004
  CAR 
 unknown system                          
     21      1     18
 
  0.1262379E-14  0.1262379E-14  0.1262379E-14  0.1000000E+01
    1      -12.313974    -12.203731   1.000000   1.000000
    2       -9.671387     -9.451000   1.000000   1.000000
    3       -8.917919     -8.861598   1.000000   1.000000
    4       -8.842562     -8.802820   1.000000   1.000000
    5       -6.633545     -6.265764   1.000000   1.000000
    6       -6.007541     -5.927934   1.000000   1.000000
    7       -5.920075     -5.867232   1.000000   1.000000
    8       -5.048642     -5.001388   1.000000   1.000000
    9       -4.964534     -4.923804   1.000000   1.000000
   10       -4.954006     -4.914608   1.000000   1.000000
   11       -4.170252     -3.368630   1.000090  -0.000036
   12       -3.382414     -3.208775  -0.000054  -0.000000
   13       -3.239382     -3.163849  -0.000000  -0.000000
   14       -2.996526     -2.939859  -0.000000  -0.000000
   15       -2.392581     -2.285429  -0.000000  -0.000000
   16       -2.289334     -2.212735  -0.000000  -0.000000
   17       -1.659925     -1.653611  -0.000000  -0.000000
   18       -0.857528     -0.820339  -0.000000  -0.000000
