       N       E                     dE             d eps       ncg     rms          rms(c)
DAV:   1     0.491414246532E+02    0.49141E+02   -0.31632E+03   104   0.416E+02
DAV:   2    -0.401495985511E+01   -0.53156E+02   -0.52173E+02   120   0.613E+01
DAV:   3    -0.149700756460E+02   -0.10955E+02   -0.10678E+02    96   0.253E+01
DAV:   4    -0.154167385602E+02   -0.44666E+00   -0.44519E+00    72   0.728E+00
DAV:   5    -0.154438812833E+02   -0.27143E-01   -0.27136E-01   120   0.255E+00    0.537E+00
DAV:   6    -0.105361414417E+02    0.49077E+01   -0.12461E+01    84   0.114E+01    0.310E+00
DAV:   7    -0.891207285211E+01    0.16241E+01   -0.19415E+00    84   0.514E+00    0.187E+00
DAV:   8    -0.853749112928E+01    0.37458E+00   -0.43233E-01    80   0.266E+00    0.124E+00
DAV:   9    -0.911605555391E+01   -0.57856E+00   -0.19611E-01    88   0.162E+00    0.950E-01
DAV:  10    -0.100864501340E+02   -0.97039E+00   -0.22071E-01    84   0.166E+00    0.812E-01
DAV:  11    -0.114605304666E+02   -0.13741E+01   -0.44103E-01    86   0.214E+00    0.624E-01
DAV:  12    -0.120971273047E+02   -0.63660E+00   -0.12658E-01    78   0.110E+00    0.543E-01
DAV:  13    -0.125667214787E+02   -0.46959E+00   -0.63534E-02    76   0.798E-01    0.510E-01
DAV:  14    -0.129663479057E+02   -0.39963E+00   -0.53821E-02    74   0.756E-01    0.472E-01
DAV:  15    -0.134633583218E+02   -0.49701E+00   -0.14064E-01    74   0.124E+00    0.364E-01
DAV:  16    -0.137778950691E+02   -0.31454E+00   -0.15012E-01    82   0.131E+00    0.235E-01
DAV:  17    -0.140093321033E+02   -0.23144E+00   -0.59625E-02    74   0.845E-01    0.173E-01
DAV:  18    -0.141574243199E+02   -0.14809E+00   -0.16036E-02    88   0.449E-01    0.147E-01
DAV:  19    -0.142919736619E+02   -0.13455E+00   -0.16312E-02    72   0.381E-01    0.107E-01
DAV:  20    -0.144363682888E+02   -0.14439E+00   -0.32124E-02    74   0.430E-01    0.823E-02
DAV:  21    -0.144687592345E+02   -0.32391E-01   -0.69443E-03    96   0.206E-01    0.834E-02
DAV:  22    -0.144665780323E+02    0.21812E-02   -0.30955E-04    88   0.731E-02    0.860E-02
DAV:  23    -0.144664945074E+02    0.83525E-04   -0.10084E-05    42   0.219E-02
   1 F= -.14466495E+02 E0= -.14484760E+02  d E =-.144665E+02  mag=     1.4646
       N       E                     dE             d eps       ncg     rms          rms(c)
DAV:   1    -0.146938452513E+02   -0.22727E+00   -0.25456E+00    72   0.779E+00    0.694E-01
DAV:   2    -0.146896446641E+02    0.42006E-02   -0.23542E-01    96   0.231E+00    0.355E-01
DAV:   3    -0.146888441920E+02    0.80047E-03   -0.33336E-02   112   0.797E-01    0.320E-01
DAV:   4    -0.146987657954E+02   -0.99216E-02   -0.40155E-03   100   0.261E-01    0.180E-01
DAV:   5    -0.147139159441E+02   -0.15150E-01   -0.59177E-03    78   0.186E-01    0.846E-02
DAV:   6    -0.147287310573E+02   -0.14815E-01   -0.50242E-03    88   0.161E-01    0.564E-02
DAV:   7    -0.147348322730E+02   -0.61012E-02   -0.79904E-04    88   0.757E-02    0.520E-02
DAV:   8    -0.147503016669E+02   -0.15469E-01   -0.52975E-03    78   0.148E-01    0.421E-02
DAV:   9    -0.147669609930E+02   -0.16659E-01   -0.79200E-03    86   0.185E-01    0.331E-02
DAV:  10    -0.147781678343E+02   -0.11207E-01   -0.44343E-03    86   0.149E-01    0.255E-02
DAV:  11    -0.147881802206E+02   -0.10012E-01   -0.26117E-03    86   0.130E-01    0.124E-02
DAV:  12    -0.147907401095E+02   -0.25599E-02   -0.92713E-05    68   0.478E-02    0.978E-03
DAV:  13    -0.147928758446E+02   -0.21357E-02   -0.45323E-05    58   0.340E-02    0.822E-03
DAV:  14    -0.147955109156E+02   -0.26351E-02   -0.64933E-05    60   0.319E-02    0.535E-03
DAV:  15    -0.147976650368E+02   -0.21541E-02   -0.69638E-05    74   0.272E-02    0.356E-03
DAV:  16    -0.147987858432E+02   -0.11208E-02   -0.25132E-05    60   0.162E-02    0.252E-03
DAV:  17    -0.147996198005E+02   -0.83396E-03   -0.27491E-05    58   0.141E-02    0.149E-03
DAV:  18    -0.147999048501E+02   -0.28505E-03   -0.78647E-06    42   0.843E-03    0.838E-04
DAV:  19    -0.148000162691E+02   -0.11142E-03   -0.22928E-06    36   0.542E-03    0.741E-04
DAV:  20    -0.148000861371E+02   -0.69868E-04   -0.10263E-06    38   0.414E-03
   2 F= -.14800086E+02 E0= -.14823440E+02  d E =-.333592E+00  mag=     1.0506
       N       E                     dE             d eps       ncg     rms          rms(c)
DAV:   1    -0.148105119753E+02   -0.10496E-01   -0.30227E-02    72   0.856E-01    0.714E-02
DAV:   2    -0.148104611936E+02    0.50782E-04   -0.26978E-03    94   0.249E-01    0.338E-02
DAV:   3    -0.148104521113E+02    0.90823E-05   -0.37163E-04    72   0.850E-02
   3 F= -.14810452E+02 E0= -.14833795E+02  d E =-.343958E+00  mag=     1.0507
       N       E                     dE             d eps       ncg     rms          rms(c)
DAV:   1    -0.148237360470E+02   -0.13275E-01   -0.12113E-01    72   0.171E+00    0.136E-01
DAV:   2    -0.148234676299E+02    0.26842E-03   -0.10706E-02    94   0.501E-01    0.739E-02
DAV:   3    -0.148234165258E+02    0.51104E-04   -0.16311E-03   112   0.174E-01    0.704E-02
DAV:   4    -0.148234452291E+02   -0.28703E-04   -0.13683E-04    50   0.576E-02
   4 F= -.14823445E+02 E0= -.14846740E+02  d E =-.356951E+00  mag=     1.0514
       N       E                     dE             d eps       ncg     rms          rms(c)
DAV:   1    -0.148204921014E+02    0.29244E-02   -0.47295E-01    72   0.341E+00    0.281E-01
DAV:   2    -0.148198589221E+02    0.63318E-03   -0.39731E-02    94   0.982E-01    0.133E-01
DAV:   3    -0.148196165678E+02    0.24235E-03   -0.58890E-03   112   0.332E-01    0.122E-01
DAV:   4    -0.148196836510E+02   -0.67083E-04   -0.42671E-04    78   0.103E-01
   5 F= -.14819684E+02 E0= -.14842973E+02  d E =-.353189E+00  mag=     1.0528
       N       E                     dE             d eps       ncg     rms          rms(c)
DAV:   1    -0.148264009777E+02   -0.67844E-02   -0.15647E-01    72   0.196E+00    0.158E-01
DAV:   2    -0.148265438001E+02   -0.14282E-03   -0.12561E-02    92   0.554E-01    0.641E-02
DAV:   3    -0.148266056317E+02   -0.61832E-04   -0.16424E-03   110   0.180E-01    0.626E-02
DAV:   4    -0.148267120623E+02   -0.10643E-03   -0.79800E-05    40   0.529E-02    0.360E-02
DAV:   5    -0.148268264768E+02   -0.11441E-03   -0.40130E-05    42   0.334E-02    0.998E-03
DAV:   6    -0.148268642288E+02   -0.37752E-04   -0.23229E-05    36   0.247E-02
   6 F= -.14826864E+02 E0= -.14849961E+02  d E =-.360370E+00  mag=     1.0534
       N       E                     dE             d eps       ncg     rms          rms(c)
DAV:   1    -0.148414984860E+02   -0.14672E-01   -0.11793E-01    72   0.177E+00    0.132E-01
DAV:   2    -0.148413301799E+02    0.16831E-03   -0.10060E-02    94   0.481E-01    0.681E-02
DAV:   3    -0.148412648126E+02    0.65367E-04   -0.11398E-03    96   0.161E-01    0.466E-02
DAV:   4    -0.148412207895E+02    0.44023E-04   -0.74756E-05    38   0.464E-02
   7 F= -.14841221E+02 E0= -.14864385E+02  d E =-.143566E-01  mag=     1.0537
       N       E                     dE             d eps       ncg     rms          rms(c)
DAV:   1    -0.148517596729E+02   -0.10495E-01   -0.46055E-01    72   0.349E+00    0.259E-01
DAV:   2    -0.148506962232E+02    0.10634E-02   -0.38092E-02    94   0.947E-01    0.138E-01
DAV:   3    -0.148504754484E+02    0.22077E-03   -0.44617E-03    94   0.317E-01    0.101E-01
DAV:   4    -0.148503565941E+02    0.11885E-03   -0.35324E-04    84   0.912E-02    0.697E-02
DAV:   5    -0.148502852363E+02    0.71358E-04   -0.20289E-04    60   0.531E-02
   8 F= -.14850285E+02 E0= -.14873490E+02  d E =-.234210E-01  mag=     1.0538
       N       E                     dE             d eps       ncg     rms          rms(c)
DAV:   1    -0.148563482625E+02   -0.59917E-02   -0.62851E-02    72   0.138E+00    0.809E-02
DAV:   2    -0.148567632310E+02   -0.41497E-03   -0.26511E-03    96   0.261E-01    0.373E-02
DAV:   3    -0.148569555653E+02   -0.19233E-03   -0.30699E-04    66   0.867E-02    0.281E-02
DAV:   4    -0.148571050300E+02   -0.14946E-03   -0.39142E-05    36   0.316E-02    0.196E-02
DAV:   5    -0.148573659406E+02   -0.26091E-03   -0.56148E-05    40   0.287E-02    0.744E-03
DAV:   6    -0.148575636398E+02   -0.19770E-03   -0.27478E-05    38   0.216E-02    0.313E-03
DAV:   7    -0.148576784845E+02   -0.11484E-03   -0.80416E-06    36   0.150E-02    0.238E-03
DAV:   8    -0.148578740367E+02   -0.19555E-03   -0.12298E-05    38   0.141E-02    0.138E-03
DAV:   9    -0.148579868212E+02   -0.11278E-03   -0.53952E-06    36   0.102E-02    0.967E-04
DAV:  10    -0.148580734837E+02   -0.86662E-04   -0.31825E-06    36   0.819E-03
   9 F= -.14858073E+02 E0= -.14881472E+02  d E =-.778825E-02  mag=     1.0545
       N       E                     dE             d eps       ncg     rms          rms(c)
DAV:   1    -0.148672531079E+02   -0.92663E-02   -0.56104E-01    72   0.415E+00    0.232E-01
DAV:   2    -0.148688122422E+02   -0.15591E-02   -0.22957E-02    96   0.766E-01    0.115E-01
DAV:   3    -0.148686122750E+02    0.19997E-03   -0.25286E-03   110   0.246E-01    0.890E-02
DAV:   4    -0.148685905501E+02    0.21725E-04   -0.18693E-04    62   0.621E-02
  10 F= -.14868591E+02 E0= -.14892403E+02  d E =-.183053E-01  mag=     1.0540
       N       E                     dE             d eps       ncg     rms          rms(c)
DAV:   1    -0.148510617042E+02    0.17551E-01   -0.22111E+00    72   0.825E+00    0.463E-01
DAV:   2    -0.148568147734E+02   -0.57531E-02   -0.89371E-02    96   0.152E+00    0.238E-01
DAV:   3    -0.148566070282E+02    0.20775E-03   -0.99358E-03   120   0.488E-01    0.185E-01
DAV:   4    -0.148567931442E+02   -0.18612E-03   -0.67864E-04    96   0.108E-01    0.135E-01
DAV:   5    -0.148574417219E+02   -0.64858E-03   -0.11740E-03    74   0.960E-02    0.526E-02
DAV:   6    -0.148579612973E+02   -0.51958E-03   -0.38329E-04    84   0.602E-02    0.215E-02
DAV:   7    -0.148583589822E+02   -0.39768E-03   -0.41998E-05    40   0.287E-02    0.154E-02
DAV:   8    -0.148591128882E+02   -0.75391E-03   -0.75190E-05    60   0.296E-02    0.621E-03
DAV:   9    -0.148595656215E+02   -0.45273E-03   -0.31462E-05    50   0.211E-02    0.395E-03
DAV:  10    -0.148598421435E+02   -0.27652E-03   -0.13528E-05    40   0.151E-02    0.278E-03
DAV:  11    -0.148601030843E+02   -0.26094E-03   -0.13418E-05    50   0.126E-02    0.161E-03
DAV:  12    -0.148603072675E+02   -0.20418E-03   -0.94440E-06    40   0.105E-02    0.105E-03
DAV:  13    -0.148603983621E+02   -0.91095E-04   -0.47777E-06    40   0.737E-03
  11 F= -.14860398E+02 E0= -.14883799E+02  d E =-.101131E-01  mag=     1.0531
       N       E                     dE             d eps       ncg     rms          rms(c)
DAV:   1    -0.148670281815E+02   -0.67209E-02   -0.11137E+00    72   0.587E+00    0.334E-01
DAV:   2    -0.148702337519E+02   -0.32056E-02   -0.45581E-02   104   0.107E+00    0.170E-01
DAV:   3    -0.148699421680E+02    0.29158E-03   -0.36214E-03   112   0.291E-01    0.129E-01
DAV:   4    -0.148698990103E+02    0.43158E-04   -0.27579E-04    80   0.764E-02
  12 F= -.14869899E+02 E0= -.14893700E+02  d E =-.196138E-01  mag=     1.0535
       N       E                     dE             d eps       ncg     rms          rms(c)
DAV:   1    -0.148755207521E+02   -0.55786E-02   -0.23290E-01    72   0.252E+00    0.186E-01
DAV:   2    -0.148762803905E+02   -0.75964E-03   -0.17296E-02    96   0.634E-01    0.914E-02
DAV:   3    -0.148764104642E+02   -0.13007E-03   -0.22017E-03    96   0.217E-01    0.770E-02
DAV:   4    -0.148765389826E+02   -0.12852E-03   -0.14815E-04    52   0.679E-02    0.528E-02
DAV:   5    -0.148766770625E+02   -0.13808E-03   -0.11772E-04    60   0.492E-02    0.210E-02
DAV:   6    -0.148767159734E+02   -0.38911E-04   -0.60536E-05    42   0.370E-02
  13 F= -.14876716E+02 E0= -.14900512E+02  d E =-.681696E-02  mag=     1.0516
       N       E                     dE             d eps       ncg     rms          rms(c)
DAV:   1    -0.148769462215E+02   -0.26916E-03   -0.39263E-03    72   0.328E-01    0.261E-02
DAV:   2    -0.148770005510E+02   -0.54329E-04   -0.31406E-04    60   0.864E-02
  14 F= -.14877001E+02 E0= -.14900747E+02  d E =-.710154E-02  mag=     1.0511
       N       E                     dE             d eps       ncg     rms          rms(c)
DAV:   1    -0.148789717267E+02   -0.20255E-02   -0.36598E-02    72   0.102E+00    0.608E-02
DAV:   2    -0.148790971632E+02   -0.12544E-03   -0.21933E-03    96   0.219E-01    0.319E-02
DAV:   3    -0.148789683071E+02    0.12886E-03   -0.14820E-04    44   0.709E-02    0.210E-02
DAV:   4    -0.148788918840E+02    0.76423E-04   -0.76154E-05    38   0.509E-02
  15 F= -.14878892E+02 E0= -.14902612E+02  d E =-.189133E-02  mag=     1.0499
       N       E                     dE             d eps       ncg     rms          rms(c)
DAV:   1    -0.148796822531E+02   -0.71395E-03   -0.95287E-02    72   0.166E+00    0.928E-02
DAV:   2    -0.148800738217E+02   -0.39157E-03   -0.58915E-03    96   0.357E-01    0.511E-02
DAV:   3    -0.148798160348E+02    0.25779E-03   -0.58209E-04    94   0.116E-01    0.447E-02
DAV:   4    -0.148797502308E+02    0.65804E-04   -0.38656E-05    36   0.316E-02
  16 F= -.14879750E+02 E0= -.14903349E+02  d E =-.274968E-02  mag=     1.0486
       N       E                     dE             d eps       ncg     rms          rms(c)
DAV:   1    -0.148810796073E+02   -0.12636E-02   -0.18911E-02    72   0.733E-01    0.502E-02
DAV:   2    -0.148812484860E+02   -0.16888E-03   -0.10265E-03    96   0.152E-01    0.254E-02
DAV:   3    -0.148813205430E+02   -0.72057E-04   -0.98942E-05    42   0.552E-02
  17 F= -.14881321E+02 E0= -.14905030E+02  d E =-.157031E-02  mag=     1.0480
       N       E                     dE             d eps       ncg     rms          rms(c)
DAV:   1    -0.148835354037E+02   -0.22869E-02   -0.17211E-01    74   0.221E+00    0.137E-01
DAV:   2    -0.148842152447E+02   -0.67984E-03   -0.91122E-03    96   0.454E-01    0.728E-02
DAV:   3    -0.148842477482E+02   -0.32503E-04   -0.11729E-03   102   0.159E-01    0.566E-02
DAV:   4    -0.148842736174E+02   -0.25869E-04   -0.11956E-04    50   0.486E-02
  18 F= -.14884274E+02 E0= -.14908189E+02  d E =-.452339E-02  mag=     1.0482
       N       E                     dE             d eps       ncg     rms          rms(c)
DAV:   1    -0.148863732358E+02   -0.21255E-02   -0.25750E-02    72   0.841E-01    0.518E-02
DAV:   2    -0.148866709364E+02   -0.29770E-03   -0.14424E-03    88   0.175E-01    0.330E-02
DAV:   3    -0.148867753800E+02   -0.10444E-03   -0.17333E-04    44   0.653E-02    0.194E-02
DAV:   4    -0.148868915894E+02   -0.11621E-03   -0.66119E-05    36   0.428E-02    0.127E-02
DAV:   5    -0.148870280278E+02   -0.13644E-03   -0.51845E-05    40   0.352E-02    0.657E-03
DAV:   6    -0.148871533096E+02   -0.12528E-03   -0.24540E-05    38   0.262E-02    0.293E-03
DAV:   7    -0.148872364730E+02   -0.83163E-04   -0.10394E-05    36   0.193E-02
  19 F= -.14887236E+02 E0= -.14911280E+02  d E =-.296286E-02  mag=     1.0480
       N       E                     dE             d eps       ncg     rms          rms(c)
DAV:   1    -0.148901912333E+02   -0.30379E-02   -0.23303E-01    76   0.253E+00    0.138E-01
DAV:   2    -0.148913523634E+02   -0.11611E-02   -0.11859E-02    94   0.509E-01    0.773E-02
DAV:   3    -0.148912150697E+02    0.13729E-03   -0.15108E-03   102   0.174E-01    0.626E-02
DAV:   4    -0.148912544088E+02   -0.39339E-04   -0.19370E-04    54   0.607E-02
  20 F= -.14891254E+02 E0= -.14914705E+02  d E =-.698079E-02  mag=     1.0484
       N       E                     dE             d eps       ncg     rms          rms(c)
DAV:   1    -0.148934141248E+02   -0.21991E-02   -0.55923E-02    74   0.124E+00    0.884E-02
DAV:   2    -0.148936565843E+02   -0.24246E-03   -0.48137E-03    94   0.312E-01    0.441E-02
DAV:   3    -0.148936868343E+02   -0.30250E-04   -0.42882E-04    78   0.103E-01
  21 F= -.14893687E+02 E0= -.14917500E+02  d E =-.243243E-02  mag=     1.0477
       N       E                     dE             d eps       ncg     rms          rms(c)
DAV:   1    -0.148937867912E+02   -0.13021E-03   -0.14402E-03    76   0.195E-01    0.223E-02
DAV:   2    -0.148938307382E+02   -0.43947E-04   -0.12940E-04    42   0.590E-02
  22 F= -.14893831E+02 E0= -.14917640E+02  d E =-.257633E-02  mag=     1.0473
       N       E                     dE             d eps       ncg     rms          rms(c)
DAV:   1    -0.148957727659E+02   -0.19860E-02   -0.34950E-02    76   0.982E-01    0.606E-02
DAV:   2    -0.148959034424E+02   -0.13068E-03   -0.19939E-03    94   0.209E-01    0.345E-02
DAV:   3    -0.148958185333E+02    0.84909E-04   -0.16622E-04    48   0.707E-02
  23 F= -.14895819E+02 E0= -.14919316E+02  d E =-.198780E-02  mag=     1.0459
       N       E                     dE             d eps       ncg     rms          rms(c)
DAV:   1    -0.148971229407E+02   -0.12195E-02   -0.31423E-01    76   0.295E+00    0.175E-01
DAV:   2    -0.148982414916E+02   -0.11186E-02   -0.17484E-02    86   0.619E-01    0.942E-02
DAV:   3    -0.148977142283E+02    0.52726E-03   -0.20728E-03   104   0.211E-01    0.835E-02
DAV:   4    -0.148977242347E+02   -0.10006E-04   -0.54441E-04    78   0.840E-02
  24 F= -.14897724E+02 E0= -.14919570E+02  d E =-.389350E-02  mag=     1.0452
       N       E                     dE             d eps       ncg     rms          rms(c)
DAV:   1    -0.148991957305E+02   -0.14815E-02   -0.12196E-02    76   0.579E-01    0.503E-02
DAV:   2    -0.148993269177E+02   -0.13119E-03   -0.77684E-04    86   0.122E-01    0.298E-02
DAV:   3    -0.148993424964E+02   -0.15579E-04   -0.11202E-04    62   0.487E-02
  25 F= -.14899342E+02 E0= -.14921891E+02  d E =-.161826E-02  mag=     1.0420
       N       E                     dE             d eps       ncg     rms          rms(c)
DAV:   1    -0.149031883080E+02   -0.38614E-02   -0.11080E-01    76   0.174E+00    0.953E-02
DAV:   2    -0.149037413375E+02   -0.55303E-03   -0.53095E-03    86   0.346E-01    0.504E-02
DAV:   3    -0.149037256953E+02    0.15642E-04   -0.59073E-04    80   0.118E-01
  26 F= -.14903726E+02 E0= -.14925792E+02  d E =-.600146E-02  mag=     1.0400
       N       E                     dE             d eps       ncg     rms          rms(c)
DAV:   1    -0.149092673843E+02   -0.55260E-02   -0.44261E-01    76   0.349E+00    0.193E-01
DAV:   2    -0.149109261872E+02   -0.16588E-02   -0.21203E-02    86   0.688E-01    0.105E-01
DAV:   3    -0.149106927012E+02    0.23349E-03   -0.25368E-03   104   0.235E-01    0.710E-02
DAV:   4    -0.149108198481E+02   -0.12715E-03   -0.31575E-04    70   0.690E-02    0.433E-02
DAV:   5    -0.149112125333E+02   -0.39269E-03   -0.32891E-04    68   0.569E-02    0.184E-02
DAV:   6    -0.149115437633E+02   -0.33123E-03   -0.64537E-05    56   0.317E-02    0.937E-03
DAV:   7    -0.149120401919E+02   -0.49643E-03   -0.54358E-05    48   0.270E-02    0.539E-03
DAV:   8    -0.149124072281E+02   -0.36704E-03   -0.36137E-05    52   0.220E-02    0.300E-03
DAV:   9    -0.149126402501E+02   -0.23302E-03   -0.14959E-05    36   0.161E-02    0.196E-03
DAV:  10    -0.149128060232E+02   -0.16577E-03   -0.95251E-06    48   0.128E-02    0.131E-03
DAV:  11    -0.149129438121E+02   -0.13779E-03   -0.69379E-06    36   0.107E-02    0.835E-04
DAV:  12    -0.149130471879E+02   -0.10338E-03   -0.54358E-06    40   0.876E-03    0.544E-04
DAV:  13    -0.149131136146E+02   -0.66427E-04   -0.29859E-06    36   0.681E-03
  27 F= -.14913114E+02 E0= -.14934703E+02  d E =-.153894E-01  mag=     1.0447
       N       E                     dE             d eps       ncg     rms          rms(c)
DAV:   1    -0.149155742775E+02   -0.25271E-02   -0.17609E+00    76   0.697E+00    0.380E-01
DAV:   2    -0.149227070224E+02   -0.71327E-02   -0.83603E-02    86   0.137E+00    0.192E-01
DAV:   3    -0.149224420738E+02    0.26495E-03   -0.92056E-03   104   0.456E-01    0.126E-01
DAV:   4    -0.149223740985E+02    0.67975E-04   -0.10135E-03    94   0.126E-01    0.830E-02
DAV:   5    -0.149221474517E+02    0.22665E-03   -0.81376E-04    78   0.791E-02    0.373E-02
DAV:   6    -0.149221722982E+02   -0.24847E-04   -0.27055E-04    64   0.486E-02
  28 F= -.14922172E+02 E0= -.14942649E+02  d E =-.244481E-01  mag=     1.0567
       N       E                     dE             d eps       ncg     rms          rms(c)
DAV:   1    -0.148825720233E+02    0.39575E-01   -0.69542E+00    74   0.138E+01    0.750E-01
DAV:   2    -0.149128172837E+02   -0.30245E-01   -0.34039E-01    96   0.275E+00    0.393E-01
DAV:   3    -0.149132006944E+02   -0.38341E-03   -0.34122E-02   104   0.885E-01    0.254E-01
DAV:   4    -0.149128493607E+02    0.35133E-03   -0.31932E-03    96   0.234E-01    0.177E-01
DAV:   5    -0.149126734955E+02    0.17587E-03   -0.23416E-03    88   0.148E-01    0.872E-02
DAV:   6    -0.149132529827E+02   -0.57949E-03   -0.14393E-03    86   0.113E-01    0.304E-02
DAV:   7    -0.149152445609E+02   -0.19916E-02   -0.24720E-04    70   0.538E-02    0.218E-02
DAV:   8    -0.149172195658E+02   -0.19750E-02   -0.16234E-04    70   0.393E-02    0.152E-02
DAV:   9    -0.149194243743E+02   -0.22048E-02   -0.25668E-04    68   0.430E-02    0.846E-03
DAV:  10    -0.149208002546E+02   -0.13759E-02   -0.16840E-04    68   0.358E-02    0.553E-03
DAV:  11    -0.149215040091E+02   -0.70375E-03   -0.43091E-05    52   0.230E-02    0.401E-03
DAV:  12    -0.149224399484E+02   -0.93594E-03   -0.99263E-05    66   0.279E-02    0.241E-03
DAV:  13    -0.149227459577E+02   -0.30601E-03   -0.22912E-05    40   0.174E-02    0.181E-03
DAV:  14    -0.149229883453E+02   -0.24239E-03   -0.20485E-05    48   0.150E-02    0.120E-03
DAV:  15    -0.149231824636E+02   -0.19412E-03   -0.12833E-05    40   0.123E-02    0.871E-04
DAV:  16    -0.149232978114E+02   -0.11535E-03   -0.62740E-06    38   0.927E-03    0.665E-04
DAV:  17    -0.149233762255E+02   -0.78414E-04   -0.37641E-06    38   0.753E-03
  29 F= -.14923376E+02 E0= -.14942373E+02  d E =-.256520E-01  mag=     1.0910
       N       E                     dE             d eps       ncg     rms          rms(c)
DAV:   1    -0.149171164082E+02    0.61814E-02   -0.23508E+00    72   0.816E+00    0.449E-01
DAV:   2    -0.149262237659E+02   -0.91074E-02   -0.11403E-01    96   0.159E+00    0.224E-01
DAV:   3    -0.149260363948E+02    0.18737E-03   -0.12333E-02    96   0.523E-01    0.157E-01
DAV:   4    -0.149260605668E+02   -0.24172E-04   -0.11111E-03   104   0.142E-01    0.104E-01
DAV:   5    -0.149260484253E+02    0.12141E-04   -0.10396E-03    78   0.960E-02    0.457E-02
DAV:   6    -0.149263577819E+02   -0.30936E-03   -0.47343E-04    80   0.629E-02    0.184E-02
DAV:   7    -0.149268689223E+02   -0.51114E-03   -0.86771E-05    44   0.332E-02    0.133E-02
DAV:   8    -0.149275571055E+02   -0.68818E-03   -0.12649E-04    60   0.333E-02    0.854E-03
DAV:   9    -0.149281041858E+02   -0.54708E-03   -0.11215E-04    60   0.306E-02    0.547E-03
DAV:  10    -0.149284809730E+02   -0.37679E-03   -0.66048E-05    50   0.254E-02    0.328E-03
DAV:  11    -0.149287530323E+02   -0.27206E-03   -0.29745E-05    50   0.193E-02    0.229E-03
DAV:  12    -0.149289793453E+02   -0.22631E-03   -0.18984E-05    38   0.156E-02    0.151E-03
DAV:  13    -0.149291326221E+02   -0.15328E-03   -0.10608E-05    38   0.122E-02    0.124E-03
DAV:  14    -0.149292694330E+02   -0.13681E-03   -0.88806E-06    40   0.107E-02    0.781E-04
DAV:  15    -0.149293853215E+02   -0.11589E-03   -0.59888E-06    38   0.882E-03    0.461E-04
DAV:  16    -0.149294484826E+02   -0.63161E-04   -0.24638E-06    38   0.658E-03
  30 F= -.14929448E+02 E0= -.14950522E+02  d E =-.317242E-01  mag=     1.0886
       N       E                     dE             d eps       ncg     rms          rms(c)
DAV:   1    -0.149310171444E+02   -0.16318E-02   -0.17759E-02    72   0.711E-01    0.369E-02
DAV:   2    -0.149311082265E+02   -0.91082E-04   -0.79864E-04    96   0.133E-01
  31 F= -.14931108E+02 E0= -.14951958E+02  d E =-.165974E-02  mag=     1.0890
       N       E                     dE             d eps       ncg     rms          rms(c)
DAV:   1    -0.149346685587E+02   -0.36514E-02   -0.16031E-01    72   0.213E+00    0.113E-01
DAV:   2    -0.149353369933E+02   -0.66843E-03   -0.75776E-03   104   0.407E-01    0.619E-02
DAV:   3    -0.149351562457E+02    0.18075E-03   -0.59452E-04    88   0.109E-01    0.446E-02
DAV:   4    -0.149350784874E+02    0.77758E-04   -0.75167E-05    48   0.368E-02
  32 F= -.14935078E+02 E0= -.14955490E+02  d E =-.563000E-02  mag=     1.0913
       N       E                     dE             d eps       ncg     rms          rms(c)
DAV:   1    -0.149385064473E+02   -0.33502E-02   -0.63674E-01    72   0.426E+00    0.220E-01
DAV:   2    -0.149413093754E+02   -0.28029E-02   -0.28851E-02    96   0.799E-01    0.111E-01
DAV:   3    -0.149408635580E+02    0.44582E-03   -0.30315E-03    96   0.259E-01    0.777E-02
DAV:   4    -0.149407481077E+02    0.11545E-03   -0.28540E-04    64   0.721E-02    0.504E-02
DAV:   5    -0.149407920536E+02   -0.43946E-04   -0.47542E-04    78   0.687E-02
  33 F= -.14940792E+02 E0= -.14959776E+02  d E =-.113436E-01  mag=     1.0945
       N       E                     dE             d eps       ncg     rms          rms(c)
DAV:   1    -0.149320687831E+02    0.86793E-02   -0.25601E+00    72   0.851E+00    0.439E-01
DAV:   2    -0.149436497809E+02   -0.11581E-01   -0.11770E-01    96   0.161E+00    0.224E-01
DAV:   3    -0.149424518482E+02    0.11979E-02   -0.11939E-02   104   0.517E-01    0.154E-01
DAV:   4    -0.149420381592E+02    0.41369E-03   -0.12445E-03   112   0.144E-01    0.104E-01
DAV:   5    -0.149421691728E+02   -0.13101E-03   -0.13829E-03    86   0.103E-01    0.427E-02
DAV:   6    -0.149429246370E+02   -0.75546E-03   -0.69445E-04    94   0.723E-02    0.203E-02
DAV:   7    -0.149437193571E+02   -0.79472E-03   -0.92476E-05    54   0.320E-02    0.156E-02
DAV:   8    -0.149453780670E+02   -0.16587E-02   -0.29194E-04    68   0.436E-02    0.910E-03
DAV:   9    -0.149465077623E+02   -0.11297E-02   -0.21491E-04    68   0.372E-02    0.589E-03
DAV:  10    -0.149470181819E+02   -0.51042E-03   -0.53137E-05    44   0.242E-02    0.401E-03
DAV:  11    -0.149475993008E+02   -0.58112E-03   -0.55078E-05    56   0.225E-02    0.263E-03
DAV:  12    -0.149480845524E+02   -0.48525E-03   -0.42473E-05    52   0.198E-02    0.173E-03
DAV:  13    -0.149484108268E+02   -0.32627E-03   -0.28298E-05    40   0.166E-02    0.111E-03
DAV:  14    -0.149486079268E+02   -0.19710E-03   -0.15173E-05    40   0.133E-02    0.741E-04
DAV:  15    -0.149487105641E+02   -0.10264E-03   -0.61181E-06    38   0.986E-03    0.521E-04
DAV:  16    -0.149487864074E+02   -0.75843E-04   -0.40470E-06    38   0.801E-03
  34 F= -.14948786E+02 E0= -.14961578E+02  d E =-.193379E-01  mag=     1.1005
       N       E                     dE             d eps       ncg     rms          rms(c)
DAV:   1    -0.149547249146E+02   -0.60144E-02   -0.22249E-02    72   0.772E-01    0.483E-02
DAV:   2    -0.149548088476E+02   -0.83933E-04   -0.16156E-03    96   0.193E-01    0.251E-02
DAV:   3    -0.149547991859E+02    0.96617E-05   -0.12838E-04    42   0.617E-02
  35 F= -.14954799E+02 E0= -.14967826E+02  d E =-.601278E-02  mag=     1.1010
       N       E                     dE             d eps       ncg     rms          rms(c)
DAV:   1    -0.149653944364E+02   -0.10586E-01   -0.19991E-01    72   0.231E+00    0.141E-01
DAV:   2    -0.149659519528E+02   -0.55752E-03   -0.14410E-02    96   0.580E-01    0.803E-02
DAV:   3    -0.149658208652E+02    0.13109E-03   -0.15906E-03   112   0.186E-01    0.732E-02
DAV:   4    -0.149657764931E+02    0.44372E-04   -0.87787E-05    48   0.524E-02
  36 F= -.14965776E+02 E0= -.14979354E+02  d E =-.169901E-01  mag=     1.1031
       N       E                     dE             d eps       ncg     rms          rms(c)
DAV:   1    -0.149538371481E+02    0.11984E-01   -0.79816E-01    72   0.463E+00    0.291E-01
DAV:   2    -0.149560251732E+02   -0.21880E-02   -0.57918E-02    96   0.116E+00    0.156E-01
DAV:   3    -0.149555604976E+02    0.46468E-03   -0.65660E-03   112   0.375E-01    0.136E-01
DAV:   4    -0.149554487980E+02    0.11170E-03   -0.47924E-04    96   0.108E-01    0.946E-02
DAV:   5    -0.149553202845E+02    0.12851E-03   -0.19200E-04    64   0.526E-02    0.380E-02
DAV:   6    -0.149553125467E+02    0.77378E-05   -0.18865E-04    56   0.521E-02
  37 F= -.14955313E+02 E0= -.14969558E+02  d E =-.652614E-02  mag=     1.1081
       N       E                     dE             d eps       ncg     rms          rms(c)
DAV:   1    -0.149653957783E+02   -0.10075E-01   -0.41343E-01    72   0.333E+00    0.203E-01
DAV:   2    -0.149670176948E+02   -0.16219E-02   -0.30311E-02    96   0.833E-01    0.116E-01
DAV:   3    -0.149671097508E+02   -0.92056E-04   -0.32136E-03   112   0.264E-01    0.986E-02
DAV:   4    -0.149672715533E+02   -0.16180E-03   -0.22740E-04    64   0.753E-02    0.653E-02
DAV:   5    -0.149674872644E+02   -0.21571E-03   -0.12647E-04    62   0.461E-02    0.235E-02
DAV:   6    -0.149675859667E+02   -0.98702E-04   -0.71315E-05    48   0.364E-02
  38 F= -.14967586E+02 E0= -.14981368E+02  d E =-.187996E-01  mag=     1.1066
       N       E                     dE             d eps       ncg     rms          rms(c)
DAV:   1    -0.149742624111E+02   -0.67751E-02   -0.56138E-02    74   0.128E+00    0.674E-02
DAV:   2    -0.149745621481E+02   -0.29974E-03   -0.28976E-03   104   0.257E-01    0.342E-02
DAV:   3    -0.149745527620E+02    0.93861E-05   -0.25197E-04    64   0.795E-02
  39 F= -.14974553E+02 E0= -.14989623E+02  d E =-.696680E-02  mag=     1.1082
       N       E                     dE             d eps       ncg     rms          rms(c)
DAV:   1    -0.149833353110E+02   -0.87732E-02   -0.50355E-01    74   0.382E+00    0.199E-01
DAV:   2    -0.149851078804E+02   -0.17726E-02   -0.25915E-02   112   0.774E-01    0.104E-01
DAV:   3    -0.149846569551E+02    0.45093E-03   -0.23488E-03    96   0.234E-01    0.855E-02
DAV:   4    -0.149845111204E+02    0.14583E-03   -0.18437E-04    64   0.667E-02    0.515E-02
DAV:   5    -0.149844247886E+02    0.86332E-04   -0.15365E-04    64   0.557E-02
  40 F= -.14984425E+02 E0= -.15001157E+02  d E =-.168388E-01  mag=     1.1168
       N       E                     dE             d eps       ncg     rms          rms(c)
DAV:   1    -0.149900030366E+02   -0.54919E-02   -0.73053E-02    72   0.144E+00    0.798E-02
DAV:   2    -0.149905129281E+02   -0.50989E-03   -0.40757E-03    96   0.306E-01    0.406E-02
DAV:   3    -0.149906489788E+02   -0.13605E-03   -0.37606E-04    80   0.970E-02    0.322E-02
DAV:   4    -0.149907751188E+02   -0.12614E-03   -0.26966E-05    48   0.282E-02    0.217E-02
DAV:   5    -0.149909880447E+02   -0.21293E-03   -0.28290E-05    46   0.237E-02    0.674E-03
DAV:   6    -0.149911110782E+02   -0.12303E-03   -0.14989E-05    38   0.176E-02    0.403E-03
DAV:   7    -0.149911933918E+02   -0.82314E-04   -0.47575E-06    36   0.116E-02
  41 F= -.14991193E+02 E0= -.15007807E+02  d E =-.676860E-02  mag=     1.1245
       N       E                     dE             d eps       ncg     rms          rms(c)
DAV:   1    -0.149927224097E+02   -0.16113E-02   -0.11197E-02    72   0.562E-01    0.289E-02
DAV:   2    -0.149928079944E+02   -0.85585E-04   -0.62074E-04    80   0.120E-01
  42 F= -.14992808E+02 E0= -.15009376E+02  d E =-.838321E-02  mag=     1.1253
       N       E                     dE             d eps       ncg     rms          rms(c)
DAV:   1    -0.149946268900E+02   -0.19045E-02   -0.15880E-02    72   0.674E-01    0.461E-02
DAV:   2    -0.149947028659E+02   -0.75976E-04   -0.10857E-03    96   0.160E-01    0.246E-02
DAV:   3    -0.149946959587E+02    0.69071E-05   -0.88741E-05    46   0.553E-02
  43 F= -.14994696E+02 E0= -.15011149E+02  d E =-.188796E-02  mag=     1.1268
       N       E                     dE             d eps       ncg     rms          rms(c)
DAV:   1    -0.149962289605E+02   -0.15261E-02   -0.10103E-01    72   0.171E+00    0.106E-01
DAV:   2    -0.149965137454E+02   -0.28478E-03   -0.66709E-03    94   0.394E-01    0.587E-02
DAV:   3    -0.149963868963E+02    0.12685E-03   -0.72023E-04   102   0.132E-01    0.502E-02
DAV:   4    -0.149963138705E+02    0.73026E-04   -0.57621E-05    44   0.387E-02
  44 F= -.14996314E+02 E0= -.15012524E+02  d E =-.350588E-02  mag=     1.1294
       N       E                     dE             d eps       ncg     rms          rms(c)
DAV:   1    -0.149974114430E+02   -0.10245E-02   -0.62607E-03    72   0.431E-01    0.284E-02
DAV:   2    -0.149974860847E+02   -0.74642E-04   -0.28610E-04    80   0.845E-02
  45 F= -.14997486E+02 E0= -.15013692E+02  d E =-.117221E-02  mag=     1.1301
       N       E                     dE             d eps       ncg     rms          rms(c)
DAV:   1    -0.150004824467E+02   -0.30710E-02   -0.57420E-02    72   0.130E+00    0.694E-02
DAV:   2    -0.150007271344E+02   -0.24469E-03   -0.24187E-03    96   0.245E-01    0.369E-02
DAV:   3    -0.150007521199E+02   -0.24985E-04   -0.24001E-04    64   0.816E-02
  46 F= -.15000752E+02 E0= -.15016910E+02  d E =-.443825E-02  mag=     1.1314
       N       E                     dE             d eps       ncg     rms          rms(c)
DAV:   1    -0.150040886365E+02   -0.33615E-02   -0.22875E-01    72   0.261E+00    0.133E-01
DAV:   2    -0.150049019203E+02   -0.81328E-03   -0.95465E-03    96   0.486E-01    0.718E-02
DAV:   3    -0.150048766176E+02    0.25303E-04   -0.10115E-03    96   0.159E-01    0.564E-02
DAV:   4    -0.150048795497E+02   -0.29321E-05   -0.58058E-05    48   0.406E-02
  47 F= -.15004880E+02 E0= -.15020940E+02  d E =-.856568E-02  mag=     1.1336
       N       E                     dE             d eps       ncg     rms          rms(c)
DAV:   1    -0.150008414742E+02    0.40351E-02   -0.91195E-01    72   0.521E+00    0.271E-01
DAV:   2    -0.150040810149E+02   -0.32395E-02   -0.38325E-02    96   0.968E-01    0.137E-01
DAV:   3    -0.150039569401E+02    0.12407E-03   -0.39012E-03   112   0.312E-01    0.994E-02
DAV:   4    -0.150039098703E+02    0.47070E-04   -0.23491E-04    72   0.751E-02
  48 F= -.15003910E+02 E0= -.15019778E+02  d E =-.759600E-02  mag=     1.1336
       N       E                     dE             d eps       ncg     rms          rms(c)
DAV:   1    -0.150139725176E+02   -0.10016E-01   -0.17219E-01    72   0.207E+00    0.152E-01
DAV:   2    -0.150146321008E+02   -0.65958E-03   -0.13747E-02    96   0.577E-01    0.728E-02
DAV:   3    -0.150147671231E+02   -0.13502E-03   -0.16419E-03   112   0.185E-01    0.618E-02
DAV:   4    -0.150148851677E+02   -0.11804E-03   -0.88299E-05    48   0.527E-02    0.418E-02
DAV:   5    -0.150151213565E+02   -0.23619E-03   -0.80673E-05    56   0.416E-02    0.143E-02
DAV:   6    -0.150152600445E+02   -0.13869E-03   -0.34110E-05    48   0.296E-02    0.560E-03
DAV:   7    -0.150153585465E+02   -0.98502E-04   -0.11514E-05    48   0.202E-02
  49 F= -.15015359E+02 E0= -.15030688E+02  d E =-.114487E-01  mag=     1.1305
       N       E                     dE             d eps       ncg     rms          rms(c)
DAV:   1    -0.150162025162E+02   -0.94247E-03   -0.88634E-03    76   0.471E-01    0.333E-02
DAV:   2    -0.150162762435E+02   -0.73727E-04   -0.71989E-04    80   0.131E-01
  50 F= -.15016276E+02 E0= -.15031445E+02  d E =-.123664E-01  mag=     1.1299
       N       E                     dE             d eps       ncg     rms          rms(c)
DAV:   1    -0.150185588795E+02   -0.23564E-02   -0.26506E-02    72   0.844E-01    0.550E-02
DAV:   2    -0.150186531381E+02   -0.94259E-04   -0.18095E-03    96   0.199E-01    0.275E-02
DAV:   3    -0.150185562514E+02    0.96887E-04   -0.13016E-04    56   0.652E-02
  51 F= -.15018556E+02 E0= -.15033575E+02  d E =-.228001E-02  mag=     1.1265
       N       E                     dE             d eps       ncg     rms          rms(c)
DAV:   1    -0.150196954902E+02   -0.10424E-02   -0.91797E-02    72   0.157E+00    0.930E-02
DAV:   2    -0.150197726631E+02   -0.77173E-04   -0.62593E-03    96   0.369E-01    0.523E-02
DAV:   3    -0.150193377899E+02    0.43487E-03   -0.60213E-04    96   0.119E-01    0.464E-02
DAV:   4    -0.150191195236E+02    0.21827E-03   -0.45985E-05    48   0.357E-02    0.294E-02
DAV:   5    -0.150188584150E+02    0.26111E-03   -0.77858E-05    56   0.361E-02    0.104E-02
DAV:   6    -0.150189259574E+02   -0.67542E-04   -0.26289E-05    48   0.238E-02
  52 F= -.15018926E+02 E0= -.15033677E+02  d E =-.264971E-02  mag=     1.1139
       N       E                     dE             d eps       ncg     rms          rms(c)
DAV:   1    -0.150208344077E+02   -0.19760E-02   -0.25212E-02    72   0.851E-01    0.532E-02
DAV:   2    -0.150210391584E+02   -0.20475E-03   -0.14235E-03    96   0.184E-01    0.241E-02
DAV:   3    -0.150211138728E+02   -0.74714E-04   -0.11396E-04    48   0.636E-02
  53 F= -.15021114E+02 E0= -.15035708E+02  d E =-.218792E-02  mag=     1.1100
       N       E                     dE             d eps       ncg     rms          rms(c)
DAV:   1    -0.150230312225E+02   -0.19921E-02   -0.22690E-01    72   0.255E+00    0.155E-01
DAV:   2    -0.150236726210E+02   -0.64140E-03   -0.12790E-02    96   0.554E-01    0.756E-02
DAV:   3    -0.150235444204E+02    0.12820E-03   -0.14796E-03   104   0.191E-01    0.719E-02
DAV:   4    -0.150234799927E+02    0.64428E-04   -0.68362E-05    48   0.494E-02
  54 F= -.15023480E+02 E0= -.15037684E+02  d E =-.455404E-02  mag=     1.1006
       N       E                     dE             d eps       ncg     rms          rms(c)
DAV:   1    -0.150254721551E+02   -0.19277E-02   -0.26634E-02    72   0.878E-01    0.529E-02
DAV:   2    -0.150257574287E+02   -0.28527E-03   -0.12694E-03    96   0.173E-01    0.279E-02
DAV:   3    -0.150259292455E+02   -0.17182E-03   -0.10464E-04    48   0.607E-02    0.169E-02
DAV:   4    -0.150261468633E+02   -0.21762E-03   -0.51520E-05    54   0.429E-02    0.102E-02
DAV:   5    -0.150263694633E+02   -0.22260E-03   -0.26299E-05    46   0.326E-02    0.476E-03
DAV:   6    -0.150265923027E+02   -0.22284E-03   -0.16551E-05    52   0.250E-02    0.249E-03
DAV:   7    -0.150267279731E+02   -0.13567E-03   -0.69799E-06    42   0.184E-02    0.198E-03
DAV:   8    -0.150268804632E+02   -0.15249E-03   -0.57051E-06    44   0.147E-02    0.108E-03
DAV:   9    -0.150269735444E+02   -0.93081E-04   -0.33229E-06    42   0.114E-02
  55 F= -.15026974E+02 E0= -.15041364E+02  d E =-.349355E-02  mag=     1.0944
       N       E                     dE             d eps       ncg     rms          rms(c)
DAV:   1    -0.150309318425E+02   -0.40514E-02   -0.24141E-01    72   0.265E+00    0.139E-01
DAV:   2    -0.150319643080E+02   -0.10325E-02   -0.11240E-02    96   0.510E-01    0.705E-02
DAV:   3    -0.150317686451E+02    0.19566E-03   -0.11817E-03   104   0.169E-01    0.551E-02
DAV:   4    -0.150316412744E+02    0.12737E-03   -0.69415E-05    56   0.432E-02    0.378E-02
DAV:   5    -0.150313393177E+02    0.30196E-03   -0.88256E-05    62   0.379E-02    0.130E-02
DAV:   6    -0.150311989475E+02    0.14037E-03   -0.40662E-05    42   0.289E-02    0.728E-03
DAV:   7    -0.150312881172E+02   -0.89170E-04   -0.11256E-05    42   0.182E-02
  56 F= -.15031288E+02 E0= -.15046116E+02  d E =-.780812E-02  mag=     1.1047
       N       E                     dE             d eps       ncg     rms          rms(c)
DAV:   1    -0.150303348950E+02    0.86405E-03   -0.96389E-01    72   0.529E+00    0.277E-01
DAV:   2    -0.150343423000E+02   -0.40074E-02   -0.45710E-02    96   0.102E+00    0.144E-01
DAV:   3    -0.150335853124E+02    0.75699E-03   -0.47296E-03   104   0.339E-01    0.109E-01
DAV:   4    -0.150331403858E+02    0.44493E-03   -0.32924E-04    88   0.868E-02    0.751E-02
DAV:   5    -0.150323865014E+02    0.75388E-03   -0.23646E-04    70   0.585E-02    0.296E-02
DAV:   6    -0.150320444931E+02    0.34201E-03   -0.17013E-04    64   0.523E-02    0.141E-02
DAV:   7    -0.150323686972E+02   -0.32420E-03   -0.31893E-05    42   0.288E-02    0.104E-02
DAV:   8    -0.150332456796E+02   -0.87698E-03   -0.61456E-05    52   0.291E-02    0.567E-03
DAV:   9    -0.150339150559E+02   -0.66938E-03   -0.41166E-05    52   0.226E-02    0.519E-03
DAV:  10    -0.150343613697E+02   -0.44631E-03   -0.11731E-05    42   0.148E-02    0.320E-03
DAV:  11    -0.150350509067E+02   -0.68954E-03   -0.32571E-05    54   0.174E-02    0.182E-03
DAV:  12    -0.150353363288E+02   -0.28542E-03   -0.94469E-06    42   0.113E-02    0.133E-03
DAV:  13    -0.150356014245E+02   -0.26510E-03   -0.10079E-05    52   0.101E-02    0.876E-04
DAV:  14    -0.150358124329E+02   -0.21101E-03   -0.50902E-06    44   0.832E-03    0.641E-04
DAV:  15    -0.150359186938E+02   -0.10626E-03   -0.25550E-06    42   0.578E-03    0.411E-04
DAV:  16    -0.150359821472E+02   -0.63453E-04   -0.10230E-06    42   0.439E-03
  57 F= -.15035982E+02 E0= -.15051789E+02  d E =-.125022E-01  mag=     1.1463
       N       E                     dE             d eps       ncg     rms          rms(c)
DAV:   1    -0.150374392570E+02   -0.15206E-02   -0.27107E-02    72   0.892E-01    0.441E-02
DAV:   2    -0.150375666486E+02   -0.12739E-03   -0.11611E-03    96   0.165E-01    0.208E-02
DAV:   3    -0.150375551783E+02    0.11470E-04   -0.79421E-05    46   0.540E-02
  58 F= -.15037555E+02 E0= -.15053395E+02  d E =-.157303E-02  mag=     1.1467
       N       E                     dE             d eps       ncg     rms          rms(c)
DAV:   1    -0.150402844454E+02   -0.27178E-02   -0.24416E-01    72   0.267E+00    0.131E-01
DAV:   2    -0.150413134499E+02   -0.10290E-02   -0.10489E-02    96   0.499E-01    0.649E-02
DAV:   3    -0.150411711310E+02    0.14232E-03   -0.10429E-03   104   0.162E-01    0.536E-02
DAV:   4    -0.150411029739E+02    0.68157E-04   -0.58065E-05    48   0.413E-02
  59 F= -.15041103E+02 E0= -.15057064E+02  d E =-.512083E-02  mag=     1.1486
       N       E                     dE             d eps       ncg     rms          rms(c)
DAV:   1    -0.150402865802E+02    0.88455E-03   -0.96407E-01    72   0.533E+00    0.268E-01
DAV:   2    -0.150444466823E+02   -0.41601E-02   -0.41909E-02   104   0.992E-01    0.131E-01
DAV:   3    -0.150440079877E+02    0.43869E-03   -0.41715E-03    96   0.321E-01    0.991E-02
DAV:   4    -0.150438354323E+02    0.17256E-03   -0.28345E-04    88   0.825E-02    0.681E-02
DAV:   5    -0.150435918064E+02    0.24363E-03   -0.20032E-04    62   0.545E-02    0.252E-02
DAV:   6    -0.150435707529E+02    0.21054E-04   -0.11690E-04    62   0.452E-02
  60 F= -.15043571E+02 E0= -.15059785E+02  d E =-.758861E-02  mag=     1.1550
       N       E                     dE             d eps       ncg     rms          rms(c)
DAV:   1    -0.150479281033E+02   -0.43363E-02   -0.46447E-02    76   0.114E+00    0.576E-02
DAV:   2    -0.150484928524E+02   -0.56475E-03   -0.25581E-03    96   0.244E-01    0.306E-02
DAV:   3    -0.150487956608E+02   -0.30281E-03   -0.22949E-04    80   0.772E-02    0.203E-02
DAV:   4    -0.150490660992E+02   -0.27044E-03   -0.26921E-05    44   0.302E-02    0.135E-02
DAV:   5    -0.150493548266E+02   -0.28873E-03   -0.23860E-05    56   0.236E-02    0.522E-03
DAV:   6    -0.150495719542E+02   -0.21713E-03   -0.11186E-05    44   0.179E-02    0.240E-03
DAV:   7    -0.150496831270E+02   -0.11117E-03   -0.40209E-06    42   0.127E-02    0.193E-03
DAV:   8    -0.150498912834E+02   -0.20816E-03   -0.61842E-06    44   0.119E-02    0.120E-03
DAV:   9    -0.150499896299E+02   -0.98347E-04   -0.27890E-06    42   0.837E-03
  61 F= -.15049990E+02 E0= -.15065850E+02  d E =-.641888E-02  mag=     1.1533
       N       E                     dE             d eps       ncg     rms          rms(c)
DAV:   1    -0.150550522578E+02   -0.51610E-02   -0.41835E-01    72   0.342E+00    0.171E-01
DAV:   2    -0.150563559524E+02   -0.13037E-02   -0.22779E-02    96   0.731E-01    0.892E-02
DAV:   3    -0.150553089266E+02    0.10470E-02   -0.21570E-03   104   0.230E-01    0.659E-02
DAV:   4    -0.150546582870E+02    0.65064E-03   -0.17045E-04    80   0.623E-02    0.439E-02
DAV:   5    -0.150539846844E+02    0.67360E-03   -0.68331E-05    56   0.370E-02    0.175E-02
DAV:   6    -0.150538341710E+02    0.15051E-03   -0.53345E-05    56   0.308E-02    0.876E-03
DAV:   7    -0.150542096233E+02   -0.37545E-03   -0.13723E-05    46   0.189E-02    0.677E-03
DAV:   8    -0.150551079597E+02   -0.89834E-03   -0.50853E-05    50   0.232E-02    0.420E-03
DAV:   9    -0.150554806868E+02   -0.37273E-03   -0.14580E-05    48   0.139E-02    0.325E-03
DAV:  10    -0.150558690464E+02   -0.38836E-03   -0.58870E-06    36   0.103E-02    0.239E-03
DAV:  11    -0.150565574263E+02   -0.68838E-03   -0.32725E-05    60   0.148E-02    0.128E-03
DAV:  12    -0.150567460205E+02   -0.18859E-03   -0.51555E-06    40   0.772E-03    0.934E-04
DAV:  13    -0.150569095688E+02   -0.16355E-03   -0.45686E-06    44   0.652E-03    0.672E-04
DAV:  14    -0.150570342844E+02   -0.12472E-03   -0.17503E-06    38   0.484E-03    0.451E-04
DAV:  15    -0.150571253260E+02   -0.91042E-04   -0.11552E-06    36   0.395E-03
  62 F= -.15057125E+02 E0= -.15072037E+02  d E =-.135546E-01  mag=     1.1034
       N       E                     dE             d eps       ncg     rms          rms(c)
DAV:   1    -0.150612153974E+02   -0.41811E-02   -0.58949E-02    72   0.132E+00    0.724E-02
DAV:   2    -0.150613725025E+02   -0.15711E-03   -0.28386E-03    96   0.253E-01    0.329E-02
DAV:   3    -0.150613403297E+02    0.32173E-04   -0.26026E-04    80   0.845E-02
  63 F= -.15061340E+02 E0= -.15076085E+02  d E =-.421500E-02  mag=     1.1006
       N       E                     dE             d eps       ncg     rms          rms(c)
DAV:   1    -0.150674030545E+02   -0.60306E-02   -0.53019E-01    72   0.395E+00    0.214E-01
DAV:   2    -0.150684006090E+02   -0.99755E-03   -0.25747E-02    96   0.764E-01    0.104E-01
DAV:   3    -0.150678559895E+02    0.54462E-03   -0.26068E-03   104   0.257E-01    0.784E-02
DAV:   4    -0.150672460841E+02    0.60991E-03   -0.16335E-04    72   0.644E-02    0.544E-02
DAV:   5    -0.150663582164E+02    0.88787E-03   -0.21005E-04    64   0.591E-02    0.197E-02
DAV:   6    -0.150663109624E+02    0.47254E-04   -0.71798E-05    56   0.390E-02
  64 F= -.15066311E+02 E0= -.15080724E+02  d E =-.918564E-02  mag=     1.0778
       N       E                     dE             d eps       ncg     rms          rms(c)
DAV:   1    -0.150559149633E+02    0.10443E-01   -0.21044E+00    72   0.786E+00    0.427E-01
DAV:   2    -0.150616084289E+02   -0.56935E-02   -0.10154E-01    96   0.151E+00    0.192E-01
DAV:   3    -0.150607169235E+02    0.89151E-03   -0.94311E-03   102   0.494E-01    0.139E-01
DAV:   4    -0.150594548498E+02    0.12621E-02   -0.65088E-04   104   0.117E-01    0.106E-01
DAV:   5    -0.150582440734E+02    0.12108E-02   -0.37500E-04    64   0.634E-02    0.486E-02
DAV:   6    -0.150580076450E+02    0.23643E-03   -0.36218E-04    80   0.625E-02    0.193E-02
DAV:   7    -0.150588108311E+02   -0.80319E-03   -0.43986E-05    50   0.303E-02    0.141E-02
DAV:   8    -0.150604572824E+02   -0.16465E-02   -0.84735E-05    50   0.334E-02    0.827E-03
DAV:   9    -0.150623492857E+02   -0.18920E-02   -0.13229E-04    66   0.349E-02    0.729E-03
DAV:  10    -0.150632045179E+02   -0.85523E-03   -0.24861E-05    48   0.177E-02    0.566E-03
DAV:  11    -0.150644438168E+02   -0.12393E-02   -0.43626E-05    52   0.202E-02    0.294E-03
DAV:  12    -0.150653664943E+02   -0.92268E-03   -0.35622E-05    66   0.165E-02    0.237E-03
DAV:  13    -0.150657859726E+02   -0.41948E-03   -0.94018E-06    48   0.103E-02    0.138E-03
DAV:  14    -0.150661729598E+02   -0.38699E-03   -0.82343E-06    50   0.905E-03    0.869E-04
DAV:  15    -0.150663641196E+02   -0.19116E-03   -0.29247E-06    38   0.620E-03    0.595E-04
DAV:  16    -0.150664567465E+02   -0.92627E-04   -0.13766E-06    36   0.428E-03
  65 F= -.15066457E+02 E0= -.15080427E+02  d E =-.933142E-02  mag=     0.9919
       N       E                     dE             d eps       ncg     rms          rms(c)
DAV:   1    -0.150682361523E+02   -0.18720E-02   -0.78663E-01    72   0.483E+00    0.256E-01
DAV:   2    -0.150705566306E+02   -0.23205E-02   -0.37336E-02    96   0.920E-01    0.117E-01
DAV:   3    -0.150705396165E+02    0.17014E-04   -0.34235E-03   102   0.297E-01    0.845E-02
DAV:   4    -0.150702112689E+02    0.32835E-03   -0.23644E-04    88   0.729E-02    0.613E-02
DAV:   5    -0.150695738977E+02    0.63737E-03   -0.16694E-04    70   0.475E-02    0.247E-02
DAV:   6    -0.150692364483E+02    0.33745E-03   -0.86828E-05    58   0.373E-02    0.937E-03
DAV:   7    -0.150694282175E+02   -0.19177E-03   -0.18553E-05    38   0.221E-02    0.664E-03
DAV:   8    -0.150697761257E+02   -0.34791E-03   -0.33125E-05    52   0.217E-02    0.378E-03
DAV:   9    -0.150700765840E+02   -0.30046E-03   -0.24094E-05    48   0.173E-02    0.304E-03
DAV:  10    -0.150703093355E+02   -0.23275E-03   -0.66416E-06    36   0.114E-02    0.231E-03
DAV:  11    -0.150707072616E+02   -0.39793E-03   -0.18945E-05    52   0.134E-02    0.134E-03
DAV:  12    -0.150708453661E+02   -0.13810E-03   -0.42947E-06    36   0.821E-03    0.101E-03
DAV:  13    -0.150709668241E+02   -0.12146E-03   -0.30810E-06    38   0.671E-03    0.729E-04
DAV:  14    -0.150711147600E+02   -0.14794E-03   -0.35168E-06    38   0.632E-03    0.448E-04
DAV:  15    -0.150711840558E+02   -0.69296E-04   -0.14750E-06    38   0.447E-03
  66 F= -.15071184E+02 E0= -.15085478E+02  d E =-.140587E-01  mag=     1.0261
       N       E                     dE             d eps       ncg     rms          rms(c)
DAV:   1    -0.150740149562E+02   -0.29002E-02   -0.11752E-01    72   0.190E+00    0.937E-02
DAV:   2    -0.150743100934E+02   -0.29514E-03   -0.51460E-03    96   0.349E-01    0.449E-02
DAV:   3    -0.150739781437E+02    0.33195E-03   -0.49654E-04    94   0.110E-01    0.336E-02
DAV:   4    -0.150737476895E+02    0.23045E-03   -0.27825E-05    50   0.269E-02    0.233E-02
DAV:   5    -0.150734021374E+02    0.34555E-03   -0.33688E-05    48   0.245E-02    0.757E-03
DAV:   6    -0.150733685226E+02    0.33615E-04   -0.13315E-05    36   0.169E-02
  67 F= -.15073369E+02 E0= -.15087614E+02  d E =-.218447E-02  mag=     1.0124
       N       E                     dE             d eps       ncg     rms          rms(c)
DAV:   1    -0.150741184088E+02   -0.71627E-03   -0.48856E-01    72   0.387E+00    0.191E-01
DAV:   2    -0.150752285419E+02   -0.11101E-02   -0.21430E-02    96   0.714E-01    0.900E-02
DAV:   3    -0.150739951835E+02    0.12334E-02   -0.19879E-03   102   0.225E-01    0.684E-02
DAV:   4    -0.150734270668E+02    0.56812E-03   -0.93364E-05    56   0.522E-02    0.474E-02
DAV:   5    -0.150728543927E+02    0.57267E-03   -0.12794E-04    48   0.480E-02    0.157E-02
DAV:   6    -0.150730559600E+02   -0.20157E-03   -0.57239E-05    48   0.340E-02    0.950E-03
DAV:   7    -0.150737256093E+02   -0.66965E-03   -0.24976E-05    46   0.239E-02    0.668E-03
DAV:   8    -0.150750168578E+02   -0.12912E-02   -0.80337E-05    58   0.291E-02    0.474E-03
DAV:   9    -0.150755234686E+02   -0.50661E-03   -0.19083E-05    48   0.170E-02    0.374E-03
DAV:  10    -0.150759662139E+02   -0.44275E-03   -0.89395E-06    40   0.129E-02    0.277E-03
DAV:  11    -0.150766778413E+02   -0.71163E-03   -0.30413E-05    58   0.156E-02    0.130E-03
DAV:  12    -0.150769122841E+02   -0.23444E-03   -0.44810E-06    38   0.857E-03    0.104E-03
DAV:  13    -0.150770668069E+02   -0.15452E-03   -0.39150E-06    44   0.708E-03    0.702E-04
DAV:  14    -0.150772307425E+02   -0.16394E-03   -0.33886E-06    42   0.640E-03    0.407E-04
DAV:  15    -0.150773125091E+02   -0.81767E-04   -0.13075E-06    36   0.440E-03
  68 F= -.15077313E+02 E0= -.15091683E+02  d E =-.612845E-02  mag=     0.9541
       N       E                     dE             d eps       ncg     rms          rms(c)
DAV:   1    -0.150807146654E+02   -0.34839E-02   -0.17575E-01    72   0.230E+00    0.112E-01
DAV:   2    -0.150813975315E+02   -0.68287E-03   -0.72878E-03    96   0.423E-01    0.508E-02
DAV:   3    -0.150813560821E+02    0.41449E-04   -0.66694E-04   110   0.130E-01
  69 F= -.15081356E+02 E0= -.15095738E+02  d E =-.404357E-02  mag=     0.9534
       N       E                     dE             d eps       ncg     rms          rms(c)
DAV:   1    -0.150800062352E+02    0.13913E-02   -0.15898E+00    72   0.688E+00    0.334E-01
DAV:   2    -0.150859595466E+02   -0.59533E-02   -0.67419E-02    96   0.128E+00    0.166E-01
DAV:   3    -0.150857223988E+02    0.23715E-03   -0.61519E-03   112   0.395E-01    0.123E-01
DAV:   4    -0.150856981957E+02    0.24203E-04   -0.31779E-04    80   0.875E-02
  70 F= -.15085698E+02 E0= -.15099973E+02  d E =-.838569E-02  mag=     0.9556
       N       E                     dE             d eps       ncg     rms          rms(c)
DAV:   1    -0.150884776189E+02   -0.27552E-02   -0.86969E-02    72   0.159E+00    0.915E-02
DAV:   2    -0.150890092647E+02   -0.53165E-03   -0.37965E-03    96   0.303E-01    0.465E-02
DAV:   3    -0.150890804595E+02   -0.71195E-04   -0.32125E-04    76   0.955E-02
  71 F= -.15089080E+02 E0= -.15103211E+02  d E =-.338226E-02  mag=     0.9574
       N       E                     dE             d eps       ncg     rms          rms(c)
DAV:   1    -0.150941418257E+02   -0.51326E-02   -0.79408E-01    72   0.481E+00    0.233E-01
DAV:   2    -0.150974867044E+02   -0.33449E-02   -0.34854E-02    96   0.912E-01    0.112E-01
DAV:   3    -0.150972849365E+02    0.20177E-03   -0.30228E-03   102   0.281E-01    0.869E-02
DAV:   4    -0.150973413516E+02   -0.56415E-04   -0.17034E-04    78   0.641E-02
  72 F= -.15097341E+02 E0= -.15111118E+02  d E =-.116432E-01  mag=     0.9606
       N       E                     dE             d eps       ncg     rms          rms(c)
DAV:   1    -0.150949193562E+02    0.23656E-02   -0.32042E+00    72   0.957E+00    0.473E-01
DAV:   2    -0.151088957210E+02   -0.13976E-01   -0.14539E-01    96   0.184E+00    0.228E-01
DAV:   3    -0.151080219325E+02    0.87379E-03   -0.12051E-02   102   0.560E-01    0.163E-01
DAV:   4    -0.151079594533E+02    0.62479E-04   -0.68470E-04   104   0.126E-01
  73 F= -.15107959E+02 E0= -.15120769E+02  d E =-.222613E-01  mag=     0.9695
       N       E                     dE             d eps       ncg     rms          rms(c)
DAV:   1    -0.150362539127E+02    0.71768E-01   -0.13184E+01    72   0.188E+01    0.957E-01
DAV:   2    -0.150958965154E+02   -0.59643E-01   -0.65911E-01    88   0.382E+00    0.518E-01
DAV:   3    -0.150910762416E+02    0.48203E-02   -0.59599E-02   104   0.121E+00    0.336E-01
DAV:   4    -0.150913779926E+02   -0.30175E-03   -0.37857E-03   112   0.287E-01    0.247E-01
DAV:   5    -0.150930227971E+02   -0.16448E-02   -0.24875E-03    76   0.166E-01    0.115E-01
DAV:   6    -0.150940657405E+02   -0.10429E-02   -0.14866E-03    92   0.131E-01    0.402E-02
DAV:   7    -0.150963860020E+02   -0.23203E-02   -0.12584E-04    64   0.515E-02    0.267E-02
DAV:   8    -0.151008250667E+02   -0.44391E-02   -0.21429E-04    58   0.503E-02    0.153E-02
DAV:   9    -0.151037371066E+02   -0.29120E-02   -0.12629E-04    68   0.375E-02    0.133E-02
DAV:  10    -0.151059802210E+02   -0.22431E-02   -0.56420E-05    58   0.268E-02    0.749E-03
DAV:  11    -0.151088626740E+02   -0.28825E-02   -0.11613E-04    58   0.298E-02    0.626E-03
DAV:  12    -0.151101336879E+02   -0.12710E-02   -0.42683E-05    50   0.190E-02    0.424E-03
DAV:  13    -0.151109548340E+02   -0.82115E-03   -0.17581E-05    48   0.131E-02    0.222E-03
DAV:  14    -0.151117485427E+02   -0.79371E-03   -0.19780E-05    50   0.123E-02    0.208E-03
DAV:  15    -0.151120863572E+02   -0.33781E-03   -0.67885E-06    38   0.831E-03    0.118E-03
DAV:  16    -0.151122127284E+02   -0.12637E-03   -0.25109E-06    36   0.552E-03    0.744E-04
DAV:  17    -0.151123304430E+02   -0.11771E-03   -0.16930E-06    38   0.478E-03    0.519E-04
DAV:  18    -0.151123721694E+02   -0.41726E-04   -0.79210E-07    36   0.338E-03
  74 F= -.15112372E+02 E0= -.15124091E+02  d E =-.266740E-01  mag=     1.0550
       N       E                     dE             d eps       ncg     rms          rms(c)
DAV:   1    -0.150948648770E+02    0.17466E-01   -0.44893E+00    72   0.111E+01    0.550E-01
DAV:   2    -0.151137898946E+02   -0.18925E-01   -0.22617E-01    88   0.226E+00    0.278E-01
DAV:   3    -0.151122651609E+02    0.15247E-02   -0.20527E-02   112   0.707E-01    0.200E-01
DAV:   4    -0.151131083253E+02   -0.84316E-03   -0.13312E-03    94   0.168E-01    0.146E-01
DAV:   5    -0.151140355254E+02   -0.92720E-03   -0.88666E-04    76   0.978E-02    0.608E-02
DAV:   6    -0.151143970697E+02   -0.36154E-03   -0.46698E-04    76   0.730E-02    0.224E-02
DAV:   7    -0.151149570366E+02   -0.55997E-03   -0.33444E-05    42   0.290E-02    0.149E-02
DAV:   8    -0.151161544107E+02   -0.11974E-02   -0.43486E-05    52   0.242E-02    0.734E-03
DAV:   9    -0.151169307178E+02   -0.77631E-03   -0.23759E-05    48   0.179E-02    0.603E-03
DAV:  10    -0.151174406549E+02   -0.50994E-03   -0.78636E-06    38   0.116E-02    0.368E-03
DAV:  11    -0.151182184340E+02   -0.77778E-03   -0.19384E-05    48   0.130E-02    0.265E-03
DAV:  12    -0.151186278593E+02   -0.40943E-03   -0.10507E-05    40   0.970E-03    0.214E-03
DAV:  13    -0.151188056480E+02   -0.17779E-03   -0.35312E-06    36   0.609E-03    0.110E-03
DAV:  14    -0.151190577254E+02   -0.25208E-03   -0.52028E-06    40   0.655E-03    0.120E-03
DAV:  15    -0.151191555423E+02   -0.97817E-04   -0.21383E-06    36   0.425E-03
  75 F= -.15119156E+02 E0= -.15130923E+02  d E =-.334573E-01  mag=     1.0179
       N       E                     dE             d eps       ncg     rms          rms(c)
DAV:   1    -0.151256335129E+02   -0.65758E-02   -0.30318E-01    72   0.294E+00    0.145E-01
DAV:   2    -0.151269710225E+02   -0.13375E-02   -0.15024E-02    96   0.594E-01    0.662E-02
DAV:   3    -0.151268724039E+02    0.98619E-04   -0.12796E-03    94   0.183E-01    0.512E-02
DAV:   4    -0.151268417405E+02    0.30663E-04   -0.55607E-05    36   0.421E-02
  76 F= -.15126842E+02 E0= -.15138355E+02  d E =-.768620E-02  mag=     1.0182
       N       E                     dE             d eps       ncg     rms          rms(c)
DAV:   1    -0.151338433040E+02   -0.69709E-02   -0.27755E+00    72   0.880E+00    0.448E-01
DAV:   2    -0.151454168379E+02   -0.11574E-01   -0.14088E-01    88   0.181E+00    0.211E-01
DAV:   3    -0.151448001814E+02    0.61666E-03   -0.12974E-02   102   0.584E-01    0.161E-01
DAV:   4    -0.151448527556E+02   -0.52574E-04   -0.79525E-04   102   0.134E-01
  77 F= -.15144853E+02 E0= -.15156130E+02  d E =-.256972E-01  mag=     1.0174
       N       E                     dE             d eps       ncg     rms          rms(c)
DAV:   1    -0.150971606917E+02    0.47639E-01   -0.11777E+01    72   0.176E+01    0.106E+00
DAV:   2    -0.151363496807E+02   -0.39189E-01   -0.74370E-01    88   0.393E+00    0.582E-01
DAV:   3    -0.151274502028E+02    0.88995E-02   -0.62259E-02   110   0.116E+00    0.391E-01
DAV:   4    -0.151271427423E+02    0.30746E-03   -0.72898E-03    96   0.358E-01    0.260E-01
DAV:   5    -0.151311416725E+02   -0.39989E-02   -0.47730E-03    74   0.216E-01    0.111E-01
DAV:   6    -0.151356233096E+02   -0.44816E-02   -0.23264E-03    78   0.139E-01    0.468E-02
DAV:   7    -0.151390053164E+02   -0.33820E-02   -0.32011E-04    68   0.648E-02    0.304E-02
DAV:   8    -0.151426162466E+02   -0.36109E-02   -0.29387E-04    68   0.583E-02    0.154E-02
DAV:   9    -0.151442693153E+02   -0.16531E-02   -0.94593E-05    70   0.338E-02    0.973E-03
DAV:  10    -0.151453908905E+02   -0.11216E-02   -0.55042E-05    50   0.267E-02    0.692E-03
DAV:  11    -0.151470892875E+02   -0.16984E-02   -0.13061E-04    68   0.313E-02    0.469E-03
DAV:  12    -0.151478348690E+02   -0.74558E-03   -0.57439E-05    58   0.221E-02    0.364E-03
DAV:  13    -0.151481901068E+02   -0.35524E-03   -0.21410E-05    46   0.144E-02    0.284E-03
DAV:  14    -0.151485941970E+02   -0.40409E-03   -0.45968E-05    60   0.172E-02    0.212E-03
DAV:  15    -0.151487962582E+02   -0.20206E-03   -0.26266E-05    48   0.137E-02    0.198E-03
DAV:  16    -0.151489025677E+02   -0.10631E-03   -0.17194E-05    38   0.114E-02    0.182E-03
DAV:  17    -0.151489888881E+02   -0.86320E-04   -0.29310E-05    38   0.130E-02
  78 F= -.15148989E+02 E0= -.15167904E+02  d E =-.298333E-01  mag=     0.9563
       N       E                     dE             d eps       ncg     rms          rms(c)
DAV:   1    -0.151437309917E+02    0.51716E-02   -0.35980E+00    72   0.971E+00    0.639E-01
DAV:   2    -0.151548378933E+02   -0.11107E-01   -0.24798E-01    78   0.223E+00    0.361E-01
DAV:   3    -0.151515914999E+02    0.32464E-02   -0.27874E-02   110   0.774E-01    0.229E-01
DAV:   4    -0.151521406133E+02   -0.54911E-03   -0.36369E-03    94   0.239E-01    0.140E-01
DAV:   5    -0.151537957128E+02   -0.16551E-02   -0.26242E-03    74   0.145E-01    0.585E-02
DAV:   6    -0.151548551391E+02   -0.10594E-02   -0.45979E-04    92   0.708E-02    0.268E-02
DAV:   7    -0.151559189492E+02   -0.10638E-02   -0.88258E-05    60   0.357E-02    0.157E-02
DAV:   8    -0.151569888098E+02   -0.10699E-02   -0.87955E-05    60   0.326E-02    0.785E-03
DAV:   9    -0.151574663038E+02   -0.47749E-03   -0.22944E-05    38   0.199E-02    0.518E-03
DAV:  10    -0.151578827133E+02   -0.41641E-03   -0.16808E-05    38   0.159E-02    0.349E-03
DAV:  11    -0.151584012850E+02   -0.51857E-03   -0.33152E-05    60   0.171E-02    0.243E-03
DAV:  12    -0.151585984751E+02   -0.19719E-03   -0.71670E-06    36   0.103E-02    0.180E-03
DAV:  13    -0.151587843347E+02   -0.18586E-03   -0.73198E-06    40   0.912E-03    0.124E-03
DAV:  14    -0.151589218679E+02   -0.13753E-03   -0.55103E-06    36   0.765E-03    0.787E-04
DAV:  15    -0.151590013634E+02   -0.79495E-04   -0.20765E-06    36   0.531E-03
  79 F= -.15159001E+02 E0= -.15173251E+02  d E =-.398458E-01  mag=     0.9768
       N       E                     dE             d eps       ncg     rms          rms(c)
DAV:   1    -0.151804974301E+02   -0.21576E-01   -0.52096E-01    72   0.386E+00    0.233E-01
DAV:   2    -0.151816191283E+02   -0.11217E-02   -0.33845E-02    94   0.847E-01    0.121E-01
DAV:   3    -0.151810441449E+02    0.57498E-03   -0.24863E-03   110   0.243E-01    0.872E-02
DAV:   4    -0.151806079164E+02    0.43623E-03   -0.17804E-04    68   0.653E-02    0.603E-02
DAV:   5    -0.151798701424E+02    0.73777E-03   -0.15996E-04    60   0.524E-02    0.226E-02
DAV:   6    -0.151796268552E+02    0.24329E-03   -0.88063E-05    50   0.397E-02    0.908E-03
DAV:   7    -0.151799242989E+02   -0.29744E-03   -0.23002E-05    38   0.248E-02    0.683E-03
DAV:   8    -0.151804566060E+02   -0.53231E-03   -0.38127E-05    50   0.247E-02    0.406E-03
DAV:   9    -0.151807621392E+02   -0.30553E-03   -0.10777E-05    38   0.154E-02    0.312E-03
DAV:  10    -0.151811110312E+02   -0.34889E-03   -0.98563E-06    46   0.130E-02    0.228E-03
DAV:  11    -0.151815206262E+02   -0.40959E-03   -0.15483E-05    48   0.129E-02    0.150E-03
DAV:  12    -0.151817270367E+02   -0.20641E-03   -0.55110E-06    38   0.873E-03    0.113E-03
DAV:  13    -0.151819687642E+02   -0.24173E-03   -0.70541E-06    48   0.811E-03    0.675E-04
DAV:  14    -0.151821030427E+02   -0.13428E-03   -0.27243E-06    36   0.595E-03    0.459E-04
DAV:  15    -0.151821694727E+02   -0.66430E-04   -0.13828E-06    38   0.433E-03
  80 F= -.15182169E+02 E0= -.15197915E+02  d E =-.231681E-01  mag=     0.9370
       N       E                     dE             d eps       ncg     rms          rms(c)
DAV:   1    -0.151972503850E+02   -0.15147E-01   -0.48034E+00    72   0.116E+01    0.743E-01
DAV:   2    -0.152074828508E+02   -0.10232E-01   -0.32961E-01    94   0.264E+00    0.385E-01
DAV:   3    -0.152056095896E+02    0.18733E-02   -0.24220E-02   112   0.754E-01    0.276E-01
DAV:   4    -0.152050503959E+02    0.55919E-03   -0.20519E-03    94   0.205E-01    0.192E-01
DAV:   5    -0.152051192368E+02   -0.68841E-04   -0.13640E-03    84   0.126E-01    0.741E-02
DAV:   6    -0.152058479452E+02   -0.72871E-03   -0.77882E-04    76   0.867E-02    0.290E-02
DAV:   7    -0.152065903564E+02   -0.74241E-03   -0.86303E-05    62   0.370E-02    0.195E-02
DAV:   8    -0.152075730152E+02   -0.98266E-03   -0.12171E-04    68   0.382E-02    0.939E-03
DAV:   9    -0.152080633711E+02   -0.49036E-03   -0.29724E-05    48   0.205E-02    0.558E-03
DAV:  10    -0.152084210742E+02   -0.35770E-03   -0.14983E-05    36   0.150E-02    0.376E-03
DAV:  11    -0.152088941276E+02   -0.47305E-03   -0.19357E-05    52   0.140E-02    0.244E-03
DAV:  12    -0.152092114618E+02   -0.31733E-03   -0.12709E-05    40   0.108E-02    0.185E-03
DAV:  13    -0.152094333751E+02   -0.22191E-03   -0.65940E-06    46   0.793E-03    0.121E-03
DAV:  14    -0.152096566524E+02   -0.22328E-03   -0.88127E-06    50   0.813E-03    0.703E-04
DAV:  15    -0.152097363124E+02   -0.79660E-04   -0.20445E-06    36   0.481E-03
  81 F= -.15209736E+02 E0= -.15227235E+02  d E =-.507349E-01  mag=     0.9466
       N       E                     dE             d eps       ncg     rms          rms(c)
DAV:   1    -0.152104061625E+02   -0.74951E-03   -0.23114E-01    72   0.256E+00    0.170E-01
DAV:   2    -0.152107889776E+02   -0.38282E-03   -0.17079E-02    96   0.581E-01    0.973E-02
DAV:   3    -0.152103917920E+02    0.39719E-03   -0.12765E-03   102   0.169E-01    0.654E-02
DAV:   4    -0.152101653830E+02    0.22641E-03   -0.11765E-04    52   0.522E-02    0.433E-02
DAV:   5    -0.152099254264E+02    0.23996E-03   -0.14174E-04    50   0.469E-02    0.160E-02
DAV:   6    -0.152099131016E+02    0.12325E-04   -0.71142E-05    50   0.337E-02
  82 F= -.15209913E+02 E0= -.15228929E+02  d E =-.509117E-01  mag=     0.9363
       N       E                     dE             d eps       ncg     rms          rms(c)
DAV:   1    -0.152358799023E+02   -0.25954E-01   -0.32615E-01    72   0.310E+00    0.190E-01
DAV:   2    -0.152371764346E+02   -0.12965E-02   -0.20903E-02    92   0.654E-01    0.876E-02
DAV:   3    -0.152372309804E+02   -0.54546E-04   -0.18470E-03    94   0.213E-01    0.646E-02
DAV:   4    -0.152372111732E+02    0.19807E-04   -0.82802E-05    60   0.508E-02
  83 F= -.15237211E+02 E0= -.15255022E+02  d E =-.272981E-01  mag=     0.9409
       N       E                     dE             d eps       ncg     rms          rms(c)
DAV:   1    -0.152672529721E+02   -0.30022E-01   -0.29248E+00    72   0.922E+00    0.555E-01
DAV:   2    -0.152743474588E+02   -0.70945E-02   -0.18837E-01   100   0.197E+00    0.288E-01
DAV:   3    -0.152711593980E+02    0.31881E-02   -0.12788E-02   104   0.554E-01    0.211E-01
DAV:   4    -0.152700049410E+02    0.11545E-02   -0.70678E-04   112   0.130E-01    0.157E-01
DAV:   5    -0.152693954621E+02    0.60948E-03   -0.52330E-04    76   0.841E-02    0.694E-02
DAV:   6    -0.152700715447E+02   -0.67608E-03   -0.50131E-04    82   0.787E-02    0.262E-02
DAV:   7    -0.152711990561E+02   -0.11275E-02   -0.40144E-05    48   0.300E-02    0.185E-02
DAV:   8    -0.152742200496E+02   -0.30210E-02   -0.20046E-04    66   0.453E-02    0.856E-03
DAV:   9    -0.152755673804E+02   -0.13473E-02   -0.54836E-05    68   0.242E-02    0.642E-03
DAV:  10    -0.152767590342E+02   -0.11917E-02   -0.33038E-05    50   0.188E-02    0.474E-03
DAV:  11    -0.152783230003E+02   -0.15640E-02   -0.66565E-05    68   0.222E-02    0.303E-03
DAV:  12    -0.152792770693E+02   -0.95407E-03   -0.39957E-05    60   0.162E-02    0.215E-03
DAV:  13    -0.152797994033E+02   -0.52233E-03   -0.10739E-05    50   0.956E-03    0.152E-03
DAV:  14    -0.152802154153E+02   -0.41601E-03   -0.78486E-06    50   0.817E-03    0.950E-04
DAV:  15    -0.152804080794E+02   -0.19266E-03   -0.20945E-06    36   0.494E-03    0.731E-04
DAV:  16    -0.152805449934E+02   -0.13691E-03   -0.13967E-06    38   0.374E-03    0.426E-04
DAV:  17    -0.152806276641E+02   -0.82671E-04   -0.74292E-07    36   0.285E-03
  84 F= -.15280628E+02 E0= -.15295426E+02  d E =-.707146E-01  mag=     1.0080
       N       E                     dE             d eps       ncg     rms          rms(c)
DAV:   1    -0.153116391800E+02   -0.31094E-01   -0.44080E-01    72   0.358E+00    0.213E-01
DAV:   2    -0.153133162189E+02   -0.16770E-02   -0.26746E-02    96   0.744E-01    0.112E-01
DAV:   3    -0.153126443173E+02    0.67190E-03   -0.27220E-03   104   0.247E-01    0.810E-02
DAV:   4    -0.153125238104E+02    0.12051E-03   -0.25208E-04    72   0.725E-02    0.508E-02
DAV:   5    -0.153125558303E+02   -0.32020E-04   -0.20462E-04    56   0.542E-02
  85 F= -.15312556E+02 E0= -.15326721E+02  d E =-.319282E-01  mag=     1.0167
       N       E                     dE             d eps       ncg     rms          rms(c)
DAV:   1    -0.153754346259E+02   -0.62911E-01   -0.39725E+00    72   0.107E+01    0.622E-01
DAV:   2    -0.153906549335E+02   -0.15220E-01   -0.23325E-01    96   0.223E+00    0.328E-01
DAV:   3    -0.153885930570E+02    0.20619E-02   -0.23079E-02   104   0.730E-01    0.236E-01
DAV:   4    -0.153885125695E+02    0.80488E-04   -0.19671E-03    96   0.200E-01    0.160E-01
DAV:   5    -0.153882573184E+02    0.25525E-03   -0.98922E-04    76   0.112E-01    0.671E-02
DAV:   6    -0.153886336183E+02   -0.37630E-03   -0.44108E-04    88   0.744E-02    0.268E-02
DAV:   7    -0.153896202231E+02   -0.98660E-03   -0.49255E-05    50   0.318E-02    0.188E-02
DAV:   8    -0.153916295694E+02   -0.20093E-02   -0.17412E-04    68   0.417E-02    0.101E-02
DAV:   9    -0.153926125596E+02   -0.98299E-03   -0.43102E-05    58   0.230E-02    0.648E-03
DAV:  10    -0.153934949573E+02   -0.88240E-03   -0.25143E-05    50   0.173E-02    0.441E-03
DAV:  11    -0.153944411116E+02   -0.94615E-03   -0.29505E-05    60   0.164E-02    0.302E-03
DAV:  12    -0.153951825191E+02   -0.74141E-03   -0.26519E-05    50   0.140E-02    0.212E-03
DAV:  13    -0.153957318705E+02   -0.54935E-03   -0.17602E-05    52   0.110E-02    0.132E-03
DAV:  14    -0.153960477879E+02   -0.31592E-03   -0.10058E-05    50   0.820E-03    0.812E-04
DAV:  15    -0.153961649881E+02   -0.11720E-03   -0.19920E-06    36   0.463E-03    0.653E-04
DAV:  16    -0.153962504535E+02   -0.85465E-04   -0.12824E-06    38   0.364E-03
  86 F= -.15396250E+02 E0= -.15406921E+02  d E =-.115623E+00  mag=     1.0776
       N       E                     dE             d eps       ncg     rms          rms(c)
DAV:   1    -0.153548889291E+02    0.41276E-01   -0.15956E+01    72   0.209E+01    0.118E+00
DAV:   2    -0.154178150465E+02   -0.62926E-01   -0.97617E-01    96   0.458E+00    0.647E-01
DAV:   3    -0.154117706316E+02    0.60444E-02   -0.85433E-02   112   0.142E+00    0.453E-01
DAV:   4    -0.154148245030E+02   -0.30539E-02   -0.59777E-03   104   0.363E-01    0.330E-01
DAV:   5    -0.154171573885E+02   -0.23329E-02   -0.29868E-03    88   0.197E-01    0.167E-01
DAV:   6    -0.154180753489E+02   -0.91796E-03   -0.27571E-03    86   0.183E-01    0.526E-02
DAV:   7    -0.154206884393E+02   -0.26131E-02   -0.32226E-04    80   0.779E-02    0.385E-02
DAV:   8    -0.154257588078E+02   -0.50704E-02   -0.22145E-04    64   0.540E-02    0.198E-02
DAV:   9    -0.154308218268E+02   -0.50630E-02   -0.27632E-04    76   0.531E-02    0.163E-02
DAV:  10    -0.154332855387E+02   -0.24637E-02   -0.62929E-05    58   0.278E-02    0.118E-02
DAV:  11    -0.154367053621E+02   -0.34198E-02   -0.10790E-04    76   0.310E-02    0.607E-03
DAV:  12    -0.154395168662E+02   -0.28115E-02   -0.10890E-04    60   0.279E-02    0.506E-03
DAV:  13    -0.154407295040E+02   -0.12126E-02   -0.36479E-05    68   0.167E-02    0.278E-03
DAV:  14    -0.154416359101E+02   -0.90641E-03   -0.19802E-05    50   0.126E-02    0.189E-03
DAV:  15    -0.154421939863E+02   -0.55808E-03   -0.92944E-06    50   0.905E-03    0.109E-03
DAV:  16    -0.154424729465E+02   -0.27896E-03   -0.31857E-06    36   0.597E-03    0.755E-04
DAV:  17    -0.154426075087E+02   -0.13456E-03   -0.14971E-06    38   0.423E-03    0.522E-04
DAV:  18    -0.154426863920E+02   -0.78883E-04   -0.90657E-07    36   0.338E-03
  87 F= -.15442686E+02 E0= -.15453124E+02  d E =-.162059E+00  mag=     0.9594
       N       E                     dE             d eps       ncg     rms          rms(c)
DAV:   1    -0.154396486301E+02    0.29589E-02   -0.24199E+00    72   0.834E+00    0.453E-01
DAV:   2    -0.154496418886E+02   -0.99933E-02   -0.14992E-01    96   0.179E+00    0.233E-01
DAV:   3    -0.154488055959E+02    0.83629E-03   -0.12280E-02   104   0.556E-01    0.185E-01
DAV:   4    -0.154488497284E+02   -0.44133E-04   -0.89862E-04   112   0.140E-01
  88 F= -.15448850E+02 E0= -.15459172E+02  d E =-.168222E+00  mag=     0.9582
       N       E                     dE             d eps       ncg     rms          rms(c)
DAV:   1    -0.154699365337E+02   -0.21131E-01   -0.22356E-01    72   0.253E+00    0.131E-01
DAV:   2    -0.154719555145E+02   -0.20190E-02   -0.12516E-02    96   0.520E-01    0.483E-02
DAV:   3    -0.154726486318E+02   -0.69312E-03   -0.93809E-04   104   0.155E-01    0.368E-02
DAV:   4    -0.154730104019E+02   -0.36177E-03   -0.41579E-05    48   0.363E-02    0.254E-02
DAV:   5    -0.154735774864E+02   -0.56708E-03   -0.59539E-05    60   0.322E-02    0.801E-03
DAV:   6    -0.154738158247E+02   -0.23834E-03   -0.16834E-05    38   0.210E-02    0.293E-03
DAV:   7    -0.154739404717E+02   -0.12465E-03   -0.58439E-06    36   0.140E-02    0.215E-03
DAV:   8    -0.154740918149E+02   -0.15134E-03   -0.45907E-06    40   0.112E-02    0.148E-03
DAV:   9    -0.154741843563E+02   -0.92541E-04   -0.25990E-06    36   0.813E-03
  89 F= -.15474184E+02 E0= -.15484572E+02  d E =-.253346E-01  mag=     0.9601
       N       E                     dE             d eps       ncg     rms          rms(c)
DAV:   1    -0.155202160181E+02   -0.46124E-01   -0.20099E+00    72   0.755E+00    0.379E-01
DAV:   2    -0.155289878839E+02   -0.87719E-02   -0.11106E-01    96   0.156E+00    0.186E-01
DAV:   3    -0.155282885663E+02    0.69932E-03   -0.84316E-03   104   0.467E-01    0.142E-01
DAV:   4    -0.155282843813E+02    0.41851E-05   -0.68207E-04   112   0.118E-01
  90 F= -.15528284E+02 E0= -.15538758E+02  d E =-.794347E-01  mag=     0.9611
       N       E                     dE             d eps       ncg     rms          rms(c)
DAV:   1    -0.155125632808E+02    0.15725E-01   -0.82523E+00    72   0.150E+01    0.765E-01
DAV:   2    -0.155491930163E+02   -0.36630E-01   -0.48222E-01    96   0.323E+00    0.395E-01
DAV:   3    -0.155465396557E+02    0.26534E-02   -0.38721E-02   104   0.971E-01    0.307E-01
DAV:   4    -0.155450779953E+02    0.14617E-02   -0.30110E-03   112   0.246E-01    0.226E-01
DAV:   5    -0.155440191701E+02    0.10588E-02   -0.20360E-03    86   0.152E-01    0.104E-01
DAV:   6    -0.155436257791E+02    0.39339E-03   -0.15364E-03    94   0.129E-01    0.388E-02
DAV:   7    -0.155458889650E+02   -0.22632E-02   -0.16277E-04    64   0.552E-02    0.307E-02
DAV:   8    -0.155505548660E+02   -0.46659E-02   -0.23653E-04    80   0.516E-02    0.195E-02
DAV:   9    -0.155551870594E+02   -0.46322E-02   -0.28248E-04    68   0.484E-02    0.156E-02
DAV:  10    -0.155577343336E+02   -0.25473E-02   -0.94376E-05    76   0.297E-02    0.110E-02
DAV:  11    -0.155596318332E+02   -0.18975E-02   -0.40546E-05    50   0.216E-02    0.686E-03
DAV:  12    -0.155633717328E+02   -0.37399E-02   -0.19258E-04    68   0.352E-02    0.545E-03
DAV:  13    -0.155639748224E+02   -0.60309E-03   -0.12774E-05    50   0.123E-02    0.363E-03
DAV:  14    -0.155649089532E+02   -0.93413E-03   -0.31547E-05    60   0.153E-02    0.209E-03
DAV:  15    -0.155655280297E+02   -0.61908E-03   -0.11782E-05    50   0.112E-02    0.141E-03
DAV:  16    -0.155658357651E+02   -0.30774E-03   -0.37074E-06    36   0.737E-03    0.918E-04
DAV:  17    -0.155660026434E+02   -0.16688E-03   -0.21214E-06    38   0.519E-03    0.693E-04
DAV:  18    -0.155660846855E+02   -0.82042E-04   -0.68513E-07    36   0.350E-03
  91 F= -.15566085E+02 E0= -.15577856E+02  d E =-.117235E+00  mag=     1.0763
       N       E                     dE             d eps       ncg     rms          rms(c)
DAV:   1    -0.155646600388E+02    0.13426E-02   -0.10073E+00    72   0.534E+00    0.277E-01
DAV:   2    -0.155694440587E+02   -0.47840E-02   -0.65132E-02    96   0.115E+00    0.147E-01
DAV:   3    -0.155685411219E+02    0.90294E-03   -0.51652E-03   104   0.351E-01    0.119E-01
DAV:   4    -0.155676988897E+02    0.84223E-03   -0.45835E-04    88   0.930E-02    0.848E-02
DAV:   5    -0.155659291591E+02    0.17697E-02   -0.65284E-04    84   0.816E-02    0.321E-02
DAV:   6    -0.155655679566E+02    0.36120E-03   -0.14261E-04    64   0.454E-02    0.165E-02
DAV:   7    -0.155661732294E+02   -0.60527E-03   -0.40048E-05    46   0.290E-02    0.125E-02
DAV:   8    -0.155675190395E+02   -0.13458E-02   -0.75758E-05    58   0.301E-02    0.650E-03
DAV:   9    -0.155686732655E+02   -0.11542E-02   -0.61117E-05    66   0.253E-02    0.579E-03
DAV:  10    -0.155693028920E+02   -0.62963E-03   -0.14542E-05    40   0.157E-02    0.381E-03
DAV:  11    -0.155702319534E+02   -0.92906E-03   -0.32955E-05    60   0.186E-02    0.220E-03
DAV:  12    -0.155706352333E+02   -0.40328E-03   -0.10350E-05    40   0.122E-02    0.169E-03
DAV:  13    -0.155709043809E+02   -0.26915E-03   -0.78471E-06    48   0.102E-02    0.111E-03
DAV:  14    -0.155711561099E+02   -0.25173E-03   -0.64883E-06    42   0.894E-03    0.711E-04
DAV:  15    -0.155712883422E+02   -0.13223E-03   -0.24046E-06    36   0.616E-03    0.530E-04
DAV:  16    -0.155713623342E+02   -0.73992E-04   -0.10032E-06    38   0.444E-03
  92 F= -.15571362E+02 E0= -.15582021E+02  d E =-.122513E+00  mag=     1.0175
       N       E                     dE             d eps       ncg     rms          rms(c)
DAV:   1    -0.156417349042E+02   -0.70447E-01   -0.66204E-01    72   0.434E+00    0.260E-01
DAV:   2    -0.156436371865E+02   -0.19023E-02   -0.47718E-02    94   0.999E-01    0.126E-01
DAV:   3    -0.156433962338E+02    0.24095E-03   -0.43952E-03   112   0.325E-01    0.106E-01
DAV:   4    -0.156432250568E+02    0.17118E-03   -0.32778E-04    80   0.860E-02    0.721E-02
DAV:   5    -0.156428996738E+02    0.32538E-03   -0.26661E-04    68   0.613E-02    0.238E-02
DAV:   6    -0.156428841653E+02    0.15509E-04   -0.87669E-05    42   0.414E-02
  93 F= -.15642884E+02 E0= -.15653876E+02  d E =-.715218E-01  mag=     1.0117
       N       E                     dE             d eps       ncg     rms          rms(c)
DAV:   1    -0.157100277124E+02   -0.67128E-01   -0.59915E+00    72   0.130E+01    0.760E-01
DAV:   2    -0.157333354073E+02   -0.23308E-01   -0.42559E-01   112   0.300E+00    0.379E-01
DAV:   3    -0.157324961911E+02    0.83922E-03   -0.39340E-02   112   0.956E-01    0.338E-01
DAV:   4    -0.157323163001E+02    0.17989E-03   -0.30240E-03   112   0.259E-01    0.236E-01
DAV:   5    -0.157315396904E+02    0.77661E-03   -0.22574E-03    92   0.163E-01    0.927E-02
DAV:   6    -0.157316150491E+02   -0.75359E-04   -0.10126E-03    94   0.111E-01    0.348E-02
DAV:   7    -0.157325543131E+02   -0.93926E-03   -0.84082E-05    56   0.446E-02    0.259E-02
DAV:   8    -0.157347878851E+02   -0.22336E-02   -0.17444E-04    74   0.442E-02    0.118E-02
DAV:   9    -0.157361454842E+02   -0.13576E-02   -0.55932E-05    66   0.262E-02    0.849E-03
DAV:  10    -0.157371484650E+02   -0.10030E-02   -0.20469E-05    46   0.179E-02    0.626E-03
DAV:  11    -0.157384519471E+02   -0.13035E-02   -0.32542E-05    58   0.184E-02    0.354E-03
DAV:  12    -0.157394227109E+02   -0.97076E-03   -0.20142E-05    50   0.148E-02    0.251E-03
DAV:  13    -0.157402566225E+02   -0.83391E-03   -0.22657E-05    58   0.137E-02    0.172E-03
DAV:  14    -0.157407505350E+02   -0.49391E-03   -0.10083E-05    50   0.103E-02    0.992E-04
DAV:  15    -0.157410142186E+02   -0.26368E-03   -0.53316E-06    46   0.766E-03    0.587E-04
DAV:  16    -0.157411087707E+02   -0.94552E-04   -0.14645E-06    36   0.516E-03
  94 F= -.15741109E+02 E0= -.15753289E+02  d E =-.169746E+00  mag=     0.9954
[...]
DAV:   6    -0.170551811351E+02   -0.11137E-02   -0.27013E-04    84   0.685E-02    0.255E-02
DAV:   7    -0.170562826558E+02   -0.11015E-02   -0.52037E-05    60   0.347E-02    0.156E-02
DAV:   8    -0.170575268960E+02   -0.12442E-02   -0.71679E-05    76   0.332E-02    0.750E-03
DAV:   9    -0.170581304573E+02   -0.60356E-03   -0.21179E-05    42   0.203E-02    0.538E-03
DAV:  10    -0.170589950299E+02   -0.86457E-03   -0.41854E-05    60   0.212E-02    0.305E-03
DAV:  11    -0.170593904623E+02   -0.39543E-03   -0.19587E-05    60   0.151E-02    0.207E-03
DAV:  12    -0.170595689525E+02   -0.17849E-03   -0.52589E-06    42   0.932E-03    0.138E-03
DAV:  13    -0.170597755554E+02   -0.20660E-03   -0.11039E-05    60   0.100E-02    0.799E-04
DAV:  14    -0.170598496196E+02   -0.74064E-04   -0.23941E-06    40   0.609E-03
 121 F= -.17059850E+02 E0= -.17061977E+02  d E =-.188830E+00  mag=     0.9979
       N       E                     dE             d eps       ncg     rms          rms(c)
DAV:   1    -0.166879963134E+02    0.37178E+00   -0.33567E+01    72   0.300E+01    0.151E+00
DAV:   2    -0.168831712117E+02   -0.19517E+00   -0.24238E+00    96   0.724E+00    0.949E-01
DAV:   3    -0.168887320452E+02   -0.55608E-02   -0.17476E-01   112   0.202E+00    0.581E-01
DAV:   4    -0.168914480862E+02   -0.27160E-02   -0.11154E-02   112   0.499E-01    0.437E-01
DAV:   5    -0.168963419295E+02   -0.48938E-02   -0.47521E-03    88   0.264E-01    0.220E-01
DAV:   6    -0.168998744526E+02   -0.35325E-02   -0.32332E-03    96   0.211E-01    0.706E-02
DAV:   7    -0.169024892330E+02   -0.26148E-02   -0.36568E-04    86   0.851E-02    0.480E-02
DAV:   8    -0.169063414557E+02   -0.38522E-02   -0.19845E-04    78   0.559E-02    0.220E-02
DAV:   9    -0.169096118103E+02   -0.32704E-02   -0.24136E-04    86   0.527E-02    0.222E-02
DAV:  10    -0.169107671279E+02   -0.11553E-02   -0.37084E-05    62   0.240E-02    0.149E-02
DAV:  11    -0.169126161206E+02   -0.18490E-02   -0.10308E-04    76   0.319E-02    0.704E-03
DAV:  12    -0.169135853893E+02   -0.96927E-03   -0.67880E-05    76   0.243E-02    0.703E-03
DAV:  13    -0.169140047979E+02   -0.41941E-03   -0.20176E-05    52   0.146E-02    0.274E-03
DAV:  14    -0.169144116244E+02   -0.40683E-03   -0.23996E-05    60   0.137E-02    0.255E-03
DAV:  15    -0.169145505465E+02   -0.13892E-03   -0.52871E-06    42   0.833E-03    0.132E-03
DAV:  16    -0.169146229335E+02   -0.72387E-04   -0.27452E-06    40   0.674E-03
 122 F= -.16914623E+02 E0= -.16918394E+02  d E =-.436038E-01  mag=     0.9749
       N       E                     dE             d eps       ncg     rms          rms(c)
DAV:   1    -0.169477445558E+02   -0.33194E-01   -0.21352E+01    76   0.240E+01    0.119E+00
DAV:   2    -0.170638494850E+02   -0.11610E+00   -0.14279E+00   110   0.550E+00    0.711E-01
DAV:   3    -0.170618837854E+02    0.19657E-02   -0.54081E-02   102   0.111E+00    0.484E-01
DAV:   4    -0.170620738296E+02   -0.19004E-03   -0.56027E-03   110   0.330E-01    0.308E-01
DAV:   5    -0.170629731002E+02   -0.89927E-03   -0.37573E-03    78   0.237E-01    0.130E-01
DAV:   6    -0.170645443543E+02   -0.15713E-02   -0.14650E-03   112   0.147E-01    0.461E-02
DAV:   7    -0.170665073302E+02   -0.19630E-02   -0.12571E-04    72   0.505E-02    0.309E-02
DAV:   8    -0.170704095193E+02   -0.39022E-02   -0.35447E-04    92   0.628E-02    0.148E-02
DAV:   9    -0.170717715817E+02   -0.13621E-02   -0.47827E-05    76   0.267E-02    0.112E-02
DAV:  10    -0.170734872675E+02   -0.17157E-02   -0.66550E-05    76   0.267E-02    0.625E-03
DAV:  11    -0.170747724861E+02   -0.12852E-02   -0.91671E-05    84   0.264E-02    0.423E-03
DAV:  12    -0.170752179267E+02   -0.44544E-03   -0.18335E-05    62   0.133E-02    0.293E-03
DAV:  13    -0.170756892495E+02   -0.47132E-03   -0.25348E-05    68   0.138E-02    0.177E-03
DAV:  14    -0.170758628055E+02   -0.17356E-03   -0.59439E-06    44   0.746E-03    0.156E-03
DAV:  15    -0.170759746740E+02   -0.11187E-03   -0.30282E-06    42   0.545E-03    0.806E-04
DAV:  16    -0.170760663637E+02   -0.91690E-04   -0.27700E-06    42   0.539E-03
 123 F= -.17076066E+02 E0= -.17078198E+02  d E =-.205047E+00  mag=     0.9978
       N       E                     dE             d eps       ncg     rms          rms(c)
DAV:   1    -0.171145903191E+02   -0.38616E-01   -0.47718E-01    72   0.375E+00    0.175E-01
DAV:   2    -0.171166746522E+02   -0.20843E-02   -0.23518E-02    92   0.755E-01    0.777E-02
DAV:   3    -0.171165113352E+02    0.16332E-03   -0.16868E-03   112   0.210E-01    0.586E-02
DAV:   4    -0.171164735768E+02    0.37758E-04   -0.67098E-05    60   0.462E-02
 124 F= -.17116474E+02 E0= -.17118577E+02  d E =-.404072E-01  mag=     0.9981
       N       E                     dE             d eps       ncg     rms          rms(c)
DAV:   1    -0.172039791558E+02   -0.87468E-01   -0.43651E+00    72   0.112E+01    0.530E-01
DAV:   2    -0.172239651421E+02   -0.19986E-01   -0.22332E-01    96   0.231E+00    0.249E-01
DAV:   3    -0.172235293180E+02    0.43582E-03   -0.16060E-02   112   0.643E-01    0.182E-01
DAV:   4    -0.172236929891E+02   -0.16367E-03   -0.78180E-04   104   0.140E-01    0.128E-01
DAV:   5    -0.172242916237E+02   -0.59863E-03   -0.60816E-04    88   0.938E-02    0.466E-02
DAV:   6    -0.172250209554E+02   -0.72933E-03   -0.18459E-04    80   0.555E-02    0.195E-02
DAV:   7    -0.172257902977E+02   -0.76934E-03   -0.33194E-05    56   0.291E-02    0.134E-02
DAV:   8    -0.172273993862E+02   -0.16091E-02   -0.91592E-05    78   0.341E-02    0.654E-03
DAV:   9    -0.172280581996E+02   -0.65881E-03   -0.35169E-05    78   0.218E-02    0.658E-03
DAV:  10    -0.172285128092E+02   -0.45461E-03   -0.10335E-05    54   0.138E-02    0.287E-03
DAV:  11    -0.172291069871E+02   -0.59418E-03   -0.30540E-05    76   0.165E-02    0.337E-03
DAV:  12    -0.172292369449E+02   -0.12996E-03   -0.43187E-06    46   0.834E-03    0.151E-03
DAV:  13    -0.172294077445E+02   -0.17080E-03   -0.44855E-06    48   0.757E-03    0.836E-04
DAV:  14    -0.172295296544E+02   -0.12191E-03   -0.30364E-06    44   0.606E-03    0.553E-04
DAV:  15    -0.172295817138E+02   -0.52059E-04   -0.86412E-07    36   0.390E-03
 125 F= -.17229582E+02 E0= -.17231702E+02  d E =-.153515E+00  mag=     0.9983
       N       E                     dE             d eps       ncg     rms          rms(c)
DAV:   1    -0.172163600125E+02    0.13170E-01   -0.18358E+01    76   0.220E+01    0.106E+00
DAV:   2    -0.173118870351E+02   -0.95527E-01   -0.10612E+00    96   0.489E+00    0.557E-01
DAV:   3    -0.173114156666E+02    0.47137E-03   -0.74044E-02   104   0.135E+00    0.383E-01
DAV:   4    -0.173127284098E+02   -0.13127E-02   -0.37762E-03   112   0.308E-01    0.286E-01
DAV:   5    -0.173155667814E+02   -0.28384E-02   -0.22662E-03    96   0.182E-01    0.123E-01
DAV:   6    -0.173173381214E+02   -0.17713E-02   -0.11607E-03    94   0.128E-01    0.455E-02
DAV:   7    -0.173189937136E+02   -0.16556E-02   -0.80749E-05    64   0.464E-02    0.317E-02
DAV:   8    -0.173224671891E+02   -0.34735E-02   -0.18775E-04    94   0.500E-02    0.138E-02
DAV:   9    -0.173242052198E+02   -0.17380E-02   -0.83512E-05    78   0.310E-02    0.157E-02
DAV:  10    -0.173253478183E+02   -0.11426E-02   -0.43342E-05    70   0.222E-02    0.676E-03
DAV:  11    -0.173264399652E+02   -0.10921E-02   -0.46286E-05    78   0.204E-02    0.597E-03
DAV:  12    -0.173270308875E+02   -0.59092E-03   -0.29545E-05    70   0.156E-02    0.537E-03
DAV:  13    -0.173273955944E+02   -0.36471E-03   -0.10929E-05    54   0.103E-02    0.207E-03
DAV:  14    -0.173277191782E+02   -0.32358E-03   -0.12426E-05    60   0.957E-03    0.307E-03
DAV:  15    -0.173278069174E+02   -0.87739E-04   -0.18618E-06    40   0.514E-03
 126 F= -.17327807E+02 E0= -.17331453E+02  d E =-.251741E+00  mag=     0.9773
       N       E                     dE             d eps       ncg     rms          rms(c)
DAV:   1    -0.173239141751E+02    0.38050E-02   -0.13315E+00    72   0.603E+00    0.283E-01
DAV:   2    -0.173298022973E+02   -0.58881E-02   -0.70171E-02    96   0.127E+00    0.147E-01
DAV:   3    -0.173293707724E+02    0.43152E-03   -0.54428E-03   112   0.369E-01    0.110E-01
DAV:   4    -0.173292730249E+02    0.97747E-04   -0.26603E-04    86   0.812E-02
 127 F= -.17329273E+02 E0= -.17332030E+02  d E =-.253207E+00  mag=     0.9822
       N       E                     dE             d eps       ncg     rms          rms(c)
DAV:   1    -0.174314148416E+02   -0.10204E+00   -0.11339E+00    72   0.567E+00    0.293E-01
DAV:   2    -0.174365978503E+02   -0.51830E-02   -0.61865E-02    96   0.122E+00    0.134E-01
DAV:   3    -0.174369123875E+02   -0.31454E-03   -0.52722E-03   104   0.368E-01    0.107E-01
DAV:   4    -0.174369693711E+02   -0.56984E-04   -0.28643E-04    96   0.851E-02
 128 F= -.17436969E+02 E0= -.17439154E+02  d E =-.107696E+00  mag=     0.9879
       N       E                     dE             d eps       ncg     rms          rms(c)
DAV:   1    -0.175187172779E+02   -0.81805E-01   -0.59196E+00    72   0.129E+01    0.672E-01
DAV:   2    -0.175428366390E+02   -0.24119E-01   -0.32413E-01   104   0.280E+00    0.357E-01
DAV:   3    -0.175427206214E+02    0.11602E-03   -0.20857E-02   102   0.712E-01    0.278E-01
DAV:   4    -0.175426118873E+02    0.10873E-03   -0.14931E-03   104   0.183E-01    0.199E-01
DAV:   5    -0.175427968988E+02   -0.18501E-03   -0.90618E-04    78   0.116E-01    0.663E-02
DAV:   6    -0.175434360522E+02   -0.63915E-03   -0.39514E-04    86   0.785E-02    0.241E-02
DAV:   7    -0.175439149818E+02   -0.47893E-03   -0.24600E-05    48   0.288E-02    0.157E-02
DAV:   8    -0.175448298372E+02   -0.91486E-03   -0.68764E-05    58   0.305E-02    0.579E-03
DAV:   9    -0.175451462188E+02   -0.31638E-03   -0.14582E-05    46   0.167E-02    0.429E-03
DAV:  10    -0.175455645188E+02   -0.41830E-03   -0.19024E-05    58   0.150E-02    0.268E-03
DAV:  11    -0.175459063977E+02   -0.34188E-03   -0.21820E-05    60   0.143E-02    0.155E-03
DAV:  12    -0.175460197405E+02   -0.11334E-03   -0.46669E-06    46   0.807E-03    0.112E-03
DAV:  13    -0.175461527537E+02   -0.13301E-03   -0.63325E-06    44   0.788E-03    0.726E-04
DAV:  14    -0.175462231421E+02   -0.70388E-04   -0.26549E-06    46   0.544E-03
 129 F= -.17546223E+02 E0= -.17548182E+02  d E =-.216950E+00  mag=     0.9996
       N       E                     dE             d eps       ncg     rms          rms(c)
DAV:   1    -0.176343264876E+02   -0.88174E-01   -0.10007E+00    72   0.523E+00    0.258E-01
DAV:   2    -0.176372516451E+02   -0.29252E-02   -0.48596E-02   112   0.111E+00    0.139E-01
DAV:   3    -0.176368178095E+02    0.43384E-03   -0.20258E-03   104   0.214E-01    0.939E-02
DAV:   4    -0.176365913278E+02    0.22648E-03   -0.24727E-04    80   0.720E-02    0.562E-02
DAV:   5    -0.176364525697E+02    0.13876E-03   -0.85881E-05    56   0.448E-02    0.178E-02
DAV:   6    -0.176364750699E+02   -0.22500E-04   -0.43681E-05    56   0.324E-02
 130 F= -.17636475E+02 E0= -.17638417E+02  d E =-.902519E-01  mag=     0.9998
       N       E                     dE             d eps       ncg     rms          rms(c)
DAV:   1    -0.176822654292E+02   -0.45813E-01   -0.51848E+00    72   0.119E+01    0.586E-01
DAV:   2    -0.176969804624E+02   -0.14715E-01   -0.25195E-01   112   0.255E+00    0.325E-01
DAV:   3    -0.176950191722E+02    0.19613E-02   -0.10534E-02    96   0.491E-01    0.227E-01
DAV:   4    -0.176943141284E+02    0.70504E-03   -0.13586E-03   104   0.166E-01    0.142E-01
DAV:   5    -0.176940950851E+02    0.21904E-03   -0.52483E-04    88   0.935E-02    0.469E-02
DAV:   6    -0.176945067226E+02   -0.41164E-03   -0.15690E-04    72   0.527E-02    0.178E-02
DAV:   7    -0.176951051275E+02   -0.59840E-03   -0.30886E-05    56   0.277E-02    0.122E-02
DAV:   8    -0.176961017103E+02   -0.99658E-03   -0.68574E-05    72   0.298E-02    0.688E-03
DAV:   9    -0.176967227202E+02   -0.62101E-03   -0.27558E-05    56   0.200E-02    0.514E-03
DAV:  10    -0.176977441390E+02   -0.10214E-02   -0.66136E-05    64   0.231E-02    0.269E-03
DAV:  11    -0.176980892277E+02   -0.34509E-03   -0.16399E-05    56   0.133E-02    0.196E-03
DAV:  12    -0.176983413081E+02   -0.25208E-03   -0.10527E-05    64   0.978E-03    0.128E-03
DAV:  13    -0.176985467452E+02   -0.20544E-03   -0.82582E-06    56   0.890E-03    0.808E-04
DAV:  14    -0.176986248583E+02   -0.78113E-04   -0.36872E-06    48   0.572E-03
 131 F= -.17698625E+02 E0= -.17700570E+02  d E =-.152402E+00  mag=     1.0001
       N       E                     dE             d eps       ncg     rms          rms(c)
DAV:   1    -0.177043217570E+02   -0.57750E-02   -0.38029E-01    72   0.329E+00    0.163E-01
DAV:   2    -0.177056051487E+02   -0.12834E-02   -0.19714E-02   112   0.683E-01    0.989E-02
DAV:   3    -0.177053502859E+02    0.25486E-03   -0.75700E-04   112   0.131E-01    0.675E-02
DAV:   4    -0.177051243529E+02    0.22593E-03   -0.93834E-05    60   0.462E-02    0.389E-02
DAV:   5    -0.177049967363E+02    0.12762E-03   -0.72543E-05    44   0.393E-02    0.110E-02
DAV:   6    -0.177050242443E+02   -0.27508E-04   -0.24730E-05    46   0.258E-02
 132 F= -.17705024E+02 E0= -.17706968E+02  d E =-.158801E+00  mag=     1.0001
       N       E                     dE             d eps       ncg     rms          rms(c)
DAV:   1    -0.177539754672E+02   -0.48979E-01   -0.82465E-01    72   0.500E+00    0.258E-01
DAV:   2    -0.177569700950E+02   -0.29946E-02   -0.44339E-02   108   0.101E+00    0.143E-01
DAV:   3    -0.177567019358E+02    0.26816E-03   -0.18714E-03   110   0.208E-01    0.101E-01
DAV:   4    -0.177566217900E+02    0.80146E-04   -0.16637E-04    62   0.661E-02
 133 F= -.17756622E+02 E0= -.17758569E+02  d E =-.515975E-01  mag=     1.0001
       N       E                     dE             d eps       ncg     rms          rms(c)
DAV:   1    -0.177675616931E+02   -0.10860E-01   -0.89551E-01    72   0.519E+00    0.276E-01
DAV:   2    -0.177701640339E+02   -0.26023E-02   -0.48564E-02   110   0.106E+00    0.154E-01
DAV:   3    -0.177696875501E+02    0.47648E-03   -0.21222E-03   120   0.222E-01    0.109E-01
DAV:   4    -0.177695897241E+02    0.97826E-04   -0.16135E-04    54   0.648E-02
 134 F= -.17769590E+02 E0= -.17771569E+02  d E =-.645655E-01  mag=     1.0001
       N       E                     dE             d eps       ncg     rms          rms(c)
DAV:   1    -0.177795159632E+02   -0.98284E-02   -0.25010E-01    72   0.261E+00    0.153E-01
DAV:   2    -0.177806530366E+02   -0.11371E-02   -0.15375E-02   112   0.616E-01    0.818E-02
DAV:   3    -0.177807443007E+02   -0.91264E-04   -0.70736E-04   112   0.121E-01
 135 F= -.17780744E+02 E0= -.17782716E+02  d E =-.111546E-01  mag=     1.0001
       N       E                     dE             d eps       ncg     rms          rms(c)
DAV:   1    -0.177819313062E+02   -0.12783E-02   -0.30788E-02    80   0.920E-01    0.582E-02
DAV:   2    -0.177820602831E+02   -0.12898E-03   -0.18910E-03   112   0.215E-01    0.472E-02
DAV:   3    -0.177821122543E+02   -0.51971E-04   -0.85137E-05    48   0.486E-02
 136 F= -.17782112E+02 E0= -.17784082E+02  d E =-.125225E-01  mag=     1.0001
       N       E                     dE             d eps       ncg     rms          rms(c)
DAV:   1    -0.177848221378E+02   -0.27619E-02   -0.49548E-02    76   0.120E+00    0.684E-02
DAV:   2    -0.177851224710E+02   -0.30033E-03   -0.31240E-03   104   0.270E-01    0.357E-02
DAV:   3    -0.177851441994E+02   -0.21728E-04   -0.16641E-04    56   0.681E-02
 137 F= -.17785144E+02 E0= -.17787108E+02  d E =-.303195E-02  mag=     1.0001
       N       E                     dE             d eps       ncg     rms          rms(c)
DAV:   1    -0.177857361957E+02   -0.61372E-03   -0.36221E-02    76   0.102E+00    0.558E-02
DAV:   2    -0.177858711940E+02   -0.13500E-03   -0.22609E-03   104   0.232E-01    0.377E-02
DAV:   3    -0.177858421952E+02    0.28999E-04   -0.13440E-04    56   0.613E-02
 138 F= -.17785842E+02 E0= -.17787802E+02  d E =-.372994E-02  mag=     1.0001
       N       E                     dE             d eps       ncg     rms          rms(c)
DAV:   1    -0.177870657107E+02   -0.11945E-02   -0.26328E-02    76   0.910E-01    0.491E-02
DAV:   2    -0.177871496801E+02   -0.83969E-04   -0.11606E-03   112   0.173E-01    0.304E-02
DAV:   3    -0.177871338904E+02    0.15790E-04   -0.29169E-05    44   0.337E-02
 139 F= -.17787134E+02 E0= -.17789094E+02  d E =-.129170E-02  mag=     1.0001
       N       E                     dE             d eps       ncg     rms          rms(c)
DAV:   1    -0.177878274944E+02   -0.67781E-03   -0.14364E-01    72   0.213E+00    0.106E-01
DAV:   2    -0.177882588520E+02   -0.43136E-03   -0.60436E-03   112   0.395E-01    0.587E-02
DAV:   3    -0.177881447488E+02    0.11410E-03   -0.15881E-04    64   0.763E-02    0.398E-02
DAV:   4    -0.177880506499E+02    0.94099E-04   -0.10351E-04    56   0.562E-02
 140 F= -.17788051E+02 E0= -.17790015E+02  d E =-.220845E-02  mag=     1.0001
       N       E                     dE             d eps       ncg     rms          rms(c)
DAV:   1    -0.177888825282E+02   -0.73778E-03   -0.11218E-02    76   0.590E-01    0.284E-02
DAV:   2    -0.177889729643E+02   -0.90436E-04   -0.43927E-04    88   0.112E-01
 141 F= -.17788973E+02 E0= -.17790937E+02  d E =-.922314E-03  mag=     1.0001
       N       E                     dE             d eps       ncg     rms          rms(c)
DAV:   1    -0.177907474822E+02   -0.18650E-02   -0.10139E-01    72   0.178E+00    0.867E-02
DAV:   2    -0.177910046043E+02   -0.25712E-03   -0.38441E-03   104   0.323E-01    0.466E-02
DAV:   3    -0.177908169365E+02    0.18767E-03   -0.26186E-04    72   0.808E-02    0.368E-02
DAV:   4    -0.177907643459E+02    0.52591E-04   -0.30345E-05    48   0.327E-02
 142 F= -.17790764E+02 E0= -.17792731E+02  d E =-.271370E-02  mag=     1.0001
       N       E                     dE             d eps       ncg     rms          rms(c)
DAV:   1    -0.177918768672E+02   -0.10599E-02   -0.40248E-01    72   0.355E+00    0.174E-01
DAV:   2    -0.177931340832E+02   -0.12572E-02   -0.15001E-02   104   0.630E-01    0.819E-02
DAV:   3    -0.177925504166E+02    0.58367E-03   -0.10804E-03    96   0.156E-01    0.654E-02
DAV:   4    -0.177924430350E+02    0.10738E-03   -0.70926E-05    54   0.440E-02    0.455E-02
DAV:   5    -0.177924228443E+02    0.20191E-04   -0.14178E-04    66   0.468E-02
 143 F= -.17792423E+02 E0= -.17794392E+02  d E =-.437219E-02  mag=     1.0001
       N       E                     dE             d eps       ncg     rms          rms(c)
DAV:   1    -0.177941647282E+02   -0.17217E-02   -0.29563E-02    72   0.894E-01    0.577E-02
DAV:   2    -0.177944250020E+02   -0.26027E-03   -0.19829E-03   112   0.214E-01    0.340E-02
DAV:   3    -0.177944635299E+02   -0.38528E-04   -0.90150E-05    46   0.499E-02
 144 F= -.17794464E+02 E0= -.17796422E+02  d E =-.204069E-02  mag=     1.0001
       N       E                     dE             d eps       ncg     rms          rms(c)
DAV:   1    -0.177947261570E+02   -0.30116E-03   -0.62382E-04    76   0.133E-01    0.125E-02
DAV:   2    -0.177948664021E+02   -0.14025E-03   -0.42987E-05    44   0.383E-02    0.840E-03
DAV:   3    -0.177949970186E+02   -0.13062E-03   -0.13487E-05    42   0.243E-02    0.627E-03
DAV:   4    -0.177952005893E+02   -0.20357E-03   -0.95014E-06    42   0.191E-02    0.370E-03
DAV:   5    -0.177954542570E+02   -0.25367E-03   -0.94642E-06    52   0.159E-02    0.205E-03
DAV:   6    -0.177956936654E+02   -0.23941E-03   -0.58471E-06    46   0.124E-02    0.132E-03
DAV:   7    -0.177958529333E+02   -0.15927E-03   -0.35239E-06    48   0.955E-03    0.961E-04
DAV:   8    -0.177960554818E+02   -0.20255E-03   -0.62216E-06    60   0.914E-03    0.631E-04
DAV:   9    -0.177961084635E+02   -0.52982E-04   -0.89885E-07    48   0.554E-03
 145 F= -.17796108E+02 E0= -.17798066E+02  d E =-.368562E-02  mag=     1.0001
