 vasp.6.1.2 22Jul20 (build Aug  2 2021 21:04:21) gamma-only                      
 executed on             LinuxPGI date 2021.12.29  15:38:19
 running on    8 total cores
 distrk:  each k-point on    8 cores,    1 groups
 distr:  one band on NCORE=   8 cores,    1 groups


--------------------------------------------------------------------------------------------------------


 INCAR:
 POTCAR:    PAW_PBE Al 04Jan2001                  
 -----------------------------------------------------------------------------
|                                                                             |
|           W    W    AA    RRRRR   N    N  II  N    N   GGGG   !!!           |
|           W    W   A  A   R    R  NN   N  II  NN   N  G    G  !!!           |
|           W    W  A    A  R    R  N N  N  II  N N  N  G       !!!           |
|           W WW W  AAAAAA  RRRRR   N  N N  II  N  N N  G  GGG   !            |
|           WW  WW  A    A  R   R   N   NN  II  N   NN  G    G                |
|           W    W  A    A  R    R  N    N  II  N    N   GGGG   !!!           |
|                                                                             |
|     You use a magnetic or noncollinear calculation, but did not specify     |
|     the initial magnetic moment with the MAGMOM tag. Note that a            |
|     default of 1 will be used for all atoms. This ferromagnetic setup       |
|     may break the symmetry of the crystal, in particular it may rule        |
|     out finding an antiferromagnetic solution. Thence, we recommend         |
|     setting the initial magnetic moment manually or verifying carefully     |
|     that this magnetic setup is desired.                                    |
|                                                                             |
 -----------------------------------------------------------------------------

 -----------------------------------------------------------------------------
|                                                                             |
|           W    W    AA    RRRRR   N    N  II  N    N   GGGG   !!!           |
|           W    W   A  A   R    R  NN   N  II  NN   N  G    G  !!!           |
|           W    W  A    A  R    R  N N  N  II  N N  N  G       !!!           |
|           W WW W  AAAAAA  RRRRR   N  N N  II  N  N N  G  GGG   !            |
|           WW  WW  A    A  R   R   N   NN  II  N   NN  G    G                |
|           W    W  A    A  R    R  N    N  II  N    N   GGGG   !!!           |
|                                                                             |
|     The value NCORE = 16 specified in the INCAR file was overwritten,       |
|     because it was not compatible with the 8 processes available:           |
|     NCORE = 8                                                               |
|     was used instead, please check that this makes sense for your           |
|     machine.                                                                |
|                                                                             |
 -----------------------------------------------------------------------------

 -----------------------------------------------------------------------------
|                                                                             |
|           W    W    AA    RRRRR   N    N  II  N    N   GGGG   !!!           |
|           W    W   A  A   R    R  NN   N  II  NN   N  G    G  !!!           |
|           W    W  A    A  R    R  N N  N  II  N N  N  G       !!!           |
|           W WW W  AAAAAA  RRRRR   N  N N  II  N  N N  G  GGG   !            |
|           WW  WW  A    A  R   R   N   NN  II  N   NN  G    G                |
|           W    W  A    A  R    R  N    N  II  N    N   GGGG   !!!           |
|                                                                             |
|     For optimal performance we recommend to set                             |
|       NCORE = 4 - approx SQRT(number of cores).                             |
|     NCORE specifies how many cores store one orbital (NPAR=cpu/NCORE).      |
|     This setting can greatly improve the performance of VASP for DFT.       |
|     The default, NCORE=1 might be grossly inefficient on modern             |
|     multi-core architectures or massively parallel machines. Do your        |
|     own testing!!!!                                                         |
|     Unfortunately you need to use the default for GW and RPA                |
|     calculations (for HF NCORE is supported but not extensively tested      |
|     yet).                                                                   |
|                                                                             |
 -----------------------------------------------------------------------------

 POTCAR:    PAW_PBE Al 04Jan2001                  
   SHA256 =  17880443556af62b473fe41b62a467bd001ad55d2cabe504a3f22e34d4e9db96 Al/POTCAR             
   COPYR  = (c) Copyright 04Jan2001 Georg Kresse                                                    
   COPYR  = This file is part of the software VASP. Any use, copying, and all other rights are regul
   COPYR  = If you do not have a valid VASP license, you may not use, copy or distribute this file. 
   VRHFIN =Al: s2p1                                                                                 
   LEXCH  = PE                                                                                      
   EATOM  =    53.5387 eV,    3.9350 Ry                                                             
                                                                                                    
   TITEL  = PAW_PBE Al 04Jan2001                                                                    
   LULTRA =        F    use ultrasoft PP ?                                                          
   IUNSCR =        1    unscreen: 0-lin 1-nonlin 2-no                                               
   RPACOR =    1.500    partial core radius                                                         
   POMASS =   26.981; ZVAL   =    3.000    mass and valenz                                          
   RCORE  =    1.900    outmost cutoff radius                                                       
   RWIGS  =    2.650; RWIGS  =    1.402    wigner-seitz radius (au A)                               
   ENMAX  =  240.300; ENMIN  =  180.225 eV                                                          
   ICORE  =        2    local potential                                                             
   LCOR   =        T    correct aug charges                                                         
   LPAW   =        T    paw PP                                                                      
   EAUG   =  291.052                                                                                
   DEXC   =    0.000                                                                                
   RMAX   =    1.939    core radius for proj-oper                                                   
   RAUG   =    1.300    factor for augmentation sphere                                              
   RDEP   =    1.966    radius for radial grids                                                     
   RDEPT  =    1.856    core radius for aug-charge                                                  
                                                                                                    
   Atomic configuration                                                                             
    6 entries                                                                                       
     n  l   j            E        occ.                                                              
     1  0  0.50     -1511.1048   2.0000                                                             
     2  0  0.50      -108.1629   2.0000                                                             
     2  1  1.50       -69.6402   6.0000                                                             
     3  0  0.50        -7.7528   2.0000                                                             
     3  1  1.50        -2.7121   1.0000                                                             
     3  2  2.50        -2.7212   0.0000                                                             
   Description                                                                                      
     l       E           TYP  RCUT    TYP  RCUT                                                     
     0     -7.7528455     23  1.900                                                                 
     0     -3.3096929     23  1.900                                                                 
     1     -2.7120682     23  1.900                                                                 
     1     13.6058260     23  1.900                                                                 
     2     -2.7211652      7  1.900                                                                 
  local pseudopotential read in
  partial core-charges read in
  partial kinetic energy density read in
  atomic valenz-charges read in
  non local Contribution for L=            0  read in
    real space projection operators read in
  non local Contribution for L=            0  read in
    real space projection operators read in
  non local Contribution for L=            1  read in
    real space projection operators read in
  non local Contribution for L=            1  read in
    real space projection operators read in
    PAW grid and wavefunctions read in
 
   number of l-projection  operators is LMAX  =            4
   number of lm-projection operators is LMMAX =            8
 
  PAW_PBE Al 04Jan2001                  :
 energy of atom  1       EATOM=  -53.5387
 kinetic energy error for atom=    0.0005 (will be added to EATOM!!)
 
 
 POSCAR: Al
  positions in cartesian coordinates
  No initial velocities read in
 exchange correlation table for  LEXCH =        8
   RHO(1)=    0.500       N(1)  =     2000
   RHO(2)=  100.500       N(2)  =     4000
 


--------------------------------------------------------------------------------------------------------


 ion  position               nearest neighbor table
   1  0.442  0.567  0.528-   5 2.47   3 2.72   2 2.74
   2  0.531  0.497  0.503-   4 2.64   3 2.73   7 2.74   1 2.74   6 2.78
   3  0.544  0.609  0.555-   7 2.68   1 2.72   2 2.73
   4  0.533  0.390  0.446-   6 2.60   2 2.64
   5  0.355  0.602  0.480-   1 2.47
   6  0.627  0.439  0.468-   4 2.60   7 2.66   2 2.78
   7  0.629  0.555  0.498-   6 2.66   3 2.68   2 2.74
 

IMPORTANT INFORMATION: All symmetrisations will be switched off!
NOSYMM: (Re-)initialisation of all symmetry stuff for point group C_1.


----------------------------------------------------------------------------------------

                                     Primitive cell                                     

  volume of cell :   10915.6566

  direct lattice vectors                    reciprocal lattice vectors
    24.595230480  0.000000000  0.000000000     0.040658289  0.000000000  0.000000000
     0.000000000 22.354526831  0.000000000     0.000000000  0.044733669  0.000000000
     0.000000000  0.000000000 19.853335785     0.000000000  0.000000000  0.050369369

  length of vectors
    24.595230480 22.354526831 19.853335785     0.040658289  0.044733669  0.050369369

  position of ions in fractional coordinates (direct lattice)
     0.442225376  0.567098391  0.528169722
     0.531295411  0.496842434  0.503280766
     0.543532127  0.609328898  0.554901727
     0.533016184  0.390191251  0.445833897
     0.355354159  0.601561115  0.479781560
     0.627230469  0.439344463  0.467828710
     0.629244028  0.555049919  0.498089116

  ion indices of the primitive-cell ions
   primitive index   ion index
                 1           1
                 2           2
                 3           3
                 4           4
                 5           5
                 6           6
                 7           7

----------------------------------------------------------------------------------------

 
 
 KPOINTS: KPOINTS created by Atomic Simulation Env

Automatic generation of k-mesh.
Space group operators:
 irot       det(A)        alpha          n_x          n_y          n_z        tau_x        tau_y        tau_z
    1     1.000000     0.000001     1.000000     0.000000     0.000000     0.000000     0.000000     0.000000
 
 Subroutine IBZKPT returns following result:
 ===========================================
 
 Found      1 irreducible k-points:
 
 Following reciprocal coordinates:
            Coordinates               Weight
  0.000000  0.000000  0.000000      1.000000
 
 Following cartesian coordinates:
            Coordinates               Weight
  0.000000  0.000000  0.000000      1.000000
 


--------------------------------------------------------------------------------------------------------




 Dimension of arrays:
   k-points           NKPTS =      1   k-points in BZ     NKDIM =      1   number of bands    NBANDS=     18
   number of dos      NEDOS =    301   number of ions     NIONS =      7
   non local maximal  LDIM  =      4   non local SUM 2l+1 LMDIM =      8
   total plane-waves  NPLWV = ******
   max r-space proj   IRMAX =      1   max aug-charges    IRDMAX=   4895
   dimension x,y,z NGX =   120 NGY =  112 NGZ =   98
   dimension x,y,z NGXF=   240 NGYF=  224 NGZF=  196
   support grid    NGXF=   240 NGYF=  224 NGZF=  196
   ions per type =               7
   NGX,Y,Z   is equivalent  to a cutoff of   8.11,  8.33,  8.21 a.u.
   NGXF,Y,Z  is equivalent  to a cutoff of  16.22, 16.66, 16.41 a.u.

 SYSTEM =  unknown system                          
 POSCAR =  Al                                      

 Startparameter for this run:
   NWRITE =      2    write-flag & timer
   PREC   = normal    normal or accurate (medium, high low for compatibility)
   ISTART =      0    job   : 0-new  1-cont  2-samecut
   ICHARG =      2    charge: 1-file 2-atom 10-const
   ISPIN  =      2    spin polarized calculation?
   LNONCOLLINEAR =      F non collinear calculations
   LSORBIT =      F    spin-orbit coupling
   INIWAV =      1    electr: 0-lowe 1-rand  2-diag
   LASPH  =      F    aspherical Exc in radial PAW
   METAGGA=      F    non-selfconsistent MetaGGA calc.

 Electronic Relaxation 1
   ENCUT  =  400.0 eV  29.40 Ry    5.42 a.u.  40.11 36.45 32.38*2*pi/ulx,y,z
   ENINI  =  400.0     initial cutoff
   ENAUG  =  291.1 eV  augmentation charge cutoff
   NELM   =     60;   NELMIN=  2; NELMDL=  0     # of ELM steps 
   EDIFF  = 0.1E-03   stopping-criterion for ELM
   LREAL  =      F    real-space projection
   NLSPLINE    = F    spline interpolate recip. space projectors
   LCOMPAT=      F    compatible to vasp.4.4
   GGA_COMPAT  = T    GGA compatible to vasp.4.4-vasp.4.6
   LMAXPAW     = -100 max onsite density
   LMAXMIX     =    2 max onsite mixed and CHGCAR
   VOSKOWN=      0    Vosko Wilk Nusair interpolation
   ROPT   =    0.00000
 Ionic relaxation
   EDIFFG = 0.1E-02   stopping-criterion for IOM
   NSW    =   1000    number of steps for IOM
   NBLOCK =      1;   KBLOCK =   1000    inner block; outer block 
   IBRION =      2    ionic relax: 0-MD 1-quasi-New 2-CG
   NFREE  =      1    steps in history (QN), initial steepest desc. (CG)
   ISIF   =      0    stress and relaxation
   IWAVPR =     11    prediction:  0-non 1-charg 2-wave 3-comb
   ISYM   =      0    0-nonsym 1-usesym 2-fastsym
   LCORR  =      T    Harris-Foulkes like correction to forces

   POTIM  = 0.5000    time-step for ionic-motion
   TEIN   =    0.0    initial temperature
   TEBEG  =    0.0;   TEEND  =   0.0 temperature during run
   SMASS  =  -3.00    Nose mass-parameter (am)
   estimated Nose-frequenzy (Omega)   =  0.10E-29 period in steps = 0.13E+47 mass=  -0.138E-25a.u.
   SCALEE = 1.0000    scale energy and forces
   NPACO  =    256;   APACO  = 16.0  distance and # of slots for P.C.
   PSTRESS=    0.0 pullay stress

  Mass of Ions in am
   POMASS =  26.98
  Ionic Valenz
   ZVAL   =   3.00
  Atomic Wigner-Seitz radii
   RWIGS  =  -1.00
  virtual crystal weights 
   VCA    =   1.00
   NELECT =      21.0000    total number of electrons
   NUPDOWN=      -1.0000    fix difference up-down

 DOS related values:
   EMIN   =  10.00;   EMAX   =-10.00  energy-range for DOS
   EFERMI =   0.00
   ISMEAR =     1;   SIGMA  =   0.20  broadening in eV -4-tet -1-fermi 0-gaus

 Electronic relaxation 2 (details)
   IALGO  =     38    algorithm
   LDIAG  =      T    sub-space diagonalisation (order eigenvalues)
   LSUBROT=      F    optimize rotation matrix (better conditioning)
   TURBO    =      0    0=normal 1=particle mesh
   IRESTART =      0    0=no restart 2=restart with 2 vectors
   NREBOOT  =      0    no. of reboots
   NMIN     =      0    reboot dimension
   EREF     =   0.00    reference energy to select bands
   IMIX   =      4    mixing-type and parameters
     AMIX     =   0.40;   BMIX     =  1.00
     AMIX_MAG =   1.60;   BMIX_MAG =  1.00
     AMIN     =   0.10
     WC   =   100.;   INIMIX=   1;  MIXPRE=   1;  MAXMIX= -45

 Intra band minimization:
   WEIMIN = 0.0010     energy-eigenvalue tresh-hold
   EBREAK =  0.14E-05  absolut break condition
   DEPER  =   0.30     relativ break condition  

   TIME   =   0.40     timestep for ELM

  volume/ion in A,a.u.               =    1559.38     10523.21
  Fermi-wavevector in a.u.,A,eV,Ry     =   0.203609  0.384766  0.564054  0.041457
  Thomas-Fermi vector in A             =   0.962172
 
 Write flags
   LWAVE        =      F    write WAVECAR
   LDOWNSAMPLE  =      F    k-point downsampling of WAVECAR
   LCHARG       =      F    write CHGCAR
   LVTOT        =      F    write LOCPOT, total local potential
   LVHAR        =      F    write LOCPOT, Hartree potential only
   LELF         =      F    write electronic localiz. function (ELF)
   LORBIT       =      0    0 simple, 1 ext, 2 COOP (PROOUT), +10 PAW based schemes


 Dipole corrections
   LMONO  =      F    monopole corrections only (constant potential shift)
   LDIPOL =      F    correct potential (dipole corrections)
   IDIPOL =      0    1-x, 2-y, 3-z, 4-all directions 
   EPSILON=  1.0000000 bulk dielectric constant

 Exchange correlation treatment:
   GGA     =    PE    GGA type
   LEXCH   =     8    internal setting for exchange type
   VOSKOWN=      0    Vosko Wilk Nusair interpolation
   LHFCALC =     F    Hartree Fock is set to
   LHFONE  =     F    Hartree Fock one center treatment
   AEXX    =    0.0000 exact exchange contribution

 Linear response parameters
   LEPSILON=     F    determine dielectric tensor
   LRPA    =     F    only Hartree local field effects (RPA)
   LNABLA  =     F    use nabla operator in PAW spheres
   LVEL    =     F    velocity operator in full k-point grid
   LINTERFAST=   F  fast interpolation
   KINTER  =     0    interpolate to denser k-point grid
   CSHIFT  =0.1000    complex shift for real part using Kramers Kronig
   OMEGAMAX=  -1.0    maximum frequency
   DEG_THRESHOLD= 0.2000000E-02 threshold for treating states as degnerate
   RTIME   =   -0.100 relaxation time in fs
  (WPLASMAI=    0.000 imaginary part of plasma frequency in eV, 0.658/RTIME)
   DFIELD  = 0.0000000 0.0000000 0.0000000 field for delta impulse in time
 
 Orbital magnetization related:
   ORBITALMAG=     F  switch on orbital magnetization
   LCHIMAG   =     F  perturbation theory with respect to B field
   DQ        =  0.001000  dq finite difference perturbation B field
   LLRAUG    =     F  two centre corrections for induced B field



--------------------------------------------------------------------------------------------------------


 conjugate gradient relaxation of ions
 charge density and potential will be updated during run
 spin polarized calculation
 Variant of blocked Davidson
 Davidson routine will perform the subspace rotation
 perform sub-space diagonalisation
    after iterative eigenvector-optimisation
 modified Broyden-mixing scheme, WC =      100.0
 initial mixing is a Kerker type mixing with AMIX =  0.4000 and BMIX =      1.0000
 Hartree-type preconditioning will be used
 using additional bands             7
 reciprocal scheme for non local part
 use partial core corrections
 calculate Harris-corrections to forces 
   (improved forces if not selfconsistent)
 use gradient corrections 
 use of overlap-Matrix (Vanderbilt PP)
 Methfessel and Paxton  Order N= 1 SIGMA  =   0.20


--------------------------------------------------------------------------------------------------------


  energy-cutoff  :      400.00
  volume of cell :    10915.66
      direct lattice vectors                 reciprocal lattice vectors
    24.595230480  0.000000000  0.000000000     0.040658289  0.000000000  0.000000000
     0.000000000 22.354526831  0.000000000     0.000000000  0.044733669  0.000000000
     0.000000000  0.000000000 19.853335785     0.000000000  0.000000000  0.050369369

  length of vectors
    24.595230480 22.354526831 19.853335785     0.040658289  0.044733669  0.050369369


 
 k-points in units of 2pi/SCALE and weight: KPOINTS created by Atomic Simulation Env
   0.00000000  0.00000000  0.00000000       1.000
 
 k-points in reciprocal lattice and weights: KPOINTS created by Atomic Simulation Env
   0.00000000  0.00000000  0.00000000       1.000
 
 position of ions in fractional coordinates (direct lattice) 
   0.44222538  0.56709839  0.52816972
   0.53129541  0.49684243  0.50328077
   0.54353213  0.60932890  0.55490173
   0.53301618  0.39019125  0.44583390
   0.35535416  0.60156111  0.47978156
   0.62723047  0.43934446  0.46782871
   0.62924403  0.55504992  0.49808912
 
 position of ions in cartesian coordinates  (Angst):
  10.87663504 12.67721619 10.48593085
  13.06733309 11.10667752  9.99180204
  13.36829795 13.62125920 11.01665031
  13.10965589  8.72254078  8.85129005
   8.74001743 13.44761408  9.52526442
  15.42687796  9.82133759  9.28796048
  15.47640191 12.40787832  9.88873047
 


--------------------------------------------------------------------------------------------------------


 use parallel FFT for orbitals z direction half grid
 k-point   1 :   0.0000 0.0000 0.0000  plane waves:   99193

 maximum and minimum number of plane-waves per node :     12413    12388

 maximum number of plane-waves:     99193
 maximum index in each direction: 
   IXMAX=   40   IYMAX=   36   IZMAX=   32
   IXMIN=  -40   IYMIN=  -36   IZMIN=    0


 parallel 3D FFT for wavefunctions:
    minimum data exchange during FFTs selected (reduces bandwidth)
 parallel 3D FFT for charge:
    minimum data exchange during FFTs selected (reduces bandwidth)


 total amount of memory used by VASP MPI-rank0   196297. kBytes
=======================================================================

   base      :      30000. kBytes
   nonl-proj :       2184. kBytes
   fftplans  :      48148. kBytes
   grid      :     108810. kBytes
   one-center:          3. kBytes
   wavefun   :       7152. kBytes
 
     INWAV:  cpu time    0.0000: real time    0.0000
 Broyden mixing: mesh for mixing (old mesh)
   NGX = 81   NGY = 73   NGZ = 65
  (NGX  =240   NGY  =224   NGZ  =196)
  gives a total of 384345 points

 initial charge density was supplied:
 charge density of overlapping atoms calculated
 number of electron      21.0000000 magnetization       7.0000000
 keeping initial charge density in first step


--------------------------------------------------------------------------------------------------------


 Maximum index for augmentation-charges           587 (set IRDMAX)


--------------------------------------------------------------------------------------------------------


 First call to EWALD:  gamma=   0.080
 Maximum number of real-space cells 3x 3x 3
 Maximum number of reciprocal cells 3x 3x 3

    FEWALD:  cpu time    0.0007: real time    0.0007


--------------------------------------- Iteration      1(   1)  ---------------------------------------


    POTLOK:  cpu time    2.7921: real time    2.8021
    SETDIJ:  cpu time    0.0244: real time    0.0244
     EDDAV:  cpu time    1.6215: real time    1.6227
       DOS:  cpu time    0.0010: real time    0.0010
    --------------------------------------------
      LOOP:  cpu time    4.4390: real time    4.4502

 eigenvalue-minimisations  :   104
 total energy-change (2. order) : 0.4914142E+02  (-0.3163180E+03)
 number of electron      21.0000000 magnetization       7.0000000
 augmentation part       21.0000000 magnetization       7.0000000

 Free energy of the ion-electron system (eV)
  ---------------------------------------------------
  alpha Z        PSCENC =        -0.01507758
  Ewald energy   TEWEN  =       359.29194110
  -Hartree energ DENC   =      -612.71376575
  -exchange      EXHF   =         0.00000000
  -V(xc)+E(xc)   XCENC  =      -191.35876815
  PAW double counting   =       462.65713654     -238.99141827
  entropy T*S    EENTRO =        -0.02308525
  eigenvalues    EBANDS =      -104.47261825
  atomic energy  EATOM  =       374.76708025
  Solvation  Ediel_sol  =         0.00000000
  ---------------------------------------------------
  free energy    TOTEN  =        49.14142465 eV

  energy without entropy =       49.16450990  energy(sigma->0) =       49.14911974


--------------------------------------------------------------------------------------------------------




--------------------------------------- Iteration      1(   2)  ---------------------------------------


     EDDAV:  cpu time    1.7720: real time    1.7772
       DOS:  cpu time    0.0011: real time    0.0011
    --------------------------------------------
      LOOP:  cpu time    1.7731: real time    1.7782

 eigenvalue-minimisations  :   120
 total energy-change (2. order) :-0.5315638E+02  (-0.5217262E+02)
 number of electron      21.0000000 magnetization       7.0000000
 augmentation part       21.0000000 magnetization       7.0000000

 Free energy of the ion-electron system (eV)
  ---------------------------------------------------
  alpha Z        PSCENC =        -0.01507758
  Ewald energy   TEWEN  =       359.29194110
  -Hartree energ DENC   =      -612.71376575
  -exchange      EXHF   =         0.00000000
  -V(xc)+E(xc)   XCENC  =      -191.35876815
  PAW double counting   =       462.65713654     -238.99141827
  entropy T*S    EENTRO =         0.03800083
  eigenvalues    EBANDS =      -157.69008884
  atomic energy  EATOM  =       374.76708025
  Solvation  Ediel_sol  =         0.00000000
  ---------------------------------------------------
  free energy    TOTEN  =        -4.01495986 eV

  energy without entropy =       -4.05296069  energy(sigma->0) =       -4.02762680


--------------------------------------------------------------------------------------------------------




--------------------------------------- Iteration      1(   3)  ---------------------------------------


     EDDAV:  cpu time    1.4079: real time    1.4090
       DOS:  cpu time    0.0008: real time    0.0008
    --------------------------------------------
      LOOP:  cpu time    1.4087: real time    1.4098

 eigenvalue-minimisations  :    96
 total energy-change (2. order) :-0.1095512E+02  (-0.1067823E+02)
 number of electron      21.0000000 magnetization       7.0000000
 augmentation part       21.0000000 magnetization       7.0000000

 Free energy of the ion-electron system (eV)
  ---------------------------------------------------
  alpha Z        PSCENC =        -0.01507758
  Ewald energy   TEWEN  =       359.29194110
  -Hartree energ DENC   =      -612.71376575
  -exchange      EXHF   =         0.00000000
  -V(xc)+E(xc)   XCENC  =      -191.35876815
  PAW double counting   =       462.65713654     -238.99141827
  entropy T*S    EENTRO =         0.03695386
  eigenvalues    EBANDS =      -168.64415766
  atomic energy  EATOM  =       374.76708025
  Solvation  Ediel_sol  =         0.00000000
  ---------------------------------------------------
  free energy    TOTEN  =       -14.97007565 eV

  energy without entropy =      -15.00702950  energy(sigma->0) =      -14.98239360


--------------------------------------------------------------------------------------------------------




--------------------------------------- Iteration      1(   4)  ---------------------------------------


     EDDAV:  cpu time    1.2334: real time    1.2383
       DOS:  cpu time    0.0007: real time    0.0007
    --------------------------------------------
      LOOP:  cpu time    1.2341: real time    1.2390

 eigenvalue-minimisations  :    72
 total energy-change (2. order) :-0.4466629E+00  (-0.4451880E+00)
 number of electron      21.0000000 magnetization       7.0000000
 augmentation part       21.0000000 magnetization       7.0000000

 Free energy of the ion-electron system (eV)
  ---------------------------------------------------
  alpha Z        PSCENC =        -0.01507758
  Ewald energy   TEWEN  =       359.29194110
  -Hartree energ DENC   =      -612.71376575
  -exchange      EXHF   =         0.00000000
  -V(xc)+E(xc)   XCENC  =      -191.35876815
  PAW double counting   =       462.65713654     -238.99141827
  entropy T*S    EENTRO =         0.04403859
  eigenvalues    EBANDS =      -169.09790531
  atomic energy  EATOM  =       374.76708025
  Solvation  Ediel_sol  =         0.00000000
  ---------------------------------------------------
  free energy    TOTEN  =       -15.41673856 eV

  energy without entropy =      -15.46077715  energy(sigma->0) =      -15.43141809


--------------------------------------------------------------------------------------------------------




--------------------------------------- Iteration      1(   5)  ---------------------------------------


     EDDAV:  cpu time    1.8034: real time    1.8087
       DOS:  cpu time    0.0010: real time    0.0010
    CHARGE:  cpu time    0.3282: real time    0.3285
    MIXING:  cpu time    0.0547: real time    0.0548
    --------------------------------------------
      LOOP:  cpu time    2.1874: real time    2.1930

 eigenvalue-minimisations  :   120
 total energy-change (2. order) :-0.2714272E-01  (-0.2713610E-01)
 number of electron      21.0000001 magnetization       6.6070330
 augmentation part       -0.3834312 magnetization       3.6156941

 Broyden mixing:
  rms(total) = 0.53663E+00    rms(broyden)= 0.53663E+00
  rms(prec ) = 0.63510E+00
  weight for this iteration     100.00

 Free energy of the ion-electron system (eV)
  ---------------------------------------------------
  alpha Z        PSCENC =        -0.01507758
  Ewald energy   TEWEN  =       359.29194110
  -Hartree energ DENC   =      -612.71376575
  -exchange      EXHF   =         0.00000000
  -V(xc)+E(xc)   XCENC  =      -191.35876815
  PAW double counting   =       462.65713654     -238.99141827
  entropy T*S    EENTRO =         0.04413362
  eigenvalues    EBANDS =      -169.12514306
  atomic energy  EATOM  =       374.76708025
  Solvation  Ediel_sol  =         0.00000000
  ---------------------------------------------------
  free energy    TOTEN  =       -15.44388128 eV

  energy without entropy =      -15.48801491  energy(sigma->0) =      -15.45859249


--------------------------------------------------------------------------------------------------------




--------------------------------------- Iteration      1(   6)  ---------------------------------------


    POTLOK:  cpu time    2.7459: real time    2.7617
    SETDIJ:  cpu time    0.0205: real time    0.0205
     EDDAV:  cpu time    1.3591: real time    1.3602
       DOS:  cpu time    0.0008: real time    0.0008
    CHARGE:  cpu time    0.2937: real time    0.2938
    MIXING:  cpu time    0.0633: real time    0.0633
    --------------------------------------------
      LOOP:  cpu time    4.4833: real time    4.5005

 eigenvalue-minimisations  :    84
 total energy-change (2. order) : 0.4907740E+01  (-0.1246146E+01)
 number of electron      21.0000001 magnetization       6.3101929
 augmentation part       -0.3912888 magnetization       2.7725233

 Broyden mixing:
  rms(total) = 0.31010E+00    rms(broyden)= 0.31010E+00
  rms(prec ) = 0.34874E+00
  weight for this iteration     100.00

 eigenvalues of (default mixing * dielectric matrix)
  average eigenvalue GAMMA=   0.9039
  0.9039

 Free energy of the ion-electron system (eV)
  ---------------------------------------------------
  alpha Z        PSCENC =        -0.01507758
  Ewald energy   TEWEN  =       359.29194110
  -Hartree energ DENC   =      -622.73506717
  -exchange      EXHF   =         0.00000000
  -V(xc)+E(xc)   XCENC  =      -188.44706759
  PAW double counting   =       558.13979177     -334.54067743
  entropy T*S    EENTRO =        -0.05446442
  eigenvalues    EBANDS =      -156.94260037
  atomic energy  EATOM  =       374.76708025
  Solvation  Ediel_sol  =         0.00000000
  ---------------------------------------------------
  free energy    TOTEN  =       -10.53614144 eV

  energy without entropy =      -10.48167702  energy(sigma->0) =      -10.51798663


--------------------------------------------------------------------------------------------------------




--------------------------------------- Iteration      1(   7)  ---------------------------------------


    POTLOK:  cpu time    2.7965: real time    2.8077
    SETDIJ:  cpu time    0.0254: real time    0.0254
     EDDAV:  cpu time    1.3848: real time    1.3858
       DOS:  cpu time    0.0007: real time    0.0007
    CHARGE:  cpu time    0.2754: real time    0.2756
    MIXING:  cpu time    0.0518: real time    0.0519
    --------------------------------------------
      LOOP:  cpu time    4.5346: real time    4.5471

 eigenvalue-minimisations  :    84
 total energy-change (2. order) : 0.1624069E+01  (-0.1941473E+00)
 number of electron      21.0000001 magnetization       5.9047843
 augmentation part       -0.3887651 magnetization       2.6790291

 Broyden mixing:
  rms(total) = 0.18735E+00    rms(broyden)= 0.18735E+00
  rms(prec ) = 0.20416E+00
  weight for this iteration     100.00

 eigenvalues of (default mixing * dielectric matrix)
  average eigenvalue GAMMA=   1.0180
  1.3646  0.6715

 Free energy of the ion-electron system (eV)
  ---------------------------------------------------
  alpha Z        PSCENC =        -0.01507758
  Ewald energy   TEWEN  =       359.29194110
  -Hartree energ DENC   =      -627.43024844
  -exchange      EXHF   =         0.00000000
  -V(xc)+E(xc)   XCENC  =      -186.66345336
  PAW double counting   =       620.67918672     -397.13426691
  entropy T*S    EENTRO =        -0.04082223
  eigenvalues    EBANDS =      -152.36641241
  atomic energy  EATOM  =       374.76708025
  Solvation  Ediel_sol  =         0.00000000
  ---------------------------------------------------
  free energy    TOTEN  =        -8.91207285 eV

  energy without entropy =       -8.87125062  energy(sigma->0) =       -8.89846544


--------------------------------------------------------------------------------------------------------




--------------------------------------- Iteration      1(   8)  ---------------------------------------


    POTLOK:  cpu time    2.7149: real time    2.7299
    SETDIJ:  cpu time    0.0300: real time    0.0300
     EDDAV:  cpu time    1.3093: real time    1.3143
       DOS:  cpu time    0.0005: real time    0.0005
    CHARGE:  cpu time    0.3318: real time    0.3320
    MIXING:  cpu time    0.0680: real time    0.0680
    --------------------------------------------
      LOOP:  cpu time    4.4545: real time    4.4747

 eigenvalue-minimisations  :    80
 total energy-change (2. order) : 0.3745817E+00  (-0.4323331E-01)
 number of electron      21.0000001 magnetization       5.6246622
 augmentation part       -0.3834494 magnetization       2.6384796

 Broyden mixing:
  rms(total) = 0.12413E+00    rms(broyden)= 0.12413E+00
  rms(prec ) = 0.13804E+00
  weight for this iteration     100.00

 eigenvalues of (default mixing * dielectric matrix)
  average eigenvalue GAMMA=   1.0131
  1.6654  0.6869  0.6869

 Free energy of the ion-electron system (eV)
  ---------------------------------------------------
  alpha Z        PSCENC =        -0.01507758
  Ewald energy   TEWEN  =       359.29194110
  -Hartree energ DENC   =      -632.17823542
  -exchange      EXHF   =         0.00000000
  -V(xc)+E(xc)   XCENC  =      -186.02161943
  PAW double counting   =       674.95412514     -451.44301665
  entropy T*S    EENTRO =        -0.02339033
  eigenvalues    EBANDS =      -147.86929820
  atomic energy  EATOM  =       374.76708025
  Solvation  Ediel_sol  =         0.00000000
  ---------------------------------------------------
  free energy    TOTEN  =        -8.53749113 eV

  energy without entropy =       -8.51410079  energy(sigma->0) =       -8.52969435


--------------------------------------------------------------------------------------------------------




--------------------------------------- Iteration      1(   9)  ---------------------------------------


    POTLOK:  cpu time    2.9033: real time    2.9191
    SETDIJ:  cpu time    0.0308: real time    0.0308
     EDDAV:  cpu time    1.3651: real time    1.3664
       DOS:  cpu time    0.0004: real time    0.0004
    CHARGE:  cpu time    0.2798: real time    0.2800
    MIXING:  cpu time    0.0872: real time    0.0873
    --------------------------------------------
      LOOP:  cpu time    4.6667: real time    4.6840

 eigenvalue-minimisations  :    88
 total energy-change (2. order) :-0.5785644E+00  (-0.1961125E-01)
 number of electron      21.0000001 magnetization       5.3492924
 augmentation part       -0.3808385 magnetization       2.4383435

 Broyden mixing:
  rms(total) = 0.95048E-01    rms(broyden)= 0.95048E-01
  rms(prec ) = 0.10206E+00
  weight for this iteration     100.00

 eigenvalues of (default mixing * dielectric matrix)
  average eigenvalue GAMMA=   1.0271
  1.6884  0.8890  0.8890  0.6419

 Free energy of the ion-electron system (eV)
  ---------------------------------------------------
  alpha Z        PSCENC =        -0.01507758
  Ewald energy   TEWEN  =       359.29194110
  -Hartree energ DENC   =      -634.52203624
  -exchange      EXHF   =         0.00000000
  -V(xc)+E(xc)   XCENC  =      -186.34641198
  PAW double counting   =       696.93228416     -473.42646373
  entropy T*S    EENTRO =        -0.01263481
  eigenvalues    EBANDS =      -145.78473673
  atomic energy  EATOM  =       374.76708025
  Solvation  Ediel_sol  =         0.00000000
  ---------------------------------------------------
  free energy    TOTEN  =        -9.11605555 eV

  energy without entropy =       -9.10342074  energy(sigma->0) =       -9.11184395


--------------------------------------------------------------------------------------------------------




--------------------------------------- Iteration      1(  10)  ---------------------------------------


    POTLOK:  cpu time    2.8070: real time    2.8334
    SETDIJ:  cpu time    0.0274: real time    0.0275
     EDDAV:  cpu time    1.3363: real time    1.3376
       DOS:  cpu time    0.0012: real time    0.0012
    CHARGE:  cpu time    0.3262: real time    0.3264
    MIXING:  cpu time    0.0753: real time    0.0753
    --------------------------------------------
      LOOP:  cpu time    4.5734: real time    4.6014

 eigenvalue-minimisations  :    84
 total energy-change (2. order) :-0.9703946E+00  (-0.2207086E-01)
 number of electron      21.0000001 magnetization       4.8768310
 augmentation part       -0.3786842 magnetization       2.0839822

 Broyden mixing:
  rms(total) = 0.81233E-01    rms(broyden)= 0.81233E-01
  rms(prec ) = 0.86500E-01
  weight for this iteration     100.00

 eigenvalues of (default mixing * dielectric matrix)
  average eigenvalue GAMMA=   1.1769
  1.6717  1.6717  1.0826  0.7293  0.7293

 Free energy of the ion-electron system (eV)
  ---------------------------------------------------
  alpha Z        PSCENC =        -0.01507758
  Ewald energy   TEWEN  =       359.29194110
  -Hartree energ DENC   =      -635.90354227
  -exchange      EXHF   =         0.00000000
  -V(xc)+E(xc)   XCENC  =      -187.02325051
  PAW double counting   =       708.09670678     -484.58221054
  entropy T*S    EENTRO =        -0.00120821
  eigenvalues    EBANDS =      -144.71688917
  atomic energy  EATOM  =       374.76708025
  Solvation  Ediel_sol  =         0.00000000
  ---------------------------------------------------
  free energy    TOTEN  =       -10.08645013 eV

  energy without entropy =      -10.08524193  energy(sigma->0) =      -10.08604740


--------------------------------------------------------------------------------------------------------




--------------------------------------- Iteration      1(  11)  ---------------------------------------


    POTLOK:  cpu time    2.8397: real time    2.8568
    SETDIJ:  cpu time    0.0223: real time    0.0246
     EDDAV:  cpu time    1.3972: real time    1.3982
       DOS:  cpu time    0.0011: real time    0.0011
    CHARGE:  cpu time    0.3214: real time    0.3215
    MIXING:  cpu time    0.0762: real time    0.0763
    --------------------------------------------
      LOOP:  cpu time    4.6580: real time    4.6785

 eigenvalue-minimisations  :    86
 total energy-change (2. order) :-0.1374080E+01  (-0.4410255E-01)
 number of electron      21.0000001 magnetization       4.5339734
 augmentation part       -0.3771242 magnetization       1.9767952

 Broyden mixing:
  rms(total) = 0.62430E-01    rms(broyden)= 0.62430E-01
  rms(prec ) = 0.64876E-01
  weight for this iteration     100.00

 eigenvalues of (default mixing * dielectric matrix)
  average eigenvalue GAMMA=   1.1927
  2.4034  1.2425  1.2425  0.8027  0.8027  0.6629

 Free energy of the ion-electron system (eV)
  ---------------------------------------------------
  alpha Z        PSCENC =        -0.01507758
  Ewald energy   TEWEN  =       359.29194110
  -Hartree energ DENC   =      -637.19507960
  -exchange      EXHF   =         0.00000000
  -V(xc)+E(xc)   XCENC  =      -188.05196682
  PAW double counting   =       716.80035771     -493.26414053
  entropy T*S    EENTRO =        -0.01351394
  eigenvalues    EBANDS =      -143.78013106
  atomic energy  EATOM  =       374.76708025
  Solvation  Ediel_sol  =         0.00000000
  ---------------------------------------------------
  free energy    TOTEN  =       -11.46053047 eV

  energy without entropy =      -11.44701653  energy(sigma->0) =      -11.45602582


--------------------------------------------------------------------------------------------------------




--------------------------------------- Iteration      1(  12)  ---------------------------------------


    POTLOK:  cpu time    2.7397: real time    2.7498
    SETDIJ:  cpu time    0.0241: real time    0.0241
     EDDAV:  cpu time    1.3089: real time    1.3101
       DOS:  cpu time    0.0005: real time    0.0005
    CHARGE:  cpu time    0.2797: real time    0.2798
    MIXING:  cpu time    0.0695: real time    0.0695
    --------------------------------------------
      LOOP:  cpu time    4.4224: real time    4.4338

 eigenvalue-minimisations  :    78
 total energy-change (2. order) :-0.6365968E+00  (-0.1265800E-01)
 number of electron      21.0000001 magnetization       4.2330290
 augmentation part       -0.3763223 magnetization       1.8336100

 Broyden mixing:
  rms(total) = 0.54335E-01    rms(broyden)= 0.54335E-01
  rms(prec ) = 0.56364E-01
  weight for this iteration     100.00

 eigenvalues of (default mixing * dielectric matrix)
  average eigenvalue GAMMA=   1.2165
  2.7719  1.2733  1.2733  1.0858  0.7520  0.6794  0.6794

 Free energy of the ion-electron system (eV)
  ---------------------------------------------------
  alpha Z        PSCENC =        -0.01507758
  Ewald energy   TEWEN  =       359.29194110
  -Hartree energ DENC   =      -638.28632616
  -exchange      EXHF   =         0.00000000
  -V(xc)+E(xc)   XCENC  =      -188.50695463
  PAW double counting   =       725.82394944     -502.28160055
  entropy T*S    EENTRO =        -0.02065926
  eigenvalues    EBANDS =      -142.86947992
  atomic energy  EATOM  =       374.76708025
  Solvation  Ediel_sol  =         0.00000000
  ---------------------------------------------------
  free energy    TOTEN  =       -12.09712730 eV

  energy without entropy =      -12.07646805  energy(sigma->0) =      -12.09024089


--------------------------------------------------------------------------------------------------------




--------------------------------------- Iteration      1(  13)  ---------------------------------------


    POTLOK:  cpu time    2.9346: real time    2.9380
    SETDIJ:  cpu time    0.0281: real time    0.0282
     EDDAV:  cpu time    1.1971: real time    1.1980
       DOS:  cpu time    0.0006: real time    0.0006
    CHARGE:  cpu time    0.3353: real time    0.3356
    MIXING:  cpu time    0.1007: real time    0.1007
    --------------------------------------------
      LOOP:  cpu time    4.5965: real time    4.6010

 eigenvalue-minimisations  :    76
 total energy-change (2. order) :-0.4695942E+00  (-0.6353446E-02)
 number of electron      21.0000001 magnetization       3.8866347
 augmentation part       -0.3757782 magnetization       1.6736748

 Broyden mixing:
  rms(total) = 0.51041E-01    rms(broyden)= 0.51041E-01
  rms(prec ) = 0.53009E-01
  weight for this iteration     100.00

 eigenvalues of (default mixing * dielectric matrix)
  average eigenvalue GAMMA=   1.2548
  3.1316  1.3555  1.3555  1.0610  1.0610  0.7154  0.7154  0.6431

 Free energy of the ion-electron system (eV)
  ---------------------------------------------------
  alpha Z        PSCENC =        -0.01507758
  Ewald energy   TEWEN  =       359.29194110
  -Hartree energ DENC   =      -638.84669140
  -exchange      EXHF   =         0.00000000
  -V(xc)+E(xc)   XCENC  =      -188.86778896
  PAW double counting   =       727.98692915     -504.44044927
  entropy T*S    EENTRO =        -0.02364624
  eigenvalues    EBANDS =      -142.41901854
  atomic energy  EATOM  =       374.76708025
  Solvation  Ediel_sol  =         0.00000000
  ---------------------------------------------------
  free energy    TOTEN  =       -12.56672148 eV

  energy without entropy =      -12.54307524  energy(sigma->0) =      -12.55883940


--------------------------------------------------------------------------------------------------------




--------------------------------------- Iteration      1(  14)  ---------------------------------------


    POTLOK:  cpu time    3.1512: real time    3.1577
    SETDIJ:  cpu time    0.0274: real time    0.0275
     EDDAV:  cpu time    1.1395: real time    1.1409
       DOS:  cpu time    0.0012: real time    0.0012
    CHARGE:  cpu time    0.3435: real time    0.3478
    MIXING:  cpu time    0.1025: real time    0.1026
    --------------------------------------------
      LOOP:  cpu time    4.7652: real time    4.7776

 eigenvalue-minimisations  :    74
 total energy-change (2. order) :-0.3996264E+00  (-0.5382107E-02)
 number of electron      21.0000001 magnetization       3.2241096
 augmentation part       -0.3752884 magnetization       1.2185435

 Broyden mixing:
  rms(total) = 0.47157E-01    rms(broyden)= 0.47157E-01
  rms(prec ) = 0.49174E-01
  weight for this iteration     100.00

 eigenvalues of (default mixing * dielectric matrix)
  average eigenvalue GAMMA=   1.5208
  4.2329  2.1235  2.1235  1.1593  1.1593  0.7819  0.7819  0.7062  0.6187

 Free energy of the ion-electron system (eV)
  ---------------------------------------------------
  alpha Z        PSCENC =        -0.01507758
  Ewald energy   TEWEN  =       359.29194110
  -Hartree energ DENC   =      -639.35043128
  -exchange      EXHF   =         0.00000000
  -V(xc)+E(xc)   XCENC  =      -189.17887155
  PAW double counting   =       729.08359974     -505.53365671
  entropy T*S    EENTRO =        -0.02173920
  eigenvalues    EBANDS =      -142.00919268
  atomic energy  EATOM  =       374.76708025
  Solvation  Ediel_sol  =         0.00000000
  ---------------------------------------------------
  free energy    TOTEN  =       -12.96634791 eV

  energy without entropy =      -12.94460871  energy(sigma->0) =      -12.95910151


--------------------------------------------------------------------------------------------------------




--------------------------------------- Iteration      1(  15)  ---------------------------------------


    POTLOK:  cpu time    2.8819: real time    2.8924
    SETDIJ:  cpu time    0.0252: real time    0.0252
     EDDAV:  cpu time    1.2693: real time    1.2743
       DOS:  cpu time    0.0005: real time    0.0005
    CHARGE:  cpu time    0.3181: real time    0.3184
    MIXING:  cpu time    0.1071: real time    0.1071
    --------------------------------------------
      LOOP:  cpu time    4.6020: real time    4.6179

 eigenvalue-minimisations  :    74
 total energy-change (2. order) :-0.4970104E+00  (-0.1406363E-01)
 number of electron      21.0000001 magnetization       2.5024532
 augmentation part       -0.3746413 magnetization       0.8459659

 Broyden mixing:
  rms(total) = 0.36397E-01    rms(broyden)= 0.36397E-01
  rms(prec ) = 0.38211E-01
  weight for this iteration     100.00

 eigenvalues of (default mixing * dielectric matrix)
  average eigenvalue GAMMA=   1.6709
  5.5755  2.3938  2.3938  1.2805  1.2805  0.8075  0.8075  0.8263  0.7243  0.6193

 Free energy of the ion-electron system (eV)
  ---------------------------------------------------
  alpha Z        PSCENC =        -0.01507758
  Ewald energy   TEWEN  =       359.29194110
  -Hartree energ DENC   =      -640.09512564
  -exchange      EXHF   =         0.00000000
  -V(xc)+E(xc)   XCENC  =      -189.56197895
  PAW double counting   =       730.09843773     -506.54811800
  entropy T*S    EENTRO =        -0.00487000
  eigenvalues    EBANDS =      -141.39564725
  atomic energy  EATOM  =       374.76708025
  Solvation  Ediel_sol  =         0.00000000
  ---------------------------------------------------
  free energy    TOTEN  =       -13.46335832 eV

  energy without entropy =      -13.45848833  energy(sigma->0) =      -13.46173499


--------------------------------------------------------------------------------------------------------




--------------------------------------- Iteration      1(  16)  ---------------------------------------


    POTLOK:  cpu time    2.8950: real time    2.9119
    SETDIJ:  cpu time    0.0247: real time    0.0247
     EDDAV:  cpu time    1.3841: real time    1.3854
       DOS:  cpu time    0.0006: real time    0.0006
    CHARGE:  cpu time    0.3505: real time    0.3507
    MIXING:  cpu time    0.1171: real time    0.1173
    --------------------------------------------
      LOOP:  cpu time    4.7719: real time    4.7904

 eigenvalue-minimisations  :    82
 total energy-change (2. order) :-0.3145367E+00  (-0.1501212E-01)
 number of electron      21.0000001 magnetization       2.1337086
 augmentation part       -0.3743270 magnetization       0.7422462

 Broyden mixing:
  rms(total) = 0.23515E-01    rms(broyden)= 0.23515E-01
  rms(prec ) = 0.24821E-01
  weight for this iteration     100.00

 eigenvalues of (default mixing * dielectric matrix)
  average eigenvalue GAMMA=   1.7736
  7.1819  2.1696  2.0749  2.0749  1.2111  1.2111  0.7974  0.7974  0.6906  0.6906
  0.6102

 Free energy of the ion-electron system (eV)
  ---------------------------------------------------
  alpha Z        PSCENC =        -0.01507758
  Ewald energy   TEWEN  =       359.29194110
  -Hartree energ DENC   =      -640.39005972
  -exchange      EXHF   =         0.00000000
  -V(xc)+E(xc)   XCENC  =      -189.79980440
  PAW double counting   =       727.81129326     -504.25964665
  entropy T*S    EENTRO =         0.02669485
  eigenvalues    EBANDS =      -141.21031619
  atomic energy  EATOM  =       374.76708025
  Solvation  Ediel_sol  =         0.00000000
  ---------------------------------------------------
  free energy    TOTEN  =       -13.77789507 eV

  energy without entropy =      -13.80458992  energy(sigma->0) =      -13.78679335


--------------------------------------------------------------------------------------------------------




--------------------------------------- Iteration      1(  17)  ---------------------------------------


    POTLOK:  cpu time    2.9602: real time    2.9626
    SETDIJ:  cpu time    0.0273: real time    0.0273
     EDDAV:  cpu time    1.1788: real time    1.1798
       DOS:  cpu time    0.0005: real time    0.0005
    CHARGE:  cpu time    0.2918: real time    0.2920
    MIXING:  cpu time    0.1271: real time    0.1272
    --------------------------------------------
      LOOP:  cpu time    4.5857: real time    4.5893

 eigenvalue-minimisations  :    74
 total energy-change (2. order) :-0.2314370E+00  (-0.5962502E-02)
 number of electron      21.0000001 magnetization       1.9812210
 augmentation part       -0.3741560 magnetization       0.6593199

 Broyden mixing:
  rms(total) = 0.17251E-01    rms(broyden)= 0.17251E-01
  rms(prec ) = 0.18311E-01
  weight for this iteration     100.00

 eigenvalues of (default mixing * dielectric matrix)
  average eigenvalue GAMMA=   1.7794
  7.7458  2.1601  2.1601  2.1205  1.3155  1.3155  0.8911  0.8911  0.7553  0.7553
  0.6211  0.6211

 Free energy of the ion-electron system (eV)
  ---------------------------------------------------
  alpha Z        PSCENC =        -0.01507758
  Ewald energy   TEWEN  =       359.29194110
  -Hartree energ DENC   =      -640.28288990
  -exchange      EXHF   =         0.00000000
  -V(xc)+E(xc)   XCENC  =      -189.99741551
  PAW double counting   =       726.45040098     -502.89715185
  entropy T*S    EENTRO =         0.03899055
  eigenvalues    EBANDS =      -141.36521014
  atomic energy  EATOM  =       374.76708025
  Solvation  Ediel_sol  =         0.00000000
  ---------------------------------------------------
  free energy    TOTEN  =       -14.00933210 eV

  energy without entropy =      -14.04832265  energy(sigma->0) =      -14.02232895


--------------------------------------------------------------------------------------------------------




--------------------------------------- Iteration      1(  18)  ---------------------------------------


    POTLOK:  cpu time    2.8681: real time    2.8799
    SETDIJ:  cpu time    0.0254: real time    0.0254
     EDDAV:  cpu time    1.7934: real time    1.7986
       DOS:  cpu time    0.0011: real time    0.0011
    CHARGE:  cpu time    0.3225: real time    0.3226
    MIXING:  cpu time    0.1339: real time    0.1340
    --------------------------------------------
      LOOP:  cpu time    5.1445: real time    5.1616

 eigenvalue-minimisations  :    88
 total energy-change (2. order) :-0.1480922E+00  (-0.1603559E-02)
 number of electron      21.0000001 magnetization       1.7698557
 augmentation part       -0.3740460 magnetization       0.4705139

 Broyden mixing:
  rms(total) = 0.14666E-01    rms(broyden)= 0.14666E-01
  rms(prec ) = 0.15418E-01
  weight for this iteration     100.00

 eigenvalues of (default mixing * dielectric matrix)
  average eigenvalue GAMMA=   1.8048
  8.7099  2.3360  2.3360  1.5080  1.5080  1.5357  1.0084  1.0084  0.7087  0.7087
  0.7391  0.7391  0.6157

 Free energy of the ion-electron system (eV)
  ---------------------------------------------------
  alpha Z        PSCENC =        -0.01507758
  Ewald energy   TEWEN  =       359.29194110
  -Hartree energ DENC   =      -640.12836573
  -exchange      EXHF   =         0.00000000
  -V(xc)+E(xc)   XCENC  =      -190.13705989
  PAW double counting   =       726.56903208     -503.01636823
  entropy T*S    EENTRO =         0.04136605
  eigenvalues    EBANDS =      -141.52997237
  atomic energy  EATOM  =       374.76708025
  Solvation  Ediel_sol  =         0.00000000
  ---------------------------------------------------
  free energy    TOTEN  =       -14.15742432 eV

  energy without entropy =      -14.19879037  energy(sigma->0) =      -14.17121300


--------------------------------------------------------------------------------------------------------




--------------------------------------- Iteration      1(  19)  ---------------------------------------


    POTLOK:  cpu time    2.8667: real time    2.8760
    SETDIJ:  cpu time    0.0260: real time    0.0260
     EDDAV:  cpu time    1.2385: real time    1.2434
       DOS:  cpu time    0.0005: real time    0.0005
    CHARGE:  cpu time    0.3279: real time    0.3280
    MIXING:  cpu time    0.1231: real time    0.1232
    --------------------------------------------
      LOOP:  cpu time    4.5827: real time    4.5973

 eigenvalue-minimisations  :    72
 total energy-change (2. order) :-0.1345493E+00  (-0.1631178E-02)
 number of electron      21.0000001 magnetization       1.5538064
 augmentation part       -0.3740965 magnetization       0.2971348

 Broyden mixing:
  rms(total) = 0.10743E-01    rms(broyden)= 0.10743E-01
  rms(prec ) = 0.11432E-01
  weight for this iteration     100.00

 eigenvalues of (default mixing * dielectric matrix)
  average eigenvalue GAMMA=   1.8535
  9.2530  2.5089  2.5089  1.7077  1.7077  1.7509  1.0813  1.0813  0.8894  0.7766
  0.7766  0.6501  0.6501  0.6068

 Free energy of the ion-electron system (eV)
  ---------------------------------------------------
  alpha Z        PSCENC =        -0.01507758
  Ewald energy   TEWEN  =       359.29194110
  -Hartree energ DENC   =      -639.96542889
  -exchange      EXHF   =         0.00000000
  -V(xc)+E(xc)   XCENC  =      -190.26847740
  PAW double counting   =       726.72758130     -503.17456653
  entropy T*S    EENTRO =         0.04713990
  eigenvalues    EBANDS =      -141.70216582
  atomic energy  EATOM  =       374.76708025
  Solvation  Ediel_sol  =         0.00000000
  ---------------------------------------------------
  free energy    TOTEN  =       -14.29197366 eV

  energy without entropy =      -14.33911356  energy(sigma->0) =      -14.30768696


--------------------------------------------------------------------------------------------------------




--------------------------------------- Iteration      1(  20)  ---------------------------------------


    POTLOK:  cpu time    2.7863: real time    2.7987
    SETDIJ:  cpu time    0.0253: real time    0.0253
     EDDAV:  cpu time    1.2687: real time    1.2699
       DOS:  cpu time    0.0010: real time    0.0010
    CHARGE:  cpu time    0.3241: real time    0.3243
    MIXING:  cpu time    0.1586: real time    0.1587
    --------------------------------------------
      LOOP:  cpu time    4.5640: real time    4.5779

 eigenvalue-minimisations  :    74
 total energy-change (2. order) :-0.1443946E+00  (-0.3212432E-02)
 number of electron      21.0000001 magnetization       1.4620390
 augmentation part       -0.3741307 magnetization       0.2473222

 Broyden mixing:
  rms(total) = 0.82308E-02    rms(broyden)= 0.82308E-02
  rms(prec ) = 0.86365E-02
  weight for this iteration     100.00

 eigenvalues of (default mixing * dielectric matrix)
  average eigenvalue GAMMA=   1.8148
  9.6642  2.5469  2.5469  1.8493  1.8493  1.0852  1.0852  1.2968  1.1631  0.7965
  0.7965  0.6631  0.6631  0.6081  0.6081

 Free energy of the ion-electron system (eV)
  ---------------------------------------------------
  alpha Z        PSCENC =        -0.01507758
  Ewald energy   TEWEN  =       359.29194110
  -Hartree energ DENC   =      -639.58570002
  -exchange      EXHF   =         0.00000000
  -V(xc)+E(xc)   XCENC  =      -190.42036544
  PAW double counting   =       726.32285159     -502.76969897
  entropy T*S    EENTRO =         0.05206138
  eigenvalues    EBANDS =      -142.07946062
  atomic energy  EATOM  =       374.76708025
  Solvation  Ediel_sol  =         0.00000000
  ---------------------------------------------------
  free energy    TOTEN  =       -14.43636829 eV

  energy without entropy =      -14.48842967  energy(sigma->0) =      -14.45372208


--------------------------------------------------------------------------------------------------------




--------------------------------------- Iteration      1(  21)  ---------------------------------------


    POTLOK:  cpu time    2.7837: real time    2.8003
    SETDIJ:  cpu time    0.0253: real time    0.0253
     EDDAV:  cpu time    1.4995: real time    1.5007
       DOS:  cpu time    0.0006: real time    0.0006
    CHARGE:  cpu time    0.3196: real time    0.3198
    MIXING:  cpu time    0.1652: real time    0.1693
    --------------------------------------------
      LOOP:  cpu time    4.7940: real time    4.8160

 eigenvalue-minimisations  :    96
 total energy-change (2. order) :-0.3239095E-01  (-0.6944256E-03)
 number of electron      21.0000001 magnetization       1.4672471
 augmentation part       -0.3740684 magnetization       0.2782785

 Broyden mixing:
  rms(total) = 0.83378E-02    rms(broyden)= 0.83378E-02
  rms(prec ) = 0.87322E-02
  weight for this iteration     100.00

 eigenvalues of (default mixing * dielectric matrix)
  average eigenvalue GAMMA=   1.8831
 10.0333  2.1701  3.0459  2.0146  2.0146  1.8526  1.2962  1.2962  1.1050  1.1050
  0.7915  0.7915  0.6952  0.6952  0.6114  0.6114

 Free energy of the ion-electron system (eV)
  ---------------------------------------------------
  alpha Z        PSCENC =        -0.01507758
  Ewald energy   TEWEN  =       359.29194110
  -Hartree energ DENC   =      -639.50539671
  -exchange      EXHF   =         0.00000000
  -V(xc)+E(xc)   XCENC  =      -190.45220021
  PAW double counting   =       726.30854856     -502.75548699
  entropy T*S    EENTRO =         0.05516797
  eigenvalues    EBANDS =      -142.16333563
  atomic energy  EATOM  =       374.76708025
  Solvation  Ediel_sol  =         0.00000000
  ---------------------------------------------------
  free energy    TOTEN  =       -14.46875923 eV

  energy without entropy =      -14.52392721  energy(sigma->0) =      -14.48714856


--------------------------------------------------------------------------------------------------------




--------------------------------------- Iteration      1(  22)  ---------------------------------------


    POTLOK:  cpu time    2.8877: real time    2.9056
    SETDIJ:  cpu time    0.0205: real time    0.0205
     EDDAV:  cpu time    1.3607: real time    1.3704
       DOS:  cpu time    0.0010: real time    0.0009
    CHARGE:  cpu time    0.3376: real time    0.3419
    MIXING:  cpu time    0.1698: real time    0.1700
    --------------------------------------------
      LOOP:  cpu time    4.7773: real time    4.8094

 eigenvalue-minimisations  :    88
 total energy-change (2. order) : 0.2181202E-02  (-0.3095524E-04)
 number of electron      21.0000001 magnetization       1.4677299
 augmentation part       -0.3740776 magnetization       0.2761917

 Broyden mixing:
  rms(total) = 0.85951E-02    rms(broyden)= 0.85951E-02
  rms(prec ) = 0.89855E-02
  weight for this iteration     100.00

 eigenvalues of (default mixing * dielectric matrix)
  average eigenvalue GAMMA=   1.8076
 10.0123  2.6009  2.9315  2.2980  1.9437  1.9437  1.2822  1.2822  1.0790  1.0790
  0.7882  0.7882  0.6957  0.6957  0.6118  0.6118  0.0850

 Free energy of the ion-electron system (eV)
  ---------------------------------------------------
  alpha Z        PSCENC =        -0.01507758
  Ewald energy   TEWEN  =       359.29194110
  -Hartree energ DENC   =      -639.51445819
  -exchange      EXHF   =         0.00000000
  -V(xc)+E(xc)   XCENC  =      -190.45010925
  PAW double counting   =       726.29998978     -502.74692426
  entropy T*S    EENTRO =         0.05482987
  eigenvalues    EBANDS =      -142.15384975
  atomic energy  EATOM  =       374.76708025
  Solvation  Ediel_sol  =         0.00000000
  ---------------------------------------------------
  free energy    TOTEN  =       -14.46657803 eV

  energy without entropy =      -14.52140790  energy(sigma->0) =      -14.48485465


--------------------------------------------------------------------------------------------------------




--------------------------------------- Iteration      1(  23)  ---------------------------------------


    POTLOK:  cpu time    2.8950: real time    2.9070
    SETDIJ:  cpu time    0.0286: real time    0.0287
     EDDAV:  cpu time    0.8875: real time    0.8883
       DOS:  cpu time    0.0009: real time    0.0009
    --------------------------------------------
      LOOP:  cpu time    3.8121: real time    3.8249

 eigenvalue-minimisations  :    42
 total energy-change (2. order) : 0.8352484E-04  (-0.1008395E-05)
 number of electron      21.0000001 magnetization       1.4677299
 augmentation part       -0.3740776 magnetization       0.2761917

 Free energy of the ion-electron system (eV)
  ---------------------------------------------------
  alpha Z        PSCENC =        -0.01507758
  Ewald energy   TEWEN  =       359.29194110
  -Hartree energ DENC   =      -639.51473518
  -exchange      EXHF   =         0.00000000
  -V(xc)+E(xc)   XCENC  =      -190.45004082
  PAW double counting   =       726.30108941     -502.74802489
  entropy T*S    EENTRO =         0.05479558
  eigenvalues    EBANDS =      -142.15352239
  atomic energy  EATOM  =       374.76708025
  Solvation  Ediel_sol  =         0.00000000
  ---------------------------------------------------
  free energy    TOTEN  =       -14.46649451 eV

  energy without entropy =      -14.52129009  energy(sigma->0) =      -14.48475970


--------------------------------------------------------------------------------------------------------




 average (electrostatic) potential at core
  the test charge radii are     1.0406
  (the norm of the test charge is              1.0000)
       1 -84.3037       2 -83.9713       3 -84.5024       4 -84.7370       5 -85.0333
       6 -84.4431       7 -84.4877
 
 
 
 E-fermi :  -3.9145     XC(G=0):  -0.1856     alpha+bet : -0.1574


 spin component 1

 k-point     1 :       0.0000    0.0000    0.0000
  band No.  band energies     occupation 
      1     -10.9443      1.00000
      2      -9.7378      1.00000
      3      -9.0632      1.00000
      4      -8.0940      1.00000
      5      -6.7117      1.00000
      6      -6.4269      1.00000
      7      -5.4994      1.00000
      8      -4.6783      1.00000
      9      -4.4198      1.00103
     10      -4.1816      1.03383
     11      -4.1202      1.02784
     12      -3.7715      0.03504
     13      -3.4274     -0.00154
     14      -3.0439     -0.00000
     15      -2.8637     -0.00000
     16      -2.2929     -0.00000
     17      -1.8175     -0.00000
     18      -1.6159     -0.00000

 spin component 2

 k-point     1 :       0.0000    0.0000    0.0000
  band No.  band energies     occupation 
      1     -10.7845      1.00000
      2      -9.6395      1.00000
      3      -8.8855      1.00000
      4      -7.9711      1.00000
      5      -6.4496      1.00000
      6      -6.2817      1.00000
      7      -5.3490      1.00000
      8      -4.5863      1.00001
      9      -4.2517      1.01916
     10      -4.0494      0.95063
     11      -3.6733     -0.03540
     12      -3.6283     -0.03059
     13      -3.2626     -0.00002
     14      -2.8877     -0.00000
     15      -2.7020     -0.00000
     16      -2.2342     -0.00000
     17      -1.5643     -0.00000
     18      -1.3850     -0.00000


--------------------------------------------------------------------------------------------------------


 soft charge-density along one line, spin component            1
         0         1         2         3         4         5         6         7         8         9
 total charge-density along one line
 
 soft charge-density along one line, spin component            2
         0         1         2         3         4         5         6         7         8         9
 total charge-density along one line
 
 pseudopotential strength for first ion, spin component:            1
  8.853  15.108  -0.001   0.001  -0.001  -0.002   0.004  -0.001
 15.108  25.780  -0.001   0.002  -0.001  -0.003   0.006  -0.002
 -0.001  -0.001   1.976  -0.001   0.000   5.777  -0.002   0.001
  0.001   0.002  -0.001   1.977  -0.000  -0.002   5.781  -0.001
 -0.001  -0.001   0.000  -0.000   1.975   0.001  -0.001   5.775
 -0.002  -0.003   5.777  -0.002   0.001  16.758  -0.006   0.003
  0.004   0.006  -0.002   5.781  -0.001  -0.006  16.770  -0.003
 -0.001  -0.002   0.001  -0.001   5.775   0.003  -0.003  16.754
 pseudopotential strength for first ion, spin component:            2
  8.850  15.102  -0.000   0.001  -0.001  -0.002   0.002  -0.001
 15.102  25.770  -0.001   0.001  -0.001  -0.003   0.004  -0.001
 -0.000  -0.001   1.975  -0.001   0.000   5.774  -0.002   0.001
  0.001   0.001  -0.001   1.976  -0.000  -0.002   5.778  -0.000
 -0.001  -0.001   0.000  -0.000   1.975   0.001  -0.000   5.773
 -0.002  -0.003   5.774  -0.002   0.001  16.750  -0.007   0.003
  0.002   0.004  -0.002   5.778  -0.000  -0.007  16.761  -0.001
 -0.001  -0.001   0.001  -0.000   5.773   0.003  -0.001  16.745
 total augmentation occupancy for first ion, spin component:            1
  3.004  -0.536   0.091  -0.176  -0.125  -0.011   0.021   0.009
 -0.536   0.154  -0.026   0.057  -0.054   0.003  -0.005   0.001
  0.091  -0.026   0.849   0.179  -0.224  -0.036  -0.005   0.015
 -0.176   0.057   0.179   0.476   0.192  -0.005  -0.020  -0.013
 -0.125  -0.054  -0.224   0.192   1.362   0.015  -0.014  -0.077
 -0.011   0.003  -0.036  -0.005   0.015   0.002   0.000  -0.001
  0.021  -0.005  -0.005  -0.020  -0.014   0.000   0.001   0.001
  0.009   0.001   0.015  -0.013  -0.077  -0.001   0.001   0.005
 total augmentation occupancy for first ion, spin component:            2
  0.120  -0.043  -0.013   0.043  -0.022   0.001  -0.001   0.001
 -0.043   0.011   0.002   0.013   0.001  -0.000  -0.001  -0.000
 -0.013   0.002   0.075   0.085   0.078  -0.003  -0.003  -0.003
  0.043   0.013   0.085   0.039  -0.102  -0.003  -0.001   0.004
 -0.022   0.001   0.078  -0.102   0.065  -0.002   0.003  -0.004
  0.001  -0.000  -0.003  -0.003  -0.002   0.000   0.000   0.000
 -0.001  -0.001  -0.003  -0.001   0.003   0.000   0.000  -0.000
  0.001  -0.000  -0.003   0.004  -0.004   0.000  -0.000   0.000


------------------------ aborting loop because EDIFF is reached ----------------------------------------


    CHARGE:  cpu time    0.3224: real time    0.3225
    FORLOC:  cpu time    0.0676: real time    0.0676
    FORNL :  cpu time    0.2641: real time    0.2642
    FORCOR:  cpu time    2.5403: real time    2.5478
    FORHAR:  cpu time    0.3220: real time    0.3222
    MIXING:  cpu time    0.1767: real time    0.1809
    OFIELD:  cpu time    0.0000: real time    0.0000

 VOLUME and BASIS-vectors are now :
 -----------------------------------------------------------------------------
  energy-cutoff  :      400.00
  volume of cell :    10915.66
      direct lattice vectors                 reciprocal lattice vectors
    24.595230480  0.000000000  0.000000000     0.040658289  0.000000000  0.000000000
     0.000000000 22.354526831  0.000000000     0.000000000  0.044733669  0.000000000
     0.000000000  0.000000000 19.853335785     0.000000000  0.000000000  0.050369369

  length of vectors
    24.595230480 22.354526831 19.853335785     0.040658289  0.044733669  0.050369369


 FORCES acting on ions
    electron-ion (+dipol)            ewald-force                    non-local-force                 convergence-correction
 -----------------------------------------------------------------------------------------------
   0.214E+02 -.313E+01 -.126E+02   -.231E+02 0.394E+01 0.113E+02   0.366E+01 -.123E+01 0.203E+01   -.164E-02 -.378E-02 0.709E-03
   0.146E+02 0.123E+02 -.436E+01   -.133E+02 -.119E+02 0.372E+01   -.158E+01 -.320E-01 0.624E+00   0.742E-03 0.212E-02 0.102E-02
   -.763E+01 -.400E+02 -.238E+02   0.649E+01 0.388E+02 0.227E+02   0.768E+00 0.892E+00 0.801E+00   0.618E-03 -.113E-01 -.593E-02
   0.157E+02 0.408E+02 0.165E+02   -.157E+02 -.400E+02 -.163E+02   0.686E-01 -.853E+00 -.217E+00   0.362E-02 0.116E-01 0.474E-02
   0.327E+02 -.116E+02 0.876E+01   -.342E+02 0.122E+02 -.101E+02   0.363E+00 -.225E+00 0.776E+00   -.464E-02 -.233E-02 -.288E-02
   -.407E+02 0.245E+02 0.784E+01   0.386E+02 -.252E+02 -.816E+01   0.227E+01 0.102E+01 0.346E+00   0.151E-02 0.902E-02 0.244E-02
   -.424E+02 -.241E+02 0.340E+01   0.412E+02 0.221E+02 -.323E+01   0.841E+00 0.158E+01 -.851E-01   -.933E-03 -.708E-02 -.118E-02
 -----------------------------------------------------------------------------------------------
   -.638E+01 -.116E+01 -.428E+01   0.711E-14 0.000E+00 0.888E-15   0.638E+01 0.116E+01 0.427E+01   -.719E-03 -.182E-02 -.107E-02
 
 
 POSITION                                       TOTAL-FORCE (eV/Angst)
 -----------------------------------------------------------------------------------
     10.87664     12.67722     10.48593         1.935954     -0.412372      0.678739
     13.06733     11.10668      9.99180        -0.238175      0.375386     -0.013461
     13.36830     13.62126     11.01665        -0.365393     -0.306969     -0.275435
     13.10966      8.72254      8.85129         0.019226     -0.037512      0.034203
      8.74002     13.44761      9.52526        -1.122339      0.440273     -0.537011
     15.42688      9.82134      9.28796         0.157818      0.351964      0.027822
     15.47640     12.40788      9.88873        -0.387091     -0.410771      0.085143
 -----------------------------------------------------------------------------------
    total drift:                               -0.001079      0.000721     -0.003726


--------------------------------------------------------------------------------------------------------



  FREE ENERGIE OF THE ION-ELECTRON SYSTEM (eV)
  ---------------------------------------------------
  free  energy   TOTEN  =       -14.46649451 eV

  energy  without entropy=      -14.52129009  energy(sigma->0) =      -14.48475970
 


--------------------------------------------------------------------------------------------------------


    POTLOK:  cpu time    2.9225: real time    2.9433


--------------------------------------------------------------------------------------------------------




--------------------------------------------------------------------------------------------------------


    WAVPRE:  cpu time    0.1971: real time    0.3222
    FEWALD:  cpu time    0.0043: real time    0.0043
    ORTHCH:  cpu time    0.0275: real time    0.0275
     LOOP+:  cpu time  100.6777: real time  101.1628


--------------------------------------- Iteration      2(   1)  ---------------------------------------


    POTLOK:  cpu time    2.7032: real time    2.7127
    SETDIJ:  cpu time    0.0137: real time    0.0137
     EDDAV:  cpu time    1.1160: real time    1.1334
       DOS:  cpu time    0.0003: real time    0.0003
    CHARGE:  cpu time    0.3230: real time    0.3314
    MIXING:  cpu time    0.0501: real time    0.0536
    --------------------------------------------
      LOOP:  cpu time    4.2064: real time    4.2450

 eigenvalue-minimisations  :    72
 total energy-change (2. order) :-0.2272672E+00  (-0.2545636E+00)
 number of electron      21.0000001 magnetization       1.4288587
 augmentation part       -0.3734989 magnetization       0.3285111

 Broyden mixing:
  rms(total) = 0.69404E-01    rms(broyden)= 0.69402E-01
  rms(prec ) = 0.81726E-01
  weight for this iteration     100.00

 Free energy of the ion-electron system (eV)
  ---------------------------------------------------
  alpha Z        PSCENC =        -0.01507758
  Ewald energy   TEWEN  =       361.55575414
  -Hartree energ DENC   =      -641.71254698
  -exchange      EXHF   =         0.00000000
  -V(xc)+E(xc)   XCENC  =      -190.41187433
  PAW double counting   =       726.27053668     -502.71752403
  entropy T*S    EENTRO =         0.06674898
  eigenvalues    EBANDS =      -142.49694238
  atomic energy  EATOM  =       374.76708025
  Solvation  Ediel_sol  =         0.00000000
  ---------------------------------------------------
  free energy    TOTEN  =       -14.69384525 eV

  energy without entropy =      -14.76059423  energy(sigma->0) =      -14.71609491


--------------------------------------------------------------------------------------------------------




--------------------------------------- Iteration      2(   2)  ---------------------------------------


    POTLOK:  cpu time    2.8522: real time    2.8780
    SETDIJ:  cpu time    0.0191: real time    0.0192
     EDDAV:  cpu time    1.5683: real time    1.5942
       DOS:  cpu time    0.0005: real time    0.0005
    CHARGE:  cpu time    0.3298: real time    0.3301
    MIXING:  cpu time    0.0471: real time    0.0512
    --------------------------------------------
      LOOP:  cpu time    4.8171: real time    4.8732

 eigenvalue-minimisations  :    96
 total energy-change (2. order) : 0.4200587E-02  (-0.2354160E-01)
 number of electron      21.0000001 magnetization       1.4019467
 augmentation part       -0.3732803 magnetization       0.2930596

 Broyden mixing:
  rms(total) = 0.35514E-01    rms(broyden)= 0.35514E-01
  rms(prec ) = 0.39230E-01
  weight for this iteration     100.00

 eigenvalues of (default mixing * dielectric matrix)
  average eigenvalue GAMMA=   0.7569
  0.7569

 Free energy of the ion-electron system (eV)
  ---------------------------------------------------
  alpha Z        PSCENC =        -0.01507758
  Ewald energy   TEWEN  =       361.55575414
  -Hartree energ DENC   =      -642.28447985
  -exchange      EXHF   =         0.00000000
  -V(xc)+E(xc)   XCENC  =      -190.40353323
  PAW double counting   =       732.38360099     -508.83353699
  entropy T*S    EENTRO =         0.06507333
  eigenvalues    EBANDS =      -141.92452573
  atomic energy  EATOM  =       374.76708025
  Solvation  Ediel_sol  =         0.00000000
  ---------------------------------------------------
  free energy    TOTEN  =       -14.68964466 eV

  energy without entropy =      -14.75471800  energy(sigma->0) =      -14.71133578


--------------------------------------------------------------------------------------------------------




--------------------------------------- Iteration      2(   3)  ---------------------------------------


    POTLOK:  cpu time    2.8386: real time    2.8616
    SETDIJ:  cpu time    0.0167: real time    0.0167
     EDDAV:  cpu time    1.5992: real time    1.6128
       DOS:  cpu time    0.0003: real time    0.0003
    CHARGE:  cpu time    0.2992: real time    0.3035
    MIXING:  cpu time    0.0695: real time    0.0696
    --------------------------------------------
      LOOP:  cpu time    4.8235: real time    4.8646

 eigenvalue-minimisations  :   112
 total energy-change (2. order) : 0.8004721E-03  (-0.3333630E-02)
 number of electron      21.0000001 magnetization       1.3762992
 augmentation part       -0.3728410 magnetization       0.2646247

 Broyden mixing:
  rms(total) = 0.31977E-01    rms(broyden)= 0.31977E-01
  rms(prec ) = 0.32745E-01
  weight for this iteration     100.00

 eigenvalues of (default mixing * dielectric matrix)
  average eigenvalue GAMMA=   0.8287
  0.8287  0.8287

 Free energy of the ion-electron system (eV)
  ---------------------------------------------------
  alpha Z        PSCENC =        -0.01507758
  Ewald energy   TEWEN  =       361.55575414
  -Hartree energ DENC   =      -642.45851888
  -exchange      EXHF   =         0.00000000
  -V(xc)+E(xc)   XCENC  =      -190.40019193
  PAW double counting   =       730.04349765     -506.49365394
  entropy T*S    EENTRO =         0.06348861
  eigenvalues    EBANDS =      -141.75122251
  atomic energy  EATOM  =       374.76708025
  Solvation  Ediel_sol  =         0.00000000
  ---------------------------------------------------
[...]
  alpha Z        PSCENC =        -0.01507758
  Ewald energy   TEWEN  =       516.82160976
  -Hartree energ DENC   =      -794.23868186
  -exchange      EXHF   =         0.00000000
  -V(xc)+E(xc)   XCENC  =      -189.00338816
  PAW double counting   =       795.78966472     -572.25572686
  entropy T*S    EENTRO =         0.00587277
  eigenvalues    EBANDS =      -149.66655363
  atomic energy  EATOM  =       374.76708025
  Solvation  Ediel_sol  =         0.00000000
  ---------------------------------------------------
  free energy    TOTEN  =       -17.79520059 eV

  energy without entropy =      -17.80107336  energy(sigma->0) =      -17.79715818


--------------------------------------------------------------------------------------------------------




--------------------------------------- Iteration    145(   5)  ---------------------------------------


    POTLOK:  cpu time    2.7886: real time    2.8168
    SETDIJ:  cpu time    0.0204: real time    0.0205
     EDDAV:  cpu time    1.0048: real time    1.0058
       DOS:  cpu time    0.0009: real time    0.0009
    CHARGE:  cpu time    0.3304: real time    0.3306
    MIXING:  cpu time    0.0582: real time    0.0582
    --------------------------------------------
      LOOP:  cpu time    4.2033: real time    4.2329

 eigenvalue-minimisations  :    52
 total energy-change (2. order) :-0.2536677E-03  (-0.9464208E-06)
 number of electron      21.0000002 magnetization       1.0000723
 augmentation part       -0.3553061 magnetization      -0.0005748

 Broyden mixing:
  rms(total) = 0.20456E-03    rms(broyden)= 0.20456E-03
  rms(prec ) = 0.24314E-03
  weight for this iteration     100.00

 eigenvalues of (default mixing * dielectric matrix)
  average eigenvalue GAMMA=   1.5113
  2.9423  1.6453  0.8419  0.6157

 Free energy of the ion-electron system (eV)
  ---------------------------------------------------
  alpha Z        PSCENC =        -0.01507758
  Ewald energy   TEWEN  =       516.82160976
  -Hartree energ DENC   =      -794.24032331
  -exchange      EXHF   =         0.00000000
  -V(xc)+E(xc)   XCENC  =      -189.00341204
  PAW double counting   =       795.91474974     -572.38087491
  entropy T*S    EENTRO =         0.00587275
  eigenvalues    EBANDS =      -149.66507893
  atomic energy  EATOM  =       374.76708025
  Solvation  Ediel_sol  =         0.00000000
  ---------------------------------------------------
  free energy    TOTEN  =       -17.79545426 eV

  energy without entropy =      -17.80132701  energy(sigma->0) =      -17.79741184


--------------------------------------------------------------------------------------------------------




--------------------------------------- Iteration    145(   6)  ---------------------------------------


    POTLOK:  cpu time    2.7807: real time    2.8024
    SETDIJ:  cpu time    0.0158: real time    0.0158
     EDDAV:  cpu time    0.8311: real time    0.8439
       DOS:  cpu time    0.0004: real time    0.0004
    CHARGE:  cpu time    0.3171: real time    0.3173
    MIXING:  cpu time    0.0610: real time    0.0611
    --------------------------------------------
      LOOP:  cpu time    4.0061: real time    4.0409

 eigenvalue-minimisations  :    46
 total energy-change (2. order) :-0.2394084E-03  (-0.5847071E-06)
 number of electron      21.0000002 magnetization       1.0000723
 augmentation part       -0.3553057 magnetization      -0.0005743

 Broyden mixing:
  rms(total) = 0.13211E-03    rms(broyden)= 0.13211E-03
  rms(prec ) = 0.16080E-03
  weight for this iteration     100.00

 eigenvalues of (default mixing * dielectric matrix)
  average eigenvalue GAMMA=   1.5895
  3.6193  2.0053  1.0228  0.6706  0.6295

 Free energy of the ion-electron system (eV)
  ---------------------------------------------------
  alpha Z        PSCENC =        -0.01507758
  Ewald energy   TEWEN  =       516.82160976
  -Hartree energ DENC   =      -794.24036315
  -exchange      EXHF   =         0.00000000
  -V(xc)+E(xc)   XCENC  =      -189.00357612
  PAW double counting   =       795.92264769     -572.38876116
  entropy T*S    EENTRO =         0.00587267
  eigenvalues    EBANDS =      -149.66512603
  atomic energy  EATOM  =       374.76708025
  Solvation  Ediel_sol  =         0.00000000
  ---------------------------------------------------
  free energy    TOTEN  =       -17.79569367 eV

  energy without entropy =      -17.80156633  energy(sigma->0) =      -17.79765122


--------------------------------------------------------------------------------------------------------




--------------------------------------- Iteration    145(   7)  ---------------------------------------


    POTLOK:  cpu time    2.7967: real time    2.8018
    SETDIJ:  cpu time    0.0247: real time    0.0247
     EDDAV:  cpu time    0.9599: real time    0.9607
       DOS:  cpu time    0.0041: real time    0.0041
    CHARGE:  cpu time    0.3459: real time    0.3461
    MIXING:  cpu time    0.0954: real time    0.0954
    --------------------------------------------
      LOOP:  cpu time    4.2266: real time    4.2329

 eigenvalue-minimisations  :    48
 total energy-change (2. order) :-0.1592679E-03  (-0.3523869E-06)
 number of electron      21.0000002 magnetization       1.0000722
 augmentation part       -0.3553056 magnetization      -0.0005739

 Broyden mixing:
  rms(total) = 0.96148E-04    rms(broyden)= 0.96148E-04
  rms(prec ) = 0.11774E-03
  weight for this iteration     100.00

 eigenvalues of (default mixing * dielectric matrix)
  average eigenvalue GAMMA=   1.7559
  4.8685  2.2625  1.0905  1.0905  0.6265  0.5967

 Free energy of the ion-electron system (eV)
  ---------------------------------------------------
  alpha Z        PSCENC =        -0.01507758
  Ewald energy   TEWEN  =       516.82160976
  -Hartree energ DENC   =      -794.24053856
  -exchange      EXHF   =         0.00000000
  -V(xc)+E(xc)   XCENC  =      -189.00370679
  PAW double counting   =       795.91187227     -572.37797242
  entropy T*S    EENTRO =         0.00587263
  eigenvalues    EBANDS =      -149.66499250
  atomic energy  EATOM  =       374.76708025
  Solvation  Ediel_sol  =         0.00000000
  ---------------------------------------------------
  free energy    TOTEN  =       -17.79585293 eV

  energy without entropy =      -17.80172557  energy(sigma->0) =      -17.79781048


--------------------------------------------------------------------------------------------------------




--------------------------------------- Iteration    145(   8)  ---------------------------------------


    POTLOK:  cpu time    2.9033: real time    2.9225
    SETDIJ:  cpu time    0.0231: real time    0.0232
     EDDAV:  cpu time    1.1177: real time    1.1198
       DOS:  cpu time    0.0048: real time    0.0048
    CHARGE:  cpu time    0.3308: real time    0.3351
    MIXING:  cpu time    0.0735: real time    0.0736
    --------------------------------------------
      LOOP:  cpu time    4.4533: real time    4.4790

 eigenvalue-minimisations  :    60
 total energy-change (2. order) :-0.2025485E-03  (-0.6221575E-06)
 number of electron      21.0000002 magnetization       1.0000722
 augmentation part       -0.3553057 magnetization      -0.0005732

 Broyden mixing:
  rms(total) = 0.63084E-04    rms(broyden)= 0.63084E-04
  rms(prec ) = 0.73446E-04
  weight for this iteration     100.00

 eigenvalues of (default mixing * dielectric matrix)
  average eigenvalue GAMMA=   1.6968
  5.2236  2.3650  1.2198  1.0970  0.7784  0.6255  0.5682

 Free energy of the ion-electron system (eV)
  ---------------------------------------------------
  alpha Z        PSCENC =        -0.01507758
  Ewald energy   TEWEN  =       516.82160976
  -Hartree energ DENC   =      -794.24105509
  -exchange      EXHF   =         0.00000000
  -V(xc)+E(xc)   XCENC  =      -189.00388636
  PAW double counting   =       795.89648986     -572.36257562
  entropy T*S    EENTRO =         0.00587257
  eigenvalues    EBANDS =      -149.66451328
  atomic energy  EATOM  =       374.76708025
  Solvation  Ediel_sol  =         0.00000000
  ---------------------------------------------------
  free energy    TOTEN  =       -17.79605548 eV

  energy without entropy =      -17.80192806  energy(sigma->0) =      -17.79801301


--------------------------------------------------------------------------------------------------------




--------------------------------------- Iteration    145(   9)  ---------------------------------------


    POTLOK:  cpu time    2.7142: real time    2.7215
    SETDIJ:  cpu time    0.0164: real time    0.0165
     EDDAV:  cpu time    0.8090: real time    0.8218
       DOS:  cpu time    0.0036: real time    0.0036
    --------------------------------------------
      LOOP:  cpu time    3.5432: real time    3.5634

 eigenvalue-minimisations  :    48
 total energy-change (2. order) :-0.5298171E-04  (-0.8988548E-07)
 number of electron      21.0000002 magnetization       1.0000722
 augmentation part       -0.3553057 magnetization      -0.0005732

 Free energy of the ion-electron system (eV)
  ---------------------------------------------------
  alpha Z        PSCENC =        -0.01507758
  Ewald energy   TEWEN  =       516.82160976
  -Hartree energ DENC   =      -794.24117005
  -exchange      EXHF   =         0.00000000
  -V(xc)+E(xc)   XCENC  =      -189.00394927
  PAW double counting   =       795.89230300     -572.35838887
  entropy T*S    EENTRO =         0.00587257
  eigenvalues    EBANDS =      -149.66438826
  atomic energy  EATOM  =       374.76708025
  Solvation  Ediel_sol  =         0.00000000
  ---------------------------------------------------
  free energy    TOTEN  =       -17.79610846 eV

  energy without entropy =      -17.80198103  energy(sigma->0) =      -17.79806599


--------------------------------------------------------------------------------------------------------




 average (electrostatic) potential at core
  the test charge radii are     1.0406
  (the norm of the test charge is              1.0000)
       1 -84.4107       2 -84.3654       3 -84.5220       4 -84.3639       5 -84.6040
       6 -84.5077       7 -84.5211
 
 
 
 E-fermi :  -4.0018     XC(G=0):  -0.2937     alpha+bet : -0.1574


 spin component 1

 k-point     1 :       0.0000    0.0000    0.0000
  band No.  band energies     occupation 
      1     -12.3140      1.00000
      2      -9.6714      1.00000
      3      -8.9179      1.00000
      4      -8.8426      1.00000
      5      -6.6335      1.00000
      6      -6.0075      1.00000
      7      -5.9201      1.00000
      8      -5.0486      1.00000
      9      -4.9645      1.00000
     10      -4.9540      1.00000
     11      -4.1703      1.00009
     12      -3.3824     -0.00005
     13      -3.2394     -0.00000
     14      -2.9965     -0.00000
     15      -2.3926     -0.00000
     16      -2.2893     -0.00000
     17      -1.6599     -0.00000
     18      -0.8575     -0.00000

 spin component 2

 k-point     1 :       0.0000    0.0000    0.0000
  band No.  band energies     occupation 
      1     -12.2037      1.00000
      2      -9.4510      1.00000
      3      -8.8616      1.00000
      4      -8.8028      1.00000
      5      -6.2658      1.00000
      6      -5.9279      1.00000
      7      -5.8672      1.00000
      8      -5.0014      1.00000
      9      -4.9238      1.00000
     10      -4.9146      1.00000
     11      -3.3686     -0.00004
     12      -3.2088     -0.00000
     13      -3.1638     -0.00000
     14      -2.9399     -0.00000
     15      -2.2854     -0.00000
     16      -2.2127     -0.00000
     17      -1.6536     -0.00000
     18      -0.8203     -0.00000


--------------------------------------------------------------------------------------------------------


 soft charge-density along one line, spin component            1
         0         1         2         3         4         5         6         7         8         9
 total charge-density along one line
 
 soft charge-density along one line, spin component            2
         0         1         2         3         4         5         6         7         8         9
 total charge-density along one line
 
 pseudopotential strength for first ion, spin component:            1
  8.851  15.104   0.003   0.002  -0.003   0.009   0.005  -0.008
 15.104  25.774   0.005   0.003  -0.004   0.015   0.008  -0.013
  0.003   0.005   1.974   0.000  -0.001   5.772   0.001  -0.001
  0.002   0.003   0.000   1.974  -0.000   0.001   5.771  -0.001
 -0.003  -0.004  -0.001  -0.000   1.974  -0.001  -0.001   5.771
  0.009   0.015   5.772   0.001  -0.001  16.747   0.002  -0.004
  0.005   0.008   0.001   5.771  -0.001   0.002  16.744  -0.003
 -0.008  -0.013  -0.001  -0.001   5.771  -0.004  -0.003  16.743
 pseudopotential strength for first ion, spin component:            2
  8.851  15.103   0.003   0.002  -0.003   0.009   0.005  -0.008
 15.103  25.773   0.005   0.003  -0.004   0.016   0.009  -0.013
  0.003   0.005   1.974   0.000  -0.001   5.772   0.001  -0.002
  0.002   0.003   0.000   1.973  -0.000   0.001   5.771  -0.001
 -0.003  -0.004  -0.001  -0.000   1.973  -0.002  -0.001   5.771
  0.009   0.016   5.772   0.001  -0.002  16.746   0.002  -0.005
  0.005   0.009   0.001   5.771  -0.001   0.002  16.743  -0.004
 -0.008  -0.013  -0.002  -0.001   5.771  -0.005  -0.004  16.742
 total augmentation occupancy for first ion, spin component:            1
  2.980  -0.541  -0.292  -0.181   0.200   0.044   0.027  -0.031
 -0.541   0.166   0.168   0.107  -0.097  -0.014  -0.009   0.009
 -0.292   0.168   0.772  -0.041   0.107  -0.041   0.001  -0.004
 -0.181   0.107  -0.041   0.848   0.112   0.001  -0.043  -0.006
  0.200  -0.097   0.107   0.112   0.991  -0.003  -0.006  -0.058
  0.044  -0.014  -0.041   0.001  -0.003   0.003   0.000  -0.000
  0.027  -0.009   0.001  -0.043  -0.006   0.000   0.003   0.000
 -0.031   0.009  -0.004  -0.006  -0.058  -0.000   0.000   0.004
 total augmentation occupancy for first ion, spin component:            2
  0.011  -0.005  -0.014  -0.011  -0.001   0.001   0.001  -0.000
 -0.005   0.001  -0.001  -0.002  -0.003  -0.000  -0.000   0.000
 -0.014  -0.001  -0.005   0.015   0.040  -0.000  -0.001  -0.001
 -0.011  -0.002   0.015   0.009   0.039  -0.001  -0.001  -0.001
 -0.001  -0.003   0.040   0.039   0.025  -0.002  -0.001  -0.001
  0.001  -0.000  -0.000  -0.001  -0.002   0.000   0.000   0.000
  0.001  -0.000  -0.001  -0.001  -0.001   0.000   0.000   0.000
 -0.000   0.000  -0.001  -0.001  -0.001   0.000   0.000   0.000


------------------------ aborting loop because EDIFF is reached ----------------------------------------


    CHARGE:  cpu time    0.2852: real time    0.2855
    FORLOC:  cpu time    0.0505: real time    0.0505
    FORNL :  cpu time    0.2539: real time    0.2541
    FORCOR:  cpu time    2.6607: real time    2.6789
    FORHAR:  cpu time    0.3551: real time    0.3554
    MIXING:  cpu time    0.0848: real time    0.0849
    OFIELD:  cpu time    0.0000: real time    0.0000

 VOLUME and BASIS-vectors are now :
 -----------------------------------------------------------------------------
  energy-cutoff  :      400.00
  volume of cell :    10915.66
      direct lattice vectors                 reciprocal lattice vectors
    24.595230480  0.000000000  0.000000000     0.040658289  0.000000000  0.000000000
     0.000000000 22.354526831  0.000000000     0.000000000  0.044733669  0.000000000
     0.000000000  0.000000000 19.853335785     0.000000000  0.000000000  0.050369369

  length of vectors
    24.595230480 22.354526831 19.853335785     0.040658289  0.044733669  0.050369369


 FORCES acting on ions
    electron-ion (+dipol)            ewald-force                    non-local-force                 convergence-correction
 -----------------------------------------------------------------------------------------------
   0.265E+02 -.494E+02 -.316E+02   -.246E+02 0.475E+02 0.305E+02   -.186E+01 0.191E+01 0.110E+01   -.760E-04 -.179E-04 -.692E-04
   0.879E+01 -.419E+01 0.638E+02   -.793E+01 0.418E+01 -.610E+02   -.878E+00 0.469E-01 -.286E+01   -.245E-05 0.259E-04 0.132E-03
   -.301E+02 0.785E+01 -.608E+02   0.274E+02 -.771E+01 0.578E+02   0.278E+01 -.126E+00 0.304E+01   -.340E-04 -.181E-04 -.517E-04
   0.279E+02 0.565E+02 -.157E+02   -.263E+02 -.541E+02 0.154E+02   -.163E+01 -.248E+01 0.384E+00   0.196E-04 0.118E-03 0.359E-05
   0.623E+02 -.371E+01 0.120E+02   -.601E+02 0.370E+01 -.115E+02   -.228E+01 -.814E-02 -.553E+00   0.179E-03 0.911E-04 0.109E-03
   -.511E+02 0.421E+02 0.202E+02   0.478E+02 -.398E+02 -.192E+02   0.330E+01 -.232E+01 -.984E+00   0.582E-04 -.373E-04 -.174E-04
   -.472E+02 -.484E+02 0.121E+02   0.437E+02 0.463E+02 -.120E+02   0.348E+01 0.213E+01 -.371E-01   -.476E-04 -.169E-04 -.346E-05
 -----------------------------------------------------------------------------------------------
   -.290E+01 0.839E+00 -.101E+00   0.000E+00 -.711E-14 -.355E-14   0.290E+01 -.839E+00 0.102E+00   0.966E-04 0.144E-03 0.103E-03
 
 
 POSITION                                       TOTAL-FORCE (eV/Angst)
 -----------------------------------------------------------------------------------
     12.15715     13.09720     10.77852        -0.010483     -0.020057     -0.002749
     12.65583     11.78992      8.10838        -0.018379      0.032348     -0.009956
     13.87515     11.41103     11.70054         0.029876      0.017792      0.022846
     12.13451     10.13547     10.29927        -0.018044     -0.005061     -0.004250
     10.31701     11.82999      9.36278         0.001085     -0.020969     -0.011137
     14.54143     10.43315      9.29783        -0.018653     -0.006782      0.012326
     14.38414     13.10776      9.50032         0.034598      0.002728     -0.007079
 -----------------------------------------------------------------------------------
    total drift:                               -0.000163     -0.000329      0.000510


--------------------------------------------------------------------------------------------------------



  FREE ENERGIE OF THE ION-ELECTRON SYSTEM (eV)
  ---------------------------------------------------
  free  energy   TOTEN  =       -17.79610846 eV

  energy  without entropy=      -17.80198103  energy(sigma->0) =      -17.79806599
 
 d Force = 0.9704319E-04[ 0.793E-04, 0.115E-03]  d Energy = 0.1644934E-02-0.155E-02
 d Force =-0.1290781E+00[-0.129E+00,-0.129E+00]  d Ewald  =-0.1290781E+00-0.207E-08


--------------------------------------------------------------------------------------------------------


    POTLOK:  cpu time    2.6721: real time    2.7028


--------------------------------------------------------------------------------------------------------




--------------------------------------------------------------------------------------------------------


  
 reached required accuracy - stopping structural energy minimisation
     LOOP+:  cpu time   45.9258: real time   46.2428
    4ORBIT:  cpu time    0.0000: real time    0.0000

 total amount of memory used by VASP MPI-rank0   196297. kBytes
=======================================================================

   base      :      30000. kBytes
   nonl-proj :       2184. kBytes
   fftplans  :      48148. kBytes
   grid      :     108810. kBytes
   one-center:          3. kBytes
   wavefun   :       7152. kBytes
 
  
  
 General timing and accounting informations for this job:
 ========================================================
  
                  Total CPU time used (sec):     6250.865
                            User time (sec):     6142.326
                          System time (sec):      108.539
                         Elapsed time (sec):     6322.936
  
                   Maximum memory used (kb):      400740.
                   Average memory used (kb):           0.
  
                          Minor page faults:     40193520
                          Major page faults:       167354
                 Voluntary context switches:         4976
