unknown system                          
            1
    24.595230    0.000000    0.000000
     0.000000   22.354527    0.000000
     0.000000    0.000000   19.853336
   Al
     7
Direct configuration=     1
   0.44222538  0.56709839  0.52816972
   0.53129541  0.49684243  0.50328077
   0.54353213  0.60932890  0.55490173
   0.53301618  0.39019125  0.44583390
   0.35535416  0.60156111  0.47978156
   0.62723047  0.43934446  0.46782871
   0.62924403  0.55504992  0.49808912
Direct configuration=     2
   0.44602268  0.56620846  0.52981903
   0.53082824  0.49765254  0.50324806
   0.54281542  0.60866644  0.55423243
   0.53305390  0.39011030  0.44591701
   0.35315273  0.60251126  0.47847665
   0.62754002  0.44010403  0.46789632
   0.62848476  0.55416345  0.49829601
Direct configuration=     3
   0.44643949  0.56611078  0.53000006
   0.53077696  0.49774147  0.50324447
   0.54273675  0.60859372  0.55415897
   0.53305803  0.39010141  0.44592613
   0.35291109  0.60261555  0.47833341
   0.62757400  0.44018740  0.46790374
   0.62840142  0.55406614  0.49831872
Direct configuration=     4
   0.44727312  0.56591541  0.53036213
   0.53067440  0.49791931  0.50323729
   0.54257941  0.60844829  0.55401204
   0.53306631  0.39008364  0.44594438
   0.35242781  0.60282413  0.47804695
   0.62764196  0.44035415  0.46791858
   0.62823474  0.55387154  0.49836414
Direct configuration=     5
   0.44894036  0.56552468  0.53108628
   0.53046928  0.49827500  0.50322293
   0.54226474  0.60815743  0.55371818
   0.53308287  0.39004810  0.44598087
   0.35146125  0.60324130  0.47747401
   0.62777787  0.44068764  0.46794826
   0.62790138  0.55348232  0.49845498
Direct configuration=     6
   0.44798719  0.56574806  0.53067228
   0.53058655  0.49807165  0.50323114
   0.54244464  0.60832372  0.55388618
   0.53307341  0.39006842  0.44596001
   0.35201384  0.60300280  0.47780156
   0.62770017  0.44049698  0.46793129
   0.62809196  0.55370484  0.49840304
Direct configuration=     7
   0.44805219  0.56602600  0.53088799
   0.53084443  0.49785000  0.50280776
   0.54280461  0.60822902  0.55364212
   0.53325221  0.39002410  0.44610246
   0.35193900  0.60306994  0.47778799
   0.62777210  0.44089005  0.46790706
   0.62723320  0.55332736  0.49875013
Direct configuration=     8
   0.44818076  0.56657568  0.53131460
   0.53135446  0.49741165  0.50197043
   0.54351654  0.60804173  0.55315942
   0.53360583  0.38993645  0.44638419
   0.35179100  0.60320271  0.47776114
   0.62791437  0.44166743  0.46785913
   0.62553480  0.55258081  0.49943659
Direct configuration=     9
   0.44831630  0.56700120  0.53144561
   0.53076756  0.49734518  0.50158181
   0.54355204  0.60802795  0.55305458
   0.53399795  0.38971684  0.44656649
   0.35187680  0.60322393  0.47787448
   0.62819303  0.44177769  0.46761727
   0.62519406  0.55232368  0.49974526
Direct configuration=    10
   0.44872293  0.56827776  0.53183863
   0.52900688  0.49714576  0.50041595
   0.54365857  0.60798660  0.55274007
   0.53517431  0.38905800  0.44711342
   0.35213422  0.60328759  0.47821447
   0.62902902  0.44210847  0.46689168
   0.62417183  0.55155229  0.50067128
Direct configuration=    11
   0.44953619  0.57083087  0.53262466
   0.52548551  0.49674692  0.49808422
   0.54387162  0.60790390  0.55211105
   0.53752701  0.38774032  0.44820727
   0.35264905  0.60341491  0.47889447
   0.63070099  0.44277003  0.46544051
   0.62212738  0.55000951  0.50252331
Direct configuration=    12
   0.44895943  0.56902023  0.53206721
   0.52798283  0.49702977  0.49973786
   0.54372053  0.60796255  0.55255715
   0.53585850  0.38867481  0.44743152
   0.35228393  0.60332462  0.47841222
   0.62951524  0.44230086  0.46646967
   0.62357729  0.55110364  0.50120986
Direct configuration=    13
   0.44828469  0.56982752  0.53215412
   0.52736290  0.49675938  0.49891485
   0.54363784  0.60834793  0.55295235
   0.53657530  0.38828892  0.44785149
   0.35249674  0.60331478  0.47865884
   0.62972187  0.44222103  0.46595526
   0.62381840  0.55065690  0.50139858
Direct configuration=    14
   0.44819656  0.56993297  0.53216547
   0.52728193  0.49672407  0.49880736
   0.54362704  0.60839827  0.55300397
   0.53666893  0.38823851  0.44790634
   0.35252454  0.60331350  0.47869106
   0.62974886  0.44221061  0.46588807
   0.62384989  0.55059855  0.50142323
Direct configuration=    15
   0.44816413  0.57002701  0.53227253
   0.52723198  0.49708127  0.49848747
   0.54355492  0.60837522  0.55325773
   0.53688636  0.38792916  0.44817703
   0.35227848  0.60340815  0.47860444
   0.62973460  0.44206780  0.46556644
   0.62404728  0.55052786  0.50151985
Direct configuration=    16
   0.44811164  0.57017922  0.53244579
   0.52715113  0.49765935  0.49796978
   0.54343821  0.60833792  0.55366842
   0.53723826  0.38742852  0.44861510
   0.35188025  0.60356132  0.47846427
   0.62971154  0.44183669  0.46504593
   0.62436673  0.55041345  0.50167621
Direct configuration=    17
   0.44798307  0.57025325  0.53247243
   0.52723723  0.49779566  0.49759750
   0.54352442  0.60825639  0.55387892
   0.53728244  0.38724847  0.44891874
   0.35170703  0.60362199  0.47841176
   0.62972717  0.44187988  0.46482129
   0.62443639  0.55036083  0.50178486
Direct configuration=    18
   0.44759737  0.57047534  0.53255233
   0.52749555  0.49820461  0.49648065
   0.54378304  0.60801179  0.55451042
   0.53741499  0.38670833  0.44982965
   0.35118736  0.60380398  0.47825424
   0.62977408  0.44200944  0.46414739
   0.62464535  0.55020299  0.50211082
Direct configuration=    19
   0.44769546  0.57052206  0.53244122
   0.52751478  0.49820262  0.49604558
   0.54379322  0.60773049  0.55468691
   0.53731536  0.38672948  0.45027678
   0.35109371  0.60382625  0.47824958
   0.62981467  0.44223689  0.46396031
   0.62467054  0.55016867  0.50222511
Direct configuration=    20
   0.44798972  0.57066221  0.53210789
   0.52757248  0.49819667  0.49474039
   0.54382376  0.60688660  0.55521638
   0.53701647  0.38679294  0.45161816
   0.35081277  0.60389309  0.47823561
   0.62993644  0.44291925  0.46339906
   0.62474613  0.55006571  0.50256801
Direct configuration=    21
   0.44783988  0.57064711  0.53169113
   0.52740978  0.49856272  0.49463643
   0.54393464  0.60661573  0.55545515
   0.53720398  0.38685211  0.45196844
   0.35099065  0.60380783  0.47837384
   0.62977739  0.44260392  0.46307636
   0.62474144  0.55032705  0.50268415
Direct configuration=    22
   0.44781652  0.57064476  0.53162614
   0.52738441  0.49861980  0.49462021
   0.54395193  0.60657350  0.55549239
   0.53723322  0.38686133  0.45202306
   0.35101838  0.60379453  0.47839540
   0.62975259  0.44255475  0.46302604
   0.62474070  0.55036780  0.50270226
Direct configuration=    23
   0.44785369  0.57068619  0.53123885
   0.52729082  0.49884972  0.49435485
   0.54383346  0.60633357  0.55590450
   0.53727227  0.38688339  0.45249818
   0.35109642  0.60374004  0.47848308
   0.62967604  0.44265182  0.46276571
   0.62487506  0.55027176  0.50264033
Direct configuration=    24
   0.44796520  0.57081047  0.53007697
   0.52701005  0.49953948  0.49355874
   0.54347804  0.60561378  0.55714085
   0.53738943  0.38694955  0.45392356
   0.35133053  0.60357654  0.47874613
   0.62944638  0.44294302  0.46198469
   0.62527812  0.54998363  0.50245454
Direct configuration=    25
   0.44798923  0.57085446  0.52988295
   0.52703688  0.49957727  0.49332118
   0.54349076  0.60545356  0.55740632
   0.53737610  0.38697361  0.45425296
   0.35130594  0.60356980  0.47875838
   0.62942097  0.44301571  0.46180517
   0.62527788  0.54997206  0.50245852
Direct configuration=    26
   0.44806131  0.57098642  0.52930087
   0.52711737  0.49969063  0.49260850
   0.54352891  0.60497292  0.55820273
   0.53733612  0.38704581  0.45524116
   0.35123217  0.60354958  0.47879513
   0.62934472  0.44323377  0.46126663
   0.62527716  0.54993735  0.50247047
Direct configuration=    27
   0.44820547  0.57125035  0.52813672
   0.52727833  0.49991736  0.49118315
   0.54360521  0.60401162  0.55979556
   0.53725615  0.38719020  0.45721755
   0.35108462  0.60350913  0.47886862
   0.62919224  0.44366990  0.46018954
   0.62527572  0.54986792  0.50249435
Direct configuration=    28
   0.44849380  0.57177819  0.52580842
   0.52760027  0.50037081  0.48833244
   0.54375781  0.60208904  0.56298120
   0.53709622  0.38747898  0.46117033
   0.35078954  0.60342823  0.47901561
   0.62888728  0.44454216  0.45803536
   0.62527284  0.54972907  0.50254213
Direct configuration=    29
   0.44907046  0.57283389  0.52115182
   0.52824414  0.50127771  0.48263102
   0.54406301  0.59824387  0.56935249
   0.53677636  0.38805654  0.46907590
   0.35019937  0.60326642  0.47930959
   0.62827736  0.44628668  0.45372700
   0.62526707  0.54945136  0.50263768
Direct configuration=    30
   0.44873433  0.57221853  0.52386612
   0.52786883  0.50074908  0.48595434
   0.54388511  0.60048519  0.56563871
   0.53696280  0.38771989  0.46446780
   0.35054337  0.60336074  0.47913823
   0.62863288  0.44526981  0.45623832
   0.62527043  0.54961323  0.50258198
Direct configuration=    31
   0.44881586  0.57227398  0.52365193
   0.52788144  0.50084154  0.48568435
   0.54388893  0.60025156  0.56594240
   0.53697041  0.38773496  0.46486800
   0.35047750  0.60336499  0.47913543
   0.62860022  0.44532404  0.45601090
   0.62526339  0.54962540  0.50259249
Direct configuration=    32
   0.44906047  0.57244031  0.52300936
   0.52791927  0.50111893  0.48487438
   0.54390041  0.59955068  0.56685347
   0.53699323  0.38778017  0.46606858
   0.35027987  0.60337774  0.47912702
   0.62850225  0.44548674  0.45532865
   0.62524226  0.54966191  0.50262402
Direct configuration=    33
   0.44954968  0.57277298  0.52172423
   0.52799492  0.50167369  0.48325444
   0.54392337  0.59814891  0.56867562
   0.53703886  0.38787059  0.46846976
   0.34988462  0.60340325  0.47911022
   0.62830630  0.44581212  0.45396415
   0.62520002  0.54973493  0.50268709
Direct configuration=    34
   0.45052809  0.57343831  0.51915396
   0.52814621  0.50278323  0.48001456
   0.54396929  0.59534537  0.57231991
   0.53713013  0.38805143  0.47327211
   0.34909411  0.60345425  0.47907660
   0.62791440  0.44646290  0.45123515
   0.62511552  0.54988097  0.50281321
Direct configuration=    35
   0.45070666  0.57356200  0.51916331
   0.52808218  0.50297819  0.47999188
   0.54387055  0.59496991  0.57226714
   0.53733244  0.38810546  0.47342632
   0.34899286  0.60348811  0.47904573
   0.62779920  0.44634566  0.45120380
   0.62511386  0.54996714  0.50278731
Direct configuration=    36
   0.45124234  0.57393307  0.51919137
   0.52789009  0.50356307  0.47992384
   0.54357433  0.59384351  0.57210884
   0.53793938  0.38826756  0.47388895
   0.34868911  0.60358968  0.47895313
   0.62745362  0.44599394  0.45110975
   0.62510889  0.55022564  0.50270961
Direct configuration=    37
   0.45231371  0.57467521  0.51924748
   0.52750591  0.50473282  0.47978777
   0.54298189  0.59159073  0.57179224
   0.53915325  0.38859175  0.47481420
   0.34808160  0.60379283  0.47876791
   0.62676245  0.44529049  0.45092166
   0.62509894  0.55074264  0.50255422
Direct configuration=    38
   0.45154727  0.57414429  0.51920734
   0.52778074  0.50389600  0.47988512
   0.54340571  0.59320233  0.57201873
   0.53828487  0.38835983  0.47415229
   0.34851620  0.60364750  0.47890041
   0.62725690  0.44579372  0.45105622
   0.62510606  0.55037279  0.50266539
Direct configuration=    39
   0.45132553  0.57465433  0.51925260
   0.52778818  0.50387393  0.47979617
   0.54337076  0.59244992  0.57193125
   0.53861170  0.38851962  0.47436746
   0.34847197  0.60368583  0.47889072
   0.62712172  0.44582283  0.45120794
   0.62520788  0.55041001  0.50243936
Direct configuration=    40
   0.45066031  0.57618443  0.51938838
   0.52781050  0.50380771  0.47952934
   0.54326592  0.59019270  0.57166880
   0.53959218  0.38899900  0.47501297
   0.34833926  0.60380079  0.47886163
   0.62671621  0.44591015  0.45166309
   0.62551337  0.55052167  0.50176129
Direct configuration=    41
   0.45052165  0.57660079  0.51939006
   0.52746949  0.50364208  0.47931859
   0.54336572  0.58957877  0.57185514
   0.53950143  0.38888717  0.47529714
   0.34821466  0.60386378  0.47879374
   0.62706906  0.44629937  0.45182858
   0.62575575  0.55054451  0.50140225
Direct configuration=    42
   0.45046741  0.57676367  0.51939072
   0.52733609  0.50357728  0.47923614
   0.54340476  0.58933860  0.57192804
   0.53946593  0.38884342  0.47540830
   0.34816591  0.60388842  0.47876719
   0.62720709  0.44645163  0.45189332
   0.62585057  0.55055344  0.50126179
Direct configuration=    43
   0.45062006  0.57685129  0.51939594
   0.52712274  0.50359005  0.47908879
   0.54350637  0.58910720  0.57208744
   0.53946888  0.38876496  0.47550969
   0.34805484  0.60392840  0.47869858
   0.62733612  0.44640555  0.45193859
   0.62578873  0.55076902  0.50116647
Direct configuration=    44
   0.45100820  0.57707406  0.51940922
   0.52658029  0.50362250  0.47871414
   0.54376474  0.58851886  0.57249272
   0.53947639  0.38856546  0.47576747
   0.34777245  0.60403006  0.47852416
   0.62766418  0.44628838  0.45205370
   0.62563151  0.55131714  0.50092409
Direct configuration=    45
   0.45101338  0.57721243  0.51940511
   0.52652448  0.50357158  0.47857661
   0.54381579  0.58831860  0.57264757
   0.53950416  0.38855090  0.47585101
   0.34775015  0.60404567  0.47849544
   0.62770916  0.44633313  0.45214655
   0.62558063  0.55138416  0.50076320
Direct configuration=    46
   0.45102893  0.57762754  0.51939277
   0.52635705  0.50341882  0.47816403
   0.54396895  0.58771780  0.57311213
   0.53958748  0.38850722  0.47610164
   0.34768326  0.60409251  0.47840930
   0.62784410  0.44646738  0.45242510
   0.62542799  0.55158520  0.50028053
Direct configuration=    47
   0.45106003  0.57845774  0.51936810
   0.52602219  0.50311329  0.47733888
   0.54427527  0.58651620  0.57404124
   0.53975411  0.38841986  0.47660291
   0.34754946  0.60418619  0.47823700
   0.62811399  0.44673588  0.45298219
   0.62512270  0.55198729  0.49931518
Direct configuration=    48
   0.45112224  0.58011816  0.51931875
   0.52535247  0.50250224  0.47568858
   0.54488791  0.58411302  0.57589947
   0.54008737  0.38824515  0.47760544
   0.34728187  0.60437356  0.47789241
   0.62865377  0.44727289  0.45409637
   0.62451214  0.55279147  0.49738448
Direct configuration=    49
   0.45169110  0.57993501  0.51932030
   0.52533845  0.50325269  0.47608599
   0.54435707  0.58363643  0.57550503
   0.54042068  0.38839958  0.47764683
   0.34747160  0.60432896  0.47793560
   0.62828352  0.44692874  0.45417173
   0.62433534  0.55293507  0.49722001
Direct configuration=    50
   0.45181991  0.57989354  0.51932065
   0.52533528  0.50342261  0.47617597
   0.54423686  0.58352851  0.57541572
   0.54049615  0.38843454  0.47765620
   0.34751456  0.60431886  0.47794538
   0.62819969  0.44685081  0.45418880
   0.62429530  0.55296759  0.49718277
Direct configuration=    51
   0.45169626  0.57994516  0.51916673
   0.52547546  0.50346959  0.47621096
   0.54410998  0.58321271  0.57544420
   0.54052096  0.38864255  0.47778848
   0.34784079  0.60424563  0.47803799
   0.62804453  0.44689963  0.45425699
   0.62420979  0.55300119  0.49698015
Direct configuration=    52
   0.45146547  0.58004151  0.51887943
   0.52573709  0.50355726  0.47627625
   0.54387314  0.58262328  0.57549736
   0.54056725  0.38903079  0.47803538
   0.34844969  0.60410896  0.47821085
   0.62775494  0.44699076  0.45438426
   0.62405017  0.55306390  0.49660196
Direct configuration=    53
   0.45164905  0.58000494  0.51875132
   0.52569071  0.50364756  0.47621125
   0.54369910  0.58221038  0.57562849
   0.54048104  0.38919059  0.47829047
   0.34867092  0.60405445  0.47823250
   0.62770654  0.44705689  0.45441079
   0.62400039  0.55325167  0.49636067
Direct configuration=    54
   0.45219978  0.57989523  0.51836701
   0.52555158  0.50391845  0.47601624
   0.54317697  0.58097167  0.57602187
   0.54022242  0.38966996  0.47905574
   0.34933462  0.60389089  0.47829746
   0.62756136  0.44725530  0.45449038
   0.62385103  0.55381497  0.49563680
Direct configuration=    55
   0.45230307  0.57991297  0.51822172
   0.52548946  0.50390095  0.47573342
   0.54324879  0.58054806  0.57634146
   0.54011002  0.38977673  0.47938090
   0.34945397  0.60385719  0.47826160
   0.62754582  0.44733736  0.45450482
   0.62374662  0.55408322  0.49544157
Direct configuration=    56
   0.45261295  0.57996620  0.51778585
   0.52530312  0.50384844  0.47488497
   0.54346426  0.57927722  0.57730023
   0.53977281  0.39009703  0.48035639
   0.34981203  0.60375608  0.47815405
   0.62749922  0.44758353  0.45454813
   0.62343337  0.55488797  0.49485588
Direct configuration=    57
   0.45323270  0.58007267  0.51691411
   0.52493043  0.50374341  0.47318807
   0.54389520  0.57673555  0.57921776
   0.53909838  0.39073762  0.48230736
   0.35052814  0.60355387  0.47793894
   0.62740602  0.44807588  0.45463475
   0.62280688  0.55649748  0.49368450
Direct configuration=    58
   0.45341268  0.58011611  0.51684478
   0.52489375  0.50381779  0.47288112
   0.54392872  0.57625221  0.57947660
   0.53907271  0.39082668  0.48265080
   0.35059468  0.60353100  0.47787559
   0.62732370  0.44819087  0.45469678
   0.62267151  0.55668181  0.49345983
Direct configuration=    59
   0.45395263  0.58024644  0.51663679
   0.52478370  0.50404091  0.47196026
   0.54402927  0.57480220  0.58025310
   0.53899569  0.39109387  0.48368112
   0.35079431  0.60346240  0.47768552
   0.62707675  0.44853583  0.45488286
   0.62226539  0.55723482  0.49278585
Direct configuration=    60
   0.45503253  0.58050711  0.51622080
   0.52456361  0.50448716  0.47011855
   0.54423038  0.57190219  0.58180611
   0.53884165  0.39162824  0.48574176
   0.35119357  0.60332519  0.47730537
   0.62658286  0.44922575  0.45525502
   0.62145316  0.55834083  0.49143788
Direct configuration=    61
   0.45510665  0.58075079  0.51639919
   0.52461153  0.50461377  0.46984064
   0.54416287  0.57127067  0.58164600
   0.53907868  0.39183360  0.48606453
   0.35129077  0.60330149  0.47724712
   0.62636842  0.44933482  0.45542497
   0.62127884  0.55831133  0.49126305
Direct configuration=    62
   0.45532903  0.58148184  0.51693437
   0.52475531  0.50499359  0.46900691
   0.54396034  0.56937611  0.58116567
   0.53978975  0.39244965  0.48703284
   0.35158236  0.60323038  0.47707234
   0.62572509  0.44966204  0.45593481
   0.62075587  0.55822286  0.49073856
Direct configuration=    63
   0.45521184  0.58184178  0.51722886
   0.52438113  0.50507069  0.46868785
   0.54389484  0.56866904  0.58083405
   0.53992427  0.39261963  0.48744566
   0.35173597  0.60319613  0.47701144
   0.62588834  0.44971037  0.45599643
   0.62086138  0.55830883  0.49068122
Direct configuration=    64
   0.45486024  0.58292160  0.51811232
   0.52325858  0.50530198  0.46773068
   0.54369832  0.56654782  0.57983918
   0.54032781  0.39312956  0.48868409
   0.35219678  0.60309340  0.47682875
   0.62637810  0.44985536  0.45618128
   0.62117791  0.55856675  0.49050921
Direct configuration=    65
   0.45415704  0.58508124  0.51987925
   0.52101348  0.50576456  0.46581632
   0.54330530  0.56230538  0.57784943
   0.54113491  0.39414943  0.49116097
   0.35311840  0.60288792  0.47646336
   0.62735763  0.45014536  0.45655098
   0.62181098  0.55908259  0.49016518
Direct configuration=    66
   0.45458794  0.58375787  0.51879652
   0.52238922  0.50548110  0.46698939
   0.54354613  0.56490503  0.57906869
   0.54064034  0.39352448  0.48964321
   0.35255366  0.60301383  0.47668726
   0.62675740  0.44996766  0.45632444
   0.62142305  0.55876650  0.49037599
Direct configuration=    67
   0.45479202  0.58417776  0.51937785
   0.52201947  0.50538771  0.46629518
   0.54350783  0.56390110  0.57891743
   0.54077109  0.39404182  0.49029487
   0.35248879  0.60297264  0.47640349
   0.62686973  0.45013892  0.45642123
   0.62144882  0.55879653  0.49017545
Direct configuration=    68
   0.45520814  0.58503394  0.52056320
   0.52126554  0.50519728  0.46487965
   0.54342973  0.56185402  0.57860899
   0.54103770  0.39509669  0.49162365
   0.35235651  0.60288864  0.47582487
   0.62709878  0.45048813  0.45661859
   0.62150135  0.55885776  0.48976653
Direct configuration=    69
   0.45530347  0.58537947  0.52093725
   0.52101236  0.50542149  0.46408104
   0.54372502  0.56048979  0.57872671
   0.54115332  0.39576666  0.49250392
   0.35244846  0.60276115  0.47546190
   0.62704873  0.45053740  0.45668531
   0.62120638  0.55906052  0.48948937
Direct configuration=    70
   0.45558945  0.58641607  0.52205937
   0.52025284  0.50609412  0.46168520
   0.54461091  0.55639707  0.57907987
   0.54150016  0.39777655  0.49514474
   0.35272433  0.60237865  0.47437297
   0.62689859  0.45068521  0.45688547
   0.62032147  0.55966879  0.48865788
Direct configuration=    71
   0.45577536  0.58649595  0.52227112
   0.52005369  0.50637448  0.46126324
   0.54464682  0.55543576  0.57913860
   0.54146400  0.39823206  0.49580610
   0.35292025  0.60225157  0.47414573
   0.62689093  0.45077643  0.45689259
   0.62014671  0.55985022  0.48836811
Direct configuration=    72
   0.45633308  0.58673560  0.52290637
   0.51945625  0.50721557  0.45999736
   0.54475456  0.55255181  0.57931478
   0.54135550  0.39959858  0.49779020
   0.35350802  0.60187030  0.47346400
   0.62686792  0.45105010  0.45691396
   0.61962243  0.56039451  0.48749882
Direct configuration=    73
   0.45744851  0.58721489  0.52417686
   0.51826138  0.50889774  0.45746561
   0.54497003  0.54678391  0.57966716
   0.54113852  0.40233162  0.50175840
   0.35468355  0.60110777  0.47210054
   0.62682192  0.45159745  0.45695669
   0.61857386  0.56148310  0.48576024
Direct configuration=    74
   0.45967938  0.58817349  0.52671784
   0.51587163  0.51226209  0.45240210
   0.54540097  0.53524811  0.58037190
   0.54070454  0.40779770  0.50969479
   0.35703461  0.59958270  0.46937362
   0.62672990  0.45269213  0.45704216
   0.61647672  0.56366026  0.48228308
Direct configuration=    75
   0.45841255  0.58762913  0.52527490
   0.51722868  0.51035159  0.45527750
   0.54515625  0.54179890  0.57997170
   0.54095098  0.40469369  0.50518798
   0.35569952  0.60044873  0.47092215
   0.62678215  0.45207050  0.45699363
   0.61766761  0.56242392  0.48425764
Direct configuration=    76
   0.45874652  0.58764117  0.52566787
   0.51680402  0.51072624  0.45471542
   0.54506340  0.54015901  0.57977768
   0.54083440  0.40571297  0.50628697
   0.35632818  0.60015938  0.47060635
   0.62674167  0.45225834  0.45703231
   0.61737956  0.56275937  0.48379890
Direct configuration=    77
   0.45974845  0.58767727  0.52684678
   0.51553002  0.51185018  0.45302917
   0.54478486  0.53523931  0.57919563
   0.54048466  0.40877079  0.50958395
   0.35821416  0.59929133  0.46965895
   0.62662021  0.45282186  0.45714836
   0.61651539  0.56376572  0.48242265
Direct configuration=    78
   0.46175232  0.58774948  0.52920461
   0.51298202  0.51409806  0.44965669
   0.54422778  0.52539993  0.57803153
   0.53978517  0.41488644  0.51617789
   0.36198611  0.59755523  0.46776416
   0.62637729  0.45394891  0.45738046
   0.61478707  0.56577842  0.47967016
Direct configuration=    79
   0.46069112  0.58771124  0.52795597
   0.51433137  0.51290764  0.45144267
   0.54452280  0.53061062  0.57864801
   0.54015560  0.41164775  0.51268591
   0.35998858  0.59847463  0.46876759
   0.62650593  0.45335206  0.45725754
   0.61570234  0.56471255  0.48112781
Direct configuration=    80
   0.46109792  0.58750554  0.52860134
   0.51335587  0.51321786  0.45093772
   0.54417241  0.52923168  0.57772625
   0.54032737  0.41308217  0.51354511
   0.36137749  0.59796217  0.46856284
   0.62624159  0.45334907  0.45757018
   0.61532510  0.56506797  0.48094206
Direct configuration=    81
   0.46231833  0.58688846  0.53053746
   0.51042935  0.51414854  0.44942286
   0.54312126  0.52509489  0.57496099
   0.54084268  0.41738543  0.51612273
   0.36554419  0.59642478  0.46794857
   0.62544858  0.45334013  0.45850809
   0.61419337  0.56613424  0.48038480
Direct configuration=    82
   0.46205523  0.58702149  0.53012006
   0.51106026  0.51394790  0.44974944
   0.54334787  0.52598671  0.57555713
   0.54073159  0.41645772  0.51556704
   0.36464592  0.59675622  0.46808099
   0.62561954  0.45334206  0.45830589
   0.61443735  0.56590437  0.48050494
Direct configuration=    83
   0.46222680  0.58718026  0.53100751
   0.50969355  0.51405380  0.44891884
   0.54317310  0.52623985  0.57524211
   0.54102589  0.41647142  0.51547614
   0.36609402  0.59617053  0.46790705
   0.62554347  0.45323032  0.45869225
   0.61414093  0.56607029  0.48064160
Direct configuration=    84
   0.46274150  0.58765658  0.53366983
   0.50559342  0.51437152  0.44642705
   0.54264879  0.52699925  0.57429702
   0.54190880  0.41651250  0.51520342
   0.37043831  0.59441348  0.46738524
   0.62531525  0.45289511  0.45985134
   0.61325169  0.56656803  0.48105159
Direct configuration=    85
   0.46300798  0.58842700  0.53493546
   0.50417750  0.51401568  0.44629695
   0.54302481  0.52718416  0.57379559
   0.54134521  0.41627265  0.51491487
   0.37179675  0.59355693  0.46668482
   0.62573012  0.45335252  0.45996496
   0.61281538  0.56660753  0.48129287
Direct configuration=    86
   0.46380742  0.59073824  0.53873232
   0.49992972  0.51294816  0.44590664
   0.54415287  0.52773888  0.57229128
   0.53965443  0.41555313  0.51404920
   0.37587208  0.59098730  0.46458356
   0.62697476  0.45472477  0.46030579
   0.61150648  0.56672600  0.48201671
Direct configuration=    87
   0.46540630  0.59536073  0.54632604
   0.49143416  0.51081311  0.44512602
   0.54640898  0.52884832  0.56928266
   0.53627288  0.41411409  0.51231787
   0.38402272  0.58584802  0.46038105
   0.62946404  0.45746925  0.46098747
   0.60888867  0.56696295  0.48346438
Direct configuration=    88
   0.46479228  0.59358553  0.54340979
   0.49469674  0.51163304  0.44542580
   0.54554256  0.52842226  0.57043808
   0.53757151  0.41466673  0.51298276
   0.38089259  0.58782168  0.46199496
   0.62850807  0.45641527  0.46072568
   0.60989400  0.56687195  0.48290842
Direct configuration=    89
   0.46510645  0.59409044  0.54420612
   0.49366614  0.51145162  0.44572824
   0.54574993  0.52834921  0.57016060
   0.53727096  0.41468828  0.51257225
   0.38187881  0.58709567  0.46136415
   0.62852924  0.45664011  0.46093072
   0.60969623  0.56710114  0.48292342
Direct configuration=    90
   0.46604896  0.59560514  0.54659510
   0.49057433  0.51090733  0.44663554
   0.54637204  0.52813006  0.56932818
   0.53636929  0.41475292  0.51134072
   0.38483746  0.58491765  0.45947172
   0.62859274  0.45731464  0.46154584
   0.60910293  0.56778872  0.48296839
Direct configuration=    91
   0.46793398  0.59863456  0.55137307
   0.48439071  0.50981876  0.44845014
   0.54761626  0.52769176  0.56766334
   0.53456597  0.41488221  0.50887766
   0.39075477  0.58056160  0.45568687
   0.62871974  0.45866370  0.46277607
   0.60791634  0.56916388  0.48305835
Direct configuration=    92
   0.46728819  0.59759671  0.54973618
   0.48650916  0.51019169  0.44782847
   0.54719000  0.52784192  0.56823370
   0.53518377  0.41483792  0.50972148
   0.38872755  0.58205395  0.45698353
   0.62867623  0.45820152  0.46235460
   0.60832285  0.56869276  0.48302753
Direct configuration=    93
   0.46795608  0.59797175  0.55028591
   0.48534146  0.51015581  0.44922374
   0.54691507  0.52704740  0.56835602
   0.53501668  0.41539245  0.50874580
   0.39019564  0.58086456  0.45604661
   0.62796467  0.45829470  0.46293684
   0.60850815  0.56968981  0.48229058
Direct configuration=    94
   0.46995975  0.59909688  0.55193507
   0.48183836  0.51004815  0.45340956
   0.54609030  0.52466383  0.56872297
   0.53451541  0.41705606  0.50581875
   0.39459989  0.57729639  0.45323584
   0.62582999  0.45857422  0.46468357
   0.60906405  0.57268095  0.48007973
Direct configuration=    95
   0.47012424  0.59883601  0.55119971
   0.48294728  0.50960208  0.45452009
   0.54603305  0.52405098  0.56858828
   0.53431532  0.41738655  0.50541676
   0.39448833  0.57753834  0.45332269
   0.62503432  0.45880604  0.46506184
   0.60895521  0.57319647  0.47977613
Direct configuration=    96
   0.47049381  0.59824986  0.54954743
   0.48543891  0.50859979  0.45701532
   0.54590442  0.52267398  0.56828564
   0.53386574  0.41812912  0.50451352
   0.39423766  0.57808198  0.45351784
   0.62324655  0.45932693  0.46591177
   0.60871067  0.57435480  0.47909397
Direct configuration=    97
   0.47089435  0.59783846  0.54835419
   0.48602801  0.50901675  0.45731015
   0.54644914  0.52221741  0.56864963
   0.53351000  0.41708504  0.50454709
   0.39453473  0.57817459  0.45375184
   0.62233347  0.46002618  0.46630178
   0.60814804  0.57505805  0.47897082
Direct configuration=    98
   0.47209597  0.59660425  0.54477445
   0.48779533  0.51026760  0.45819462
   0.54808331  0.52084767  0.56974159
   0.53244279  0.41395278  0.50464781
   0.39542595  0.57845242  0.45445384
   0.61959426  0.46212395  0.46747181
   0.60646015  0.57716779  0.47860137
Direct configuration=    99
   0.47334084  0.59666020  0.54452624
   0.48829233  0.50968700  0.45725356
   0.54906374  0.52044893  0.57017043
   0.53163174  0.41309558  0.50484310
   0.39585040  0.57836250  0.45431541
   0.61860880  0.46313262  0.46793351
   0.60510991  0.57802963  0.47884324
Direct configuration=   100
   0.47680851  0.59681606  0.54383483
   0.48967677  0.50806970  0.45463219
   0.55179479  0.51933820  0.57136499
   0.52937250  0.41070779  0.50538710
   0.39703274  0.57811202  0.45392978
   0.61586375  0.46594235  0.46921961
   0.60134870  0.58043035  0.47951700
Direct configuration=   101
   0.47885874  0.59624811  0.54352966
   0.48975705  0.50721714  0.45363420
   0.55192015  0.51844184  0.57201669
   0.52883991  0.41147494  0.50580879
   0.39849045  0.57782858  0.45388275
   0.61484807  0.46653870  0.46949471
   0.59918338  0.58166715  0.47951870
Direct configuration=   102
   0.48500945  0.59454428  0.54261414
   0.48999789  0.50465946  0.45064024