  13  13   0   0
  0.9620276E+03  0.2088930E-08  0.2293551E-08  0.2610349E-08  0.5000000E-15
   1.0000000000000000E-004
  CAR 
 unknown system                          
      2.42259228    -12.52550708  301     -3.86111631      1.00000000
    -12.526  0.0000E+00  0.0000E+00  0.0000E+00  0.0000E+00
    -12.476  0.0000E+00  0.0000E+00  0.0000E+00  0.0000E+00
    -12.426  0.0000E+00  0.0000E+00  0.0000E+00  0.0000E+00
    -12.376  0.0000E+00  0.0000E+00  0.0000E+00  0.0000E+00
    -12.326  0.0000E+00  0.0000E+00  0.0000E+00  0.0000E+00
    -12.276  0.0000E+00  0.0000E+00  0.0000E+00  0.0000E+00
    -12.227  0.0000E+00  0.0000E+00  0.0000E+00  0.0000E+00
    -12.177  0.0000E+00  0.0000E+00  0.0000E+00  0.0000E+00
    -12.127 -0.6508E-29 -0.1062E-29 -0.3243E-30 -0.5292E-31
    -12.077 -0.3137E-27 -0.5425E-28 -0.1595E-28 -0.2756E-29
    -12.027 -0.1358E-25 -0.2487E-26 -0.6926E-27 -0.1267E-27
    -11.977 -0.5185E-24 -0.1005E-24 -0.2653E-25 -0.5136E-26
    -11.928 -0.1746E-22 -0.3584E-23 -0.8965E-24 -0.1837E-24
    -11.878 -0.5183E-21 -0.1127E-21 -0.2672E-22 -0.5798E-23
    -11.828 -0.1357E-19 -0.3123E-20 -0.7027E-21 -0.1614E-21
    -11.778 -0.3129E-18 -0.7630E-19 -0.1629E-19 -0.3963E-20
    -11.728 -0.6361E-17 -0.1643E-17 -0.3332E-18 -0.8581E-19
    -11.678 -0.1106E-15 -0.3005E-16 -0.5842E-17 -0.1583E-17
    -11.629 -0.1737E-14 -0.5051E-15 -0.9241E-16 -0.2675E-16
    -11.579 -0.2406E-13 -0.7399E-14 -0.1291E-14 -0.3954E-15
    -11.529 -0.2929E-12 -0.9551E-13 -0.1588E-13 -0.5155E-14
    -11.479 -0.3135E-11 -0.1084E-11 -0.1721E-12 -0.5917E-13
    -11.429 -0.2948E-10 -0.1081E-10 -0.1641E-11 -0.5980E-12
    -11.379 -0.2434E-09 -0.9474E-10 -0.1377E-10 -0.5319E-11
    -11.330 -0.1762E-08 -0.7282E-09 -0.1016E-09 -0.4160E-10
    -11.280 -0.1117E-07 -0.4905E-08 -0.6583E-09 -0.2860E-09
    -11.230 -0.6194E-07 -0.2891E-07 -0.3745E-08 -0.1727E-08
    -11.180 -0.2997E-06 -0.1489E-06 -0.1868E-07 -0.9143E-08
    -11.130 -0.1261E-05 -0.6677E-06 -0.8151E-07 -0.4241E-07
    -11.081 -0.4599E-05 -0.2600E-05 -0.3107E-06 -0.1720E-06
    -11.031 -0.1444E-04 -0.8749E-05 -0.1030E-05 -0.6079E-06
    -10.981 -0.3872E-04 -0.2524E-04 -0.2960E-05 -0.1866E-05
    -10.931 -0.8717E-04 -0.6168E-04 -0.7303E-05 -0.4939E-05
    -10.881 -0.1599E-03 -0.1249E-03 -0.1527E-04 -0.1116E-04
    -10.831 -0.2218E-03 -0.1996E-03 -0.2632E-04 -0.2111E-04
    -10.782 -0.1745E-03 -0.2188E-03 -0.3502E-04 -0.3201E-04
    -10.732  0.1395E-03 -0.4708E-04 -0.2806E-04 -0.3435E-04
    -10.682  0.8583E-03  0.4772E-03  0.1470E-04 -0.1057E-04
    -10.632  0.1960E-02  0.1423E-02  0.1124E-03  0.6035E-04
    -10.582  0.3169E-02  0.2634E-02  0.2703E-03  0.1916E-03
    -10.532  0.4023E-02  0.3708E-02  0.4707E-03  0.3764E-03
    -10.483  0.4140E-02  0.4191E-02  0.6770E-03  0.5852E-03
    -10.433  0.3462E-02  0.3855E-02  0.8495E-03  0.7773E-03
    -10.383  0.2303E-02  0.2860E-02  0.9643E-03  0.9198E-03
    -10.333  0.1133E-02  0.1639E-02  0.1021E-02  0.1001E-02
    -10.283  0.2953E-03  0.6233E-03  0.1035E-02  0.1033E-02
    -10.233 -0.1213E-03  0.1996E-04  0.1029E-02  0.1034E-02
    -10.184 -0.2256E-03 -0.2062E-03  0.1018E-02  0.1023E-02
    -10.134 -0.1810E-03 -0.2106E-03  0.1009E-02  0.1013E-02
    -10.084 -0.1055E-03 -0.1391E-03  0.1004E-02  0.1006E-02
    -10.034 -0.4941E-04 -0.7146E-04  0.1001E-02  0.1002E-02
     -9.984 -0.1931E-04 -0.3023E-04  0.1000E-02  0.1001E-02
     -9.935 -0.6418E-05 -0.1080E-04  0.1000E-02  0.1000E-02
     -9.885 -0.1835E-05 -0.3301E-05  0.1000E-02  0.1000E-02
     -9.835 -0.4662E-06 -0.8755E-06  0.1000E-02  0.1000E-02
     -9.785 -0.1695E-06 -0.2286E-06  0.1000E-02  0.1000E-02
     -9.735 -0.3630E-06 -0.1906E-06  0.1000E-02  0.1000E-02
     -9.685 -0.1435E-05 -0.6830E-06  0.9999E-03  0.1000E-02
     -9.636 -0.5151E-05 -0.2631E-05  0.9997E-03  0.9998E-03
     -9.586 -0.1595E-04 -0.8837E-05  0.9989E-03  0.9994E-03
     -9.536 -0.4209E-04 -0.2546E-04  0.9968E-03  0.9981E-03
     -9.486 -0.9312E-04 -0.6212E-04  0.9921E-03  0.9950E-03
     -9.436 -0.1671E-03 -0.1255E-03  0.9838E-03  0.9888E-03
     -9.386 -0.2242E-03 -0.2002E-03  0.9726E-03  0.9788E-03
     -9.337 -0.1591E-03 -0.2183E-03  0.9647E-03  0.9679E-03
     -9.287  0.1880E-03 -0.4434E-04  0.9741E-03  0.9657E-03
     -9.237  0.9464E-03  0.4832E-03  0.1021E-02  0.9898E-03
     -9.187  0.2072E-02  0.1431E-02  0.1124E-02  0.1061E-02
     -9.137  0.3260E-02  0.2637E-02  0.1287E-02  0.1192E-02
     -9.087  0.4040E-02  0.3694E-02  0.1488E-02  0.1377E-02
     -9.038  0.4038E-02  0.4138E-02  0.1689E-02  0.1583E-02
     -8.988  0.3230E-02  0.3735E-02  0.1850E-02  0.1769E-02
     -8.938  0.1979E-02  0.2660E-02  0.1949E-02  0.1901E-02
     -8.888  0.8283E-03  0.1405E-02  0.1990E-02  0.1971E-02
     -8.838  0.2462E-03  0.5238E-03  0.2003E-02  0.1997E-02
     -8.788  0.4542E-03  0.3865E-03  0.2025E-02  0.2017E-02
     -8.739  0.1374E-02  0.1048E-02  0.2094E-02  0.2069E-02
     -8.689  0.2645E-02  0.2236E-02  0.2225E-02  0.2180E-02
     -8.639  0.3729E-02  0.3433E-02  0.2411E-02  0.2351E-02
     -8.589  0.4138E-02  0.4092E-02  0.2617E-02  0.2555E-02
     -8.539  0.3691E-02  0.3909E-02  0.2801E-02  0.2750E-02
     -8.490  0.2598E-02  0.2977E-02  0.2931E-02  0.2898E-02
     -8.440  0.1308E-02  0.1704E-02  0.2996E-02  0.2983E-02
     -8.390  0.2390E-03  0.5390E-03  0.3008E-02  0.3010E-02
     -8.340 -0.3840E-03 -0.2337E-03  0.2989E-02  0.2999E-02
     -8.290 -0.4811E-03 -0.5134E-03  0.2965E-02  0.2973E-02
     -8.240 -0.1273E-05 -0.2626E-03  0.2965E-02  0.2960E-02
     -8.191  0.1102E-02  0.5683E-03  0.3020E-02  0.2988E-02
     -8.141  0.2766E-02  0.1982E-02  0.3157E-02  0.3087E-02
     -8.091  0.4714E-02  0.3815E-02  0.3392E-02  0.3277E-02
     -8.041  0.6509E-02  0.5721E-02  0.3717E-02  0.3562E-02
     -7.991  0.7780E-02  0.7312E-02  0.4104E-02  0.3926E-02
     -7.941  0.8427E-02  0.8367E-02  0.4524E-02  0.4343E-02
     -7.892  0.8615E-02  0.8897E-02  0.4953E-02  0.4787E-02
     -7.842  0.8549E-02  0.9024E-02  0.5379E-02  0.5236E-02
     -7.792  0.8266E-02  0.8796E-02  0.5791E-02  0.5675E-02
     -7.742  0.7661E-02  0.8155E-02  0.6173E-02  0.6081E-02
     -7.692  0.6740E-02  0.7109E-02  0.6509E-02  0.6435E-02
     -7.642  0.5812E-02  0.5924E-02  0.6798E-02  0.6730E-02
     -7.593  0.5352E-02  0.5080E-02  0.7065E-02  0.6983E-02
     -7.543  0.5600E-02  0.4954E-02  0.7344E-02  0.7230E-02
     -7.493  0.6273E-02  0.5485E-02  0.7657E-02  0.7504E-02
     -7.443  0.6735E-02  0.6165E-02  0.7992E-02  0.7811E-02
     -7.393  0.6536E-02  0.6435E-02  0.8318E-02  0.8131E-02
     -7.343  0.5878E-02  0.6179E-02  0.8611E-02  0.8439E-02
     -7.294  0.5573E-02  0.5900E-02  0.8889E-02  0.8733E-02
     -7.244  0.6490E-02  0.6407E-02  0.9212E-02  0.9052E-02
     -7.194  0.8973E-02  0.8259E-02  0.9659E-02  0.9464E-02
     -7.144  0.1266E-01  0.1141E-01  0.1029E-01  0.1003E-01
     -7.094  0.1678E-01  0.1527E-01  0.1113E-01  0.1079E-01
     -7.045  0.2051E-01  0.1909E-01  0.1215E-01  0.1174E-01
     -6.995  0.2326E-01  0.2219E-01  0.1331E-01  0.1285E-01
     -6.945  0.2470E-01  0.2413E-01  0.1454E-01  0.1405E-01
     -6.895  0.2474E-01  0.2473E-01  0.1577E-01  0.1528E-01
     -6.845  0.2362E-01  0.2410E-01  0.1695E-01  0.1649E-01
     -6.795  0.2179E-01  0.2259E-01  0.1803E-01  0.1761E-01
     -6.746  0.1988E-01  0.2073E-01  0.1902E-01  0.1864E-01
     -6.696  0.1848E-01  0.1911E-01  0.1994E-01  0.1960E-01
     -6.646  0.1799E-01  0.1821E-01  0.2084E-01  0.2050E-01
     -6.596  0.1837E-01  0.1820E-01  0.2176E-01  0.2141E-01
     -6.546  0.1912E-01  0.1879E-01  0.2271E-01  0.2235E-01
     -6.496  0.1953E-01  0.1934E-01  0.2368E-01  0.2331E-01
     -6.447  0.1914E-01  0.1927E-01  0.2464E-01  0.2427E-01
     -6.397  0.1810E-01  0.1848E-01  0.2554E-01  0.2519E-01
     -6.347  0.1702E-01  0.1744E-01  0.2639E-01  0.2606E-01
     -6.297  0.1650E-01  0.1675E-01  0.2721E-01  0.2690E-01
     -6.247  0.1662E-01  0.1669E-01  0.2804E-01  0.2773E-01
     -6.197  0.1714E-01  0.1710E-01  0.2889E-01  0.2858E-01
     -6.148  0.1783E-01  0.1770E-01  0.2978E-01  0.2946E-01
     -6.098  0.1883E-01  0.1849E-01  0.3072E-01  0.3038E-01
     -6.048  0.2045E-01  0.1980E-01  0.3174E-01  0.3137E-01
     -5.998  0.2284E-01  0.2190E-01  0.3287E-01  0.3246E-01
     -5.948  0.2587E-01  0.2477E-01  0.3416E-01  0.3369E-01
     -5.899  0.2935E-01  0.2818E-01  0.3562E-01  0.3510E-01
     -5.849  0.3328E-01  0.3201E-01  0.3728E-01  0.3669E-01
     -5.799  0.3772E-01  0.3627E-01  0.3916E-01  0.3850E-01
     -5.749  0.4242E-01  0.4082E-01  0.4128E-01  0.4053E-01
     -5.699  0.4663E-01  0.4512E-01  0.4360E-01  0.4278E-01
     -5.649  0.4934E-01  0.4831E-01  0.4606E-01  0.4519E-01
     -5.600  0.4990E-01  0.4963E-01  0.4854E-01  0.4766E-01
     -5.550  0.4837E-01  0.4890E-01  0.5095E-01  0.5010E-01
     -5.500  0.4556E-01  0.4663E-01  0.5322E-01  0.5242E-01
     -5.450  0.4264E-01  0.4380E-01  0.5535E-01  0.5461E-01
     -5.400  0.4056E-01  0.4141E-01  0.5737E-01  0.5667E-01
     -5.350  0.3957E-01  0.3998E-01  0.5934E-01  0.5866E-01
     -5.301  0.3899E-01  0.3920E-01  0.6128E-01  0.6061E-01
     -5.251  0.3756E-01  0.3803E-01  0.6315E-01  0.6251E-01
     -5.201  0.3411E-01  0.3522E-01  0.6485E-01  0.6426E-01
     -5.151  0.2838E-01  0.3011E-01  0.6627E-01  0.6577E-01
     -5.101  0.2123E-01  0.2317E-01  0.6733E-01  0.6692E-01
     -5.051  0.1421E-01  0.1584E-01  0.6803E-01  0.6771E-01
     -5.002  0.8678E-02  0.9712E-02  0.6847E-01  0.6819E-01
     -4.952  0.5173E-02  0.5739E-02  0.6872E-01  0.6848E-01
     -4.902  0.3469E-02  0.3886E-02  0.6890E-01  0.6867E-01
     -4.852  0.2993E-02  0.3465E-02  0.6905E-01  0.6885E-01
     -4.802  0.3190E-02  0.3702E-02  0.6921E-01  0.6903E-01
     -4.752  0.3630E-02  0.4076E-02  0.6939E-01  0.6923E-01
     -4.703  0.4013E-02  0.4338E-02  0.6959E-01  0.6945E-01
     -4.653  0.4217E-02  0.4424E-02  0.6980E-01  0.6967E-01
     -4.603  0.4315E-02  0.4411E-02  0.7001E-01  0.6989E-01
     -4.553  0.4411E-02  0.4424E-02  0.7023E-01  0.7011E-01
     -4.503  0.4445E-02  0.4480E-02  0.7045E-01  0.7033E-01
     -4.454  0.4182E-02  0.4397E-02  0.7066E-01  0.7055E-01
     -4.404  0.3447E-02  0.3929E-02  0.7083E-01  0.7075E-01
     -4.354  0.2319E-02  0.3009E-02  0.7095E-01  0.7090E-01
     -4.304  0.1112E-02  0.1848E-02  0.7100E-01  0.7099E-01
     -4.254  0.1674E-03  0.7866E-03  0.7101E-01  0.7103E-01
     -4.204 -0.3041E-03  0.5430E-04  0.7100E-01  0.7103E-01
     -4.155 -0.2293E-03 -0.3306E-03  0.7099E-01  0.7101E-01
     -4.105  0.3826E-03 -0.4848E-03  0.7100E-01  0.7099E-01
     -4.055  0.1433E-02 -0.4993E-03  0.7108E-01  0.7097E-01
     -4.005  0.2687E-02 -0.3276E-03  0.7121E-01  0.7095E-01
     -3.955  0.3818E-02  0.2121E-03  0.7140E-01  0.7096E-01
     -3.905  0.4579E-02  0.1313E-02  0.7163E-01  0.7103E-01
     -3.856  0.4939E-02  0.2990E-02  0.7187E-01  0.7117E-01
     -3.806  0.5031E-02  0.4948E-02  0.7212E-01  0.7142E-01
     -3.756  0.4942E-02  0.6620E-02  0.7237E-01  0.7175E-01
     -3.706  0.4589E-02  0.7414E-02  0.7260E-01  0.7212E-01
     -3.656  0.3847E-02  0.7025E-02  0.7279E-01  0.7247E-01
     -3.606  0.2752E-02  0.5604E-02  0.7293E-01  0.7275E-01
     -3.557  0.1559E-02  0.3676E-02  0.7301E-01  0.7293E-01
     -3.507  0.5784E-03  0.1854E-02  0.7304E-01  0.7303E-01
     -3.457 -0.2517E-04  0.5475E-03  0.7303E-01  0.7305E-01
     -3.407 -0.2942E-03 -0.1556E-03  0.7302E-01  0.7304E-01
     -3.357 -0.3891E-03 -0.4180E-03  0.7300E-01  0.7302E-01
     -3.308 -0.4501E-03 -0.4800E-03  0.7298E-01  0.7300E-01
     -3.258 -0.4928E-03 -0.5058E-03  0.7295E-01  0.7297E-01
     -3.208 -0.3603E-03 -0.4957E-03  0.7293E-01  0.7295E-01
     -3.158  0.2422E-03 -0.2675E-03  0.7295E-01  0.7294E-01
     -3.108  0.1587E-02  0.4744E-03  0.7303E-01  0.7296E-01
     -3.058  0.3665E-02  0.1955E-02  0.7321E-01  0.7306E-01
     -3.009  0.5997E-02  0.4079E-02  0.7351E-01  0.7326E-01
     -2.959  0.7743E-02  0.6302E-02  0.7389E-01  0.7357E-01
     -2.909  0.8141E-02  0.7803E-02  0.7430E-01  0.7396E-01
     -2.859  0.6993E-02  0.7927E-02  0.7465E-01  0.7436E-01
     -2.809  0.4792E-02  0.6605E-02  0.7489E-01  0.7469E-01
     -2.759  0.2390E-02  0.4389E-02  0.7501E-01  0.7491E-01
     -2.710  0.5101E-03  0.2098E-02  0.7503E-01  0.7501E-01
     -2.660 -0.5042E-03  0.3723E-03  0.7501E-01  0.7503E-01
     -2.610 -0.5979E-03 -0.5140E-03  0.7498E-01  0.7500E-01
     -2.560  0.1987E-03 -0.5379E-03  0.7499E-01  0.7498E-01
     -2.510  0.1813E-02  0.2609E-03  0.7508E-01  0.7499E-01
     -2.460  0.3983E-02  0.1810E-02  0.7527E-01  0.7508E-01
     -2.411  0.6148E-02  0.3864E-02  0.7558E-01  0.7527E-01
     -2.361  0.7618E-02  0.5909E-02  0.7596E-01  0.7557E-01
     -2.311  0.7970E-02  0.7311E-02  0.7636E-01  0.7593E-01
     -2.261  0.7331E-02  0.7676E-02  0.7672E-01  0.7631E-01
     -2.211  0.6244E-02  0.7105E-02  0.7703E-01  0.7667E-01
     -2.161  0.5232E-02  0.6106E-02  0.7729E-01  0.7697E-01
     -2.112  0.4485E-02  0.5186E-02  0.7752E-01  0.7723E-01
     -2.062  0.3927E-02  0.4515E-02  0.7771E-01  0.7746E-01
     -2.012  0.3515E-02  0.3964E-02  0.7789E-01  0.7765E-01
     -1.962  0.3352E-02  0.3422E-02  0.7806E-01  0.7782E-01
     -1.912  0.3507E-02  0.3020E-02  0.7823E-01  0.7797E-01
     -1.863  0.3785E-02  0.2985E-02  0.7842E-01  0.7812E-01
     -1.813  0.3806E-02  0.3321E-02  0.7861E-01  0.7829E-01
     -1.763  0.3336E-02  0.3695E-02  0.7878E-01  0.7847E-01
     -1.713  0.2554E-02  0.3688E-02  0.7890E-01  0.7866E-01
     -1.663  0.1949E-02  0.3186E-02  0.7900E-01  0.7882E-01
     -1.613  0.1927E-02  0.2516E-02  0.7910E-01  0.7894E-01
     -1.564  0.2474E-02  0.2179E-02  0.7922E-01  0.7905E-01
     -1.514  0.3168E-02  0.2415E-02  0.7938E-01  0.7917E-01
     -1.464  0.3553E-02  0.3008E-02  0.7955E-01  0.7932E-01
     -1.414  0.3563E-02  0.3503E-02  0.7973E-01  0.7949E-01
     -1.364  0.3628E-02  0.3650E-02  0.7991E-01  0.7968E-01
     -1.314  0.4322E-02  0.3673E-02  0.8013E-01  0.7986E-01
     -1.265  0.5847E-02  0.4076E-02  0.8042E-01  0.8006E-01
     -1.215  0.7787E-02  0.5149E-02  0.8081E-01  0.8032E-01
     -1.165  0.9338E-02  0.6627E-02  0.8127E-01  0.8065E-01
     -1.115  0.9799E-02  0.7847E-02  0.8176E-01  0.8104E-01
     -1.065  0.8934E-02  0.8249E-02  0.8221E-01  0.8145E-01
     -1.015  0.7018E-02  0.7748E-02  0.8255E-01  0.8184E-01
     -0.966  0.4663E-02  0.6666E-02  0.8279E-01  0.8217E-01
     -0.916  0.2616E-02  0.5399E-02  0.8292E-01  0.8244E-01
     -0.866  0.1572E-02  0.4232E-02  0.8300E-01  0.8265E-01
     -0.816  0.1939E-02  0.3431E-02  0.8309E-01  0.8282E-01
     -0.766  0.3593E-02  0.3343E-02  0.8327E-01  0.8299E-01
     -0.717  0.5797E-02  0.4199E-02  0.8356E-01  0.8320E-01
     -0.667  0.7471E-02  0.5766E-02  0.8393E-01  0.8348E-01
     -0.617  0.7767E-02  0.7266E-02  0.8432E-01  0.8384E-01
     -0.567  0.6593E-02  0.7783E-02  0.8465E-01  0.8423E-01
     -0.517  0.4666E-02  0.6917E-02  0.8488E-01  0.8458E-01
     -0.467  0.3023E-02  0.5091E-02  0.8503E-01  0.8483E-01
     -0.418  0.2360E-02  0.3264E-02  0.8515E-01  0.8499E-01
     -0.368  0.2690E-02  0.2275E-02  0.8528E-01  0.8511E-01
     -0.318  0.3509E-02  0.2345E-02  0.8546E-01  0.8522E-01
     -0.268  0.4263E-02  0.3073E-02  0.8567E-01  0.8538E-01
     -0.218  0.4703E-02  0.3850E-02  0.8590E-01  0.8557E-01
     -0.168  0.4926E-02  0.4300E-02  0.8615E-01  0.8578E-01
     -0.119  0.5180E-02  0.4435E-02  0.8641E-01  0.8600E-01
     -0.069  0.5704E-02  0.4478E-02  0.8669E-01  0.8623E-01
     -0.019  0.6687E-02  0.4640E-02  0.8703E-01  0.8646E-01
      0.031  0.8260E-02  0.5039E-02  0.8744E-01  0.8671E-01
      0.081  0.1041E-01  0.5747E-02  0.8796E-01  0.8700E-01
      0.131  0.1282E-01  0.6805E-02  0.8859E-01  0.8733E-01
      0.180  0.1485E-01  0.8200E-02  0.8933E-01  0.8774E-01
      0.230  0.1567E-01  0.9865E-02  0.9012E-01  0.8823E-01
      0.280  0.1467E-01  0.1167E-01  0.9085E-01  0.8882E-01
      0.330  0.1186E-01  0.1329E-01  0.9144E-01  0.8948E-01
      0.380  0.7997E-02  0.1415E-01  0.9184E-01  0.9018E-01
      0.430  0.4203E-02  0.1359E-01  0.9204E-01  0.9086E-01
      0.479  0.1376E-02  0.1134E-01  0.9211E-01  0.9143E-01
      0.529 -0.1763E-03  0.7907E-02  0.9210E-01  0.9182E-01
      0.579 -0.6940E-03  0.4299E-02  0.9207E-01  0.9203E-01
      0.629 -0.6419E-03  0.1489E-02  0.9204E-01  0.9211E-01
      0.679 -0.4126E-03 -0.1086E-03  0.9202E-01  0.9210E-01
      0.728 -0.2108E-03 -0.6656E-03  0.9201E-01  0.9207E-01
      0.778 -0.8963E-04 -0.6324E-03  0.9200E-01  0.9204E-01
      0.828 -0.3238E-04 -0.4090E-03  0.9200E-01  0.9202E-01
      0.878 -0.1005E-04 -0.2087E-03  0.9200E-01  0.9201E-01
      0.928 -0.2703E-05 -0.8820E-04  0.9200E-01  0.9200E-01
      0.978 -0.6321E-06 -0.3160E-04  0.9200E-01  0.9200E-01
      1.027 -0.1290E-06 -0.9713E-05  0.9200E-01  0.9200E-01
      1.077 -0.2301E-07 -0.2581E-05  0.9200E-01  0.9200E-01
      1.127 -0.3598E-08 -0.5960E-06  0.9200E-01  0.9200E-01
      1.177 -0.4935E-09 -0.1200E-06  0.9200E-01  0.9200E-01
      1.227 -0.5944E-10 -0.2112E-07  0.9200E-01  0.9200E-01
      1.277 -0.6292E-11 -0.3255E-08  0.9200E-01  0.9200E-01
      1.326 -0.5859E-12 -0.4399E-09  0.9200E-01  0.9200E-01
      1.376 -0.4799E-13 -0.5220E-10  0.9200E-01  0.9200E-01
      1.426 -0.3467E-14 -0.5444E-11  0.9200E-01  0.9200E-01
      1.476 -0.2184E-15 -0.4993E-12  0.9200E-01  0.9200E-01
      1.526 -0.1337E-16 -0.4030E-13  0.9200E-01  0.9200E-01
      1.576  0.0000E+00 -0.2861E-14  0.9200E-01  0.9200E-01
      1.625  0.0000E+00 -0.1783E-15  0.9200E-01  0.9200E-01
      1.675  0.0000E+00 -0.1337E-16  0.9200E-01  0.9200E-01
      1.725  0.0000E+00  0.0000E+00  0.9200E-01  0.9200E-01
      1.775  0.0000E+00  0.0000E+00  0.9200E-01  0.9200E-01
      1.825  0.0000E+00  0.0000E+00  0.9200E-01  0.9200E-01
      1.874  0.0000E+00  0.0000E+00  0.9200E-01  0.9200E-01
      1.924  0.0000E+00  0.0000E+00  0.9200E-01  0.9200E-01
      1.974  0.0000E+00  0.0000E+00  0.9200E-01  0.9200E-01
      2.024  0.0000E+00  0.0000E+00  0.9200E-01  0.9200E-01
      2.074  0.0000E+00  0.0000E+00  0.9200E-01  0.9200E-01
      2.124  0.0000E+00  0.0000E+00  0.9200E-01  0.9200E-01
      2.173  0.0000E+00  0.0000E+00  0.9200E-01  0.9200E-01
      2.223  0.0000E+00  0.0000E+00  0.9200E-01  0.9200E-01
      2.273  0.0000E+00  0.0000E+00  0.9200E-01  0.9200E-01
      2.323  0.0000E+00  0.0000E+00  0.9200E-01  0.9200E-01
      2.373  0.0000E+00  0.0000E+00  0.9200E-01  0.9200E-01
      2.423  0.0000E+00  0.0000E+00  0.9200E-01  0.9200E-01
