   13   13 1000    2
  0.9620276E+03  0.2088930E-08  0.2293551E-08  0.2610349E-08  0.5000000E-15
   1.0000000000000000E-004
  CAR 
 unknown system                          
    143      1     92
 
  0.1262379E-14  0.1262379E-14  0.1262379E-14  0.1000000E+01
    1      -10.525507    -10.502852   1.000000   1.000000
    2       -9.085177     -9.058306   1.000000   1.000000
    3       -8.617078     -8.601849   1.000000   1.000000
    4       -8.062569     -8.043061   1.000000   1.000000
    5       -7.958663     -7.932643   1.000000   1.000000
    6       -7.815240     -7.803412   1.000000   1.000000
    7       -7.714740     -7.701805   1.000000   1.000000
    8       -7.488410     -7.471557   1.000000   1.000000
    9       -7.405107     -7.369234   1.000000   1.000000
   10       -7.161813     -7.145245   1.000000   1.000000
   11       -7.150213     -7.130893   1.000000   1.000000
   12       -7.069767     -7.050388   1.000000   1.000000
   13       -7.007453     -6.990451   1.000000   1.000000
   14       -6.985808     -6.963849   1.000000   1.000000
   15       -6.959245     -6.940169   1.000000   1.000000
   16       -6.911765     -6.895434   1.000000   1.000000
   17       -6.874110     -6.850452   1.000000   1.000000
   18       -6.810410     -6.790423   1.000000   1.000000
   19       -6.797591     -6.775615   1.000000   1.000000
   20       -6.715078     -6.700676   1.000000   1.000000
   21       -6.672544     -6.651768   1.000000   1.000000
   22       -6.597595     -6.578579   1.000000   1.000000
   23       -6.528179     -6.511177   1.000000   1.000000
   24       -6.505838     -6.487369   1.000000   1.000000
   25       -6.471979     -6.455326   1.000000   1.000000
   26       -6.430401     -6.403833   1.000000   1.000000
   27       -6.319712     -6.304942   1.000000   1.000000
   28       -6.279715     -6.259959   1.000000   1.000000
   29       -6.211327     -6.189765   1.000000   1.000000
   30       -6.158327     -6.142538   1.000000   1.000000
   31       -6.150428     -6.135172   1.000000   1.000000
   32       -6.033422     -6.013990   1.000000   1.000000
   33       -6.006989     -5.992796   1.000000   1.000000
   34       -5.958367     -5.941661   1.000000   1.000000
   35       -5.949037     -5.928567   1.000000   1.000000
   36       -5.913298     -5.894649   1.000000   1.000000
   37       -5.883710     -5.867017   1.000000   1.000000
   38       -5.826440     -5.807833   1.000000   1.000000
   39       -5.814959     -5.801329   1.000000   1.000000
   40       -5.784553     -5.767283   1.000000   1.000000
   41       -5.753442     -5.738308   1.000000   1.000000
   42       -5.732577     -5.714874   1.000000   1.000000
   43       -5.708699     -5.693799   1.000000   1.000000
   44       -5.687758     -5.672497   1.000000   1.000000
   45       -5.686300     -5.666145   1.000000   1.000000
   46       -5.671943     -5.656277   1.000000   1.000000
   47       -5.655790     -5.638010   1.000000   1.000000
   48       -5.619796     -5.602684   1.000000   1.000000
   49       -5.596668     -5.579091   1.000000   1.000000
   50       -5.578922     -5.560400   1.000000   1.000000
   51       -5.560794     -5.537270   1.000000   1.000000
   52       -5.546019     -5.526116   1.000000   1.000000
   53       -5.532445     -5.514374   1.000000   1.000000
   54       -5.513549     -5.497991   1.000000   1.000000
   55       -5.462285     -5.446379   1.000000   1.000000
   56       -5.440834     -5.419914   1.000000   1.000000
   57       -5.427373     -5.413218   1.000000   1.000000
   58       -5.399948     -5.381988   1.000000   1.000000
   59       -5.362755     -5.347143   1.000000   1.000000
   60       -5.334716     -5.318647   1.000000   1.000000
   61       -5.305619     -5.286965   1.000000   1.000000
   62       -5.276059     -5.254965   1.000000   1.000000
   63       -5.266285     -5.248936   1.000000   1.000000
   64       -5.243640     -5.231184   1.000000   1.000000
   65       -5.220243     -5.204615   1.000000   1.000000
   66       -5.179793     -5.163124   1.000000   1.000000
   67       -5.167977     -5.140920   1.000000   1.000000
   68       -5.135796     -5.113565   1.000000   1.000000
   69       -4.958961     -4.902401   1.000000   1.000000
   70       -4.719964     -4.689195   1.000000   1.000000
   71       -4.483901     -4.456674   1.000049   1.000106
   72       -3.939695     -3.776264   0.805750   0.174287
   73       -3.721516     -3.668254   0.040826  -0.021016
   74       -2.969320     -2.935095  -0.000000  -0.000000
   75       -2.922319     -2.873868  -0.000000  -0.000000
   76       -2.394282     -2.349606  -0.000000  -0.000000
   77       -2.326308     -2.263533  -0.000000  -0.000000
   78       -2.108906     -2.044063  -0.000000  -0.000000
   79       -1.836981     -1.752957  -0.000000  -0.000000
   80       -1.489917     -1.421743  -0.000000  -0.000000
   81       -1.215367     -1.150264  -0.000000  -0.000000
   82       -1.161132     -1.091178  -0.000000  -0.000000
   83       -1.036685     -0.901709  -0.000000  -0.000000
   84       -0.678401     -0.615629  -0.000000  -0.000000
   85       -0.639062     -0.575103  -0.000000  -0.000000
   86       -0.309967     -0.237953  -0.000000  -0.000000
   87       -0.109569     -0.018020  -0.000000  -0.000000
   88        0.050723      0.171354  -0.000000  -0.000000
   89        0.131776      0.236942  -0.000000  -0.000000
   90        0.216190      0.382100  -0.000000  -0.000000
   91        0.264435      0.411242  -0.000000  -0.000000
   92        0.278330      0.422592  -0.000000  -0.000000
