 vasp.6.1.2 22Jul20 (build Jan 14 2022 17:24:41) gamma-only                      
 executed on             LinuxPGI date 2022.01.31  15:26:26
 running on    8 total cores
 distrk:  each k-point on    8 cores,    1 groups
 distr:  one band on NCORE=   8 cores,    1 groups


--------------------------------------------------------------------------------------------------------


 INCAR:
 POTCAR:    PAW_PBE Cu 22Jun2005                  
 -----------------------------------------------------------------------------
|                                                                             |
|           W    W    AA    RRRRR   N    N  II  N    N   GGGG   !!!           |
|           W    W   A  A   R    R  NN   N  II  NN   N  G    G  !!!           |
|           W    W  A    A  R    R  N N  N  II  N N  N  G       !!!           |
|           W WW W  AAAAAA  RRRRR   N  N N  II  N  N N  G  GGG   !            |
|           WW  WW  A    A  R   R   N   NN  II  N   NN  G    G                |
|           W    W  A    A  R    R  N    N  II  N    N   GGGG   !!!           |
|                                                                             |
|     You use a magnetic or noncollinear calculation, but did not specify     |
|     the initial magnetic moment with the MAGMOM tag. Note that a            |
|     default of 1 will be used for all atoms. This ferromagnetic setup       |
|     may break the symmetry of the crystal, in particular it may rule        |
|     out finding an antiferromagnetic solution. Thence, we recommend         |
|     setting the initial magnetic moment manually or verifying carefully     |
|     that this magnetic setup is desired.                                    |
|                                                                             |
 -----------------------------------------------------------------------------

 -----------------------------------------------------------------------------
|                                                                             |
|           W    W    AA    RRRRR   N    N  II  N    N   GGGG   !!!           |
|           W    W   A  A   R    R  NN   N  II  NN   N  G    G  !!!           |
|           W    W  A    A  R    R  N N  N  II  N N  N  G       !!!           |
|           W WW W  AAAAAA  RRRRR   N  N N  II  N  N N  G  GGG   !            |
|           WW  WW  A    A  R   R   N   NN  II  N   NN  G    G                |
|           W    W  A    A  R    R  N    N  II  N    N   GGGG   !!!           |
|                                                                             |
|     For optimal performance we recommend to set                             |
|       NCORE = 4 - approx SQRT(number of cores).                             |
|     NCORE specifies how many cores store one orbital (NPAR=cpu/NCORE).      |
|     This setting can greatly improve the performance of VASP for DFT.       |
|     The default, NCORE=1 might be grossly inefficient on modern             |
|     multi-core architectures or massively parallel machines. Do your        |
|     own testing!!!!                                                         |
|     Unfortunately you need to use the default for GW and RPA                |
|     calculations (for HF NCORE is supported but not extensively tested      |
|     yet).                                                                   |
|                                                                             |
 -----------------------------------------------------------------------------

 POTCAR:    PAW_PBE Cu 22Jun2005                  
   SHA256 =  0e71e558f37a4e8407882b4609ceaae59938afaad9ced71dfe8490308a0ab630 Cu/POTCAR             
   COPYR  = (c) Copyright 22Jun2005 Georg Kresse                                                    
   COPYR  = This file is part of the software VASP. Any use, copying, and all other rights are regul
   COPYR  = If you do not have a valid VASP license, you may not use, copy or distribute this file. 
   VRHFIN =Cu: d10 p1                                                                               
   LEXCH  = PE                                                                                      
   EATOM  =  1390.9808 eV,  102.2342 Ry                                                             
                                                                                                    
   TITEL  = PAW_PBE Cu 22Jun2005                                                                    
   LULTRA =        F    use ultrasoft PP ?                                                          
   IUNSCR =        1    unscreen: 0-lin 1-nonlin 2-no                                               
   RPACOR =    2.000    partial core radius                                                         
   POMASS =   63.546; ZVAL   =   11.000    mass and valenz                                          
   RCORE  =    2.300    outmost cutoff radius                                                       
   RWIGS  =    2.200; RWIGS  =    1.164    wigner-seitz radius (au A)                               
   ENMAX  =  295.446; ENMIN  =  221.585 eV                                                          
   ICORE  =        3    local potential                                                             
   LCOR   =        T    correct aug charges                                                         
   LPAW   =        T    paw PP                                                                      
   EAUG   =  586.980                                                                                
   DEXC   =    0.000                                                                                
   RMAX   =    2.344    core radius for proj-oper                                                   
   RAUG   =    1.300    factor for augmentation sphere                                              
   RDEP   =    2.302    radius for radial grids                                                     
   RDEPT  =    1.771    core radius for aug-charge                                                  
                                                                                                    
   Atomic configuration                                                                             
    9 entries                                                                                       
     n  l   j            E        occ.                                                              
     1  0  0.50     -8850.2468   2.0000                                                             
     2  0  0.50     -1062.3498   2.0000                                                             
     2  1  1.50      -916.8226   6.0000                                                             
     3  0  0.50      -114.6929   2.0000                                                             
     3  1  1.50       -72.1325   6.0000                                                             
     3  2  2.50        -5.0394  10.0000                                                             
     4  0  0.50        -4.6097   1.0000                                                             
     4  1  0.50        -4.0817   0.0000                                                             
     4  3  2.50        -1.3606   0.0000                                                             
   Description                                                                                      
     l       E           TYP  RCUT    TYP  RCUT                                                     
     2     -5.0393973     23  2.200                                                                 
     2     10.8846608     23  2.200                                                                 
     0     -4.6097109     23  2.200                                                                 
     0      8.2520465     23  2.200                                                                 
     1     -2.7211652     23  2.200                                                                 
     1     21.7055443     23  2.200                                                                 
     3      2.7211652     23  2.300                                                                 
  local pseudopotential read in
  partial core-charges read in
  partial kinetic energy density read in
  atomic valenz-charges read in
  non local Contribution for L=            2  read in
    real space projection operators read in
  non local Contribution for L=            2  read in
    real space projection operators read in
  non local Contribution for L=            0  read in
    real space projection operators read in
  non local Contribution for L=            0  read in
    real space projection operators read in
  non local Contribution for L=            1  read in
    real space projection operators read in
  non local Contribution for L=            1  read in
    real space projection operators read in
    PAW grid and wavefunctions read in
 
   number of l-projection  operators is LMAX  =            6
   number of lm-projection operators is LMMAX =           18
 
  PAW_PBE Cu 22Jun2005                  :
 energy of atom  1       EATOM=-1390.9808
 kinetic energy error for atom=    0.0232 (will be added to EATOM!!)
 
 
 POSCAR: Cu
  positions in cartesian coordinates
  No initial velocities read in
 exchange correlation table for  LEXCH =        8
   RHO(1)=    0.500       N(1)  =     2000
   RHO(2)=  100.500       N(2)  =     4000
 


--------------------------------------------------------------------------------------------------------


 ion  position               nearest neighbor table
   1  0.462  0.493  0.467-  10 2.43   5 2.45   6 2.46   7 2.46   9 2.47   8 2.48   3 2.57   4 2.59
                             2 2.61
   2  0.567  0.521  0.419-  11 2.44   7 2.48   4 2.48   3 2.48   6 2.49   5 2.52   1 2.61
   3  0.547  0.560  0.506-   8 2.46  13 2.47   4 2.48   2 2.48   5 2.52   9 2.54   1 2.57
   4  0.574  0.456  0.495-  10 2.43   3 2.48   6 2.48   2 2.48   9 2.50   1 2.59
   5  0.477  0.592  0.433-  11 2.42   1 2.45   2 2.52   3 2.52   7 2.55   8 2.56
   6  0.520  0.421  0.415-   1 2.46   4 2.48  10 2.49   2 2.49   7 2.50
   7  0.465  0.505  0.373-  11 2.40   1 2.46   2 2.48   6 2.50   5 2.55
   8  0.433  0.576  0.523-  12 2.42   3 2.46  13 2.47   1 2.48   5 2.56   9 2.60
   9  0.489  0.484  0.559-  12 2.43  13 2.46   1 2.47   4 2.50  10 2.52   3 2.54   8 2.60
  10  0.478  0.396  0.502-   4 2.43   1 2.43   6 2.49   9 2.52
  11  0.530  0.586  0.351-   7 2.40   5 2.42   2 2.44
  12  0.408  0.536  0.607-  13 2.40   8 2.42   9 2.43
  13  0.511  0.581  0.594-  12 2.40   9 2.46   8 2.47   3 2.47
 

IMPORTANT INFORMATION: All symmetrisations will be switched off!
NOSYMM: (Re-)initialisation of all symmetry stuff for point group C_1.


----------------------------------------------------------------------------------------

                                     Primitive cell                                     

  volume of cell :   12506.3592

  direct lattice vectors                    reciprocal lattice vectors
    20.889299820  0.000000000  0.000000000     0.047871399  0.000000000  0.000000000
     0.000000000 22.935512490  0.000000000     0.000000000  0.043600508  0.000000000
     0.000000000  0.000000000 26.103489477     0.000000000  0.000000000  0.038309054

  length of vectors
    20.889299820 22.935512490 26.103489477     0.047871399  0.043600508  0.038309054

  position of ions in fractional coordinates (direct lattice)
     0.461821057  0.493170499  0.467130638
     0.566815370  0.521032196  0.418981269
     0.547289364  0.560474677  0.506205606
     0.573590273  0.455876500  0.494724464
     0.476630112  0.591902582  0.433079032
     0.520397590  0.420920122  0.415483030
     0.464537493  0.504539082  0.373310309
     0.432585212  0.576132637  0.523409342
     0.489485799  0.483526509  0.558663180
     0.478042980  0.395715298  0.501661475
     0.530295556  0.586303433  0.351128955
     0.408363230  0.535715127  0.606761030
     0.510573114  0.580900563  0.594368490

  ion indices of the primitive-cell ions
   primitive index   ion index
                 1           1
                 2           2
                 3           3
                 4           4
                 5           5
                 6           6
                 7           7
                 8           8
                 9           9
                10          10
                11          11
                12          12
                13          13

----------------------------------------------------------------------------------------

 
 
 KPOINTS: KPOINTS created by Atomic Simulation Env

Automatic generation of k-mesh.
Space group operators:
 irot       det(A)        alpha          n_x          n_y          n_z        tau_x        tau_y        tau_z
    1     1.000000     0.000000     1.000000     0.000000     0.000000     0.000000     0.000000     0.000000
 
 Subroutine IBZKPT returns following result:
 ===========================================
 
 Found      1 irreducible k-points:
 
 Following reciprocal coordinates:
            Coordinates               Weight
  0.000000  0.000000  0.000000      1.000000
 
 Following cartesian coordinates:
            Coordinates               Weight
  0.000000  0.000000  0.000000      1.000000
 


--------------------------------------------------------------------------------------------------------




 Dimension of arrays:
   k-points           NKPTS =      1   k-points in BZ     NKDIM =      1   number of bands    NBANDS=     92
   number of dos      NEDOS =    301   number of ions     NIONS =     13
   non local maximal  LDIM  =      6   non local SUM 2l+1 LMDIM =     18
   total plane-waves  NPLWV = ******
   max r-space proj   IRMAX =      1   max aug-charges    IRDMAX=   3785
   dimension x,y,z NGX =   108 NGY =  112 NGZ =  128
   dimension x,y,z NGXF=   216 NGYF=  224 NGZF=  256
   support grid    NGXF=   216 NGYF=  224 NGZF=  256
   ions per type =              13
   NGX,Y,Z   is equivalent  to a cutoff of   8.60,  8.12,  8.15 a.u.
   NGXF,Y,Z  is equivalent  to a cutoff of  17.19, 16.24, 16.30 a.u.

 SYSTEM =  unknown system                          
 POSCAR =  Cu                                      

 Startparameter for this run:
   NWRITE =      2    write-flag & timer
   PREC   = normal    normal or accurate (medium, high low for compatibility)
   ISTART =      0    job   : 0-new  1-cont  2-samecut
   ICHARG =      2    charge: 1-file 2-atom 10-const
   ISPIN  =      2    spin polarized calculation?
   LNONCOLLINEAR =      F non collinear calculations
   LSORBIT =      F    spin-orbit coupling
   INIWAV =      1    electr: 0-lowe 1-rand  2-diag
   LASPH  =      F    aspherical Exc in radial PAW
   METAGGA=      F    non-selfconsistent MetaGGA calc.

 Electronic Relaxation 1
   ENCUT  =  400.0 eV  29.40 Ry    5.42 a.u.  34.07 37.40 42.57*2*pi/ulx,y,z
   ENINI  =  400.0     initial cutoff
   ENAUG  =  587.0 eV  augmentation charge cutoff
   NELM   =     60;   NELMIN=  2; NELMDL=  0     # of ELM steps 
   EDIFF  = 0.1E-03   stopping-criterion for ELM
   LREAL  =      F    real-space projection
   NLSPLINE    = F    spline interpolate recip. space projectors
   LCOMPAT=      F    compatible to vasp.4.4
   GGA_COMPAT  = T    GGA compatible to vasp.4.4-vasp.4.6
   LMAXPAW     = -100 max onsite density
   LMAXMIX     =    2 max onsite mixed and CHGCAR
   VOSKOWN=      0    Vosko Wilk Nusair interpolation
   ROPT   =    0.00000
 Ionic relaxation
   EDIFFG = 0.1E-02   stopping-criterion for IOM
   NSW    =   1000    number of steps for IOM
   NBLOCK =      1;   KBLOCK =   1000    inner block; outer block 
   IBRION =      2    ionic relax: 0-MD 1-quasi-New 2-CG
   NFREE  =      1    steps in history (QN), initial steepest desc. (CG)
   ISIF   =      0    stress and relaxation
   IWAVPR =     11    prediction:  0-non 1-charg 2-wave 3-comb
   ISYM   =      0    0-nonsym 1-usesym 2-fastsym
   LCORR  =      T    Harris-Foulkes like correction to forces

   POTIM  = 0.5000    time-step for ionic-motion
   TEIN   =    0.0    initial temperature
   TEBEG  =    0.0;   TEEND  =   0.0 temperature during run
   SMASS  =  -3.00    Nose mass-parameter (am)
   estimated Nose-frequenzy (Omega)   =  0.10E-29 period in steps = 0.13E+47 mass=  -0.997E-26a.u.
   SCALEE = 1.0000    scale energy and forces
   NPACO  =    256;   APACO  = 16.0  distance and # of slots for P.C.
   PSTRESS=    0.0 pullay stress

  Mass of Ions in am
   POMASS =  63.55
  Ionic Valenz
   ZVAL   =  11.00
  Atomic Wigner-Seitz radii
   RWIGS  =  -1.00
  virtual crystal weights 
   VCA    =   1.00
   NELECT =     143.0000    total number of electrons
   NUPDOWN=      -1.0000    fix difference up-down

 DOS related values:
   EMIN   =  10.00;   EMAX   =-10.00  energy-range for DOS
   EFERMI =   0.00
   ISMEAR =     1;   SIGMA  =   0.20  broadening in eV -4-tet -1-fermi 0-gaus

 Electronic relaxation 2 (details)
   IALGO  =     38    algorithm
   LDIAG  =      T    sub-space diagonalisation (order eigenvalues)
   LSUBROT=      F    optimize rotation matrix (better conditioning)
   TURBO    =      0    0=normal 1=particle mesh
   IRESTART =      0    0=no restart 2=restart with 2 vectors
   NREBOOT  =      0    no. of reboots
   NMIN     =      0    reboot dimension
   EREF     =   0.00    reference energy to select bands
   IMIX   =      4    mixing-type and parameters
     AMIX     =   0.40;   BMIX     =  1.00
     AMIX_MAG =   1.60;   BMIX_MAG =  1.00
     AMIN     =   0.10
     WC   =   100.;   INIMIX=   1;  MIXPRE=   1;  MAXMIX= -45

 Intra band minimization:
   WEIMIN = 0.0010     energy-eigenvalue tresh-hold
   EBREAK =  0.27E-06  absolut break condition
   DEPER  =   0.30     relativ break condition  

   TIME   =   0.40     timestep for ELM

  volume/ion in A,a.u.               =     962.03      6492.08
  Fermi-wavevector in a.u.,A,eV,Ry     =   0.368816  0.696961  1.850737  0.136025
  Thomas-Fermi vector in A             =   1.294967
 
 Write flags
   LWAVE        =      F    write WAVECAR
   LDOWNSAMPLE  =      F    k-point downsampling of WAVECAR
   LCHARG       =      F    write CHGCAR
   LVTOT        =      F    write LOCPOT, total local potential
   LVHAR        =      F    write LOCPOT, Hartree potential only
   LELF         =      F    write electronic localiz. function (ELF)
   LORBIT       =      0    0 simple, 1 ext, 2 COOP (PROOUT), +10 PAW based schemes


 Dipole corrections
   LMONO  =      F    monopole corrections only (constant potential shift)
   LDIPOL =      F    correct potential (dipole corrections)
   IDIPOL =      0    1-x, 2-y, 3-z, 4-all directions 
   EPSILON=  1.0000000 bulk dielectric constant

 Exchange correlation treatment:
   GGA     =    PE    GGA type
   LEXCH   =     8    internal setting for exchange type
   VOSKOWN=      0    Vosko Wilk Nusair interpolation
   LHFCALC =     F    Hartree Fock is set to
   LHFONE  =     F    Hartree Fock one center treatment
   AEXX    =    0.0000 exact exchange contribution

 Linear response parameters
   LEPSILON=     F    determine dielectric tensor
   LRPA    =     F    only Hartree local field effects (RPA)
   LNABLA  =     F    use nabla operator in PAW spheres
   LVEL    =     F    velocity operator in full k-point grid
   LINTERFAST=   F  fast interpolation
   KINTER  =     0    interpolate to denser k-point grid
   CSHIFT  =0.1000    complex shift for real part using Kramers Kronig
   OMEGAMAX=  -1.0    maximum frequency
   DEG_THRESHOLD= 0.2000000E-02 threshold for treating states as degnerate
   RTIME   =   -0.100 relaxation time in fs
  (WPLASMAI=    0.000 imaginary part of plasma frequency in eV, 0.658/RTIME)
   DFIELD  = 0.0000000 0.0000000 0.0000000 field for delta impulse in time
 
 Orbital magnetization related:
   ORBITALMAG=     F  switch on orbital magnetization
   LCHIMAG   =     F  perturbation theory with respect to B field
   DQ        =  0.001000  dq finite difference perturbation B field
   LLRAUG    =     F  two centre corrections for induced B field



--------------------------------------------------------------------------------------------------------


 conjugate gradient relaxation of ions
 charge density and potential will be updated during run
 spin polarized calculation
 Variant of blocked Davidson
 Davidson routine will perform the subspace rotation
 perform sub-space diagonalisation
    after iterative eigenvector-optimisation
 modified Broyden-mixing scheme, WC =      100.0
 initial mixing is a Kerker type mixing with AMIX =  0.4000 and BMIX =      1.0000
 Hartree-type preconditioning will be used
 using additional bands            20
 reciprocal scheme for non local part
 use partial core corrections
 calculate Harris-corrections to forces 
   (improved forces if not selfconsistent)
 use gradient corrections 
 use of overlap-Matrix (Vanderbilt PP)
 Methfessel and Paxton  Order N= 1 SIGMA  =   0.20


--------------------------------------------------------------------------------------------------------


  energy-cutoff  :      400.00
  volume of cell :    12506.36
      direct lattice vectors                 reciprocal lattice vectors
    20.889299820  0.000000000  0.000000000     0.047871399  0.000000000  0.000000000
     0.000000000 22.935512490  0.000000000     0.000000000  0.043600508  0.000000000
     0.000000000  0.000000000 26.103489477     0.000000000  0.000000000  0.038309054

  length of vectors
    20.889299820 22.935512490 26.103489477     0.047871399  0.043600508  0.038309054


 
 k-points in units of 2pi/SCALE and weight: KPOINTS created by Atomic Simulation Env
   0.00000000  0.00000000  0.00000000       1.000
 
 k-points in reciprocal lattice and weights: KPOINTS created by Atomic Simulation Env
   0.00000000  0.00000000  0.00000000       1.000
 
 position of ions in fractional coordinates (direct lattice) 
   0.46182106  0.49317050  0.46713064
   0.56681537  0.52103220  0.41898127
   0.54728936  0.56047468  0.50620561
   0.57359027  0.45587650  0.49472446
   0.47663011  0.59190258  0.43307903
   0.52039759  0.42092012  0.41548303
   0.46453749  0.50453908  0.37331031
   0.43258521  0.57613264  0.52340934
   0.48948580  0.48352651  0.55866318
   0.47804298  0.39571530  0.50166148
   0.53029556  0.58630343  0.35112896
   0.40836323  0.53571513  0.60676103
   0.51057311  0.58090056  0.59436849
 
 position of ions in cartesian coordinates  (Angst):
   9.64711852 11.31111814 12.19373969
  11.84037621 11.95014045 10.93687316
  11.43249162 12.85477396 13.21373272
  11.98189918 10.45576115 12.91403484
   9.95646932 13.57558906 11.30487396
  10.87074128  9.65401872 10.84555691
   9.70386296 11.57186241  9.74470172
   9.03640220 13.21389730 13.66281026
  10.22501561 11.08992829 14.58305845
   9.98598313  9.07593317 13.09511504
  11.07750287 13.44716971  9.16569099
   8.53042195 12.28690099 15.83858017
  10.66551486 13.32325211 15.51509162
 


--------------------------------------------------------------------------------------------------------


 use parallel FFT for orbitals z direction half grid
 k-point   1 :   0.0000 0.0000 0.0000  plane waves:  113594

 maximum and minimum number of plane-waves per node :     14205    14193

 maximum number of plane-waves:    113594
 maximum index in each direction: 
   IXMAX=   34   IYMAX=   37   IZMAX=   42
   IXMIN=  -34   IYMIN=  -37   IZMIN=    0


 parallel 3D FFT for wavefunctions:
    minimum data exchange during FFTs selected (reduces bandwidth)
 parallel 3D FFT for charge:
    minimum data exchange during FFTs selected (reduces bandwidth)


 total amount of memory used by VASP MPI-rank0   261787. kBytes
=======================================================================

   base      :      30000. kBytes
   nonl-proj :       4995. kBytes
   fftplans  :      56664. kBytes
   grid      :     128260. kBytes
   one-center:         31. kBytes
   wavefun   :      41837. kBytes
 
     INWAV:  cpu time    0.0000: real time    0.0000
 Broyden mixing: mesh for mixing (old mesh)
   NGX = 69   NGY = 75   NGZ = 85
  (NGX  =216   NGY  =224   NGZ  =256)
  gives a total of 439875 points

 initial charge density was supplied:
 charge density of overlapping atoms calculated
 number of electron     143.0000000 magnetization      13.0000000
 keeping initial charge density in first step


--------------------------------------------------------------------------------------------------------


 Maximum index for augmentation-charges           448 (set IRDMAX)


--------------------------------------------------------------------------------------------------------


 First call to EWALD:  gamma=   0.076
 Maximum number of real-space cells 3x 3x 2
 Maximum number of reciprocal cells 3x 3x 3

    FEWALD:  cpu time    0.0025: real time    0.0025


--------------------------------------- Iteration      1(   1)  ---------------------------------------


    POTLOK:  cpu time    4.0411: real time   15.0686
    SETDIJ:  cpu time    0.0340: real time    0.0341
     EDDAV:  cpu time   12.5087: real time   12.5262
       DOS:  cpu time    0.0024: real time    0.0024
    --------------------------------------------
      LOOP:  cpu time   16.5861: real time   27.6312

 eigenvalue-minimisations  :   368
 total energy-change (2. order) : 0.9673260E+03  (-0.2538008E+04)
 number of electron     143.0000000 magnetization      13.0000000
 augmentation part      143.0000000 magnetization      13.0000000

 Free energy of the ion-electron system (eV)
  ---------------------------------------------------
  alpha Z        PSCENC =         9.88252744
  Ewald energy   TEWEN  =     23674.64024405
  -Hartree energ DENC   =    -40142.84355745
  -exchange      EXHF   =         0.00000000
  -V(xc)+E(xc)   XCENC  =       584.07006559
  PAW double counting   =     15965.26744864   -17340.97210982
  entropy T*S    EENTRO =        -0.04874382
  eigenvalues    EBANDS =       134.88084935
  atomic energy  EATOM  =     18082.44932260
  Solvation  Ediel_sol  =         0.00000000
  ---------------------------------------------------
  free energy    TOTEN  =       967.32604657 eV

  energy without entropy =      967.37479039  energy(sigma->0) =      967.34229451


--------------------------------------------------------------------------------------------------------




--------------------------------------- Iteration      1(   2)  ---------------------------------------


     EDDAV:  cpu time   12.6479: real time   12.6591
       DOS:  cpu time    0.0022: real time    0.0022
    --------------------------------------------
      LOOP:  cpu time   12.6501: real time   12.6612

 eigenvalue-minimisations  :   376
 total energy-change (2. order) :-0.7298254E+03  (-0.6515502E+03)
 number of electron     143.0000000 magnetization      13.0000000
 augmentation part      143.0000000 magnetization      13.0000000

 Free energy of the ion-electron system (eV)
  ---------------------------------------------------
  alpha Z        PSCENC =         9.88252744
  Ewald energy   TEWEN  =     23674.64024405
  -Hartree energ DENC   =    -40142.84355745
  -exchange      EXHF   =         0.00000000
  -V(xc)+E(xc)   XCENC  =       584.07006559
  PAW double counting   =     15965.26744864   -17340.97210982
  entropy T*S    EENTRO =        -0.02466552
  eigenvalues    EBANDS =      -594.96867173
  atomic energy  EATOM  =     18082.44932260
  Solvation  Ediel_sol  =         0.00000000
  ---------------------------------------------------
  free energy    TOTEN  =       237.50060378 eV

  energy without entropy =      237.52526930  energy(sigma->0) =      237.50882562


--------------------------------------------------------------------------------------------------------




--------------------------------------- Iteration      1(   3)  ---------------------------------------


     EDDAV:  cpu time   14.8063: real time   14.8210
       DOS:  cpu time    0.0023: real time    0.0023
    --------------------------------------------
      LOOP:  cpu time   14.8086: real time   14.8234

 eigenvalue-minimisations  :   464
 total energy-change (2. order) :-0.2301656E+03  (-0.2206840E+03)
 number of electron     143.0000000 magnetization      13.0000000
 augmentation part      143.0000000 magnetization      13.0000000

 Free energy of the ion-electron system (eV)
  ---------------------------------------------------
  alpha Z        PSCENC =         9.88252744
  Ewald energy   TEWEN  =     23674.64024405
  -Hartree energ DENC   =    -40142.84355745
  -exchange      EXHF   =         0.00000000
  -V(xc)+E(xc)   XCENC  =       584.07006559
  PAW double counting   =     15965.26744864   -17340.97210982
  entropy T*S    EENTRO =        -0.01060587
  eigenvalues    EBANDS =      -825.14835989
  atomic energy  EATOM  =     18082.44932260
  Solvation  Ediel_sol  =         0.00000000
  ---------------------------------------------------
  free energy    TOTEN  =         7.33497528 eV

  energy without entropy =        7.34558115  energy(sigma->0) =        7.33851057


--------------------------------------------------------------------------------------------------------




--------------------------------------- Iteration      1(   4)  ---------------------------------------


     EDDAV:  cpu time   13.9917: real time   14.0074
       DOS:  cpu time    0.0022: real time    0.0022
    --------------------------------------------
      LOOP:  cpu time   13.9938: real time   14.0096

 eigenvalue-minimisations  :   432
 total energy-change (2. order) :-0.4204446E+02  (-0.3906391E+02)
 number of electron     143.0000000 magnetization      13.0000000
 augmentation part      143.0000000 magnetization      13.0000000

 Free energy of the ion-electron system (eV)
  ---------------------------------------------------
  alpha Z        PSCENC =         9.88252744
  Ewald energy   TEWEN  =     23674.64024405
  -Hartree energ DENC   =    -40142.84355745
  -exchange      EXHF   =         0.00000000
  -V(xc)+E(xc)   XCENC  =       584.07006559
  PAW double counting   =     15965.26744864   -17340.97210982
  entropy T*S    EENTRO =         0.03568540
  eigenvalues    EBANDS =      -867.23910726
  atomic energy  EATOM  =     18082.44932260
  Solvation  Ediel_sol  =         0.00000000
  ---------------------------------------------------
  free energy    TOTEN  =       -34.70948083 eV

  energy without entropy =      -34.74516622  energy(sigma->0) =      -34.72137596


--------------------------------------------------------------------------------------------------------




--------------------------------------- Iteration      1(   5)  ---------------------------------------


     EDDAV:  cpu time   15.0498: real time   15.0684
       DOS:  cpu time    0.0036: real time    0.0036
    CHARGE:  cpu time    1.1706: real time    1.1716
    MIXING:  cpu time    0.0658: real time    0.0659
    --------------------------------------------
      LOOP:  cpu time   16.2897: real time   16.3094

 eigenvalue-minimisations  :   472
 total energy-change (2. order) :-0.1904003E+01  (-0.1874514E+01)
 number of electron     142.9999998 magnetization      12.0164586
 augmentation part       87.5080110 magnetization      11.7391294

 Broyden mixing:
  rms(total) = 0.28155E+01    rms(broyden)= 0.28153E+01
  rms(prec ) = 0.28771E+01
  weight for this iteration     100.00

 Free energy of the ion-electron system (eV)
  ---------------------------------------------------
  alpha Z        PSCENC =         9.88252744
  Ewald energy   TEWEN  =     23674.64024405
  -Hartree energ DENC   =    -40142.84355745
  -exchange      EXHF   =         0.00000000
  -V(xc)+E(xc)   XCENC  =       584.07006559
  PAW double counting   =     15965.26744864   -17340.97210982
  entropy T*S    EENTRO =         0.01826074
  eigenvalues    EBANDS =      -869.12568523
  atomic energy  EATOM  =     18082.44932260
  Solvation  Ediel_sol  =         0.00000000
  ---------------------------------------------------
  free energy    TOTEN  =       -36.61348345 eV

  energy without entropy =      -36.63174419  energy(sigma->0) =      -36.61957036


--------------------------------------------------------------------------------------------------------




--------------------------------------- Iteration      1(   6)  ---------------------------------------


    POTLOK:  cpu time    4.0928: real time    4.1010
    SETDIJ:  cpu time    0.0328: real time    0.0328
     EDDAV:  cpu time   12.8807: real time   12.8940
       DOS:  cpu time    0.0012: real time    0.0012
    CHARGE:  cpu time    1.1437: real time    1.1463
    MIXING:  cpu time    0.0731: real time    0.0950
    --------------------------------------------
      LOOP:  cpu time   18.2242: real time   18.2702

 eigenvalue-minimisations  :   388
 total energy-change (2. order) : 0.2015211E+02  (-0.1345232E+02)
 number of electron     142.9999994 magnetization      11.4275475
 augmentation part       94.9969843 magnetization       7.4351020

 Broyden mixing:
  rms(total) = 0.12363E+01    rms(broyden)= 0.12361E+01
  rms(prec ) = 0.12974E+01
  weight for this iteration     100.00

 eigenvalues of (default mixing * dielectric matrix)
  average eigenvalue GAMMA=   0.8280
  0.8280

 Free energy of the ion-electron system (eV)
  ---------------------------------------------------
  alpha Z        PSCENC =         9.88252744
  Ewald energy   TEWEN  =     23674.64024405
  -Hartree energ DENC   =    -39927.30044402
  -exchange      EXHF   =         0.00000000
  -V(xc)+E(xc)   XCENC  =       585.05865939
  PAW double counting   =     16107.04320633   -17437.56802878
  entropy T*S    EENTRO =        -0.00754735
  eigenvalues    EBANDS =     -1110.65931333
  atomic energy  EATOM  =     18082.44932260
  Solvation  Ediel_sol  =         0.00000000
  ---------------------------------------------------
  free energy    TOTEN  =       -16.46137367 eV

  energy without entropy =      -16.45382632  energy(sigma->0) =      -16.45885789


--------------------------------------------------------------------------------------------------------




--------------------------------------- Iteration      1(   7)  ---------------------------------------


    POTLOK:  cpu time    4.0227: real time    4.0262
    SETDIJ:  cpu time    0.0338: real time    0.0338
     EDDAV:  cpu time   14.1473: real time   14.1594
       DOS:  cpu time    0.0024: real time    0.0023
    CHARGE:  cpu time    1.1479: real time    1.1489
    MIXING:  cpu time    0.0782: real time    0.0783
    --------------------------------------------
      LOOP:  cpu time   19.4322: real time   19.4489

 eigenvalue-minimisations  :   440
 total energy-change (2. order) : 0.5947460E+01  (-0.3132821E+01)
 number of electron     142.9999994 magnetization      10.6806216
 augmentation part       92.0704071 magnetization       6.6577482

 Broyden mixing:
  rms(total) = 0.50202E+00    rms(broyden)= 0.50191E+00
  rms(prec ) = 0.52101E+00
  weight for this iteration     100.00

 eigenvalues of (default mixing * dielectric matrix)
  average eigenvalue GAMMA=   0.8506
  1.0535  0.6477

 Free energy of the ion-electron system (eV)
  ---------------------------------------------------
  alpha Z        PSCENC =         9.88252744
  Ewald energy   TEWEN  =     23674.64024405
  -Hartree energ DENC   =    -40088.33216042
  -exchange      EXHF   =         0.00000000
  -V(xc)+E(xc)   XCENC  =       593.33336565
  PAW double counting   =     16412.65328278   -17796.40262786
  entropy T*S    EENTRO =        -0.01875241
  eigenvalues    EBANDS =      -898.71911597
  atomic energy  EATOM  =     18082.44932260
  Solvation  Ediel_sol  =         0.00000000
  ---------------------------------------------------
  free energy    TOTEN  =       -10.51391414 eV

  energy without entropy =      -10.49516173  energy(sigma->0) =      -10.50766334


--------------------------------------------------------------------------------------------------------




--------------------------------------- Iteration      1(   8)  ---------------------------------------


    POTLOK:  cpu time    4.0405: real time    4.0527
    SETDIJ:  cpu time    0.0332: real time    0.0332
     EDDAV:  cpu time   14.1602: real time   14.1721
       DOS:  cpu time    0.0023: real time    0.0023
    CHARGE:  cpu time    1.1532: real time    1.1542
    MIXING:  cpu time    0.0815: real time    0.0816
    --------------------------------------------
      LOOP:  cpu time   19.4709: real time   19.4960

 eigenvalue-minimisations  :   440
 total energy-change (2. order) : 0.6618930E+00  (-0.6515617E+00)
 number of electron     142.9999993 magnetization      10.1556498
 augmentation part       91.6047015 magnetization       5.8871880

 Broyden mixing:
  rms(total) = 0.45812E+00    rms(broyden)= 0.45806E+00
  rms(prec ) = 0.47635E+00
  weight for this iteration     100.00

 eigenvalues of (default mixing * dielectric matrix)
  average eigenvalue GAMMA=   0.7815
  1.1859  0.6282  0.5303

 Free energy of the ion-electron system (eV)
  ---------------------------------------------------
  alpha Z        PSCENC =         9.88252744
  Ewald energy   TEWEN  =     23674.64024405
  -Hartree energ DENC   =    -40121.91699210
  -exchange      EXHF   =         0.00000000
  -V(xc)+E(xc)   XCENC  =       593.95896828
  PAW double counting   =     16609.32834476   -18003.48971133
  entropy T*S    EENTRO =        -0.02741421
  eigenvalues    EBANDS =      -854.67731067
  atomic energy  EATOM  =     18082.44932260
  Solvation  Ediel_sol  =         0.00000000
  ---------------------------------------------------
  free energy    TOTEN  =        -9.85202118 eV

  energy without entropy =       -9.82460697  energy(sigma->0) =       -9.84288311


--------------------------------------------------------------------------------------------------------




--------------------------------------- Iteration      1(   9)  ---------------------------------------


    POTLOK:  cpu time    4.0715: real time    4.0758
    SETDIJ:  cpu time    0.0333: real time    0.0334
     EDDAV:  cpu time   15.7043: real time   15.7228
       DOS:  cpu time    0.0013: real time    0.0013
    CHARGE:  cpu time    1.1445: real time    1.1455
    MIXING:  cpu time    0.0871: real time    0.0872
    --------------------------------------------
      LOOP:  cpu time   21.0420: real time   21.0660

 eigenvalue-minimisations  :   504
 total energy-change (2. order) :-0.1347319E+01  (-0.1504492E+00)
 number of electron     142.9999992 magnetization       9.0859752
 augmentation part       91.5841800 magnetization       5.0216037

 Broyden mixing:
  rms(total) = 0.28511E+00    rms(broyden)= 0.28508E+00
  rms(prec ) = 0.29178E+00
  weight for this iteration     100.00

 eigenvalues of (default mixing * dielectric matrix)
  average eigenvalue GAMMA=   0.9445
  1.2878  1.2878  0.7548  0.4473

 Free energy of the ion-electron system (eV)
  ---------------------------------------------------
  alpha Z        PSCENC =         9.88252744
  Ewald energy   TEWEN  =     23674.64024405
  -Hartree energ DENC   =    -40128.72687048
  -exchange      EXHF   =         0.00000000
  -V(xc)+E(xc)   XCENC  =       592.34493164
  PAW double counting   =     16691.32640590   -18087.08071252
  entropy T*S    EENTRO =        -0.00617407
  eigenvalues    EBANDS =      -846.02901490
  atomic energy  EATOM  =     18082.44932260
  Solvation  Ediel_sol  =         0.00000000
  ---------------------------------------------------
  free energy    TOTEN  =       -11.19934034 eV

  energy without entropy =      -11.19316627  energy(sigma->0) =      -11.19728232


--------------------------------------------------------------------------------------------------------




--------------------------------------- Iteration      1(  10)  ---------------------------------------


    POTLOK:  cpu time    4.0094: real time    4.0162
    SETDIJ:  cpu time    0.0338: real time    0.0339
     EDDAV:  cpu time   15.5030: real time   15.5163
       DOS:  cpu time    0.0050: real time    0.0050
    CHARGE:  cpu time    1.1768: real time    1.1777
    MIXING:  cpu time    0.0959: real time    0.0960
    --------------------------------------------
      LOOP:  cpu time   20.8241: real time   20.8451

 eigenvalue-minimisations  :   496
 total energy-change (2. order) :-0.5168504E+01  (-0.2905549E+00)
 number of electron     142.9999993 magnetization       8.3823835
 augmentation part       91.9475433 magnetization       4.6203108

 Broyden mixing:
  rms(total) = 0.20457E+00    rms(broyden)= 0.20454E+00
  rms(prec ) = 0.20982E+00
  weight for this iteration     100.00

 eigenvalues of (default mixing * dielectric matrix)
  average eigenvalue GAMMA=   1.0316
  1.7210  1.7210  0.6212  0.6212  0.4737

 Free energy of the ion-electron system (eV)
  ---------------------------------------------------
  alpha Z        PSCENC =         9.88252744
  Ewald energy   TEWEN  =     23674.64024405
  -Hartree energ DENC   =    -40122.88149679
  -exchange      EXHF   =         0.00000000
  -V(xc)+E(xc)   XCENC  =       587.38542890
  PAW double counting   =     16747.01051936   -18138.69065581
  entropy T*S    EENTRO =         0.00786395
  eigenvalues    EBANDS =      -856.17159831
  atomic energy  EATOM  =     18082.44932260
  Solvation  Ediel_sol  =         0.00000000
  ---------------------------------------------------
  free energy    TOTEN  =       -16.36784462 eV

  energy without entropy =      -16.37570857  energy(sigma->0) =      -16.37046593


--------------------------------------------------------------------------------------------------------




--------------------------------------- Iteration      1(  11)  ---------------------------------------


    POTLOK:  cpu time    4.0650: real time    4.0724
    SETDIJ:  cpu time    0.0327: real time    0.0328
     EDDAV:  cpu time   14.9693: real time   14.9855
       DOS:  cpu time    0.0051: real time    0.0051
    CHARGE:  cpu time    1.1582: real time    1.1591
    MIXING:  cpu time    0.1091: real time    0.1092
    --------------------------------------------
      LOOP:  cpu time   20.3394: real time   20.3641

 eigenvalue-minimisations  :   472
 total energy-change (2. order) :-0.3972629E+01  (-0.1721790E+00)
 number of electron     142.9999993 magnetization       7.7667192
 augmentation part       92.0118025 magnetization       4.7621343

 Broyden mixing:
  rms(total) = 0.17345E+00    rms(broyden)= 0.17339E+00
  rms(prec ) = 0.17711E+00
  weight for this iteration     100.00

 eigenvalues of (default mixing * dielectric matrix)
  average eigenvalue GAMMA=   0.9665
  1.7763  1.7763  0.6820  0.6820  0.4560  0.4265

 Free energy of the ion-electron system (eV)
  ---------------------------------------------------
  alpha Z        PSCENC =         9.88252744
  Ewald energy   TEWEN  =     23674.64024405
  -Hartree energ DENC   =    -40123.55628832
  -exchange      EXHF   =         0.00000000
  -V(xc)+E(xc)   XCENC  =       584.21573158
  PAW double counting   =     16755.77007732   -18146.61372285
  entropy T*S    EENTRO =        -0.02665103
  eigenvalues    EBANDS =      -857.10171425
  atomic energy  EATOM  =     18082.44932260
  Solvation  Ediel_sol  =         0.00000000
  ---------------------------------------------------
  free energy    TOTEN  =       -20.34047347 eV

  energy without entropy =      -20.31382244  energy(sigma->0) =      -20.33158979


--------------------------------------------------------------------------------------------------------




--------------------------------------- Iteration      1(  12)  ---------------------------------------


    POTLOK:  cpu time    4.0001: real time    4.0099
    SETDIJ:  cpu time    0.0333: real time    0.0333
     EDDAV:  cpu time   16.5614: real time   16.5793
       DOS:  cpu time    0.0049: real time    0.0049
    CHARGE:  cpu time    1.1617: real time    1.1646
    MIXING:  cpu time    0.1245: real time    0.1247
    --------------------------------------------
      LOOP:  cpu time   21.8860: real time   21.9167

 eigenvalue-minimisations  :   536
 total energy-change (2. order) :-0.1893699E+01  (-0.7318483E-01)
 number of electron     142.9999994 magnetization       6.9855115
 augmentation part       91.9346301 magnetization       4.5005556

 Broyden mixing:
  rms(total) = 0.14727E+00    rms(broyden)= 0.14722E+00
  rms(prec ) = 0.15007E+00
  weight for this iteration     100.00

 eigenvalues of (default mixing * dielectric matrix)
  average eigenvalue GAMMA=   1.0175
  2.1877  1.7231  0.7907  0.7907  0.4690  0.5807  0.5807

 Free energy of the ion-electron system (eV)
  ---------------------------------------------------
  alpha Z        PSCENC =         9.88252744
  Ewald energy   TEWEN  =     23674.64024405
  -Hartree energ DENC   =    -40131.15655202
  -exchange      EXHF   =         0.00000000
  -V(xc)+E(xc)   XCENC  =       582.97735452
  PAW double counting   =     16762.82135885   -18155.45762806
  entropy T*S    EENTRO =        -0.04824680
  eigenvalues    EBANDS =      -848.34255301
  atomic energy  EATOM  =     18082.44932260
  Solvation  Ediel_sol  =         0.00000000
  ---------------------------------------------------
  free energy    TOTEN  =       -22.23417243 eV

  energy without entropy =      -22.18592563  energy(sigma->0) =      -22.21809016


--------------------------------------------------------------------------------------------------------




--------------------------------------- Iteration      1(  13)  ---------------------------------------


    POTLOK:  cpu time    4.0370: real time    4.0413
    SETDIJ:  cpu time    0.0331: real time    0.0331
     EDDAV:  cpu time   16.6919: real time   16.7065
       DOS:  cpu time    0.0089: real time    0.0089
    CHARGE:  cpu time    1.1520: real time    1.1549
    MIXING:  cpu time    0.1338: real time    0.1339
    --------------------------------------------
      LOOP:  cpu time   22.0566: real time   22.0787

 eigenvalue-minimisations  :   544
 total energy-change (2. order) :-0.1828087E+01  (-0.5606203E-01)
 number of electron     142.9999995 magnetization       6.3166969
 augmentation part       91.8805372 magnetization       4.4545886

 Broyden mixing:
  rms(total) = 0.13920E+00    rms(broyden)= 0.13910E+00
  rms(prec ) = 0.14201E+00
  weight for this iteration     100.00

 eigenvalues of (default mixing * dielectric matrix)
  average eigenvalue GAMMA=   1.0706
  2.6733  1.4520  1.1241  1.1241  0.6682  0.6068  0.4786  0.4380

 Free energy of the ion-electron system (eV)
  ---------------------------------------------------
  alpha Z        PSCENC =         9.88252744
  Ewald energy   TEWEN  =     23674.64024405
  -Hartree energ DENC   =    -40134.78769567
  -exchange      EXHF   =         0.00000000
  -V(xc)+E(xc)   XCENC  =       581.65480818
  PAW double counting   =     16757.47265138   -18150.99672898
  entropy T*S    EENTRO =        -0.04925205
  eigenvalues    EBANDS =      -844.32813656
  atomic energy  EATOM  =     18082.44932260
  Solvation  Ediel_sol  =         0.00000000
  ---------------------------------------------------
  free energy    TOTEN  =       -24.06225962 eV

  energy without entropy =      -24.01300757  energy(sigma->0) =      -24.04584227


--------------------------------------------------------------------------------------------------------




--------------------------------------- Iteration      1(  14)  ---------------------------------------


    POTLOK:  cpu time    4.0338: real time    4.0454
    SETDIJ:  cpu time    0.0332: real time    0.0332
     EDDAV:  cpu time   16.1577: real time   16.1745
       DOS:  cpu time    0.0038: real time    0.0038
    CHARGE:  cpu time    1.1310: real time    1.1319
    MIXING:  cpu time    0.1304: real time    0.1305
    --------------------------------------------
      LOOP:  cpu time   21.4898: real time   21.5192

 eigenvalue-minimisations  :   520
 total energy-change (2. order) :-0.1150717E+01  (-0.2848703E-01)
 number of electron     142.9999998 magnetization       4.3179025
 augmentation part       91.8971813 magnetization       2.8191536

 Broyden mixing:
  rms(total) = 0.12142E+00    rms(broyden)= 0.12137E+00
  rms(prec ) = 0.12387E+00
  weight for this iteration     100.00

 eigenvalues of (default mixing * dielectric matrix)
  average eigenvalue GAMMA=   1.3058
  4.3482  1.6284  1.6284  1.3286  0.6640  0.6640  0.5741  0.4582  0.4582

 Free energy of the ion-electron system (eV)
  ---------------------------------------------------
  alpha Z        PSCENC =         9.88252744
  Ewald energy   TEWEN  =     23674.64024405
  -Hartree energ DENC   =    -40135.51661517
  -exchange      EXHF   =         0.00000000
  -V(xc)+E(xc)   XCENC  =       580.72041567
  PAW double counting   =     16752.07374438   -18145.64597002
  entropy T*S    EENTRO =        -0.03201020
  eigenvalues    EBANDS =      -843.78463551
  atomic energy  EATOM  =     18082.44932260
  Solvation  Ediel_sol  =         0.00000000
  ---------------------------------------------------
  free energy    TOTEN  =       -25.21297677 eV

  energy without entropy =      -25.18096657  energy(sigma->0) =      -25.20230670


--------------------------------------------------------------------------------------------------------




--------------------------------------- Iteration      1(  15)  ---------------------------------------


    POTLOK:  cpu time    4.0366: real time    4.1101
    SETDIJ:  cpu time    0.0333: real time    0.0333
     EDDAV:  cpu time   15.7488: real time   15.7637
       DOS:  cpu time    0.0044: real time    0.0044
    CHARGE:  cpu time    1.1485: real time    1.1493
    MIXING:  cpu time    0.1434: real time    0.1435
    --------------------------------------------
      LOOP:  cpu time   21.1150: real time   21.2043

 eigenvalue-minimisations  :   504
 total energy-change (2. order) :-0.2803950E+01  (-0.1252227E+00)
 number of electron     142.9999998 magnetization       4.1592892
 augmentation part       91.9095479 magnetization       2.9587832

 Broyden mixing:
  rms(total) = 0.11540E+00    rms(broyden)= 0.11537E+00
  rms(prec ) = 0.11822E+00
  weight for this iteration     100.00

 eigenvalues of (default mixing * dielectric matrix)
  average eigenvalue GAMMA=   1.2469
  4.4823  1.8338  1.2860  1.2860  0.8109  0.8109  0.5304  0.5304  0.4490  0.4490

 Free energy of the ion-electron system (eV)
  ---------------------------------------------------
  alpha Z        PSCENC =         9.88252744
  Ewald energy   TEWEN  =     23674.64024405
  -Hartree energ DENC   =    -40135.70898756
  -exchange      EXHF   =         0.00000000
  -V(xc)+E(xc)   XCENC  =       578.36793074
  PAW double counting   =     16720.28796417   -18113.78155729
  entropy T*S    EENTRO =         0.00190075
  eigenvalues    EBANDS =      -844.15627162
  atomic energy  EATOM  =     18082.44932260
  Solvation  Ediel_sol  =         0.00000000
  ---------------------------------------------------
  free energy    TOTEN  =       -28.01692673 eV

  energy without entropy =      -28.01882747  energy(sigma->0) =      -28.01756031


--------------------------------------------------------------------------------------------------------




--------------------------------------- Iteration      1(  16)  ---------------------------------------


    POTLOK:  cpu time    4.0218: real time    4.0261
    SETDIJ:  cpu time    0.0336: real time    0.0336
     EDDAV:  cpu time   15.3626: real time   15.3781
       DOS:  cpu time    0.0082: real time    0.0082
    CHARGE:  cpu time    1.1391: real time    1.1401
    MIXING:  cpu time    0.1458: real time    0.1460
    --------------------------------------------
      LOOP:  cpu time   20.7112: real time   20.7322

 eigenvalue-minimisations  :   488
 total energy-change (2. order) :-0.1126315E+01  (-0.2622380E-01)
 number of electron     142.9999998 magnetization       3.9457980
 augmentation part       91.8392406 magnetization       2.7870211

 Broyden mixing:
  rms(total) = 0.73252E-01    rms(broyden)= 0.73246E-01
  rms(prec ) = 0.75807E-01
  weight for this iteration     100.00

 eigenvalues of (default mixing * dielectric matrix)
  average eigenvalue GAMMA=   1.2643
  4.6658  2.2849  1.2780  1.2780  0.8477  0.8477  0.6594  0.6594  0.4805  0.4531
  0.4531

 Free energy of the ion-electron system (eV)
  ---------------------------------------------------
  alpha Z        PSCENC =         9.88252744
  Ewald energy   TEWEN  =     23674.64024405
  -Hartree energ DENC   =    -40134.47142364
  -exchange      EXHF   =         0.00000000
  -V(xc)+E(xc)   XCENC  =       577.57647271
  PAW double counting   =     16700.71157233   -18094.15338553
  entropy T*S    EENTRO =         0.00198730
  eigenvalues    EBANDS =      -845.78055857
  atomic energy  EATOM  =     18082.44932260
  Solvation  Ediel_sol  =         0.00000000
  ---------------------------------------------------
  free energy    TOTEN  =       -29.14324130 eV

  energy without entropy =      -29.14522860  energy(sigma->0) =      -29.14390373


--------------------------------------------------------------------------------------------------------




--------------------------------------- Iteration      1(  17)  ---------------------------------------


    POTLOK:  cpu time    4.0196: real time    4.0296
    SETDIJ:  cpu time    0.0323: real time    0.0323
     EDDAV:  cpu time   15.9692: real time   15.9885
       DOS:  cpu time    0.0078: real time    0.0078
    CHARGE:  cpu time    1.1364: real time    1.1373
    MIXING:  cpu time    0.1536: real time    0.1557
    --------------------------------------------
      LOOP:  cpu time   21.3189: real time   21.3512

 eigenvalue-minimisations  :   512
 total energy-change (2. order) :-0.7199506E+00  (-0.9594764E-02)
 number of electron     142.9999998 magnetization       3.5939590
 augmentation part       91.8250063 magnetization       2.4469480

 Broyden mixing:
  rms(total) = 0.54130E-01    rms(broyden)= 0.54127E-01
  rms(prec ) = 0.56604E-01
  weight for this iteration     100.00

 eigenvalues of (default mixing * dielectric matrix)
  average eigenvalue GAMMA=   1.3260
  4.4774  3.3273  1.4165  1.4165  1.0081  0.8397  0.8397  0.5947  0.5947  0.5006
  0.4487  0.4487

 Free energy of the ion-electron system (eV)
  ---------------------------------------------------
  alpha Z        PSCENC =         9.88252744
  Ewald energy   TEWEN  =     23674.64024405
  -Hartree energ DENC   =    -40130.08000616
  -exchange      EXHF   =         0.00000000
  -V(xc)+E(xc)   XCENC  =       576.94464448
  PAW double counting   =     16686.47887239   -18079.68870962
  entropy T*S    EENTRO =         0.00146669
  eigenvalues    EBANDS =      -850.49155372
  atomic energy  EATOM  =     18082.44932260
  Solvation  Ediel_sol  =         0.00000000
  ---------------------------------------------------
  free energy    TOTEN  =       -29.86319185 eV

  energy without entropy =      -29.86465855  energy(sigma->0) =      -29.86368075


--------------------------------------------------------------------------------------------------------




--------------------------------------- Iteration      1(  18)  ---------------------------------------


    POTLOK:  cpu time    4.0061: real time    4.0328
    SETDIJ:  cpu time    0.0333: real time    0.0333
     EDDAV:  cpu time   16.3654: real time   16.3806
       DOS:  cpu time    0.0086: real time    0.0086
    CHARGE:  cpu time    1.1568: real time    1.1578
    MIXING:  cpu time    0.1693: real time    0.1694
    --------------------------------------------
      LOOP:  cpu time   21.7395: real time   21.7826

 eigenvalue-minimisations  :   528
 total energy-change (2. order) :-0.9817880E+00  (-0.1617173E-01)
 number of electron     142.9999998 magnetization       2.7745689
 augmentation part       91.8406750 magnetization       1.6322257

 Broyden mixing:
  rms(total) = 0.43933E-01    rms(broyden)= 0.43926E-01
  rms(prec ) = 0.45875E-01
  weight for this iteration     100.00

 eigenvalues of (default mixing * dielectric matrix)
  average eigenvalue GAMMA=   1.4280
  6.2548  3.0925  1.5961  1.3139  1.3139  0.8608  0.8608  0.7548  0.5939  0.5506
  0.4594  0.4594  0.4524

 Free energy of the ion-electron system (eV)
  ---------------------------------------------------
  alpha Z        PSCENC =         9.88252744
  Ewald energy   TEWEN  =     23674.64024405
  -Hartree energ DENC   =    -40120.23507118
  -exchange      EXHF   =         0.00000000
  -V(xc)+E(xc)   XCENC  =       575.97843315
  PAW double counting   =     16666.54185644   -18059.15699273
  entropy T*S    EENTRO =        -0.00366585
  eigenvalues    EBANDS =      -860.94163375
  atomic energy  EATOM  =     18082.44932260
  Solvation  Ediel_sol  =         0.00000000
  ---------------------------------------------------
  free energy    TOTEN  =       -30.84497983 eV

  energy without entropy =      -30.84131398  energy(sigma->0) =      -30.84375788


--------------------------------------------------------------------------------------------------------




--------------------------------------- Iteration      1(  19)  ---------------------------------------


    POTLOK:  cpu time    3.9934: real time    4.0085
    SETDIJ:  cpu time    0.0332: real time    0.0332
     EDDAV:  cpu time   15.7436: real time   15.7566
       DOS:  cpu time    0.0081: real time    0.0081
    CHARGE:  cpu time    1.1402: real time    1.1431
    MIXING:  cpu time    0.1804: real time    0.1825
    --------------------------------------------
      LOOP:  cpu time   21.0988: real time   21.1321

 eigenvalue-minimisations  :   504
 total energy-change (2. order) :-0.5025975E+00  (-0.7622516E-02)
 number of electron     142.9999998 magnetization       2.3439095
 augmentation part       91.8712479 magnetization       1.2671190

 Broyden mixing:
  rms(total) = 0.27704E-01    rms(broyden)= 0.27700E-01
  rms(prec ) = 0.28747E-01
  weight for this iteration     100.00

 eigenvalues of (default mixing * dielectric matrix)
  average eigenvalue GAMMA=   1.4696
  7.0876  2.8269  2.2146  1.3362  1.3362  0.9121  0.9121  0.8155  0.6357  0.6357
  0.5149  0.4480  0.4480  0.4501

 Free energy of the ion-electron system (eV)
  ---------------------------------------------------
  alpha Z        PSCENC =         9.88252744
  Ewald energy   TEWEN  =     23674.64024405
  -Hartree energ DENC   =    -40113.59046522
  -exchange      EXHF   =         0.00000000
  -V(xc)+E(xc)   XCENC  =       575.38863700
  PAW double counting   =     16659.32508517   -18052.06212042
  entropy T*S    EENTRO =        -0.00579279
  eigenvalues    EBANDS =      -867.37501518
  atomic energy  EATOM  =     18082.44932260
  Solvation  Ediel_sol  =         0.00000000
  ---------------------------------------------------
  free energy    TOTEN  =       -31.34757736 eV

  energy without entropy =      -31.34178457  energy(sigma->0) =      -31.34564643


--------------------------------------------------------------------------------------------------------




--------------------------------------- Iteration      1(  20)  ---------------------------------------


    POTLOK:  cpu time    4.0101: real time    4.0135
    SETDIJ:  cpu time    0.0322: real time    0.0323
     EDDAV:  cpu time   16.3544: real time   16.3686
       DOS:  cpu time    0.0085: real time    0.0085
    CHARGE:  cpu time    1.1397: real time    1.1408
    MIXING:  cpu time    0.1811: real time    0.1812
    --------------------------------------------
      LOOP:  cpu time   21.7259: real time   21.7448

 eigenvalue-minimisations  :   528
 total energy-change (2. order) :-0.3186295E+00  (-0.2029196E-02)
 number of electron     142.9999998 magnetization       1.8779722
 augmentation part       91.8572947 magnetization       0.8612588

 Broyden mixing:
  rms(total) = 0.20455E-01    rms(broyden)= 0.20452E-01
  rms(prec ) = 0.21494E-01
  weight for this iteration     100.00

 eigenvalues of (default mixing * dielectric matrix)
  average eigenvalue GAMMA=   1.5189
  8.0047  2.7194  2.7194  1.3407  1.3407  0.9217  0.9217  0.9171  0.7190  0.7190
  0.5708  0.5268  0.4543  0.4538  0.4538

 Free energy of the ion-electron system (eV)
  ---------------------------------------------------
  alpha Z        PSCENC =         9.88252744
  Ewald energy   TEWEN  =     23674.64024405
  -Hartree energ DENC   =    -40111.56915250
  -exchange      EXHF   =         0.00000000
  -V(xc)+E(xc)   XCENC  =       575.07319102
  PAW double counting   =     16665.60433894   -18058.89601085
  entropy T*S    EENTRO =        -0.01106518
  eigenvalues    EBANDS =      -868.83960239
  atomic energy  EATOM  =     18082.44932260
  Solvation  Ediel_sol  =         0.00000000
  ---------------------------------------------------
  free energy    TOTEN  =       -31.66620686 eV

  energy without entropy =      -31.65514168  energy(sigma->0) =      -31.66251847


--------------------------------------------------------------------------------------------------------




--------------------------------------- Iteration      1(  21)  ---------------------------------------


    POTLOK:  cpu time    4.0562: real time    4.0604
    SETDIJ:  cpu time    0.0335: real time    0.0335
     EDDAV:  cpu time   15.9470: real time   15.9599
       DOS:  cpu time    0.0053: real time    0.0053
    CHARGE:  cpu time    1.1332: real time    1.1340
    MIXING:  cpu time    0.2049: real time    0.2051
    --------------------------------------------
      LOOP:  cpu time   21.3801: real time   21.3981

 eigenvalue-minimisations  :   512
 total energy-change (2. order) :-0.3185916E+00  (-0.1367456E-02)
 number of electron     142.9999998 magnetization       1.5778583
 augmentation part       91.8572245 magnetization       0.6492524

 Broyden mixing:
  rms(total) = 0.16088E-01    rms(broyden)= 0.16082E-01
  rms(prec ) = 0.17285E-01
  weight for this iteration     100.00

 eigenvalues of (default mixing * dielectric matrix)
  average eigenvalue GAMMA=   1.5944
  8.5936  3.2544  3.2544  1.2871  1.2871  1.2196  1.2196  0.8482  0.8482  0.6850
  0.6189  0.5461  0.4516  0.4516  0.4725  0.4725

 Free energy of the ion-electron system (eV)
  ---------------------------------------------------
  alpha Z        PSCENC =         9.88252744
  Ewald energy   TEWEN  =     23674.64024405
  -Hartree energ DENC   =    -40108.58035647
  -exchange      EXHF   =         0.00000000
  -V(xc)+E(xc)   XCENC  =       574.71927845
  PAW double counting   =     16669.65510746   -18063.19409722
  entropy T*S    EENTRO =        -0.01781036
  eigenvalues    EBANDS =      -871.53901437
  atomic energy  EATOM  =     18082.44932260
  Solvation  Ediel_sol  =         0.00000000
  ---------------------------------------------------
  free energy    TOTEN  =       -31.98479842 eV

  energy without entropy =      -31.96698806  energy(sigma->0) =      -31.97886163


--------------------------------------------------------------------------------------------------------




--------------------------------------- Iteration      1(  22)  ---------------------------------------


    POTLOK:  cpu time    3.9806: real time    3.9842
    SETDIJ:  cpu time    0.0337: real time    0.0338
     EDDAV:  cpu time   17.0512: real time   17.0708
       DOS:  cpu time    0.0043: real time    0.0043
    CHARGE:  cpu time    1.1626: real time    1.1635
    MIXING:  cpu time    0.2170: real time    0.2171
    --------------------------------------------
      LOOP:  cpu time   22.4494: real time   22.4737

 eigenvalue-minimisations  :   552
 total energy-change (2. order) :-0.2376107E+00  (-0.7736817E-03)
 number of electron     142.9999998 magnetization       1.4464862
 augmentation part       91.8559289 magnetization       0.5384069

 Broyden mixing:
  rms(total) = 0.10586E-01    rms(broyden)= 0.10581E-01
  rms(prec ) = 0.11402E-01
  weight for this iteration     100.00

 eigenvalues of (default mixing * dielectric matrix)
  average eigenvalue GAMMA=   1.6193
  9.2168  3.4425  3.4425  1.6292  1.3010  1.3010  0.9358  0.9358  0.8368  0.8368
  0.6670  0.5811  0.5811  0.4599  0.4599  0.4504  0.4504

 Free energy of the ion-electron system (eV)
  ---------------------------------------------------
  alpha Z        PSCENC =         9.88252744
  Ewald energy   TEWEN  =     23674.64024405
  -Hartree energ DENC   =    -40104.98905673
  -exchange      EXHF   =         0.00000000
  -V(xc)+E(xc)   XCENC  =       574.45734336
  PAW double counting   =     16674.70849147   -18068.31035651
  entropy T*S    EENTRO =        -0.02217907
  eigenvalues    EBANDS =      -875.03874575
  atomic energy  EATOM  =     18082.44932260
  Solvation  Ediel_sol  =         0.00000000
  ---------------------------------------------------
  free energy    TOTEN  =       -32.22240914 eV

  energy without entropy =      -32.20023007  energy(sigma->0) =      -32.21501611


--------------------------------------------------------------------------------------------------------




--------------------------------------- Iteration      1(  23)  ---------------------------------------


    POTLOK:  cpu time    3.9839: real time    3.9884
    SETDIJ:  cpu time    0.0327: real time    0.0327
     EDDAV:  cpu time   16.1441: real time   16.1621
       DOS:  cpu time    0.0038: real time    0.0038
    CHARGE:  cpu time    1.1508: real time    1.1517
    MIXING:  cpu time    0.2316: real time    0.4339
    --------------------------------------------
      LOOP:  cpu time   21.5469: real time   21.7726

 eigenvalue-minimisations  :   520
 total energy-change (2. order) :-0.8518637E-01  (-0.2077289E-03)
 number of electron     142.9999998 magnetization       1.3191231
 augmentation part       91.8613049 magnetization       0.4120255

 Broyden mixing:
  rms(total) = 0.95399E-02    rms(broyden)= 0.95390E-02
  rms(prec ) = 0.10162E-01
  weight for this iteration     100.00

 eigenvalues of (default mixing * dielectric matrix)
  average eigenvalue GAMMA=   1.6332
  9.7219  3.5033  3.5033  1.9629  1.2951  1.2951  1.0537  1.0537  0.8280  0.8280
  0.6721  0.6721  0.6144  0.5575  0.4541  0.4541  0.4641  0.4641

 Free energy of the ion-electron system (eV)
  ---------------------------------------------------
  alpha Z        PSCENC =         9.88252744
  Ewald energy   TEWEN  =     23674.64024405
  -Hartree energ DENC   =    -40102.98087413
  -exchange      EXHF   =         0.00000000
  -V(xc)+E(xc)   XCENC  =       574.35501493
  PAW double counting   =     16674.48992176   -18067.88871064
  entropy T*S    EENTRO =        -0.02260765
  eigenvalues    EBANDS =      -877.23243385
  atomic energy  EATOM  =     18082.44932260
  Solvation  Ediel_sol  =         0.00000000
  ---------------------------------------------------
  free energy    TOTEN  =       -32.30759551 eV

  energy without entropy =      -32.28498786  energy(sigma->0) =      -32.30005963


--------------------------------------------------------------------------------------------------------




--------------------------------------- Iteration      1(  24)  ---------------------------------------


    POTLOK:  cpu time    4.0429: real time    4.0488
    SETDIJ:  cpu time    0.0332: real time    0.0333
     EDDAV:  cpu time   13.2623: real time   13.2736
       DOS:  cpu time    0.0045: real time    0.0046
    CHARGE:  cpu time    1.1320: real time    1.1329
    MIXING:  cpu time    0.2384: real time    0.2387
    --------------------------------------------
      LOOP:  cpu time   18.7133: real time   18.7318

 eigenvalue-minimisations  :   400
 total energy-change (2. order) :-0.4410124E-01  (-0.8840358E-04)
 number of electron     142.9999998 magnetization       1.1642303
 augmentation part       91.8629143 magnetization       0.2758250

 Broyden mixing:
  rms(total) = 0.68928E-02    rms(broyden)= 0.68918E-02
  rms(prec ) = 0.72687E-02
  weight for this iteration     100.00

 eigenvalues of (default mixing * dielectric matrix)
  average eigenvalue GAMMA=   1.6503
 10.2605  3.8462  3.3223  2.4137  1.2765  1.2765  1.0805  1.0805  0.9670  0.8191
  0.8191  0.6519  0.6008  0.6008  0.4514  0.4514  0.4946  0.4713  0.4713

 Free energy of the ion-electron system (eV)
  ---------------------------------------------------
  alpha Z        PSCENC =         9.88252744
  Ewald energy   TEWEN  =     23674.64024405
  -Hartree energ DENC   =    -40102.09792614
  -exchange      EXHF   =         0.00000000
  -V(xc)+E(xc)   XCENC  =       574.30691323
  PAW double counting   =     16673.73214161   -18067.01413755
  entropy T*S    EENTRO =        -0.02369758
  eigenvalues    EBANDS =      -878.22708442
  atomic energy  EATOM  =     18082.44932260
  Solvation  Ediel_sol  =         0.00000000
  ---------------------------------------------------
  free energy    TOTEN  =       -32.35169675 eV

  energy without entropy =      -32.32799917  energy(sigma->0) =      -32.34379756


--------------------------------------------------------------------------------------------------------




--------------------------------------- Iteration      1(  25)  ---------------------------------------


    POTLOK:  cpu time    4.0121: real time    4.0167
    SETDIJ:  cpu time    0.0337: real time    0.0337
     EDDAV:  cpu time   13.1831: real time   13.2003
       DOS:  cpu time    0.0047: real time    0.0047
    CHARGE:  cpu time    1.1345: real time    1.1355
    MIXING:  cpu time    0.2570: real time    0.2572
    --------------------------------------------
      LOOP:  cpu time   18.6251: real time   18.6482

 eigenvalue-minimisations  :   396
 total energy-change (2. order) :-0.4026465E-01  (-0.8835209E-04)
 number of electron     142.9999998 magnetization       1.0485254
 augmentation part       91.8619108 magnetization       0.1890907

 Broyden mixing:
  rms(total) = 0.41701E-02    rms(broyden)= 0.41676E-02
  rms(prec ) = 0.44630E-02
  weight for this iteration     100.00

 eigenvalues of (default mixing * dielectric matrix)
  average eigenvalue GAMMA=   1.6809
 10.7884  3.9011  3.9011  2.3794  1.2766  1.2766  1.4238  1.0467  1.0467  0.8328
  0.8328  0.7463  0.6646  0.6646  0.5103  0.5103  0.4544  0.4544  0.4532  0.4532

 Free energy of the ion-electron system (eV)
  ---------------------------------------------------
  alpha Z        PSCENC =         9.88252744
  Ewald energy   TEWEN  =     23674.64024405
  -Hartree energ DENC   =    -40101.38902633
  -exchange      EXHF   =         0.00000000
  -V(xc)+E(xc)   XCENC  =       574.26700482
  PAW double counting   =     16673.38537981   -18066.64895411
  entropy T*S    EENTRO =        -0.02558932
  eigenvalues    EBANDS =      -878.95287037
  atomic energy  EATOM  =     18082.44932260
  Solvation  Ediel_sol  =         0.00000000
  ---------------------------------------------------
  free energy    TOTEN  =       -32.39196141 eV

  energy without entropy =      -32.36637209  energy(sigma->0) =      -32.38343163


--------------------------------------------------------------------------------------------------------




--------------------------------------- Iteration      1(  26)  ---------------------------------------


    POTLOK:  cpu time    3.9933: real time    4.0020
    SETDIJ:  cpu time    0.0328: real time    0.0328
     EDDAV:  cpu time   13.0532: real time   13.0642
       DOS:  cpu time    0.0089: real time    0.0089
    CHARGE:  cpu time    1.1588: real time    1.1598
    MIXING:  cpu time    0.2784: real time    0.2786
    --------------------------------------------
      LOOP:  cpu time   18.5254: real time   18.5464

 eigenvalue-minimisations  :   392
 total energy-change (2. order) :-0.2361687E-01  (-0.6548301E-04)
 number of electron     142.9999998 magnetization       0.9765152
 augmentation part       91.8596815 magnetization       0.1419295

 Broyden mixing:
  rms(total) = 0.33001E-02    rms(broyden)= 0.32976E-02
  rms(prec ) = 0.35317E-02
  weight for this iteration     100.00

 eigenvalues of (default mixing * dielectric matrix)
  average eigenvalue GAMMA=   1.7126
 11.2589  4.2326  4.2326  2.0614  1.9606  1.2833  1.2833  1.0970  1.0970  0.9891
  0.8463  0.8463  0.6688  0.6688  0.5993  0.5369  0.4536  0.4536  0.4586  0.4586
  0.4771

 Free energy of the ion-electron system (eV)
  ---------------------------------------------------
  alpha Z        PSCENC =         9.88252744
  Ewald energy   TEWEN  =     23674.64024405
  -Hartree energ DENC   =    -40100.95669211
  -exchange      EXHF   =         0.00000000
  -V(xc)+E(xc)   XCENC  =       574.24299255
  PAW double counting   =     16673.92013141   -18067.25147577
  entropy T*S    EENTRO =        -0.02758308
  eigenvalues    EBANDS =      -879.31504536
  atomic energy  EATOM  =     18082.44932260
  Solvation  Ediel_sol  =         0.00000000
  ---------------------------------------------------
  free energy    TOTEN  =       -32.41557828 eV

  energy without entropy =      -32.38799520  energy(sigma->0) =      -32.40638392


--------------------------------------------------------------------------------------------------------




--------------------------------------- Iteration      1(  27)  ---------------------------------------


    POTLOK:  cpu time    4.0181: real time    4.0241
    SETDIJ:  cpu time    0.0330: real time    0.0330
     EDDAV:  cpu time   10.7284: real time   10.7372
       DOS:  cpu time    0.0083: real time    0.0083
    CHARGE:  cpu time    1.1203: real time    1.1212
    MIXING:  cpu time    0.2880: real time    0.2882
    --------------------------------------------
      LOOP:  cpu time   16.1960: real time   16.2121

 eigenvalue-minimisations  :   296
 total energy-change (2. order) :-0.1476102E-01  (-0.2122996E-04)
 number of electron     142.9999998 magnetization       0.9484956
 augmentation part       91.8621400 magnetization       0.1296632

 Broyden mixing:
  rms(total) = 0.27416E-02    rms(broyden)= 0.27398E-02
  rms(prec ) = 0.29382E-02
  weight for this iteration     100.00

 eigenvalues of (default mixing * dielectric matrix)
  average eigenvalue GAMMA=   1.7186
 11.5113  4.4495  4.4495  2.2003  2.2003  1.2714  1.2714  1.1792  1.1792  1.0881
  0.8526  0.8526  0.6864  0.6864  0.6334  0.5253  0.4998  0.4568  0.4568  0.4670
  0.4670  0.4251

 Free energy of the ion-electron system (eV)
  ---------------------------------------------------
  alpha Z        PSCENC =         9.88252744
  Ewald energy   TEWEN  =     23674.64024405
  -Hartree energ DENC   =    -40100.44875415
  -exchange      EXHF   =         0.00000000
  -V(xc)+E(xc)   XCENC  =       574.21964191
  PAW double counting   =     16674.01826219   -18067.34384665
  entropy T*S    EENTRO =        -0.02888631
  eigenvalues    EBANDS =      -879.81885038
  atomic energy  EATOM  =     18082.44932260
  Solvation  Ediel_sol  =         0.00000000
  ---------------------------------------------------
  free energy    TOTEN  =       -32.43033930 eV

  energy without entropy =      -32.40145299  energy(sigma->0) =      -32.42071053


--------------------------------------------------------------------------------------------------------




--------------------------------------- Iteration      1(  28)  ---------------------------------------


    POTLOK:  cpu time    3.9676: real time    3.9748
    SETDIJ:  cpu time    0.0334: real time    0.0334
     EDDAV:  cpu time   10.1747: real time   10.1832
       DOS:  cpu time    0.0077: real time    0.0077
    CHARGE:  cpu time    1.1409: real time    1.1418
    MIXING:  cpu time    0.3062: real time    0.3084
    --------------------------------------------
      LOOP:  cpu time   15.6304: real time   15.6492

 eigenvalue-minimisations  :   272
 total energy-change (2. order) :-0.9151196E-02  (-0.1251131E-04)
 number of electron     142.9999998 magnetization       0.9215581
 augmentation part       91.8625276 magnetization       0.1032818

 Broyden mixing:
  rms(total) = 0.17172E-02    rms(broyden)= 0.17165E-02
  rms(prec ) = 0.18210E-02
  weight for this iteration     100.00

 eigenvalues of (default mixing * dielectric matrix)
  average eigenvalue GAMMA=   1.7129
 11.6734  4.5811  4.5811  2.3459  2.2932  1.2694  1.2694  1.2082  1.2082  1.1654
  0.8590  0.8590  0.7979  0.7979  0.6237  0.6237  0.5331  0.4815  0.4549  0.4549
  0.4605  0.4605  0.3942

 Free energy of the ion-electron system (eV)
  ---------------------------------------------------
  alpha Z        PSCENC =         9.88252744
  Ewald energy   TEWEN  =     23674.64024405
  -Hartree energ DENC   =    -40100.04906635
  -exchange      EXHF   =         0.00000000
  -V(xc)+E(xc)   XCENC  =       574.20887641
  PAW double counting   =     16673.97910964   -18067.30240485
  entropy T*S    EENTRO =        -0.02930442
  eigenvalues    EBANDS =      -880.21879500
  atomic energy  EATOM  =     18082.44932260
  Solvation  Ediel_sol  =         0.00000000
  ---------------------------------------------------
  free energy    TOTEN  =       -32.43949050 eV

  energy without entropy =      -32.41018608  energy(sigma->0) =      -32.42972236


--------------------------------------------------------------------------------------------------------




--------------------------------------- Iteration      1(  29)  ---------------------------------------


    POTLOK:  cpu time    3.9958: real time    4.0019
    SETDIJ:  cpu time    0.0326: real time    0.0326
     EDDAV:  cpu time   10.3276: real time   10.3361
       DOS:  cpu time    0.0084: real time    0.0084
    CHARGE:  cpu time    1.1381: real time    1.1390
    MIXING:  cpu time    0.3215: real time    0.3218
    --------------------------------------------
      LOOP:  cpu time   15.8239: real time   15.8399

 eigenvalue-minimisations  :   280
 total energy-change (2. order) :-0.4526512E-02  (-0.1142225E-04)
 number of electron     142.9999998 magnetization       0.8953069
 augmentation part       91.8610739 magnetization       0.0808206

 Broyden mixing:
  rms(total) = 0.13177E-02    rms(broyden)= 0.13174E-02
  rms(prec ) = 0.13926E-02
  weight for this iteration     100.00

 eigenvalues of (default mixing * dielectric matrix)
  average eigenvalue GAMMA=   1.7439
 11.9741  4.9656  4.9656  2.5074  2.5074  1.6185  1.2704  1.2704  1.1626  1.1626
  0.8586  0.8586  0.8265  0.8265  0.6581  0.6581  0.5544  0.5544  0.4534  0.4534
  0.4631  0.4631  0.4624  0.3575

 Free energy of the ion-electron system (eV)
  ---------------------------------------------------
  alpha Z        PSCENC =         9.88252744
  Ewald energy   TEWEN  =     23674.64024405
  -Hartree energ DENC   =    -40099.77859007
  -exchange      EXHF   =         0.00000000
  -V(xc)+E(xc)   XCENC  =       574.20613022
  PAW double counting   =     16673.52078545   -18066.85256446
  entropy T*S    EENTRO =        -0.02959349
  eigenvalues    EBANDS =      -880.48227874
  atomic energy  EATOM  =     18082.44932260
  Solvation  Ediel_sol  =         0.00000000
  ---------------------------------------------------
  free energy    TOTEN  =       -32.44401701 eV

  energy without entropy =      -32.41442352  energy(sigma->0) =      -32.43415251


--------------------------------------------------------------------------------------------------------




--------------------------------------- Iteration      1(  30)  ---------------------------------------


    POTLOK:  cpu time    3.9897: real time    3.9939
    SETDIJ:  cpu time    0.0335: real time    0.0335
     EDDAV:  cpu time   10.2333: real time   10.2427
       DOS:  cpu time    0.0081: real time    0.0081
    CHARGE:  cpu time    1.1399: real time    1.1409
    MIXING:  cpu time    0.3453: real time    0.3457
    --------------------------------------------
      LOOP:  cpu time   15.7497: real time   15.7648

 eigenvalue-minimisations  :   276
[...]
     26      -6.4304      1.00000
     27      -6.3197      1.00000
     28      -6.2797      1.00000
     29      -6.2113      1.00000
     30      -6.1583      1.00000
     31      -6.1504      1.00000
     32      -6.0334      1.00000
     33      -6.0070      1.00000
     34      -5.9584      1.00000
     35      -5.9490      1.00000
     36      -5.9133      1.00000
     37      -5.8837      1.00000
     38      -5.8264      1.00000
     39      -5.8150      1.00000
     40      -5.7846      1.00000
     41      -5.7534      1.00000
     42      -5.7326      1.00000
     43      -5.7087      1.00000
     44      -5.6878      1.00000
     45      -5.6863      1.00000
     46      -5.6719      1.00000
     47      -5.6558      1.00000
     48      -5.6198      1.00000
     49      -5.5967      1.00000
     50      -5.5789      1.00000
     51      -5.5608      1.00000
     52      -5.5460      1.00000
     53      -5.5324      1.00000
     54      -5.5135      1.00000
     55      -5.4623      1.00000
     56      -5.4408      1.00000
     57      -5.4274      1.00000
     58      -5.3999      1.00000
     59      -5.3628      1.00000
     60      -5.3347      1.00000
     61      -5.3056      1.00000
     62      -5.2761      1.00000
     63      -5.2663      1.00000
     64      -5.2436      1.00000
     65      -5.2202      1.00000
     66      -5.1798      1.00000
     67      -5.1680      1.00000
     68      -5.1358      1.00000
     69      -4.9590      1.00000
     70      -4.7200      1.00000
     71      -4.4839      1.00005
     72      -3.9397      0.80575
     73      -3.7215      0.04083
     74      -2.9693     -0.00000
     75      -2.9223     -0.00000
     76      -2.3943     -0.00000
     77      -2.3263     -0.00000
     78      -2.1089     -0.00000
     79      -1.8370     -0.00000
     80      -1.4899     -0.00000
     81      -1.2154     -0.00000
     82      -1.1611     -0.00000
     83      -1.0367     -0.00000
     84      -0.6784     -0.00000
     85      -0.6391     -0.00000
     86      -0.3100     -0.00000
     87      -0.1096     -0.00000
     88       0.0507     -0.00000
     89       0.1318     -0.00000
     90       0.2162     -0.00000
     91       0.2644     -0.00000
     92       0.2783     -0.00000

 spin component 2

 k-point     1 :       0.0000    0.0000    0.0000
  band No.  band energies     occupation 
      1     -10.5029      1.00000
      2      -9.0583      1.00000
      3      -8.6018      1.00000
      4      -8.0431      1.00000
      5      -7.9326      1.00000
      6      -7.8034      1.00000
      7      -7.7018      1.00000
      8      -7.4716      1.00000
      9      -7.3692      1.00000
     10      -7.1452      1.00000
     11      -7.1309      1.00000
     12      -7.0504      1.00000
     13      -6.9905      1.00000
     14      -6.9638      1.00000
     15      -6.9402      1.00000
     16      -6.8954      1.00000
     17      -6.8505      1.00000
     18      -6.7904      1.00000
     19      -6.7756      1.00000
     20      -6.7007      1.00000
     21      -6.6518      1.00000
     22      -6.5786      1.00000
     23      -6.5112      1.00000
     24      -6.4874      1.00000
     25      -6.4553      1.00000
     26      -6.4038      1.00000
     27      -6.3049      1.00000
     28      -6.2600      1.00000
     29      -6.1898      1.00000
     30      -6.1425      1.00000
     31      -6.1352      1.00000
     32      -6.0140      1.00000
     33      -5.9928      1.00000
     34      -5.9417      1.00000
     35      -5.9286      1.00000
     36      -5.8946      1.00000
     37      -5.8670      1.00000
     38      -5.8078      1.00000
     39      -5.8013      1.00000
     40      -5.7673      1.00000
     41      -5.7383      1.00000
     42      -5.7149      1.00000
     43      -5.6938      1.00000
     44      -5.6725      1.00000
     45      -5.6661      1.00000
     46      -5.6563      1.00000
     47      -5.6380      1.00000
     48      -5.6027      1.00000
     49      -5.5791      1.00000
     50      -5.5604      1.00000
     51      -5.5373      1.00000
     52      -5.5261      1.00000
     53      -5.5144      1.00000
     54      -5.4980      1.00000
     55      -5.4464      1.00000
     56      -5.4199      1.00000
     57      -5.4132      1.00000
     58      -5.3820      1.00000
     59      -5.3471      1.00000
     60      -5.3186      1.00000
     61      -5.2870      1.00000
     62      -5.2550      1.00000
     63      -5.2489      1.00000
     64      -5.2312      1.00000
     65      -5.2046      1.00000
     66      -5.1631      1.00000
     67      -5.1409      1.00000
     68      -5.1136      1.00000
     69      -4.9024      1.00000
     70      -4.6892      1.00000
     71      -4.4567      1.00011
     72      -3.7763      0.17429
     73      -3.6683     -0.02102
     74      -2.9351     -0.00000
     75      -2.8739     -0.00000
     76      -2.3496     -0.00000
     77      -2.2635     -0.00000
     78      -2.0441     -0.00000
     79      -1.7530     -0.00000
     80      -1.4217     -0.00000
     81      -1.1503     -0.00000
     82      -1.0912     -0.00000
     83      -0.9017     -0.00000
     84      -0.6156     -0.00000
     85      -0.5751     -0.00000
     86      -0.2380     -0.00000
     87      -0.0180     -0.00000
     88       0.1714     -0.00000
     89       0.2369     -0.00000
     90       0.3821     -0.00000
     91       0.4112     -0.00000
     92       0.4226     -0.00000


--------------------------------------------------------------------------------------------------------


 soft charge-density along one line, spin component            1
         0         1         2         3         4         5         6         7         8         9
 total charge-density along one line
 
 soft charge-density along one line, spin component            2
         0         1         2         3         4         5         6         7         8         9
 total charge-density along one line
 
 pseudopotential strength for first ion, spin component:            1
-10.993  -0.004  -0.022  -0.002  -0.000   1.388   0.003   0.017
 -0.004 -11.040  -0.001   0.018   0.001   0.003   1.425   0.001
 -0.022  -0.001 -11.032  -0.014  -0.037   0.017   0.001   1.418
 -0.002   0.018  -0.014 -10.987  -0.009   0.001  -0.014   0.011
 -0.000   0.001  -0.037  -0.009 -11.001   0.000  -0.001   0.029
  1.388   0.003   0.017   0.001   0.000   6.022  -0.003  -0.012
  0.003   1.425   0.001  -0.014  -0.001  -0.003   5.997  -0.000
  0.017   0.001   1.418   0.011   0.029  -0.012  -0.000   5.999
  0.001  -0.014   0.011   1.384   0.007  -0.001   0.009  -0.008
  0.000  -0.001   0.029   0.007   1.393  -0.000   0.001  -0.020
 -0.006   0.000   0.004   0.002  -0.009   0.000  -0.000  -0.002
 -0.010   0.001   0.008   0.003  -0.016   0.000  -0.000  -0.004
 -0.012  -0.001   0.003  -0.000   0.004   0.015   0.002  -0.002
 -0.000  -0.003  -0.001  -0.012   0.000   0.000   0.001   0.001
 -0.004  -0.000   0.006  -0.001  -0.012   0.002   0.000  -0.007
 -0.015  -0.001   0.004  -0.000   0.005   0.020   0.002  -0.002
 -0.000  -0.003  -0.001  -0.015   0.000   0.000   0.001   0.001
 -0.004  -0.000   0.008  -0.001  -0.014   0.001   0.000  -0.010
 pseudopotential strength for first ion, spin component:            2
-10.985  -0.004  -0.021  -0.002   0.000   1.382   0.003   0.017
 -0.004 -11.033  -0.001   0.018   0.000   0.003   1.419   0.001
 -0.021  -0.001 -11.023  -0.011  -0.039   0.017   0.001   1.411
 -0.002   0.018  -0.011 -10.972  -0.017   0.001  -0.014   0.008
  0.000   0.000  -0.039  -0.017 -10.984  -0.000  -0.000   0.031
  1.382   0.003   0.017   0.001  -0.000   6.027  -0.003  -0.011
  0.003   1.419   0.001  -0.014  -0.000  -0.003   6.001  -0.001
  0.017   0.001   1.411   0.008   0.031  -0.011  -0.001   6.004
  0.001  -0.014   0.008   1.371   0.013  -0.001   0.009  -0.007
 -0.000  -0.000   0.031   0.013   1.380   0.000   0.000  -0.021
 -0.006   0.000   0.004   0.003  -0.010   0.000  -0.000  -0.002
 -0.010   0.001   0.008   0.005  -0.019   0.000  -0.000  -0.005
 -0.012  -0.000   0.003  -0.000   0.004   0.015   0.001  -0.002
 -0.000  -0.003  -0.000  -0.012   0.000  -0.000   0.001   0.001
 -0.004  -0.000   0.007  -0.000  -0.012   0.002  -0.000  -0.008
 -0.015  -0.001   0.003  -0.000   0.004   0.020   0.002  -0.002
 -0.000  -0.003  -0.001  -0.015   0.000  -0.000   0.001   0.001
 -0.004  -0.000   0.008  -0.001  -0.014   0.001  -0.000  -0.010
 total augmentation occupancy for first ion, spin component:            1
  1.929   0.002  -0.011   0.002   0.000  -0.024  -0.007   0.005   0.001   0.000   0.019   0.006   0.009  -0.006   0.001  -0.007
  0.002   1.934   0.001   0.001   0.004  -0.007  -0.012   0.001  -0.006   0.002  -0.008   0.001   0.001   0.026  -0.005  -0.001
 -0.011   0.001   1.908  -0.014  -0.020   0.005   0.001  -0.009   0.005   0.010   0.032  -0.007   0.004  -0.003  -0.011   0.003
  0.002   0.001  -0.014   1.935  -0.004   0.001  -0.006   0.005  -0.029   0.004   0.001   0.004  -0.001   0.008   0.001   0.000
  0.000   0.004  -0.020  -0.004   1.929   0.000   0.002   0.010   0.004  -0.019   0.033   0.010  -0.004   0.001   0.015   0.005
 -0.024  -0.007   0.005   0.001   0.000   0.014  -0.001   0.001   0.000   0.001  -0.034   0.002   0.028  -0.000  -0.000  -0.002
 -0.007  -0.012   0.001  -0.006   0.002  -0.001   0.020  -0.000  -0.002   0.001  -0.000   0.001   0.007  -0.003  -0.000  -0.000
  0.005   0.001  -0.009   0.005   0.010   0.001  -0.000   0.017  -0.001   0.001   0.016  -0.001  -0.003  -0.002  -0.012   0.000
  0.001  -0.006   0.005  -0.029   0.004   0.000  -0.002  -0.001   0.014  -0.001  -0.010   0.000  -0.002   0.029   0.002   0.000
  0.000   0.002   0.010   0.004  -0.019   0.001   0.001   0.001  -0.001   0.017  -0.058   0.002  -0.007  -0.002   0.024   0.001
  0.019  -0.008   0.032   0.001   0.033  -0.034  -0.000   0.016  -0.010  -0.058   1.756  -0.157   0.036   0.008   0.141  -0.004
  0.006   0.001  -0.007   0.004   0.010   0.002   0.001  -0.001   0.000   0.002  -0.157   0.019  -0.002  -0.003  -0.031   0.001
  0.009   0.001   0.004  -0.001  -0.004   0.028   0.007  -0.003  -0.002  -0.007   0.036  -0.002   0.231  -0.001  -0.027  -0.015
 -0.006   0.026  -0.003   0.008   0.001  -0.000  -0.003  -0.002   0.029  -0.002   0.008  -0.003  -0.001   0.229  -0.008   0.000
  0.001  -0.005  -0.011   0.001   0.015  -0.000  -0.000  -0.012   0.002   0.024   0.141  -0.031  -0.027  -0.008   0.141   0.001
 -0.007  -0.001   0.003   0.000   0.005  -0.002  -0.000   0.000   0.000   0.001  -0.004   0.001  -0.015   0.000   0.001   0.001
  0.000  -0.005   0.001  -0.007   0.000   0.000  -0.000   0.000  -0.002   0.000  -0.002   0.000   0.000  -0.015   0.000  -0.000
 -0.006   0.000   0.004  -0.000  -0.008   0.000   0.000   0.001  -0.000  -0.001  -0.022   0.003   0.002   0.001  -0.011  -0.000
 total augmentation occupancy for first ion, spin component:            2
 -0.000  -0.000   0.000  -0.000   0.000  -0.000   0.000  -0.000   0.000  -0.000  -0.000  -0.000   0.000  -0.000   0.000   0.000
 -0.000  -0.000  -0.000   0.000  -0.001   0.000   0.000   0.000  -0.000   0.000  -0.000  -0.000   0.001   0.000   0.000   0.000
  0.000  -0.000   0.001   0.002  -0.001  -0.000   0.000  -0.001  -0.001   0.000  -0.000  -0.000   0.000   0.001   0.000  -0.000
 -0.000   0.000   0.002   0.004  -0.004   0.000  -0.000  -0.001  -0.002   0.001   0.002   0.000   0.002   0.003   0.001   0.000
  0.000  -0.001  -0.001  -0.004   0.005  -0.000   0.000   0.000   0.001  -0.002  -0.003  -0.000  -0.003  -0.002  -0.001  -0.000
 -0.000   0.000  -0.000   0.000  -0.000   0.000  -0.000   0.000   0.000   0.000   0.000   0.000  -0.000  -0.000  -0.000   0.000
  0.000   0.000   0.000  -0.000   0.000  -0.000  -0.000  -0.000   0.000  -0.000   0.000  -0.000  -0.000   0.000  -0.000   0.000
 -0.000   0.000  -0.001  -0.001   0.000   0.000  -0.000   0.000   0.000  -0.000   0.000   0.000  -0.000  -0.000  -0.000   0.000
  0.000  -0.000  -0.001  -0.002   0.001   0.000   0.000   0.000   0.000  -0.000  -0.000  -0.000  -0.001  -0.001  -0.000   0.000
 -0.000   0.000   0.000   0.001  -0.002   0.000  -0.000  -0.000  -0.000   0.000   0.001   0.000   0.001   0.001   0.000  -0.000
 -0.000  -0.000  -0.000   0.002  -0.003   0.000   0.000   0.000  -0.000   0.001  -0.001   0.000   0.002   0.001   0.001  -0.000
 -0.000  -0.000  -0.000   0.000  -0.000   0.000  -0.000   0.000  -0.000   0.000   0.000  -0.000   0.000   0.000   0.000  -0.000
  0.000   0.001   0.000   0.002  -0.003  -0.000  -0.000  -0.000  -0.001   0.001   0.002   0.000   0.001   0.002   0.001  -0.000
 -0.000   0.000   0.001   0.003  -0.002  -0.000   0.000  -0.000  -0.001   0.001   0.001   0.000   0.002   0.001   0.001  -0.000
  0.000   0.000   0.000   0.001  -0.001  -0.000  -0.000  -0.000  -0.000   0.000   0.001   0.000   0.001   0.001  -0.000  -0.000
  0.000   0.000  -0.000   0.000  -0.000   0.000   0.000   0.000   0.000  -0.000  -0.000  -0.000  -0.000  -0.000  -0.000  -0.000
  0.000   0.000   0.000   0.000  -0.000  -0.000  -0.000   0.000   0.000  -0.000  -0.000  -0.000  -0.000  -0.000  -0.000   0.000
 -0.000   0.000   0.000   0.000   0.000  -0.000   0.000   0.000  -0.000   0.000   0.000  -0.000  -0.000  -0.000   0.000   0.000


------------------------ aborting loop because EDIFF is reached ----------------------------------------


    CHARGE:  cpu time    1.2230: real time    1.2243
    FORLOC:  cpu time    0.1647: real time    0.1649
    FORNL :  cpu time   10.3393: real time   10.3461
    FORCOR:  cpu time    4.0180: real time    4.0215
    FORHAR:  cpu time    0.5329: real time    0.5353
    MIXING:  cpu time    0.0759: real time    0.0759
    OFIELD:  cpu time    0.0000: real time    0.0000

 VOLUME and BASIS-vectors are now :
 -----------------------------------------------------------------------------
  energy-cutoff  :      400.00
  volume of cell :    12506.36
      direct lattice vectors                 reciprocal lattice vectors
    20.889299820  0.000000000  0.000000000     0.047871399  0.000000000  0.000000000
     0.000000000 22.935512490  0.000000000     0.000000000  0.043600508  0.000000000
     0.000000000  0.000000000 26.103489477     0.000000000  0.000000000  0.038309054

  length of vectors
    20.889299820 22.935512490 26.103489477     0.047871399  0.043600508  0.038309054


 FORCES acting on ions
    electron-ion (+dipol)            ewald-force                    non-local-force                 convergence-correction
 -----------------------------------------------------------------------------------------------
   0.928E+03 0.332E+03 0.192E+03   -.928E+03 -.330E+03 -.192E+03   -.170E+00 -.154E+01 0.136E+00   0.904E-04 -.409E-01 -.683E-01
   -.112E+04 -.116E+03 0.623E+03   0.111E+04 0.115E+03 -.620E+03   0.291E+01 0.115E+01 -.283E+01   -.344E-01 -.689E-01 0.841E-02
   -.936E+03 -.786E+03 -.313E+03   0.932E+03 0.783E+03 0.314E+03   0.352E+01 0.350E+01 -.102E+00   -.944E-01 -.793E-01 -.158E-01
   -.116E+04 0.673E+03 -.320E+03   0.116E+04 -.669E+03 0.318E+03   0.528E+01 -.418E+01 0.209E+01   0.621E-01 -.546E-01 -.184E-01
   0.462E+03 -.111E+04 0.395E+03   -.461E+03 0.110E+04 -.393E+03   -.143E+01 0.576E+01 -.219E+01   -.790E-01 0.155E-01 -.625E-01
   -.169E+03 0.115E+04 0.772E+03   0.167E+03 -.114E+04 -.770E+03   0.269E+01 -.867E+01 -.229E+01   -.740E-02 0.205E-02 -.390E-01
   0.620E+03 0.236E+03 0.118E+04   -.614E+03 -.235E+03 -.118E+04   -.565E+01 -.637E+00 -.566E+01   0.780E-01 -.164E-01 -.594E-01
   0.933E+03 -.807E+03 -.197E+03   -.928E+03 0.803E+03 0.195E+03   -.432E+01 0.395E+01 0.235E+01   -.669E-01 0.880E-01 0.248E-01
   -.104E+02 0.593E+03 -.100E+04   0.907E+01 -.594E+03 0.100E+04   0.129E+01 0.590E+00 0.303E+01   0.427E-02 0.236E-01 0.738E-02
   0.346E+03 0.129E+04 -.348E+03   -.342E+03 -.128E+04 0.348E+03   -.411E+01 -.104E+02 -.253E+00   0.412E-01 0.609E-01 0.224E-01
   -.290E+03 -.722E+03 0.102E+04   0.285E+03 0.716E+03 -.102E+04   0.447E+01 0.642E+01 -.841E+01   0.425E-01 0.145E-01 0.831E-01
   0.827E+03 -.258E+02 -.965E+03   -.819E+03 0.271E+02 0.958E+03   -.836E+01 -.128E+01 0.733E+01   0.803E-01 -.193E-01 0.444E-01
   -.430E+03 -.712E+03 -.104E+04   0.427E+03 0.707E+03 0.104E+04   0.369E+01 0.528E+01 0.677E+01   -.195E-01 0.556E-01 0.871E-02
 -----------------------------------------------------------------------------------------------
   0.181E+00 0.114E+00 0.813E-01   0.114E-12 -.114E-12 -.682E-12   -.198E+00 -.724E-01 -.378E-01   0.694E-02 -.191E-01 -.642E-01
 
 
 POSITION                                       TOTAL-FORCE (eV/Angst)
 -----------------------------------------------------------------------------------
      9.59529     11.24687     12.16797        -0.003308      0.017153     -0.002944
     11.85461     11.95870     10.92581        -0.006525     -0.013021      0.009297
     11.48130     12.89876     13.21419        -0.031923     -0.016857     -0.005623
     11.90149     10.53122     12.85857         0.015730     -0.011772      0.001832
      9.93313     13.49474     11.33183        -0.024691     -0.004828      0.002540
     10.78954      9.65839     10.83960        -0.000241     -0.011444     -0.008848
      9.81871     11.57084      9.73100         0.008954     -0.003363     -0.021858
      9.08932     13.11979     13.62347        -0.010897      0.011661     -0.008222
     10.21537     11.09474     14.57893         0.005977      0.008204     -0.002666
      9.98679      9.12024     13.24593         0.004838     -0.000536      0.005848
     11.06371     13.54079      9.21762         0.017013      0.013541      0.015381
      8.52941     12.27858     15.80181         0.024706     -0.007877      0.016645
     10.69515     13.29667     15.47713         0.000366      0.019140     -0.001380
 -----------------------------------------------------------------------------------
    total drift:                               -0.010118      0.022489     -0.020614


--------------------------------------------------------------------------------------------------------



  FREE ENERGIE OF THE ION-ELECTRON SYSTEM (eV)
  ---------------------------------------------------
  free  energy   TOTEN  =       -32.58281588 eV

  energy  without entropy=      -32.56025057  energy(sigma->0) =      -32.57529411
 
 d Force = 0.3656514E-04[ 0.465E-04, 0.266E-04]  d Energy = 0.1890122E-03-0.152E-03
 d Force = 0.4940643E-01[ 0.494E-01, 0.494E-01]  d Ewald  = 0.4940642E-01 0.570E-08


--------------------------------------------------------------------------------------------------------


    POTLOK:  cpu time    4.0553: real time    4.0624


--------------------------------------------------------------------------------------------------------




--------------------------------------------------------------------------------------------------------


  
 reached required accuracy - stopping structural energy minimisation
     LOOP+:  cpu time   55.0295: real time   58.6229
    4ORBIT:  cpu time    0.0000: real time    0.0000

 total amount of memory used by VASP MPI-rank0   261787. kBytes
=======================================================================

   base      :      30000. kBytes
   nonl-proj :       4995. kBytes
   fftplans  :      56664. kBytes
   grid      :     128260. kBytes
   one-center:         31. kBytes
   wavefun   :      41837. kBytes
 
  
  
 General timing and accounting informations for this job:
 ========================================================
  
                  Total CPU time used (sec):     2363.294
                            User time (sec):     2345.682
                          System time (sec):       17.612
                         Elapsed time (sec):     2406.160
  
                   Maximum memory used (kb):      548928.
                   Average memory used (kb):           0.
  
                          Minor page faults:      6970474
                          Major page faults:        46449
                 Voluntary context switches:         3925
