<?xml version="1.0" encoding="ISO-8859-1"?>
<modeling>
 <generator>
  <i name="program" type="string">vasp </i>
  <i name="version" type="string">6.1.2  </i>
  <i name="subversion" type="string">22Jul20 (build Jan 14 2022 17:24:41) gamma-only                       parallel </i>
  <i name="platform" type="string">LinuxPGI </i>
  <i name="date" type="string">2022 01 31 </i>
  <i name="time" type="string">15:26:26 </i>
 </generator>
 <incar>
  <i type="int" name="ISPIN">     2</i>
  <i type="int" name="IBRION">     2</i>
  <i type="int" name="NSW">  1000</i>
  <i type="int" name="ISIF">     0</i>
  <i type="int" name="ISYM">     0</i>
  <i name="ENCUT">    400.00000000</i>
  <i type="logical" name="LREAL"> F  </i>
  <i type="int" name="ISMEAR">     1</i>
  <i name="SIGMA">      0.20000000</i>
  <i type="logical" name="LWAVE"> F  </i>
  <i type="logical" name="LCHARG"> F  </i>
  <i type="int" name="KPAR">     1</i>
  <i type="int" name="NCORE">     8</i>
  <i type="string" name="GGA"> PE</i>
  <i type="int" name="ISPIN">     2</i>
 </incar>
 <structure name="primitive_cell" >
  <crystal>
   <varray name="basis" >
    <v>      20.88929982       0.00000000       0.00000000 </v>
    <v>       0.00000000      22.93551249       0.00000000 </v>
    <v>       0.00000000       0.00000000      26.10348948 </v>
   </varray>
   <i name="volume">  12506.35923203 </i>
   <varray name="rec_basis" >
    <v>       0.04787140       0.00000000       0.00000000 </v>
    <v>       0.00000000       0.04360051       0.00000000 </v>
    <v>       0.00000000       0.00000000       0.03830905 </v>
   </varray>
  </crystal>
  <varray name="positions" >
   <v>       0.46182106       0.49317050       0.46713064 </v>
   <v>       0.56681537       0.52103220       0.41898127 </v>
   <v>       0.54728936       0.56047468       0.50620561 </v>
   <v>       0.57359027       0.45587650       0.49472446 </v>
   <v>       0.47663011       0.59190258       0.43307903 </v>
   <v>       0.52039759       0.42092012       0.41548303 </v>
   <v>       0.46453749       0.50453908       0.37331031 </v>
   <v>       0.43258521       0.57613264       0.52340934 </v>
   <v>       0.48948580       0.48352651       0.55866318 </v>
   <v>       0.47804298       0.39571530       0.50166148 </v>
   <v>       0.53029556       0.58630343       0.35112896 </v>
   <v>       0.40836323       0.53571513       0.60676103 </v>
   <v>       0.51057311       0.58090056       0.59436849 </v>
  </varray>
 </structure>
 <varray name="primitive_index" >
  <v type="int" >        1 </v>
  <v type="int" >        2 </v>
  <v type="int" >        3 </v>
  <v type="int" >        4 </v>
  <v type="int" >        5 </v>
  <v type="int" >        6 </v>
  <v type="int" >        7 </v>
  <v type="int" >        8 </v>
  <v type="int" >        9 </v>
  <v type="int" >       10 </v>
  <v type="int" >       11 </v>
  <v type="int" >       12 </v>
  <v type="int" >       13 </v>
 </varray>
 <kpoints>
  <generation param="Gamma">
   <v type="int" name="divisions">       1        1        1 </v>
   <v name="usershift">      0.00000000       0.00000000       0.00000000 </v>
   <v name="genvec1">      1.00000000       0.00000000       0.00000000 </v>
   <v name="genvec2">      0.00000000       1.00000000       0.00000000 </v>
   <v name="genvec3">      0.00000000       0.00000000       1.00000000 </v>
   <v name="shift">      0.00000000       0.00000000       0.00000000 </v>
  </generation>
  <varray name="kpointlist" >
   <v>       0.00000000       0.00000000       0.00000000 </v>
  </varray>
  <varray name="weights" >
   <v>       1.00000000 </v>
  </varray>
 </kpoints>
 <parameters>
  <separator name="general" >
   <i type="string" name="SYSTEM">unknown system</i>
   <i type="logical" name="LCOMPAT"> F  </i>
  </separator>
  <separator name="electronic" >
   <i type="string" name="PREC">normal</i>
   <i name="ENMAX">    400.00000000</i>
   <i name="ENAUG">    586.98000000</i>
   <i name="EDIFF">      0.00010000</i>
   <i type="int" name="IALGO">    38</i>
   <i type="int" name="IWAVPR">    11</i>
   <i type="int" name="NBANDS">    92</i>
   <i type="int" name="NBANDSLOW">    -1</i>
   <i type="int" name="NBANDSHIGH">    -1</i>
   <i name="NELECT">    143.00000000</i>
   <i type="int" name="TURBO">     0</i>
   <i type="int" name="IRESTART">     0</i>
   <i type="int" name="NREBOOT">     0</i>
   <i type="int" name="NMIN">     0</i>
   <i name="EREF">      0.00000000</i>
   <separator name="electronic smearing" >
    <i type="int" name="ISMEAR">     1</i>
    <i name="SIGMA">      0.20000000</i>
    <i name="KSPACING">      0.50000000</i>
    <i type="logical" name="KGAMMA"> T  </i>
    <i type="logical" name="KBLOWUP"> T  </i>
   </separator>
   <separator name="electronic projectors" >
    <i type="logical" name="LREAL"> F  </i>
    <v name="ROPT">      0.00000000</v>
    <i type="int" name="LMAXPAW">  -100</i>
    <i type="int" name="LMAXMIX">     2</i>
    <i type="logical" name="NLSPLINE"> F  </i>
   </separator>
   <separator name="electronic startup" >
    <i type="int" name="ISTART">     0</i>
    <i type="int" name="ICHARG">     2</i>
    <i type="int" name="INIWAV">     1</i>
   </separator>
   <separator name="electronic spin" >
    <i type="int" name="ISPIN">     2</i>
    <i type="logical" name="LNONCOLLINEAR"> F  </i>
    <v name="MAGMOM">      1.00000000      1.00000000      1.00000000      1.00000000      1.00000000      1.00000000      1.00000000      1.00000000      1.00000000      1.00000000      1.00000000      1.00000000      1.00000000</v>
    <i name="NUPDOWN">     -1.00000000</i>
    <i type="logical" name="LSORBIT"> F  </i>
    <v name="SAXIS">      0.00000000      0.00000000      1.00000000</v>
    <i type="logical" name="LSPIRAL"> F  </i>
    <v name="QSPIRAL">      0.00000000      0.00000000      0.00000000</v>
    <i type="logical" name="LZEROZ"> F  </i>
   </separator>
   <separator name="electronic exchange-correlation" >
    <i type="logical" name="LASPH"> F  </i>
    <i type="logical" name="LMETAGGA"> F  </i>
   </separator>
   <separator name="electronic convergence" >
    <i type="int" name="NELM">    60</i>
    <i type="int" name="NELMDL">     0</i>
    <i type="int" name="NELMIN">     2</i>
    <i name="ENINI">    400.00000000</i>
    <separator name="electronic convergence detail" >
     <i type="logical" name="LDIAG"> T  </i>
     <i type="logical" name="LSUBROT"> F  </i>
     <i name="WEIMIN">      0.00100000</i>
     <i name="EBREAK">      0.00000027</i>
     <i name="DEPER">      0.30000000</i>
     <i type="int" name="NRMM">     4</i>
     <i name="TIME">      0.40000000</i>
    </separator>
   </separator>
   <separator name="electronic mixer" >
    <i name="AMIX">      0.40000000</i>
    <i name="BMIX">      1.00000000</i>
    <i name="AMIN">      0.10000000</i>
    <i name="AMIX_MAG">      1.60000000</i>
    <i name="BMIX_MAG">      1.00000000</i>
    <separator name="electronic mixer details" >
     <i type="int" name="IMIX">     4</i>
     <i type="logical" name="MIXFIRST"> F  </i>
     <i type="int" name="MAXMIX">   -45</i>
     <i name="WC">    100.00000000</i>
     <i type="int" name="INIMIX">     1</i>
     <i type="int" name="MIXPRE">     1</i>
     <i type="int" name="MREMOVE">     5</i>
    </separator>
   </separator>
   <separator name="electronic dipolcorrection" >
    <i type="logical" name="LDIPOL"> F  </i>
    <i type="logical" name="LMONO"> F  </i>
    <i type="int" name="IDIPOL">     0</i>
    <i name="EPSILON">      1.00000000</i>
    <v name="DIPOL">   -100.00000000   -100.00000000   -100.00000000</v>
    <i name="EFIELD">      0.00000000</i>
   </separator>
  </separator>
  <separator name="grids" >
   <i type="int" name="NGX">   108</i>
   <i type="int" name="NGY">   112</i>
   <i type="int" name="NGZ">   128</i>
   <i type="int" name="NGXF">   216</i>
   <i type="int" name="NGYF">   224</i>
   <i type="int" name="NGZF">   256</i>
   <i type="logical" name="ADDGRID"> F  </i>
  </separator>
  <separator name="ionic" >
   <i type="int" name="NSW">  1000</i>
   <i type="int" name="IBRION">     2</i>
   <i type="int" name="MDALGO">     0</i>
   <i type="int" name="ISIF">     0</i>
   <i name="PSTRESS">      0.00000000</i>
   <i name="EDIFFG">      0.00100000</i>
   <i type="int" name="NFREE">     1</i>
   <i name="POTIM">      0.50000000</i>
   <i name="SMASS">     -3.00000000</i>
   <i name="SCALEE">      1.00000000</i>
  </separator>
  <separator name="ionic md" >
   <i name="TEBEG">      0.00010000</i>
   <i name="TEEND">      0.00010000</i>
   <i type="int" name="NBLOCK">     1</i>
   <i type="int" name="KBLOCK">  1000</i>
   <i type="int" name="NPACO">   256</i>
   <i name="APACO">     16.00000000</i>
  </separator>
  <separator name="symmetry" >
   <i type="int" name="ISYM">     0</i>
   <i name="SYMPREC">      0.00001000</i>
  </separator>
  <separator name="dos" >
   <i type="int" name="LORBIT">     0</i>
   <v name="RWIGS">     -1.00000000</v>
   <i type="int" name="NEDOS">   301</i>
   <i name="EMIN">     10.00000000</i>
   <i name="EMAX">    -10.00000000</i>
   <i name="EFERMI">      0.00000000</i>
  </separator>
  <separator name="writing" >
   <i type="int" name="NWRITE">     2</i>
   <i type="logical" name="LWAVE"> F  </i>
   <i type="logical" name="LDOWNSAMPLE"> F  </i>
   <i type="logical" name="LCHARG"> F  </i>
   <i type="logical" name="LPARD"> F  </i>
   <i type="logical" name="LVTOT"> F  </i>
   <i type="logical" name="LVHAR"> F  </i>
   <i type="logical" name="LELF"> F  </i>
   <i type="logical" name="LOPTICS"> F  </i>
   <v name="STM">      0.00000000      0.00000000      0.00000000      0.00000000      0.00000000      0.00000000      0.00000000</v>
  </separator>
  <separator name="performance" >
   <i type="int" name="NPAR">     1</i>
   <i type="int" name="NSIM">     4</i>
   <i type="int" name="NBLK">    -1</i>
   <i type="logical" name="LPLANE"> T  </i>
   <i type="logical" name="LSCALAPACK"> T  </i>
   <i type="logical" name="LSCAAWARE"> F  </i>
   <i type="logical" name="LSCALU"> F  </i>
   <i type="logical" name="LASYNC"> F  </i>
   <i type="logical" name="LORBITALREAL"> F  </i>
  </separator>
  <separator name="miscellaneous" >
   <i type="int" name="IDIOT">     3</i>
   <i type="int" name="PHON_NSTRUCT">    -1</i>
   <i type="logical" name="LMUSIC"> F  </i>
   <v name="POMASS">     63.54600000</v>
   <v name="DARWINR">      0.00000000</v>
   <v name="DARWINV">      1.00000000</v>
   <i type="logical" name="LCORR"> T  </i>
  </separator>
  <i type="logical" name="GGA_COMPAT"> T  </i>
  <i type="logical" name="LBERRY"> F  </i>
  <i type="int" name="ICORELEVEL">     0</i>
  <i type="logical" name="LDAU"> F  </i>
  <i type="int" name="I_CONSTRAINED_M">     0</i>
  <separator name="electronic exchange-correlation" >
   <i type="string" name="GGA">PE</i>
   <i type="int" name="VOSKOWN">     0</i>
   <i type="logical" name="LHFCALC"> F  </i>
   <i type="string" name="PRECFOCK"></i>
   <i type="logical" name="LSYMGRAD"> F  </i>
   <i type="logical" name="LHFONE"> F  </i>
   <i type="logical" name="LRHFCALC"> F  </i>
   <i type="logical" name="LTHOMAS"> F  </i>
   <i type="logical" name="LMODELHF"> F  </i>
   <i type="logical" name="LFOCKACE"> F  </i>
   <i name="ENCUT4O">     -1.00000000</i>
   <i type="int" name="EXXOEP">     0</i>
   <i type="int" name="FOURORBIT">     0</i>
   <i name="AEXX">      0.00000000</i>
   <i name="HFALPHA">      0.00000000</i>
   <i name="MCALPHA">      0.00000000</i>
   <i name="ALDAX">      1.00000000</i>
   <i name="AGGAX">      1.00000000</i>
   <i name="ALDAC">      1.00000000</i>
   <i name="AGGAC">      1.00000000</i>
   <i type="int" name="NKREDX">     1</i>
   <i type="int" name="NKREDY">     1</i>
   <i type="int" name="NKREDZ">     1</i>
   <i type="logical" name="SHIFTRED"> F  </i>
   <i type="logical" name="ODDONLY"> F  </i>
   <i type="logical" name="EVENONLY"> F  </i>
   <i type="int" name="LMAXFOCK">     0</i>
   <i type="int" name="NMAXFOCKAE">     0</i>
   <i type="logical" name="LFOCKAEDFT"> F  </i>
   <i name="HFSCREEN">      0.00000000</i>
   <i name="HFSCREENC">      0.00000000</i>
   <i type="int" name="NBANDSGWLOW">     0</i>
  </separator>
  <separator name="vdW DFT" >
   <i type="logical" name="LUSE_VDW"> F  </i>
   <i name="Zab_VDW">     -0.84910000</i>
   <i name="PARAM1">      0.12340000</i>
   <i name="PARAM2">      1.00000000</i>
   <i name="PARAM3">      0.00000000</i>
  </separator>
  <separator name="model GW" >
   <i type="int" name="MODEL_GW">     0</i>
   <i name="MODEL_EPS0">    577.21657994</i>
   <i name="MODEL_ALPHA">      1.00000000</i>
  </separator>
  <separator name="linear response parameters" >
   <i type="logical" name="LEPSILON"> F  </i>
   <i type="logical" name="LRPA"> F  </i>
   <i type="logical" name="LNABLA"> F  </i>
   <i type="logical" name="LVEL"> F  </i>
   <i type="int" name="KINTER">     0</i>
   <i name="CSHIFT">      0.10000000</i>
   <i name="OMEGAMAX">     -1.00000000</i>
   <i name="DEG_THRESHOLD">      0.00200000</i>
   <i name="RTIME">     -0.10000000</i>
   <i name="WPLASMAI">      0.00000000</i>
   <v name="DFIELD">      0.00000000      0.00000000      0.00000000</v>
   <v name="WPLASMA">      0.00000000      0.00000000      0.00000000      0.00000000      0.00000000      0.00000000      0.00000000      0.00000000      0.00000000</v>
  </separator>
  <separator name="orbital magnetization" >
   <i type="logical" name="NUCIND"> F  </i>
   <v name="MAGPOS">      0.00000000      0.00000000      0.00000000</v>
   <i type="logical" name="LNICSALL"> T  </i>
   <i type="logical" name="ORBITALMAG"> F  </i>
   <i type="logical" name="LMAGBLOCH"> F  </i>
   <i type="logical" name="LCHIMAG"> F  </i>
   <i type="logical" name="LGAUGE"> T  </i>
   <i type="int" name="MAGATOM">     0</i>
   <v name="MAGDIPOL">      0.00000000      0.00000000      0.00000000</v>
   <v name="AVECCONST">      0.00000000      0.00000000      0.00000000</v>
  </separator>
  <separator name="response functions" >
   <i type="logical" name="LFINITE_TEMPERATURE"> F  </i>
   <i type="logical" name="LADDER"> F  </i>
   <i type="logical" name="LRPAFORCE"> F  </i>
   <i type="logical" name="LFXC"> F  </i>
   <i type="logical" name="LHARTREE"> T  </i>
   <i type="int" name="IBSE">     0</i>
   <v type="int" name="KPOINT">    -1     0     0     0</v>
   <i type="logical" name="LTCTC"> F  </i>
   <i type="logical" name="LTCTE"> F  </i>
   <i type="logical" name="LTETE"> F  </i>
   <i type="logical" name="LTRIPLET"> F  </i>
   <i type="logical" name="LFXCEPS"> F  </i>
   <i type="logical" name="LFXHEG"> F  </i>
   <i type="int" name="NATURALO">     2</i>
   <i type="logical" name="LHOLEGF"> F  </i>
   <i type="logical" name="L2ORDER"> F  </i>
   <i type="logical" name="LDMP1"> F  </i>
   <i type="logical" name="LMP2LT"> F  </i>
   <i type="logical" name="LSMP2LT"> F  </i>
   <i type="logical" name="LGWLF"> F  </i>
   <i name="ENCUTGW">     -2.00000000</i>
   <i name="ENCUTGWSOFT">     -2.00000000</i>
   <i name="ENCUTLF">     -1.00000000</i>
   <i type="logical" name="LESF_SPLINES"> F  </i>
   <i type="int" name="LMAXMP2">    -1</i>
   <i name="SCISSOR">      0.00000000</i>
   <i type="int" name="NOMEGA">     0</i>
   <i type="int" name="NOMEGAR">     0</i>
   <i type="int" name="NBANDSGW">    -1</i>
   <i type="int" name="NBANDSO">    -1</i>
   <i type="int" name="NBANDSV">    -1</i>
   <i type="int" name="NELM">     1</i>
   <i type="int" name="NELMHF">     1</i>
   <i type="int" name="DIM">     3</i>
   <i type="int" name="IESPILON">     4</i>
   <i type="int" name="ANTIRES">     0</i>
   <i name="OMEGAMAX">    -30.00000000</i>
   <i name="OMEGAMIN">    -30.00000000</i>
   <i name="OMEGATL">   -200.00000000</i>
   <i type="int" name="OMEGAGRID">     0</i>
   <i name="CSHIFT">     -0.10000000</i>
   <i type="logical" name="LSELFENERGY"> F  </i>
   <i type="logical" name="LSPECTRAL"> F  </i>
   <i type="logical" name="LSPECTRALGW"> F  </i>
   <i type="logical" name="LSINGLES"> F  </i>
   <i type="logical" name="LFERMIGW"> F  </i>
   <i type="logical" name="ODDONLYGW"> F  </i>
   <i type="logical" name="EVENONLYGW"> F  </i>
   <i type="int" name="NKREDLFX">     1</i>
   <i type="int" name="NKREDLFY">     1</i>
   <i type="int" name="NKREDLFZ">     1</i>
   <i type="int" name="MAXMEM">  2800</i>
   <i type="int" name="TELESCOPE">     0</i>
   <i type="int" name="NTAUPAR">    -1</i>
   <i type="int" name="NOMEGAPAR">    -1</i>
   <i name="LAMBDA">      1.00000000</i>
  </separator>
  <separator name="External order field" >
   <i name="OFIELD_KAPPA">      0.00000000</i>
   <v name="OFIELD_K">      0.00000000      0.00000000      0.00000000</v>
   <i name="OFIELD_Q6_NEAR">      0.00000000</i>
   <i name="OFIELD_Q6_FAR">      0.00000000</i>
   <i name="OFIELD_A">      0.00000000</i>
  </separator>
 </parameters>
 <atominfo>
  <atoms>      13 </atoms>
  <types>       1 </types>
  <array name="atoms" >
   <dimension dim="1">ion</dimension>
   <field type="string">element</field>
   <field type="int">atomtype</field>
   <set>
    <rc><c>Cu</c><c>   1</c></rc>
    <rc><c>Cu</c><c>   1</c></rc>
    <rc><c>Cu</c><c>   1</c></rc>
    <rc><c>Cu</c><c>   1</c></rc>
    <rc><c>Cu</c><c>   1</c></rc>
    <rc><c>Cu</c><c>   1</c></rc>
    <rc><c>Cu</c><c>   1</c></rc>
    <rc><c>Cu</c><c>   1</c></rc>
    <rc><c>Cu</c><c>   1</c></rc>
    <rc><c>Cu</c><c>   1</c></rc>
    <rc><c>Cu</c><c>   1</c></rc>
    <rc><c>Cu</c><c>   1</c></rc>
    <rc><c>Cu</c><c>   1</c></rc>
   </set>
  </array>
  <array name="atomtypes" >
   <dimension dim="1">type</dimension>
   <field type="int">atomspertype</field>
   <field type="string">element</field>
   <field>mass</field>
   <field>valence</field>
   <field type="string">pseudopotential</field>
   <set>
    <rc><c>  13</c><c>Cu</c><c>     63.54600000</c><c>     11.00000000</c><c>  PAW_PBE Cu 22Jun2005                  </c></rc>
   </set>
  </array>
 </atominfo>
 <structure name="initialpos" >
  <crystal>
   <varray name="basis" >
    <v>      20.88929982       0.00000000       0.00000000 </v>
    <v>       0.00000000      22.93551249       0.00000000 </v>
    <v>       0.00000000       0.00000000      26.10348948 </v>
   </varray>
   <i name="volume">  12506.35923203 </i>
   <varray name="rec_basis" >
    <v>       0.04787140       0.00000000       0.00000000 </v>
    <v>       0.00000000       0.04360051       0.00000000 </v>
    <v>       0.00000000       0.00000000       0.03830905 </v>
   </varray>
  </crystal>
  <varray name="positions" >
   <v>       0.46182106       0.49317050       0.46713064 </v>
   <v>       0.56681537       0.52103220       0.41898127 </v>
   <v>       0.54728936       0.56047468       0.50620561 </v>
   <v>       0.57359027       0.45587650       0.49472446 </v>
   <v>       0.47663011       0.59190258       0.43307903 </v>
   <v>       0.52039759       0.42092012       0.41548303 </v>
   <v>       0.46453749       0.50453908       0.37331031 </v>
   <v>       0.43258521       0.57613264       0.52340934 </v>
   <v>       0.48948580       0.48352651       0.55866318 </v>
   <v>       0.47804298       0.39571530       0.50166148 </v>
   <v>       0.53029556       0.58630343       0.35112896 </v>
   <v>       0.40836323       0.53571513       0.60676103 </v>
   <v>       0.51057311       0.58090056       0.59436849 </v>
  </varray>
 </structure>
 <calculation>
  <scstep>
   <time name="dav">   12.51   12.53</time>
   <time name="total">   16.59   27.63</time>
   <energy>
    <i name="alphaZ">      9.88252744 </i>
    <i name="ewald">  23674.64024405 </i>
    <i name="hartreedc"> -40142.84355745 </i>
    <i name="XCdc">    584.07006559 </i>
    <i name="pawpsdc">  15965.26744864 </i>
    <i name="pawaedc"> -17340.97210982 </i>
    <i name="eentropy">     -0.04874382 </i>
    <i name="bandstr">    134.88084935 </i>
    <i name="atom">  18082.44932260 </i>
    <i name="e_fr_energy">    967.32604657 </i>
    <i name="e_wo_entrp">    967.37479039 </i>
    <i name="e_0_energy">    967.34229451 </i>
   </energy>
  </scstep>
  <scstep>
   <time name="dav">   12.65   12.66</time>
   <time name="total">   12.65   12.66</time>
   <energy>
    <i name="e_fr_energy">    237.50060378 </i>
    <i name="e_wo_entrp">    237.52526930 </i>
    <i name="e_0_energy">    237.50882562 </i>
   </energy>
  </scstep>
  <scstep>
   <time name="dav">   14.81   14.82</time>
   <time name="total">   14.81   14.82</time>
   <energy>
    <i name="e_fr_energy">      7.33497528 </i>
    <i name="e_wo_entrp">      7.34558115 </i>
    <i name="e_0_energy">      7.33851057 </i>
   </energy>
  </scstep>
  <scstep>
   <time name="dav">   13.99   14.01</time>
   <time name="total">   13.99   14.01</time>
   <energy>
    <i name="e_fr_energy">    -34.70948083 </i>
    <i name="e_wo_entrp">    -34.74516622 </i>
    <i name="e_0_energy">    -34.72137596 </i>
   </energy>
  </scstep>
  <scstep>
   <time name="dav">   15.05   15.07</time>
   <time name="total">   16.29   16.31</time>
   <energy>
    <i name="e_fr_energy">    -36.61348345 </i>
    <i name="e_wo_entrp">    -36.63174419 </i>
    <i name="e_0_energy">    -36.61957036 </i>
   </energy>
  </scstep>
  <scstep>
   <time name="dav">   12.88   12.89</time>
   <time name="total">   18.22   18.27</time>
   <energy>
    <i name="e_fr_energy">    -16.46137367 </i>
    <i name="e_wo_entrp">    -16.45382632 </i>
    <i name="e_0_energy">    -16.45885789 </i>
   </energy>
  </scstep>
  <scstep>
   <time name="dav">   14.15   14.16</time>
   <time name="total">   19.43   19.45</time>
   <energy>
    <i name="e_fr_energy">    -10.51391414 </i>
    <i name="e_wo_entrp">    -10.49516173 </i>
    <i name="e_0_energy">    -10.50766334 </i>
   </energy>
  </scstep>
  <scstep>
   <time name="dav">   14.16   14.17</time>
   <time name="total">   19.47   19.50</time>
   <energy>
    <i name="e_fr_energy">     -9.85202118 </i>
    <i name="e_wo_entrp">     -9.82460697 </i>
    <i name="e_0_energy">     -9.84288311 </i>
   </energy>
  </scstep>
  <scstep>
   <time name="dav">   15.70   15.72</time>
   <time name="total">   21.04   21.07</time>
   <energy>
    <i name="e_fr_energy">    -11.19934034 </i>
    <i name="e_wo_entrp">    -11.19316627 </i>
    <i name="e_0_energy">    -11.19728232 </i>
   </energy>
  </scstep>
  <scstep>
   <time name="dav">   15.50   15.52</time>
   <time name="total">   20.82   20.85</time>
   <energy>
    <i name="e_fr_energy">    -16.36784462 </i>
    <i name="e_wo_entrp">    -16.37570857 </i>
    <i name="e_0_energy">    -16.37046593 </i>
   </energy>
  </scstep>
  <scstep>
   <time name="dav">   14.97   14.99</time>
   <time name="total">   20.34   20.36</time>
   <energy>
    <i name="e_fr_energy">    -20.34047347 </i>
    <i name="e_wo_entrp">    -20.31382244 </i>
    <i name="e_0_energy">    -20.33158979 </i>
   </energy>
  </scstep>
  <scstep>
   <time name="dav">   16.56   16.58</time>
   <time name="total">   21.89   21.92</time>
   <energy>
    <i name="e_fr_energy">    -22.23417243 </i>
    <i name="e_wo_entrp">    -22.18592563 </i>
    <i name="e_0_energy">    -22.21809016 </i>
   </energy>
  </scstep>
  <scstep>
   <time name="dav">   16.69   16.71</time>
   <time name="total">   22.06   22.08</time>
   <energy>
    <i name="e_fr_energy">    -24.06225962 </i>
    <i name="e_wo_entrp">    -24.01300757 </i>
    <i name="e_0_energy">    -24.04584227 </i>
   </energy>
  </scstep>
  <scstep>
   <time name="dav">   16.16   16.17</time>
   <time name="total">   21.49   21.52</time>
   <energy>
    <i name="e_fr_energy">    -25.21297677 </i>
    <i name="e_wo_entrp">    -25.18096657 </i>
    <i name="e_0_energy">    -25.20230670 </i>
   </energy>
  </scstep>
  <scstep>
   <time name="dav">   15.75   15.76</time>
   <time name="total">   21.11   21.20</time>
   <energy>
    <i name="e_fr_energy">    -28.01692673 </i>
    <i name="e_wo_entrp">    -28.01882747 </i>
    <i name="e_0_energy">    -28.01756031 </i>
   </energy>
  </scstep>
  <scstep>
   <time name="dav">   15.36   15.38</time>
   <time name="total">   20.71   20.73</time>
   <energy>
    <i name="e_fr_energy">    -29.14324130 </i>
    <i name="e_wo_entrp">    -29.14522860 </i>
    <i name="e_0_energy">    -29.14390373 </i>
   </energy>
  </scstep>
  <scstep>
   <time name="dav">   15.97   15.99</time>
   <time name="total">   21.32   21.35</time>
   <energy>
    <i name="e_fr_energy">    -29.86319185 </i>
    <i name="e_wo_entrp">    -29.86465855 </i>
    <i name="e_0_energy">    -29.86368075 </i>
   </energy>
  </scstep>
  <scstep>
   <time name="dav">   16.37   16.38</time>
   <time name="total">   21.74   21.78</time>
   <energy>
    <i name="e_fr_energy">    -30.84497983 </i>
    <i name="e_wo_entrp">    -30.84131398 </i>
    <i name="e_0_energy">    -30.84375788 </i>
   </energy>
  </scstep>
  <scstep>
   <time name="dav">   15.74   15.76</time>
   <time name="total">   21.10   21.13</time>
   <energy>
    <i name="e_fr_energy">    -31.34757736 </i>
    <i name="e_wo_entrp">    -31.34178457 </i>
    <i name="e_0_energy">    -31.34564643 </i>
   </energy>
  </scstep>
  <scstep>
   <time name="dav">   16.35   16.37</time>
   <time name="total">   21.73   21.74</time>
   <energy>
    <i name="e_fr_energy">    -31.66620686 </i>
    <i name="e_wo_entrp">    -31.65514168 </i>
    <i name="e_0_energy">    -31.66251847 </i>
   </energy>
  </scstep>
  <scstep>
   <time name="dav">   15.95   15.96</time>
   <time name="total">   21.38   21.40</time>
   <energy>
    <i name="e_fr_energy">    -31.98479842 </i>
    <i name="e_wo_entrp">    -31.96698806 </i>
    <i name="e_0_energy">    -31.97886163 </i>
   </energy>
  </scstep>
  <scstep>
   <time name="dav">   17.05   17.07</time>
   <time name="total">   22.45   22.47</time>
   <energy>
    <i name="e_fr_energy">    -32.22240914 </i>
    <i name="e_wo_entrp">    -32.20023007 </i>
    <i name="e_0_energy">    -32.21501611 </i>
   </energy>
  </scstep>
  <scstep>
   <time name="dav">   16.14   16.16</time>
   <time name="total">   21.55   21.77</time>
   <energy>
    <i name="e_fr_energy">    -32.30759551 </i>
    <i name="e_wo_entrp">    -32.28498786 </i>
    <i name="e_0_energy">    -32.30005963 </i>
   </energy>
  </scstep>
  <scstep>
   <time name="dav">   13.26   13.27</time>
   <time name="total">   18.71   18.73</time>
   <energy>
    <i name="e_fr_energy">    -32.35169675 </i>
    <i name="e_wo_entrp">    -32.32799917 </i>
    <i name="e_0_energy">    -32.34379756 </i>
   </energy>
  </scstep>
  <scstep>
   <time name="dav">   13.18   13.20</time>
   <time name="total">   18.63   18.65</time>
   <energy>
    <i name="e_fr_energy">    -32.39196141 </i>
    <i name="e_wo_entrp">    -32.36637209 </i>
    <i name="e_0_energy">    -32.38343163 </i>
   </energy>
  </scstep>
  <scstep>
   <time name="dav">   13.05   13.06</time>
   <time name="total">   18.53   18.55</time>
   <energy>
    <i name="e_fr_energy">    -32.41557828 </i>
    <i name="e_wo_entrp">    -32.38799520 </i>
    <i name="e_0_energy">    -32.40638392 </i>
   </energy>
  </scstep>
  <scstep>
   <time name="dav">   10.73   10.74</time>
   <time name="total">   16.20   16.21</time>
   <energy>
    <i name="e_fr_energy">    -32.43033930 </i>
    <i name="e_wo_entrp">    -32.40145299 </i>
    <i name="e_0_energy">    -32.42071053 </i>
   </energy>
  </scstep>
  <scstep>
   <time name="dav">   10.17   10.18</time>
   <time name="total">   15.63   15.65</time>
   <energy>
    <i name="e_fr_energy">    -32.43949050 </i>
    <i name="e_wo_entrp">    -32.41018608 </i>
    <i name="e_0_energy">    -32.42972236 </i>
   </energy>
  </scstep>
  <scstep>
   <time name="dav">   10.33   10.34</time>
   <time name="total">   15.82   15.84</time>
   <energy>
    <i name="e_fr_energy">    -32.44401701 </i>
    <i name="e_wo_entrp">    -32.41442352 </i>
    <i name="e_0_energy">    -32.43415251 </i>
   </energy>
  </scstep>
  <scstep>
   <time name="dav">   10.23   10.24</time>
   <time name="total">   15.75   15.76</time>
   <energy>
    <i name="e_fr_energy">    -32.44651996 </i>
    <i name="e_wo_entrp">    -32.41651687 </i>
    <i name="e_0_energy">    -32.43651893 </i>
   </energy>
  </scstep>
  <scstep>
   <time name="dav">   10.05   10.06</time>
   <time name="total">   15.59   15.61</time>
   <energy>
    <i name="e_fr_energy">    -32.44780669 </i>
    <i name="e_wo_entrp">    -32.41762781 </i>
    <i name="e_0_energy">    -32.43774706 </i>
   </energy>
  </scstep>
  <scstep>
   <time name="dav">    9.74    9.75</time>
   <time name="total">   15.42   15.44</time>
   <energy>
    <i name="e_fr_energy">    -32.44933825 </i>
    <i name="e_wo_entrp">    -32.41904371 </i>
    <i name="e_0_energy">    -32.43924007 </i>
   </energy>
  </scstep>
  <scstep>
   <time name="dav">    9.95    9.96</time>
   <time name="total">   15.61   15.62</time>
   <energy>
    <i name="e_fr_energy">    -32.45044882 </i>
    <i name="e_wo_entrp">    -32.42006360 </i>
    <i name="e_0_energy">    -32.44032041 </i>
   </energy>
  </scstep>
  <scstep>
   <time name="dav">   10.42   10.43</time>
   <time name="total">   16.06   16.08</time>
   <energy>
    <i name="e_fr_energy">    -32.45104605 </i>
    <i name="e_wo_entrp">    -32.42059268 </i>
    <i name="e_0_energy">    -32.44089492 </i>
   </energy>
  </scstep>
  <scstep>
   <time name="dav">    9.96    9.97</time>
   <time name="total">   15.60   15.62</time>
   <energy>
    <i name="e_fr_energy">    -32.45162808 </i>
    <i name="e_wo_entrp">    -32.42109573 </i>
    <i name="e_0_energy">    -32.44145063 </i>
   </energy>
  </scstep>
  <scstep>
   <time name="dav">    9.77    9.78</time>
   <time name="total">   15.53   15.55</time>
   <energy>
    <i name="e_fr_energy">    -32.45205039 </i>
    <i name="e_wo_entrp">    -32.42144084 </i>
    <i name="e_0_energy">    -32.44184720 </i>
   </energy>
  </scstep>
  <scstep>
   <time name="dav">    9.53    9.54</time>
   <time name="total">   15.19   15.21</time>
   <energy>
    <i name="e_fr_energy">    -32.45226427 </i>
    <i name="e_wo_entrp">    -32.42161052 </i>
    <i name="e_0_energy">    -32.44204635 </i>
   </energy>
  </scstep>
  <scstep>
   <time name="dav">    9.74    9.75</time>
   <time name="total">   15.52   15.54</time>
   <energy>
    <i name="e_fr_energy">    -32.45246306 </i>
    <i name="e_wo_entrp">    -32.42176329 </i>
    <i name="e_0_energy">    -32.44222980 </i>
   </energy>
  </scstep>
  <scstep>
   <time name="dav">    9.78    9.79</time>
   <time name="total">   15.56   15.58</time>
   <energy>
    <i name="e_fr_energy">    -32.45264878 </i>
    <i name="e_wo_entrp">    -32.42190434 </i>
    <i name="e_0_energy">    -32.44240063 </i>
   </energy>
  </scstep>
  <scstep>
   <time name="dav">    9.89    9.90</time>
   <time name="total">   15.69   15.71</time>
   <energy>
    <i name="e_fr_energy">    -32.45279333 </i>
    <i name="e_wo_entrp">    -32.42200142 </i>
    <i name="e_0_energy">    -32.44252936 </i>
   </energy>
  </scstep>
  <scstep>
   <time name="dav">    9.66    9.67</time>
   <time name="total">   13.73   13.75</time>
   <energy>
    <i name="alphaZ">      9.88252744 </i>
    <i name="ewald">  23674.64024405 </i>
    <i name="hartreedc"> -40099.26311980 </i>
    <i name="XCdc">    574.19403862 </i>
    <i name="pawpsdc">  16673.79356982 </i>
    <i name="pawaedc"> -18067.12727653 </i>
    <i name="eentropy">     -0.03081076 </i>
    <i name="bandstr">   -880.99134055 </i>
    <i name="atom">  18082.44932260 </i>
    <i name="e_fr_energy">    -32.45284511 </i>
    <i name="e_wo_entrp">    -32.42203435 </i>
    <i name="e_0_energy">    -32.44257486 </i>
   </energy>
  </scstep>
  <structure>
   <crystal>
    <varray name="basis" >
     <v>      20.88929982       0.00000000       0.00000000 </v>
     <v>       0.00000000      22.93551249       0.00000000 </v>
     <v>       0.00000000       0.00000000      26.10348948 </v>
    </varray>
    <i name="volume">  12506.35923203 </i>
    <varray name="rec_basis" >
     <v>       0.04787140       0.00000000       0.00000000 </v>
     <v>       0.00000000       0.04360051       0.00000000 </v>
     <v>       0.00000000       0.00000000       0.03830905 </v>
    </varray>
   </crystal>
   <varray name="positions" >
    <v>       0.46182106       0.49317050       0.46713064 </v>
    <v>       0.56681537       0.52103220       0.41898127 </v>
    <v>       0.54728936       0.56047468       0.50620561 </v>
    <v>       0.57359027       0.45587650       0.49472446 </v>
    <v>       0.47663011       0.59190258       0.43307903 </v>
    <v>       0.52039759       0.42092012       0.41548303 </v>
    <v>       0.46453749       0.50453908       0.37331031 </v>
    <v>       0.43258521       0.57613264       0.52340934 </v>
    <v>       0.48948580       0.48352651       0.55866318 </v>
    <v>       0.47804298       0.39571530       0.50166148 </v>
    <v>       0.53029556       0.58630343       0.35112896 </v>
    <v>       0.40836323       0.53571513       0.60676103 </v>
    <v>       0.51057311       0.58090056       0.59436849 </v>
   </varray>
  </structure>
  <varray name="forces" >
   <v>       0.07565288      -0.11809869      -0.03929944 </v>
   <v>      -0.16762679      -0.13915823       0.00124646 </v>
   <v>      -0.05063343       0.02064494       0.11809991 </v>
   <v>      -0.34715102       0.26312797      -0.12367901 </v>
   <v>      -0.01310744      -0.24756975       0.12711067 </v>
   <v>      -0.15876945       0.27763453      -0.07275576 </v>
   <v>       0.37543422      -0.03735788       0.24839460 </v>
   <v>       0.29341889      -0.22694709      -0.17812198 </v>
   <v>      -0.08041104      -0.10118362      -0.12468328 </v>
   <v>       0.06280722       0.38124745       0.26384803 </v>
   <v>      -0.07530194       0.05642922       0.08974590 </v>
   <v>       0.08238078      -0.02278628      -0.10742030 </v>
   <v>       0.00330713      -0.10598257      -0.20248581 </v>
  </varray>
  <energy>
   <i name="e_fr_energy">    -32.45284511 </i>
   <i name="e_wo_entrp">    -32.42203435 </i>
   <i name="e_0_energy">    -32.44257486 </i>
  </energy>
  <time name="totalsc">  763.15  775.39</time>
 </calculation>
 <calculation>
  <scstep>
   <time name="dav">   13.05   13.06</time>
   <time name="total">   18.37   18.40</time>
   <energy>
    <i name="alphaZ">      9.88252744 </i>
    <i name="ewald">  23840.87405642 </i>
    <i name="hartreedc"> -40264.24509275 </i>
    <i name="XCdc">    574.46348835 </i>
    <i name="pawpsdc">  16673.79172801 </i>
    <i name="pawaedc"> -18067.12599801 </i>
    <i name="eentropy">     -0.02944509 </i>
    <i name="bandstr">   -882.53392525 </i>
    <i name="atom">  18082.44932260 </i>
    <i name="e_fr_energy">    -32.47333829 </i>
    <i name="e_wo_entrp">    -32.44389319 </i>
    <i name="e_0_energy">    -32.46352326 </i>
   </energy>
  </scstep>
  <scstep>
   <time name="dav">   16.94   16.96</time>
   <time name="total">   22.17   22.19</time>
   <energy>
    <i name="e_fr_energy">    -32.50201266 </i>
    <i name="e_wo_entrp">    -32.47190745 </i>
    <i name="e_0_energy">    -32.49197759 </i>
   </energy>
  </scstep>
  <scstep>
   <time name="dav">   13.43   13.45</time>
   <time name="total">   18.75   18.77</time>
   <energy>
    <i name="e_fr_energy">    -32.50059202 </i>
    <i name="e_wo_entrp">    -32.47078565 </i>
    <i name="e_0_energy">    -32.49065657 </i>
   </energy>
  </scstep>
  <scstep>
   <time name="dav">   13.67   13.69</time>
   <time name="total">   19.01   19.03</time>
   <energy>
    <i name="e_fr_energy">    -32.50066161 </i>
    <i name="e_wo_entrp">    -32.47087842 </i>
    <i name="e_0_energy">    -32.49073388 </i>
   </energy>
  </scstep>
  <scstep>
   <time name="dav">   13.12   13.13</time>
   <time name="total">   18.37   23.71</time>
   <energy>
    <i name="e_fr_energy">    -32.50054339 </i>
    <i name="e_wo_entrp">    -32.47067230 </i>
    <i name="e_0_energy">    -32.49058636 </i>
   </energy>
  </scstep>
  <scstep>
   <time name="dav">   13.54   13.55</time>
   <time name="total">   17.58   17.60</time>
   <energy>
    <i name="alphaZ">      9.88252744 </i>
    <i name="ewald">  23840.87405642 </i>
    <i name="hartreedc"> -40262.16632602 </i>
    <i name="XCdc">    574.35807005 </i>
    <i name="pawpsdc">  16702.07475718 </i>
    <i name="pawaedc"> -18095.84016711 </i>
    <i name="eentropy">     -0.02961583 </i>
    <i name="bandstr">   -884.10315300 </i>
    <i name="atom">  18082.44932260 </i>
    <i name="e_fr_energy">    -32.50052827 </i>
    <i name="e_wo_entrp">    -32.47091244 </i>
    <i name="e_0_energy">    -32.49065633 </i>
   </energy>
  </scstep>
  <structure>
   <crystal>
    <varray name="basis" >
     <v>      20.88929982       0.00000000       0.00000000 </v>
     <v>       0.00000000      22.93551249       0.00000000 </v>
     <v>       0.00000000       0.00000000      26.10348948 </v>
    </varray>
    <i name="volume">  12506.35923203 </i>
    <varray name="rec_basis" >
     <v>       0.04787140       0.00000000       0.00000000 </v>
     <v>       0.00000000       0.04360051       0.00000000 </v>
     <v>       0.00000000       0.00000000       0.03830905 </v>
    </varray>
   </crystal>
   <varray name="positions" >
    <v>       0.46199577       0.49292209       0.46705801 </v>
    <v>       0.56642825       0.52073949       0.41898357 </v>
    <v>       0.54717243       0.56051810       0.50642387 </v>
    <v>       0.57278855       0.45642996       0.49449589 </v>
    <v>       0.47659984       0.59138184       0.43331395 </v>
    <v>       0.52003092       0.42150410       0.41534857 </v>
    <v>       0.46540454       0.50446050       0.37376937 </v>
    <v>       0.43326285       0.57565528       0.52308015 </v>
    <v>       0.48930009       0.48331368       0.55843275 </v>
    <v>       0.47818803       0.39651722       0.50214910 </v>
    <v>       0.53012165       0.58642213       0.35129482 </v>
    <v>       0.40855348       0.53566720       0.60656250 </v>
    <v>       0.51058075       0.58067764       0.59399427 </v>
   </varray>
  </structure>
  <varray name="forces" >
   <v>      -0.00655979      -0.08329713      -0.02264346 </v>
   <v>      -0.04535343      -0.05839219       0.00444536 </v>
   <v>       0.03307882       0.04362264       0.07239048 </v>
   <v>      -0.21194090       0.21018510      -0.09948820 </v>
   <v>      -0.02196668      -0.18350707       0.09079995 </v>
   <v>      -0.12853900       0.13031991      -0.08292394 </v>
   <v>       0.24232174      -0.02686035       0.12524997 </v>
   <v>       0.17852650      -0.17859079      -0.13550400 </v>
   <v>      -0.08521604      -0.06882020      -0.03684533 </v>
   <v>       0.01435422       0.24277537       0.24895954 </v>
   <v>      -0.05327033       0.07899818       0.07104517 </v>
   <v>       0.05112007      -0.03313292      -0.09787588 </v>
   <v>       0.03344481      -0.07330054      -0.13760968 </v>
  </varray>
  <energy>
   <i name="e_fr_energy">    -32.50052827 </i>
   <i name="e_wo_entrp">    -32.47091244 </i>
   <i name="e_0_energy">    -32.49065633 </i>
  </energy>
  <time name="totalsc">  136.03  141.67</time>
 </calculation>
 <calculation>
  <scstep>
   <time name="dav">   13.31   13.32</time>
   <time name="total">   18.52   18.54</time>
   <energy>
    <i name="alphaZ">      9.88252744 </i>
    <i name="ewald">  24161.02779800 </i>
    <i name="hartreedc"> -40579.55469403 </i>
    <i name="XCdc">    574.89452762 </i>
    <i name="pawpsdc">  16705.98071052 </i>
    <i name="pawaedc"> -18099.92203482 </i>
    <i name="eentropy">     -0.02689054 </i>
    <i name="bandstr">   -887.15732512 </i>
    <i name="atom">  18082.44932260 </i>
    <i name="e_fr_energy">    -32.42605832 </i>
    <i name="e_wo_entrp">    -32.39916779 </i>
    <i name="e_0_energy">    -32.41709481 </i>
   </energy>
  </scstep>
  <scstep>
   <time name="dav">   16.94   16.96</time>
   <time name="total">   22.15   22.17</time>
   <energy>
    <i name="e_fr_energy">    -32.54090739 </i>
    <i name="e_wo_entrp">    -32.51313200 </i>
    <i name="e_0_energy">    -32.53164893 </i>
   </energy>
  </scstep>
  <scstep>
   <time name="dav">   13.18   13.19</time>
   <time name="total">   18.40   18.42</time>
   <energy>
    <i name="e_fr_energy">    -32.53170385 </i>
    <i name="e_wo_entrp">    -32.50421401 </i>
    <i name="e_0_energy">    -32.52254057 </i>
   </energy>
  </scstep>
  <scstep>
   <time name="dav">   13.56   13.57</time>
   <time name="total">   18.83   18.86</time>
   <energy>
    <i name="e_fr_energy">    -32.53215023 </i>
    <i name="e_wo_entrp">    -32.50481458 </i>
    <i name="e_0_energy">    -32.52303835 </i>
   </energy>
  </scstep>
  <scstep>
   <time name="dav">   13.25   13.26</time>
   <time name="total">   18.59   18.60</time>
   <energy>
    <i name="e_fr_energy">    -32.53157841 </i>
    <i name="e_wo_entrp">    -32.50403499 </i>
    <i name="e_0_energy">    -32.52239727 </i>
   </energy>
  </scstep>
  <scstep>
   <time name="dav">   14.70   14.71</time>
   <time name="total">   19.95   20.15</time>
   <energy>
    <i name="e_fr_energy">    -32.53119732 </i>
    <i name="e_wo_entrp">    -32.50411132 </i>
    <i name="e_0_energy">    -32.52216865 </i>
   </energy>
  </scstep>
  <scstep>
   <time name="dav">   17.90   17.91</time>
   <time name="total">   23.22   23.25</time>
   <energy>
    <i name="e_fr_energy">    -32.53096664 </i>
    <i name="e_wo_entrp">    -32.50338143 </i>
    <i name="e_0_energy">    -32.52177157 </i>
   </energy>
  </scstep>
  <scstep>
   <time name="dav">   11.83   11.84</time>
   <time name="total">   15.88   15.89</time>
   <energy>
    <i name="alphaZ">      9.88252744 </i>
    <i name="ewald">  24161.02779800 </i>
    <i name="hartreedc"> -40575.67123367 </i>
    <i name="XCdc">    574.69873811 </i>
    <i name="pawpsdc">  16772.61876609 </i>
    <i name="pawaedc"> -18167.88528964 </i>
    <i name="eentropy">     -0.02765314 </i>
    <i name="bandstr">   -889.62394915 </i>
    <i name="atom">  18082.44932260 </i>
    <i name="e_fr_energy">    -32.53097337 </i>
    <i name="e_wo_entrp">    -32.50332023 </i>
    <i name="e_0_energy">    -32.52175566 </i>
   </energy>
  </scstep>
  <structure>
   <crystal>
    <varray name="basis" >
     <v>      20.88929982       0.00000000       0.00000000 </v>
     <v>       0.00000000      22.93551249       0.00000000 </v>
     <v>       0.00000000       0.00000000      26.10348948 </v>
    </varray>
    <i name="volume">  12506.35923203 </i>
    <varray name="rec_basis" >
     <v>       0.04787140       0.00000000       0.00000000 </v>
     <v>       0.00000000       0.04360051       0.00000000 </v>
     <v>       0.00000000       0.00000000       0.03830905 </v>
    </varray>
   </crystal>
   <varray name="positions" >
    <v>       0.46232769       0.49245017       0.46692003 </v>
    <v>       0.56569280       0.52018341       0.41898795 </v>
    <v>       0.54695028       0.56060060       0.50683852 </v>
    <v>       0.57126545       0.45748142       0.49406165 </v>
    <v>       0.47654233       0.59039255       0.43376024 </v>
    <v>       0.51933433       0.42261353       0.41509312 </v>
    <v>       0.46705173       0.50431122       0.37464150 </v>
    <v>       0.43455020       0.57474840       0.52245476 </v>
    <v>       0.48894730       0.48290935       0.55799498 </v>
    <v>       0.47846359       0.39804068       0.50307548 </v>
    <v>       0.52979127       0.58664762       0.35160992 </v>
    <v>       0.40891492       0.53557614       0.60618535 </v>
    <v>       0.51059526       0.58025413       0.59328333 </v>
   </varray>
  </structure>
  <varray name="forces" >
   <v>      -0.20309992      -0.00295861       0.00924755 </v>
   <v>       0.21595936       0.11948863       0.01867052 </v>
   <v>       0.20022482       0.08905976      -0.02763957 </v>
   <v>       0.09892424       0.11574713      -0.04086644 </v>
   <v>      -0.03225976      -0.03792134       0.00873876 </v>
   <v>      -0.06231883      -0.19913645      -0.09178475 </v>
   <v>      -0.03645576       0.01874353      -0.15486927 </v>
   <v>      -0.05342350      -0.07860116      -0.04357111 </v>
   <v>      -0.09415939       0.01458668       0.15959690 </v>
   <v>      -0.09594143      -0.09805131       0.19974694 </v>
   <v>      -0.01759913       0.11185787       0.04327958 </v>
   <v>       0.00105269      -0.04711904      -0.08435166 </v>
   <v>       0.07909660      -0.00569568       0.00380254 </v>
  </varray>
  <energy>
   <i name="e_fr_energy">    -32.53097337 </i>
   <i name="e_wo_entrp">    -32.50332023 </i>
   <i name="e_0_energy">    -32.52175566 </i>
  </energy>
  <time name="totalsc">  177.27  177.73</time>
 </calculation>
 <calculation>
  <scstep>
   <time name="dav">   13.10   13.11</time>
   <time name="total">   18.35   18.37</time>
   <energy>
    <i name="alphaZ">      9.88252744 </i>
    <i name="ewald">  24114.26722596 </i>
    <i name="hartreedc"> -40529.45256253 </i>
    <i name="XCdc">    574.62228083 </i>
    <i name="pawpsdc">  16772.34219861 </i>
    <i name="pawaedc"> -18167.59275334 </i>
    <i name="eentropy">     -0.02820236 </i>
    <i name="bandstr">   -889.01981964 </i>
    <i name="atom">  18082.44932260 </i>
    <i name="e_fr_energy">    -32.52978245 </i>
    <i name="e_wo_entrp">    -32.50158008 </i>
    <i name="e_0_energy">    -32.52038166 </i>
   </energy>
  </scstep>
  <scstep>
   <time name="dav">   16.83   16.85</time>
   <time name="total">   22.07   22.09</time>
   <energy>
    <i name="e_fr_energy">    -32.53195110 </i>
    <i name="e_wo_entrp">    -32.50395402 </i>
    <i name="e_0_energy">    -32.52261874 </i>
   </energy>
  </scstep>
  <scstep>
   <time name="dav">   13.21   13.22</time>
   <time name="total">   17.23   17.25</time>
   <energy>
    <i name="alphaZ">      9.88252744 </i>
    <i name="ewald">  24114.26722596 </i>
    <i name="hartreedc"> -40529.55670049 </i>
    <i name="XCdc">    574.63300106 </i>
    <i name="pawpsdc">  16767.75669129 </i>
    <i name="pawaedc"> -18162.89091002 </i>
    <i name="eentropy">     -0.02808772 </i>
    <i name="bandstr">   -889.04496070 </i>
    <i name="atom">  18082.44932260 </i>
    <i name="e_fr_energy">    -32.53189059 </i>
    <i name="e_wo_entrp">    -32.50380287 </i>
    <i name="e_0_energy">    -32.52252802 </i>
   </energy>
  </scstep>
  <structure>
   <crystal>
    <varray name="basis" >
     <v>      20.88929982       0.00000000       0.00000000 </v>
     <v>       0.00000000      22.93551249       0.00000000 </v>
     <v>       0.00000000       0.00000000      26.10348948 </v>
    </varray>
    <i name="volume">  12506.35923203 </i>
    <varray name="rec_basis" >
     <v>       0.04787140       0.00000000       0.00000000 </v>
     <v>       0.00000000       0.04360051       0.00000000 </v>
     <v>       0.00000000       0.00000000       0.03830905 </v>
    </varray>
   </crystal>
   <varray name="positions" >
    <v>       0.46227959       0.49251857       0.46694002 </v>
    <v>       0.56579939       0.52026401       0.41898732 </v>
    <v>       0.54698248       0.56058864       0.50677842 </v>
    <v>       0.57148620       0.45732903       0.49412459 </v>
    <v>       0.47655067       0.59053594       0.43369555 </v>
    <v>       0.51943529       0.42245273       0.41513014 </v>
    <v>       0.46681298       0.50433286       0.37451509 </v>
    <v>       0.43436361       0.57487984       0.52254540 </v>
    <v>       0.48899843       0.48296795       0.55805843 </v>
    <v>       0.47842365       0.39781987       0.50294121 </v>
    <v>       0.52983915       0.58661494       0.35156425 </v>
    <v>       0.40886254       0.53558934       0.60624001 </v>
    <v>       0.51059316       0.58031551       0.59338638 </v>
   </varray>
  </structure>
  <varray name="forces" >
   <v>      -0.16820041      -0.01989109       0.00336182 </v>
   <v>       0.16843548       0.08678322       0.01497365 </v>
   <v>       0.17038902       0.08258912      -0.00752731 </v>
   <v>       0.04302233       0.13797306      -0.05278003 </v>
   <v>      -0.03192351      -0.06815023       0.02568361 </v>
   <v>      -0.07657110      -0.13771802      -0.09442896 </v>
   <v>       0.01855044       0.00873335      -0.10065286 </v>
   <v>      -0.00953114      -0.09776632      -0.06345986 </v>
   <v>      -0.09468219      -0.00417591       0.12248344 </v>
   <v>      -0.07835440      -0.03293291       0.21873562 </v>
   <v>      -0.02411297       0.10913794       0.04759171 </v>
   <v>       0.00966216      -0.04592365      -0.08891475 </v>
   <v>       0.07331628      -0.01865857      -0.02506608 </v>
  </varray>
  <energy>
   <i name="e_fr_energy">    -32.53189059 </i>
   <i name="e_wo_entrp">    -32.50380287 </i>
   <i name="e_0_energy">    -32.52252802 </i>
  </energy>
  <time name="totalsc">   79.33   79.45</time>
 </calculation>
 <calculation>
  <scstep>
   <time name="dav">   13.00   13.01</time>
   <time name="total">   18.30   18.33</time>
   <energy>
    <i name="alphaZ">      9.88252744 </i>
    <i name="ewald">  24107.09758945 </i>
    <i name="hartreedc"> -40522.92030111 </i>
    <i name="XCdc">    574.61576428 </i>
    <i name="pawpsdc">  16767.11467201 </i>
    <i name="pawaedc"> -18162.24263726 </i>
    <i name="eentropy">     -0.02480873 </i>
    <i name="bandstr">   -888.50553121 </i>
    <i name="atom">  18082.44932260 </i>
    <i name="e_fr_energy">    -32.53340254 </i>
    <i name="e_wo_entrp">    -32.50859381 </i>
    <i name="e_0_energy">    -32.52513296 </i>
   </energy>
  </scstep>
  <scstep>
   <time name="dav">   16.95   16.96</time>
   <time name="total">   22.25   22.27</time>
   <energy>
    <i name="e_fr_energy">    -32.54896384 </i>
    <i name="e_wo_entrp">    -32.52313634 </i>
    <i name="e_0_energy">    -32.54035468 </i>
   </energy>
  </scstep>
  <scstep>
   <time name="dav">   13.56   13.58</time>
   <time name="total">   18.80   18.82</time>
   <energy>
    <i name="e_fr_energy">    -32.54825542 </i>
    <i name="e_wo_entrp">    -32.52262758 </i>
    <i name="e_0_energy">    -32.53971281 </i>
   </energy>
  </scstep>
  <scstep>
   <time name="dav">   15.21   15.22</time>
   <time name="total">   20.48   20.50</time>
   <energy>
    <i name="e_fr_energy">    -32.54813181 </i>
    <i name="e_wo_entrp">    -32.52247349 </i>
    <i name="e_0_energy">    -32.53957904 </i>
   </energy>
  </scstep>
  <scstep>
   <time name="dav">   12.61   12.62</time>
   <time name="total">   17.99   18.01</time>
   <energy>
    <i name="e_fr_energy">    -32.54793650 </i>
    <i name="e_wo_entrp">    -32.52226790 </i>
    <i name="e_0_energy">    -32.53938030 </i>
   </energy>
  </scstep>
  <scstep>
   <time name="dav">   13.74   13.76</time>
   <time name="total">   19.10   19.12</time>
   <energy>
    <i name="e_fr_energy">    -32.54774193 </i>
    <i name="e_wo_entrp">    -32.52218395 </i>
    <i name="e_0_energy">    -32.53922261 </i>
   </energy>
  </scstep>
  <scstep>
   <time name="dav">   10.13   10.14</time>
   <time name="total">   14.18   14.20</time>
   <energy>
    <i name="alphaZ">      9.88252744 </i>
    <i name="ewald">  24107.09758945 </i>
    <i name="hartreedc"> -40523.14366857 </i>
    <i name="XCdc">    574.62678705 </i>
    <i name="pawpsdc">  16759.69724559 </i>
    <i name="pawaedc"> -18154.66313947 </i>
    <i name="eentropy">     -0.02578263 </i>
    <i name="bandstr">   -888.46856086 </i>
    <i name="atom">  18082.44932260 </i>
    <i name="e_fr_energy">    -32.54767940 </i>
    <i name="e_wo_entrp">    -32.52189677 </i>
    <i name="e_0_energy">    -32.53908519 </i>
   </energy>
  </scstep>
  <structure>
   <crystal>
    <varray name="basis" >
     <v>      20.88929982       0.00000000       0.00000000 </v>
     <v>       0.00000000      22.93551249       0.00000000 </v>
     <v>       0.00000000       0.00000000      26.10348948 </v>
    </varray>
    <i name="volume">  12506.35923203 </i>
    <varray name="rec_basis" >
     <v>       0.04787140       0.00000000       0.00000000 </v>
     <v>       0.00000000       0.04360051       0.00000000 </v>
     <v>       0.00000000       0.00000000       0.03830905 </v>
    </varray>
   </crystal>
   <varray name="positions" >
    <v>       0.46181404       0.49239333       0.46692785 </v>
    <v>       0.56620597       0.52042360       0.41902463 </v>
    <v>       0.54747096       0.56083100       0.50682133 </v>
    <v>       0.57139253       0.45786906       0.49393112 </v>
    <v>       0.47644448       0.59019968       0.43382446 </v>
    <v>       0.51909796       0.42223305       0.41486114 </v>
    <v>       0.46711341       0.50433511       0.37439765 </v>
    <v>       0.43452488       0.57447323       0.52229750 </v>
    <v>       0.48865654       0.48289650       0.55829358 </v>
    <v>       0.47822467       0.39795345       0.50361384 </v>
    <v>       0.52971650       0.58695243       0.35172739 </v>
    <v>       0.40894557       0.53544789       0.60596651 </v>
    <v>       0.51081963       0.58020087       0.59321984 </v>
   </varray>
  </structure>
  <varray name="forces" >
   <v>      -0.12363687      -0.06387096      -0.01248905 </v>
   <v>       0.12583618       0.07505867      -0.00330065 </v>
   <v>       0.14469326       0.07354725      -0.01751217 </v>
   <v>       0.01156530       0.07415242      -0.04401780 </v>
   <v>      -0.02149955      -0.04283070      -0.00016727 </v>
   <v>      -0.06947976      -0.09798115      -0.02199681 </v>
   <v>       0.01599620       0.01039520      -0.09466807 </v>
   <v>      -0.02794129      -0.06855472      -0.02317602 </v>
   <v>      -0.03932803       0.00587888       0.07522181 </v>
   <v>      -0.04604096      -0.03345437       0.15144767 </v>
   <v>      -0.01256597       0.09953585       0.04595137 </v>
   <v>      -0.02431031      -0.02572750      -0.05240160 </v>
   <v>       0.06671180      -0.00614888      -0.00289141 </v>
  </varray>
  <energy>
   <i name="e_fr_energy">    -32.54767940 </i>
   <i name="e_wo_entrp">    -32.52189677 </i>
   <i name="e_0_energy">    -32.53908519 </i>
  </energy>
  <time name="totalsc">  152.84  153.06</time>
 </calculation>
 <calculation>
  <scstep>
   <time name="dav">   13.05   13.07</time>
   <time name="total">   18.34   18.37</time>
   <energy>
    <i name="alphaZ">      9.88252744 </i>
    <i name="ewald">  24091.34394947 </i>
    <i name="hartreedc"> -40508.52539689 </i>
    <i name="XCdc">    574.60220261 </i>
    <i name="pawpsdc">  16759.87193459 </i>
    <i name="pawaedc"> -18154.87155565 </i>
    <i name="eentropy">     -0.01856648 </i>
    <i name="bandstr">   -887.21901761 </i>
    <i name="atom">  18082.44932260 </i>
    <i name="e_fr_energy">    -32.48459993 </i>
    <i name="e_wo_entrp">    -32.46603344 </i>
    <i name="e_0_energy">    -32.47841110 </i>
   </energy>
  </scstep>
  <scstep>
   <time name="dav">   16.70   16.71</time>
   <time name="total">   21.95   21.98</time>
   <energy>
    <i name="e_fr_energy">    -32.56730383 </i>
    <i name="e_wo_entrp">    -32.54659185 </i>
    <i name="e_0_energy">    -32.56039984 </i>
   </energy>
  </scstep>
  <scstep>
   <time name="dav">   13.30   13.32</time>
   <time name="total">   18.56   18.58</time>
   <energy>
    <i name="e_fr_energy">    -32.56330808 </i>
    <i name="e_wo_entrp">    -32.54310356 </i>
    <i name="e_0_energy">    -32.55657324 </i>
   </energy>
  </scstep>
  <scstep>
   <time name="dav">   15.27   15.29</time>
   <time name="total">   20.53   20.56</time>
   <energy>
    <i name="e_fr_energy">    -32.56268131 </i>
    <i name="e_wo_entrp">    -32.54242819 </i>
    <i name="e_0_energy">    -32.55593027 </i>
   </energy>
  </scstep>
  <scstep>
   <time name="dav">   13.80   13.81</time>
   <time name="total">   19.08   19.10</time>
   <energy>
    <i name="e_fr_energy">    -32.56155510 </i>
    <i name="e_wo_entrp">    -32.54129102 </i>
    <i name="e_0_energy">    -32.55480041 </i>
   </energy>
  </scstep>
  <scstep>
   <time name="dav">   17.96   17.98</time>
   <time name="total">   23.24   23.28</time>
   <energy>
    <i name="e_fr_energy">    -32.56045265 </i>
    <i name="e_wo_entrp">    -32.54043561 </i>
    <i name="e_0_energy">    -32.55378030 </i>
   </energy>
  </scstep>
  <scstep>
   <time name="dav">   14.33   14.34</time>
   <time name="total">   19.61   19.63</time>
   <energy>
    <i name="e_fr_energy">    -32.56010142 </i>
    <i name="e_wo_entrp">    -32.53958148 </i>
    <i name="e_0_energy">    -32.55326144 </i>
   </energy>
  </scstep>
  <scstep>
   <time name="dav">   12.45   12.46</time>
   <time name="total">   16.53   16.55</time>
   <energy>
    <i name="alphaZ">      9.88252744 </i>
    <i name="ewald">  24091.34394947 </i>
    <i name="hartreedc"> -40508.69941577 </i>
    <i name="XCdc">    574.61209337 </i>
    <i name="pawpsdc">  16756.45398889 </i>
    <i name="pawaedc"> -18151.46095561 </i>
    <i name="eentropy">     -0.02072948 </i>
    <i name="bandstr">   -887.12097045 </i>
    <i name="atom">  18082.44932260 </i>
    <i name="e_fr_energy">    -32.56018955 </i>
    <i name="e_wo_entrp">    -32.53946008 </i>
    <i name="e_0_energy">    -32.55327973 </i>
   </energy>
  </scstep>
  <structure>
   <crystal>
    <varray name="basis" >
     <v>      20.88929982       0.00000000       0.00000000 </v>
     <v>       0.00000000      22.93551249       0.00000000 </v>
     <v>       0.00000000       0.00000000      26.10348948 </v>
    </varray>
    <i name="volume">  12506.35923203 </i>
    <varray name="rec_basis" >
     <v>       0.04787140       0.00000000       0.00000000 </v>
     <v>       0.00000000       0.04360051       0.00000000 </v>
     <v>       0.00000000       0.00000000       0.03830905 </v>
    </varray>
   </crystal>
   <varray name="positions" >
    <v>       0.46079473       0.49211911       0.46690118 </v>
    <v>       0.56709615       0.52077301       0.41910632 </v>
    <v>       0.54854048       0.56136164       0.50691527 </v>
    <v>       0.57118745       0.45905146       0.49350752 </v>
    <v>       0.47621200       0.58946345       0.43410670 </v>
    <v>       0.51835939       0.42175208       0.41427217 </v>
    <v>       0.46777117       0.50434005       0.37414051 </v>
    <v>       0.43487798       0.57358299       0.52175474 </v>
    <v>       0.48790798       0.48274007       0.55880844 </v>
    <v>       0.47778901       0.39824593       0.50508652 </v>
    <v>       0.52944796       0.58769137       0.35208459 </v>
    <v>       0.40912736       0.53513820       0.60536768 </v>
    <v>       0.51131549       0.57994986       0.59285520 </v>
   </varray>
  </structure>
  <varray name="forces" >
   <v>       0.00035837      -0.17794027      -0.05324239 </v>
   <v>       0.00333297       0.04881172      -0.05247399 </v>
   <v>       0.05910907       0.06057008      -0.03421556 </v>
   <v>      -0.08228198      -0.06225343      -0.02375812 </v>
   <v>       0.00745591       0.00287834      -0.05134007 </v>
   <v>      -0.06322812       0.00586130       0.12752173 </v>
   <v>       0.04318807       0.01451849      -0.05239226 </v>
   <v>      -0.03810225      -0.01294615       0.05631375 </v>
   <v>       0.08641643       0.01257763      -0.04439950 </v>
   <v>       0.02954009      -0.00857287       0.02059891 </v>
   <v>       0.00570484       0.07876341       0.04516967 </v>
   <v>      -0.09763109       0.02362749       0.03586709 </v>
   <v>       0.04613769       0.01410426       0.02635074 </v>
  </varray>
  <energy>
   <i name="e_fr_energy">    -32.56018955 </i>
   <i name="e_wo_entrp">    -32.53946008 </i>
   <i name="e_0_energy">    -32.55327973 </i>
  </energy>
  <time name="totalsc">  179.54  179.89</time>
 </calculation>
 <calculation>
  <scstep>
   <time name="dav">   13.15   13.16</time>
   <time name="total">   18.45   18.48</time>
   <energy>
    <i name="alphaZ">      9.88252744 </i>
    <i name="ewald">  24064.55779087 </i>
    <i name="hartreedc"> -40482.28832454 </i>
    <i name="XCdc">    574.57489801 </i>
    <i name="pawpsdc">  16756.50195424 </i>
    <i name="pawaedc"> -18151.48502654 </i>
    <i name="eentropy">     -0.01924668 </i>
    <i name="bandstr">   -886.72683983 </i>
    <i name="atom">  18082.44932260 </i>
    <i name="e_fr_energy">    -32.55294443 </i>
    <i name="e_wo_entrp">    -32.53369776 </i>
    <i name="e_0_energy">    -32.54652888 </i>
   </energy>
  </scstep>
  <scstep>
   <time name="dav">   16.56   16.58</time>
   <time name="total">   21.95   21.97</time>
   <energy>
    <i name="e_fr_energy">    -32.56969433 </i>
    <i name="e_wo_entrp">    -32.54963300 </i>
    <i name="e_0_energy">    -32.56300722 </i>
   </energy>
  </scstep>
  <scstep>
   <time name="dav">   13.30   13.32</time>
   <time name="total">   18.60   18.62</time>
   <energy>
    <i name="e_fr_energy">    -32.56876163 </i>
    <i name="e_wo_entrp">    -32.54909621 </i>
    <i name="e_0_energy">    -32.56220649 </i>
   </energy>
  </scstep>
  <scstep>
   <time name="dav">   14.96   14.98</time>
   <time name="total">   20.27   20.29</time>
   <energy>
    <i name="e_fr_energy">    -32.56864920 </i>
    <i name="e_wo_entrp">    -32.54878376 </i>
    <i name="e_0_energy">    -32.56202739 </i>
   </energy>
  </scstep>
  <scstep>
   <time name="dav">   11.06   11.07</time>
   <time name="total">   16.31   17.62</time>
   <energy>
    <i name="e_fr_energy">    -32.56842388 </i>
    <i name="e_wo_entrp">    -32.54856661 </i>
    <i name="e_0_energy">    -32.56180479 </i>
   </energy>
  </scstep>
  <scstep>
   <time name="dav">   15.09   15.10</time>
   <time name="total">   20.42   20.45</time>
   <energy>
    <i name="e_fr_energy">    -32.56826756 </i>
    <i name="e_wo_entrp">    -32.54815805 </i>
    <i name="e_0_energy">    -32.56156439 </i>
   </energy>
  </scstep>
  <scstep>
   <time name="dav">   10.72   10.73</time>
   <time name="total">   14.82   14.85</time>
   <energy>
    <i name="alphaZ">      9.88252744 </i>
    <i name="ewald">  24064.55779087 </i>
    <i name="hartreedc"> -40482.32497891 </i>
    <i name="XCdc">    574.57507218 </i>
    <i name="pawpsdc">  16751.84784316 </i>
    <i name="pawaedc"> -18146.67150750 </i>
    <i name="eentropy">     -0.02026954 </i>
    <i name="bandstr">   -886.86406227 </i>
    <i name="atom">  18082.44932260 </i>
    <i name="e_fr_energy">    -32.56826198 </i>
    <i name="e_wo_entrp">    -32.54799244 </i>
    <i name="e_0_energy">    -32.56150547 </i>
   </energy>
  </scstep>
  <structure>
   <crystal>
    <varray name="basis" >
     <v>      20.88929982       0.00000000       0.00000000 </v>
     <v>       0.00000000      22.93551249       0.00000000 </v>
     <v>       0.00000000       0.00000000      26.10348948 </v>
    </varray>
    <i name="volume">  12506.35923203 </i>
    <varray name="rec_basis" >
     <v>       0.04787140       0.00000000       0.00000000 </v>
     <v>       0.00000000       0.04360051       0.00000000 </v>
     <v>       0.00000000       0.00000000       0.03830905 </v>
    </varray>
   </crystal>
   <varray name="positions" >
    <v>       0.46052198       0.49133229       0.46670655 </v>
    <v>       0.56735040       0.52106264       0.41894356 </v>
    <v>       0.54908838       0.56174716       0.50682009 </v>
    <v>       0.57077025       0.45912022       0.49330987 </v>
    <v>       0.47618223       0.58927684       0.43400190 </v>
    <v>       0.51788243       0.42164613       0.41456263 </v>
    <v>       0.46813821       0.50439956       0.37388684 </v>
    <v>       0.43480538       0.57329152       0.52180693 </v>
    <v>       0.48808672       0.48274837       0.55879068 </v>
    <v>       0.47780172       0.39829030       0.50555539 </v>
    <v>       0.52940079       0.58820586       0.35233975 </v>
    <v>       0.40874675       0.53514953       0.60533279 </v>
    <v>       0.51165193       0.57993882       0.59284984 </v>
   </varray>
  </structure>
  <varray name="forces" >
   <v>      -0.02194655      -0.00965622      -0.03705977 </v>
   <v>      -0.02079528       0.01569441      -0.02720180 </v>
   <v>      -0.00791405       0.02916901      -0.03783589 </v>
   <v>      -0.03597246      -0.03742410      -0.02526138 </v>
   <v>      -0.01304144      -0.03621496       0.01510507 </v>
   <v>      -0.03929875      -0.00516893       0.06937534 </v>
   <v>       0.05175364       0.00378994      -0.03532031 </v>
   <v>       0.02020195      -0.05169994       0.01780854 </v>
   <v>       0.06557243       0.07351846      -0.02441127 </v>
   <v>       0.01961020      -0.07378472       0.03920422 </v>
   <v>       0.01803859       0.08439720       0.01276561 </v>
   <v>      -0.03742597       0.02306986       0.02032320 </v>
   <v>       0.00121770      -0.01569001       0.01250844 </v>
  </varray>
  <energy>
   <i name="e_fr_energy">    -32.56826198 </i>
   <i name="e_wo_entrp">    -32.54799244 </i>
   <i name="e_0_energy">    -32.56150547 </i>
  </energy>
  <time name="totalsc">  152.58  155.58</time>
 </calculation>
 <calculation>
  <scstep>
   <time name="dav">   13.13   13.15</time>
   <time name="total">   18.50   18.52</time>
   <energy>
    <i name="alphaZ">      9.88252744 </i>
    <i name="ewald">  24041.77678053 </i>
    <i name="hartreedc"> -40459.99589689 </i>
    <i name="XCdc">    574.55175115 </i>
    <i name="pawpsdc">  16751.96231472 </i>
    <i name="pawaedc"> -18146.82784114 </i>
    <i name="eentropy">     -0.01903421 </i>
    <i name="bandstr">   -886.33936995 </i>
    <i name="atom">  18082.44932260 </i>
    <i name="e_fr_energy">    -32.55944575 </i>
    <i name="e_wo_entrp">    -32.54041154 </i>
    <i name="e_0_energy">    -32.55310102 </i>
   </energy>
  </scstep>
  <scstep>
   <time name="dav">   16.83   16.85</time>
   <time name="total">   22.18   22.20</time>
   <energy>
    <i name="e_fr_energy">    -32.57090382 </i>
    <i name="e_wo_entrp">    -32.55113448 </i>
    <i name="e_0_energy">    -32.56431404 </i>
   </energy>
  </scstep>
  <scstep>
   <time name="dav">   13.10   13.12</time>
   <time name="total">   18.42   18.44</time>
   <energy>
    <i name="e_fr_energy">    -32.57037458 </i>
    <i name="e_wo_entrp">    -32.55095669 </i>
    <i name="e_0_energy">    -32.56390195 </i>
   </energy>
  </scstep>
  <scstep>
   <time name="dav">   13.46   13.47</time>
   <time name="total">   18.72   18.74</time>
   <energy>
    <i name="e_fr_energy">    -32.57031196 </i>
    <i name="e_wo_entrp">    -32.55071439 </i>
    <i name="e_0_energy">    -32.56377944 </i>
   </energy>
  </scstep>
  <scstep>
   <time name="dav">    9.75    9.76</time>
   <time name="total">   15.09   15.10</time>
   <energy>
    <i name="e_fr_energy">    -32.57019778 </i>
    <i name="e_wo_entrp">    -32.55060283 </i>
    <i name="e_0_energy">    -32.56366613 </i>
   </energy>
  </scstep>
  <scstep>
   <time name="dav">   13.24   13.25</time>
   <time name="total">   17.30   17.31</time>
   <energy>
    <i name="alphaZ">      9.88252744 </i>
    <i name="ewald">  24041.77678053 </i>
    <i name="hartreedc"> -40459.90971126 </i>
    <i name="XCdc">    574.54726057 </i>
    <i name="pawpsdc">  16748.66639415 </i>
    <i name="pawaedc"> -18143.36181193 </i>
    <i name="eentropy">     -0.01981965 </i>
    <i name="bandstr">   -886.60112269 </i>
    <i name="atom">  18082.44932260 </i>
    <i name="e_fr_energy">    -32.57018025 </i>
    <i name="e_wo_entrp">    -32.55036059 </i>
    <i name="e_0_energy">    -32.56357370 </i>
   </energy>
  </scstep>
  <structure>
   <crystal>
    <varray name="basis" >
     <v>      20.88929982       0.00000000       0.00000000 </v>
     <v>       0.00000000      22.93551249       0.00000000 </v>
     <v>       0.00000000       0.00000000      26.10348948 </v>
    </varray>
    <i name="volume">  12506.35923203 </i>
    <varray name="rec_basis" >
     <v>       0.04787140       0.00000000       0.00000000 </v>
     <v>       0.00000000       0.04360051       0.00000000 </v>
     <v>       0.00000000       0.00000000       0.03830905 </v>
    </varray>
   </crystal>
   <varray name="positions" >
    <v>       0.46029165       0.49066786       0.46654219 </v>
    <v>       0.56756509       0.52130721       0.41880611 </v>
    <v>       0.54955106       0.56207272       0.50673972 </v>
    <v>       0.57041794       0.45917829       0.49314296 </v>
    <v>       0.47615709       0.58911926       0.43391340 </v>
    <v>       0.51747967       0.42155665       0.41480792 </v>
    <v>       0.46844815       0.50444981       0.37367263 </v>
    <v>       0.43474406       0.57304539       0.52185101 </v>
    <v>       0.48823765       0.48275538       0.55877569 </v>
    <v>       0.47781246       0.39832776       0.50595133 </v>
    <v>       0.52936095       0.58864031       0.35255523 </v>
    <v>       0.40842534       0.53515909       0.60530334 </v>
    <v>       0.51193604       0.57992950       0.59284531 </v>
   </varray>
  </structure>
  <varray name="forces" >
   <v>      -0.04224527       0.14109090      -0.01976153 </v>
   <v>      -0.04006298      -0.01370196      -0.00528252 </v>
   <v>      -0.06354182      -0.00190739      -0.03759576 </v>
   <v>       0.00379580      -0.01619616      -0.02381751 </v>
   <v>      -0.02966424      -0.06444571       0.06981524 </v>
   <v>      -0.00964682      -0.01918512       0.01379842 </v>
   <v>       0.05749040      -0.00436781      -0.02464271 </v>
   <v>       0.06633360      -0.07705006      -0.01235398 </v>
   <v>       0.04520436       0.12400562      -0.00562964 </v>
   <v>       0.00941226      -0.13308157       0.05257356 </v>
   <v>       0.02833373       0.08079920      -0.01522403 </v>
   <v>       0.01290857       0.02242570       0.00803616 </v>
   <v>      -0.03831760      -0.03838561       0.00008429 </v>
  </varray>
  <energy>
   <i name="e_fr_energy">    -32.57018025 </i>
   <i name="e_wo_entrp">    -32.55036059 </i>
   <i name="e_0_energy">    -32.56357370 </i>
  </energy>
  <time name="totalsc">  131.99  132.47</time>
 </calculation>
 <calculation>
  <scstep>
   <time name="dav">   13.08   13.09</time>
   <time name="total">   18.42   18.44</time>
   <energy>
    <i name="alphaZ">      9.88252744 </i>
    <i name="ewald">  24033.62790128 </i>
    <i name="hartreedc"> -40452.01106186 </i>
    <i name="XCdc">    574.54674497 </i>
    <i name="pawpsdc">  16748.44570589 </i>
    <i name="pawaedc"> -18143.19453817 </i>
    <i name="eentropy">     -0.02009794 </i>
    <i name="bandstr">   -886.28772279 </i>
    <i name="atom">  18082.44932260 </i>
    <i name="e_fr_energy">    -32.56121859 </i>
    <i name="e_wo_entrp">    -32.54112065 </i>
    <i name="e_0_energy">    -32.55451927 </i>
   </energy>
  </scstep>
  <scstep>
   <time name="dav">   16.59   16.61</time>
   <time name="total">   21.87   21.89</time>
   <energy>
    <i name="e_fr_energy">    -32.57726448 </i>
    <i name="e_wo_entrp">    -32.55750959 </i>
    <i name="e_0_energy">    -32.57067952 </i>
   </energy>
  </scstep>
  <scstep>
   <time name="dav">   13.63   13.65</time>
   <time name="total">   18.97   18.99</time>
   <energy>
    <i name="e_fr_energy">    -32.57634202 </i>
    <i name="e_wo_entrp">    -32.55636106 </i>
    <i name="e_0_energy">    -32.56968170 </i>
   </energy>
  </scstep>
  <scstep>
   <time name="dav">   14.96   14.98</time>
   <time name="total">   20.25   20.28</time>
   <energy>
    <i name="e_fr_energy">    -32.57627943 </i>
    <i name="e_wo_entrp">    -32.55630009 </i>
    <i name="e_0_energy">    -32.56961965 </i>
   </energy>
  </scstep>
  <scstep>
   <time name="dav">   11.05   11.06</time>
   <time name="total">   16.39   16.41</time>
   <energy>
    <i name="e_fr_energy">    -32.57617275 </i>
    <i name="e_wo_entrp">    -32.55601958 </i>
    <i name="e_0_energy">    -32.56945503 </i>
   </energy>
  </scstep>
  <scstep>
   <time name="dav">   15.65   15.66</time>
   <time name="total">   19.69   19.71</time>
   <energy>
    <i name="alphaZ">      9.88252744 </i>
    <i name="ewald">  24033.62790128 </i>
    <i name="hartreedc"> -40451.90027613 </i>
    <i name="XCdc">    574.53759297 </i>
    <i name="pawpsdc">  16747.51573100 </i>
    <i name="pawaedc"> -18142.15663015 </i>
    <i name="eentropy">     -0.02019548 </i>
    <i name="bandstr">   -886.51219845 </i>
    <i name="atom">  18082.44932260 </i>
    <i name="e_fr_energy">    -32.57622492 </i>
    <i name="e_wo_entrp">    -32.55602944 </i>
    <i name="e_0_energy">    -32.56949310 </i>
   </energy>
  </scstep>
  <structure>
   <crystal>
    <varray name="basis" >
     <v>      20.88929982       0.00000000       0.00000000 </v>
     <v>       0.00000000      22.93551249       0.00000000 </v>
     <v>       0.00000000       0.00000000      26.10348948 </v>
    </varray>
    <i name="volume">  12506.35923203 </i>
    <varray name="rec_basis" >
     <v>       0.04787140       0.00000000       0.00000000 </v>
     <v>       0.00000000       0.04360051       0.00000000 </v>
     <v>       0.00000000       0.00000000       0.03830905 </v>
    </varray>
   </crystal>
   <varray name="positions" >
    <v>       0.45991843       0.49051452       0.46632871 </v>
    <v>       0.56762002       0.52149208       0.41866077 </v>
    <v>       0.54975350       0.56237364       0.50655289 </v>
    <v>       0.57009935       0.45917871       0.49291511 </v>
    <v>       0.47602397       0.58875403       0.43403589 </v>
    <v>       0.51706388       0.42140774       0.41508019 </v>
    <v>       0.46895276       0.50448257       0.37339769 </v>
    <v>       0.43493081       0.57255424       0.52185616 </v>
    <v>       0.48854684       0.48317850       0.55874492 </v>
    <v>       0.47785730       0.39791613       0.50648026 </v>
    <v>       0.52942783       0.58932184       0.35271371 </v>
    <v>       0.40816953       0.53524345       0.60529924 </v>
    <v>       0.51206293       0.57979177       0.59284129 </v>
   </varray>
  </structure>
  <varray name="forces" >
   <v>      -0.02272117       0.08839394       0.01019518 </v>
   <v>      -0.03370188      -0.03081921       0.00589883 </v>
   <v>      -0.05533281      -0.02848902      -0.02867767 </v>
   <v>       0.00129716       0.00015880      -0.01549680 </v>
   <v>      -0.03390319      -0.02683021       0.03668516 </v>
   <v>      -0.00446730      -0.01801017      -0.01018472 </v>
   <v>       0.05657076      -0.00306983      -0.03423462 </v>
   <v>       0.03532540      -0.04374577      -0.00738349 </v>
   <v>       0.02882457       0.06038386      -0.02721777 </v>
   <v>       0.01476358      -0.05040991       0.05465874 </v>
   <v>       0.01795718       0.05058889       0.00114110 </v>
   <v>       0.03255601       0.01583115       0.00625540 </v>
   <v>      -0.03716831      -0.01398252       0.00836065 </v>
  </varray>
  <energy>
   <i name="e_fr_energy">    -32.57622492 </i>
   <i name="e_wo_entrp">    -32.55602944 </i>
   <i name="e_0_energy">    -32.56949310 </i>
  </energy>
  <time name="totalsc">  137.52  137.99</time>
 </calculation>
 <calculation>
  <scstep>
   <time name="dav">   13.18   13.20</time>
   <time name="total">   18.53   18.56</time>
   <energy>
    <i name="alphaZ">      9.88252744 </i>
    <i name="ewald">  24023.94286833 </i>
    <i name="hartreedc"> -40442.48007803 </i>
    <i name="XCdc">    574.53765821 </i>
    <i name="pawpsdc">  16747.59048976 </i>
    <i name="pawaedc"> -18142.30409901 </i>
    <i name="eentropy">     -0.02064706 </i>
    <i name="bandstr">   -886.15758274 </i>
    <i name="atom">  18082.44932260 </i>
    <i name="e_fr_energy">    -32.55954051 </i>
    <i name="e_wo_entrp">    -32.53889345 </i>
    <i name="e_0_energy">    -32.55265815 </i>
   </energy>
  </scstep>
  <scstep>
   <time name="dav">   16.63   16.65</time>
   <time name="total">   21.96   21.98</time>
   <energy>
    <i name="e_fr_energy">    -32.57971638 </i>
    <i name="e_wo_entrp">    -32.55925923 </i>
    <i name="e_0_energy">    -32.57289733 </i>
   </energy>
  </scstep>
  <scstep>
   <time name="dav">   13.62   13.63</time>
   <time name="total">   18.99   19.02</time>
   <energy>
    <i name="e_fr_energy">    -32.57860694 </i>
    <i name="e_wo_entrp">    -32.55823618 </i>
    <i name="e_0_energy">    -32.57181669 </i>
   </energy>
  </scstep>
  <scstep>
   <time name="dav">   14.79   14.80</time>
   <time name="total">   20.04   20.06</time>
   <energy>
    <i name="e_fr_energy">    -32.57848543 </i>
    <i name="e_wo_entrp">    -32.55799073 </i>
    <i name="e_0_energy">    -32.57165387 </i>
   </energy>
  </scstep>
  <scstep>
   <time name="dav">   12.22   12.24</time>
   <time name="total">   17.54   17.55</time>
   <energy>
    <i name="e_fr_energy">    -32.57831890 </i>
    <i name="e_wo_entrp">    -32.55770978 </i>
    <i name="e_0_energy">    -32.57144919 </i>
   </energy>
  </scstep>
  <scstep>
   <time name="dav">   16.24   16.26</time>
   <time name="total">   20.28   20.31</time>
   <energy>
    <i name="alphaZ">      9.88252744 </i>
    <i name="ewald">  24023.94286833 </i>
    <i name="hartreedc"> -40442.46555837 </i>
    <i name="XCdc">    574.53171078 </i>
    <i name="pawpsdc">  16746.74869072 </i>
    <i name="pawaedc"> -18141.37576907 </i>
    <i name="eentropy">     -0.02065570 </i>
    <i name="bandstr">   -886.27143778 </i>
    <i name="atom">  18082.44932260 </i>
    <i name="e_fr_energy">    -32.57830106 </i>
    <i name="e_wo_entrp">    -32.55764536 </i>
    <i name="e_0_energy">    -32.57141582 </i>
   </energy>
  </scstep>
  <structure>
   <crystal>
    <varray name="basis" >
     <v>      20.88929982       0.00000000       0.00000000 </v>
     <v>       0.00000000      22.93551249       0.00000000 </v>
     <v>       0.00000000       0.00000000      26.10348948 </v>
    </varray>
    <i name="volume">  12506.35923203 </i>
    <varray name="rec_basis" >
     <v>       0.04787140       0.00000000       0.00000000 </v>
     <v>       0.00000000       0.04360051       0.00000000 </v>
     <v>       0.00000000       0.00000000       0.03830905 </v>
    </varray>
   </crystal>
   <varray name="positions" >
    <v>       0.45950270       0.49034372       0.46609093 </v>
    <v>       0.56768121       0.52169799       0.41849888 </v>
    <v>       0.54997899       0.56270883       0.50634479 </v>
    <v>       0.56974449       0.45917918       0.49266131 </v>
    <v>       0.47587568       0.58834723       0.43417234 </v>
    <v>       0.51660074       0.42124188       0.41538347 </v>
    <v>       0.46951482       0.50451907       0.37309144 </v>
    <v>       0.43513882       0.57200716       0.52186189 </v>
    <v>       0.48889123       0.48364981       0.55871064 </v>
    <v>       0.47790725       0.39745763       0.50706941 </v>
    <v>       0.52950233       0.59008097       0.35289024 </v>
    <v>       0.40788459       0.53533741       0.60529468 </v>
    <v>       0.51220428       0.57963836       0.59283680 </v>
   </varray>
  </structure>
  <varray name="forces" >
   <v>      -0.01288749       0.03457760       0.04498948 </v>
   <v>      -0.02600230      -0.05013618       0.02148662 </v>
   <v>      -0.04729092      -0.06040839      -0.01711447 </v>
   <v>      -0.00064266       0.01754767       0.00082794 </v>
   <v>      -0.03813220       0.01461548       0.00021945 </v>
   <v>       0.00951179      -0.02126332      -0.03842111 </v>
   <v>       0.04862922      -0.00205094      -0.03903271 </v>
   <v>       0.00628796      -0.00085686      -0.00083568 </v>
   <v>       0.00989957      -0.00894761      -0.05306530 </v>
   <v>       0.01851224       0.03898558       0.04590369 </v>
   <v>       0.01191385       0.01924268       0.01532072 </v>
   <v>       0.05809606       0.00736766       0.00336601 </v>
   <v>      -0.03789512       0.01132662       0.01635536 </v>
  </varray>
  <energy>
   <i name="e_fr_energy">    -32.57830106 </i>
[...]
       <r>    -1.2646     5.8465    80.4186 </r>
       <r>    -1.2148     7.7869    80.8066 </r>
       <r>    -1.1650     9.3382    81.2719 </r>
       <r>    -1.1151     9.7990    81.7601 </r>
       <r>    -1.0653     8.9342    82.2053 </r>
       <r>    -1.0155     7.0180    82.5550 </r>
       <r>    -0.9656     4.6629    82.7873 </r>
       <r>    -0.9158     2.6165    82.9177 </r>
       <r>    -0.8660     1.5721    82.9960 </r>
       <r>    -0.8162     1.9386    83.0926 </r>
       <r>    -0.7663     3.5928    83.2716 </r>
       <r>    -0.7165     5.7972    83.5605 </r>
       <r>    -0.6667     7.4708    83.9327 </r>
       <r>    -0.6169     7.7666    84.3197 </r>
       <r>    -0.5670     6.5927    84.6482 </r>
       <r>    -0.5172     4.6657    84.8807 </r>
       <r>    -0.4674     3.0225    85.0313 </r>
       <r>    -0.4175     2.3600    85.1489 </r>
       <r>    -0.3677     2.6900    85.2829 </r>
       <r>    -0.3179     3.5092    85.4578 </r>
       <r>    -0.2681     4.2628    85.6702 </r>
       <r>    -0.2182     4.7034    85.9045 </r>
       <r>    -0.1684     4.9259    86.1500 </r>
       <r>    -0.1186     5.1797    86.4081 </r>
       <r>    -0.0688     5.7040    86.6923 </r>
       <r>    -0.0189     6.6873    87.0255 </r>
       <r>     0.0309     8.2598    87.4370 </r>
       <r>     0.0807    10.4055    87.9555 </r>
       <r>     0.1306    12.8197    88.5943 </r>
       <r>     0.1804    14.8514    89.3343 </r>
       <r>     0.2302    15.6707    90.1151 </r>
       <r>     0.2800    14.6658    90.8459 </r>
       <r>     0.3299    11.8574    91.4367 </r>
       <r>     0.3797     7.9971    91.8352 </r>
       <r>     0.4295     4.2032    92.0446 </r>
       <r>     0.4793     1.3763    92.1132 </r>
       <r>     0.5292    -0.1763    92.1044 </r>
       <r>     0.5790    -0.6940    92.0698 </r>
       <r>     0.6288    -0.6419    92.0378 </r>
       <r>     0.6786    -0.4126    92.0173 </r>
       <r>     0.7285    -0.2108    92.0068 </r>
       <r>     0.7783    -0.0896    92.0023 </r>
       <r>     0.8281    -0.0324    92.0007 </r>
       <r>     0.8780    -0.0101    92.0002 </r>
       <r>     0.9278    -0.0027    92.0000 </r>
       <r>     0.9776    -0.0006    92.0000 </r>
       <r>     1.0274    -0.0001    92.0000 </r>
       <r>     1.0773    -0.0000    92.0000 </r>
       <r>     1.1271    -0.0000    92.0000 </r>
       <r>     1.1769    -0.0000    92.0000 </r>
       <r>     1.2267    -0.0000    92.0000 </r>
       <r>     1.2766    -0.0000    92.0000 </r>
       <r>     1.3264    -0.0000    92.0000 </r>
       <r>     1.3762    -0.0000    92.0000 </r>
       <r>     1.4261    -0.0000    92.0000 </r>
       <r>     1.4759    -0.0000    92.0000 </r>
       <r>     1.5257    -0.0000    92.0000 </r>
       <r>     1.5755     0.0000    92.0000 </r>
       <r>     1.6254     0.0000    92.0000 </r>
       <r>     1.6752     0.0000    92.0000 </r>
       <r>     1.7250     0.0000    92.0000 </r>
       <r>     1.7748     0.0000    92.0000 </r>
       <r>     1.8247     0.0000    92.0000 </r>
       <r>     1.8745     0.0000    92.0000 </r>
       <r>     1.9243     0.0000    92.0000 </r>
       <r>     1.9741     0.0000    92.0000 </r>
       <r>     2.0240     0.0000    92.0000 </r>
       <r>     2.0738     0.0000    92.0000 </r>
       <r>     2.1236     0.0000    92.0000 </r>
       <r>     2.1735     0.0000    92.0000 </r>
       <r>     2.2233     0.0000    92.0000 </r>
       <r>     2.2731     0.0000    92.0000 </r>
       <r>     2.3229     0.0000    92.0000 </r>
       <r>     2.3728     0.0000    92.0000 </r>
       <r>     2.4226     0.0000    92.0000 </r>
      </set>
      <set comment="spin 2">
       <r>   -12.5255     0.0000     0.0000 </r>
       <r>   -12.4757     0.0000     0.0000 </r>
       <r>   -12.4259     0.0000     0.0000 </r>
       <r>   -12.3760     0.0000     0.0000 </r>
       <r>   -12.3262     0.0000     0.0000 </r>
       <r>   -12.2764     0.0000     0.0000 </r>
       <r>   -12.2265     0.0000     0.0000 </r>
       <r>   -12.1767     0.0000     0.0000 </r>
       <r>   -12.1269    -0.0000    -0.0000 </r>
       <r>   -12.0771    -0.0000    -0.0000 </r>
       <r>   -12.0272    -0.0000    -0.0000 </r>
       <r>   -11.9774    -0.0000    -0.0000 </r>
       <r>   -11.9276    -0.0000    -0.0000 </r>
       <r>   -11.8778    -0.0000    -0.0000 </r>
       <r>   -11.8279    -0.0000    -0.0000 </r>
       <r>   -11.7781    -0.0000    -0.0000 </r>
       <r>   -11.7283    -0.0000    -0.0000 </r>
       <r>   -11.6784    -0.0000    -0.0000 </r>
       <r>   -11.6286    -0.0000    -0.0000 </r>
       <r>   -11.5788    -0.0000    -0.0000 </r>
       <r>   -11.5290    -0.0000    -0.0000 </r>
       <r>   -11.4791    -0.0000    -0.0000 </r>
       <r>   -11.4293    -0.0000    -0.0000 </r>
       <r>   -11.3795    -0.0000    -0.0000 </r>
       <r>   -11.3297    -0.0000    -0.0000 </r>
       <r>   -11.2798    -0.0000    -0.0000 </r>
       <r>   -11.2300    -0.0000    -0.0000 </r>
       <r>   -11.1802    -0.0001    -0.0000 </r>
       <r>   -11.1304    -0.0007    -0.0000 </r>
       <r>   -11.0805    -0.0026    -0.0002 </r>
       <r>   -11.0307    -0.0087    -0.0006 </r>
       <r>   -10.9809    -0.0252    -0.0019 </r>
       <r>   -10.9310    -0.0617    -0.0049 </r>
       <r>   -10.8812    -0.1249    -0.0112 </r>
       <r>   -10.8314    -0.1996    -0.0211 </r>
       <r>   -10.7816    -0.2188    -0.0320 </r>
       <r>   -10.7317    -0.0471    -0.0344 </r>
       <r>   -10.6819     0.4772    -0.0106 </r>
       <r>   -10.6321     1.4234     0.0604 </r>
       <r>   -10.5823     2.6337     0.1916 </r>
       <r>   -10.5324     3.7085     0.3764 </r>
       <r>   -10.4826     4.1914     0.5852 </r>
       <r>   -10.4328     3.8554     0.7773 </r>
       <r>   -10.3829     2.8597     0.9198 </r>
       <r>   -10.3331     1.6390     1.0015 </r>
       <r>   -10.2833     0.6233     1.0325 </r>
       <r>   -10.2335     0.0200     1.0335 </r>
       <r>   -10.1836    -0.2062     1.0232 </r>
       <r>   -10.1338    -0.2106     1.0128 </r>
       <r>   -10.0840    -0.1391     1.0058 </r>
       <r>   -10.0342    -0.0715     1.0023 </r>
       <r>    -9.9843    -0.0302     1.0008 </r>
       <r>    -9.9345    -0.0108     1.0002 </r>
       <r>    -9.8847    -0.0033     1.0001 </r>
       <r>    -9.8348    -0.0009     1.0000 </r>
       <r>    -9.7850    -0.0002     1.0000 </r>
       <r>    -9.7352    -0.0002     1.0000 </r>
       <r>    -9.6854    -0.0007     1.0000 </r>
       <r>    -9.6355    -0.0026     0.9998 </r>
       <r>    -9.5857    -0.0088     0.9994 </r>
       <r>    -9.5359    -0.0255     0.9981 </r>
       <r>    -9.4861    -0.0621     0.9950 </r>
       <r>    -9.4362    -0.1255     0.9888 </r>
       <r>    -9.3864    -0.2002     0.9788 </r>
       <r>    -9.3366    -0.2183     0.9679 </r>
       <r>    -9.2868    -0.0443     0.9657 </r>
       <r>    -9.2369     0.4832     0.9898 </r>
       <r>    -9.1871     1.4312     1.0611 </r>
       <r>    -9.1373     2.6370     1.1925 </r>
       <r>    -9.0874     3.6942     1.3766 </r>
       <r>    -9.0376     4.1376     1.5827 </r>
       <r>    -8.9878     3.7354     1.7688 </r>
       <r>    -8.9380     2.6599     1.9014 </r>
       <r>    -8.8881     1.4046     1.9714 </r>
       <r>    -8.8383     0.5238     1.9975 </r>
       <r>    -8.7885     0.3865     2.0167 </r>
       <r>    -8.7387     1.0484     2.0690 </r>
       <r>    -8.6888     2.2359     2.1804 </r>
       <r>    -8.6390     3.4331     2.3514 </r>
       <r>    -8.5892     4.0924     2.5553 </r>
       <r>    -8.5393     3.9087     2.7501 </r>
       <r>    -8.4895     2.9773     2.8985 </r>
       <r>    -8.4397     1.7038     2.9833 </r>
       <r>    -8.3899     0.5390     3.0102 </r>
       <r>    -8.3400    -0.2337     2.9986 </r>
       <r>    -8.2902    -0.5134     2.9730 </r>
       <r>    -8.2404    -0.2626     2.9599 </r>
       <r>    -8.1906     0.5683     2.9882 </r>
       <r>    -8.1407     1.9820     3.0870 </r>
       <r>    -8.0909     3.8153     3.2771 </r>
       <r>    -8.0411     5.7206     3.5621 </r>
       <r>    -7.9913     7.3121     3.9265 </r>
       <r>    -7.9414     8.3670     4.3434 </r>
       <r>    -7.8916     8.8971     4.7867 </r>
       <r>    -7.8418     9.0239     5.2363 </r>
       <r>    -7.7919     8.7957     5.6746 </r>
       <r>    -7.7421     8.1547     6.0809 </r>
       <r>    -7.6923     7.1090     6.4351 </r>
       <r>    -7.6425     5.9241     6.7303 </r>
       <r>    -7.5926     5.0804     6.9834 </r>
       <r>    -7.5428     4.9542     7.2303 </r>
       <r>    -7.4930     5.4847     7.5036 </r>
       <r>    -7.4432     6.1649     7.8108 </r>
       <r>    -7.3933     6.4350     8.1314 </r>
       <r>    -7.3435     6.1786     8.4393 </r>
       <r>    -7.2937     5.8997     8.7332 </r>
       <r>    -7.2438     6.4073     9.0525 </r>
       <r>    -7.1940     8.2593     9.4640 </r>
       <r>    -7.1442    11.4078    10.0324 </r>
       <r>    -7.0944    15.2739    10.7935 </r>
       <r>    -7.0445    19.0881    11.7446 </r>
       <r>    -6.9947    22.1852    12.8500 </r>
       <r>    -6.9449    24.1273    14.0522 </r>
       <r>    -6.8951    24.7349    15.2847 </r>
       <r>    -6.8452    24.1042    16.4857 </r>
       <r>    -6.7954    22.5900    17.6113 </r>
       <r>    -6.7456    20.7274    18.6441 </r>
       <r>    -6.6957    19.1072    19.5961 </r>
       <r>    -6.6459    18.2105    20.5035 </r>
       <r>    -6.5961    18.2027    21.4105 </r>
       <r>    -6.5463    18.7925    22.3469 </r>
       <r>    -6.4964    19.3415    23.3106 </r>
       <r>    -6.4466    19.2695    24.2707 </r>
       <r>    -6.3968    18.4838    25.1917 </r>
       <r>    -6.3470    17.4407    26.0607 </r>
       <r>    -6.2971    16.7506    26.8954 </r>
       <r>    -6.2473    16.6916    27.7271 </r>
       <r>    -6.1975    17.0980    28.5790 </r>
       <r>    -6.1477    17.6960    29.4608 </r>
       <r>    -6.0978    18.4940    30.3823 </r>
       <r>    -6.0480    19.8028    31.3690 </r>
       <r>    -5.9982    21.9016    32.4603 </r>
       <r>    -5.9483    24.7696    33.6945 </r>
       <r>    -5.8985    28.1847    35.0988 </r>
       <r>    -5.8487    32.0130    36.6939 </r>
       <r>    -5.7989    36.2663    38.5010 </r>
       <r>    -5.7490    40.8180    40.5348 </r>
       <r>    -5.6992    45.1227    42.7831 </r>
       <r>    -5.6494    48.3106    45.1903 </r>
       <r>    -5.5996    49.6334    47.6634 </r>
       <r>    -5.5497    48.9048    50.1002 </r>
       <r>    -5.4999    46.6331    52.4238 </r>
       <r>    -5.4501    43.7998    54.6062 </r>
       <r>    -5.4002    41.4078    56.6694 </r>
       <r>    -5.3504    39.9764    58.6613 </r>
       <r>    -5.3006    39.2033    60.6147 </r>
       <r>    -5.2508    38.0341    62.5098 </r>
       <r>    -5.2009    35.2198    64.2647 </r>
       <r>    -5.1511    30.1104    65.7650 </r>
       <r>    -5.1013    23.1749    66.9198 </r>
       <r>    -5.0515    15.8395    67.7090 </r>
       <r>    -5.0016     9.7119    68.1929 </r>
       <r>    -4.9518     5.7386    68.4788 </r>
       <r>    -4.9020     3.8856    68.6725 </r>
       <r>    -4.8521     3.4649    68.8451 </r>
       <r>    -4.8023     3.7021    69.0296 </r>
       <r>    -4.7525     4.0762    69.2327 </r>
       <r>    -4.7027     4.3376    69.4488 </r>
       <r>    -4.6528     4.4241    69.6692 </r>
       <r>    -4.6030     4.4106    69.8890 </r>
       <r>    -4.5532     4.4240    70.1094 </r>
       <r>    -4.5034     4.4801    70.3327 </r>
       <r>    -4.4535     4.3972    70.5518 </r>
       <r>    -4.4037     3.9288    70.7475 </r>
       <r>    -4.3539     3.0087    70.8974 </r>
       <r>    -4.3041     1.8484    70.9895 </r>
       <r>    -4.2542     0.7866    71.0287 </r>
       <r>    -4.2044     0.0543    71.0314 </r>
       <r>    -4.1546    -0.3306    71.0150 </r>
       <r>    -4.1047    -0.4848    70.9908 </r>
       <r>    -4.0549    -0.4993    70.9659 </r>
       <r>    -4.0051    -0.3276    70.9496 </r>
       <r>    -3.9553     0.2121    70.9602 </r>
       <r>    -3.9054     1.3129    71.0256 </r>
       <r>    -3.8556     2.9903    71.1746 </r>
       <r>    -3.8058     4.9478    71.4211 </r>
       <r>    -3.7560     6.6197    71.7510 </r>
       <r>    -3.7061     7.4141    72.1204 </r>
       <r>    -3.6563     7.0246    72.4704 </r>
       <r>    -3.6065     5.6036    72.7496 </r>
       <r>    -3.5566     3.6759    72.9328 </r>
       <r>    -3.5068     1.8536    73.0251 </r>
       <r>    -3.4570     0.5475    73.0524 </r>
       <r>    -3.4072    -0.1556    73.0447 </r>
       <r>    -3.3573    -0.4180    73.0238 </r>
       <r>    -3.3075    -0.4800    72.9999 </r>
       <r>    -3.2577    -0.5058    72.9747 </r>
       <r>    -3.2079    -0.4957    72.9500 </r>
       <r>    -3.1580    -0.2675    72.9367 </r>
       <r>    -3.1082     0.4744    72.9603 </r>
       <r>    -3.0584     1.9546    73.0577 </r>
       <r>    -3.0086     4.0789    73.2610 </r>
       <r>    -2.9587     6.3025    73.5750 </r>
       <r>    -2.9089     7.8027    73.9638 </r>
       <r>    -2.8591     7.9271    74.3588 </r>
       <r>    -2.8092     6.6051    74.6879 </r>
       <r>    -2.7594     4.3894    74.9066 </r>
       <r>    -2.7096     2.0982    75.0111 </r>
       <r>    -2.6598     0.3723    75.0297 </r>
       <r>    -2.6099    -0.5140    75.0041 </r>
       <r>    -2.5601    -0.5379    74.9773 </r>
       <r>    -2.5103     0.2609    74.9903 </r>
       <r>    -2.4605     1.8098    75.0804 </r>
       <r>    -2.4106     3.8638    75.2730 </r>
       <r>    -2.3608     5.9086    75.5674 </r>
       <r>    -2.3110     7.3114    75.9317 </r>
       <r>    -2.2611     7.6755    76.3141 </r>
       <r>    -2.2113     7.1047    76.6681 </r>
       <r>    -2.1615     6.1056    76.9724 </r>
       <r>    -2.1117     5.1856    77.2307 </r>
       <r>    -2.0618     4.5150    77.4557 </r>
       <r>    -2.0120     3.9636    77.6532 </r>
       <r>    -1.9622     3.4225    77.8237 </r>
       <r>    -1.9124     3.0202    77.9742 </r>
       <r>    -1.8625     2.9847    78.1229 </r>
       <r>    -1.8127     3.3212    78.2884 </r>
       <r>    -1.7629     3.6951    78.4725 </r>
       <r>    -1.7130     3.6875    78.6563 </r>
       <r>    -1.6632     3.1856    78.8150 </r>
       <r>    -1.6134     2.5163    78.9404 </r>
       <r>    -1.5636     2.1787    79.0489 </r>
       <r>    -1.5137     2.4148    79.1693 </r>
       <r>    -1.4639     3.0082    79.3192 </r>
       <r>    -1.4141     3.5026    79.4937 </r>
       <r>    -1.3643     3.6498    79.6755 </r>
       <r>    -1.3144     3.6731    79.8586 </r>
       <r>    -1.2646     4.0765    80.0617 </r>
       <r>    -1.2148     5.1491    80.3182 </r>
       <r>    -1.1650     6.6271    80.6485 </r>
       <r>    -1.1151     7.8470    81.0394 </r>
       <r>    -1.0653     8.2487    81.4505 </r>
       <r>    -1.0155     7.7477    81.8365 </r>
       <r>    -0.9656     6.6658    82.1686 </r>
       <r>    -0.9158     5.3989    82.4376 </r>
       <r>    -0.8660     4.2317    82.6485 </r>
       <r>    -0.8162     3.4313    82.8195 </r>
       <r>    -0.7663     3.3428    82.9860 </r>
       <r>    -0.7165     4.1985    83.1952 </r>
       <r>    -0.6667     5.7664    83.4826 </r>
       <r>    -0.6169     7.2655    83.8446 </r>
       <r>    -0.5670     7.7833    84.2324 </r>
       <r>    -0.5172     6.9172    84.5771 </r>
       <r>    -0.4674     5.0910    84.8307 </r>
       <r>    -0.4175     3.2640    84.9934 </r>
       <r>    -0.3677     2.2754    85.1067 </r>
       <r>    -0.3179     2.3454    85.2236 </r>
       <r>    -0.2681     3.0735    85.3767 </r>
       <r>    -0.2182     3.8497    85.5686 </r>
       <r>    -0.1684     4.3001    85.7828 </r>
       <r>    -0.1186     4.4346    86.0038 </r>
       <r>    -0.0688     4.4779    86.2269 </r>
       <r>    -0.0189     4.6398    86.4581 </r>
       <r>     0.0309     5.0392    86.7092 </r>
       <r>     0.0807     5.7470    86.9955 </r>
       <r>     0.1306     6.8049    87.3346 </r>
       <r>     0.1804     8.2001    87.7432 </r>
       <r>     0.2302     9.8652    88.2347 </r>
       <r>     0.2800    11.6653    88.8160 </r>
       <r>     0.3299    13.2869    89.4780 </r>
       <r>     0.3797    14.1469    90.1829 </r>
       <r>     0.4295    13.5855    90.8599 </r>
       <r>     0.4793    11.3447    91.4251 </r>
       <r>     0.5292     7.9069    91.8191 </r>
       <r>     0.5790     4.2989    92.0333 </r>
       <r>     0.6288     1.4886    92.1075 </r>
       <r>     0.6786    -0.1086    92.1021 </r>
       <r>     0.7285    -0.6656    92.0689 </r>
       <r>     0.7783    -0.6324    92.0374 </r>
       <r>     0.8281    -0.4090    92.0170 </r>
       <r>     0.8780    -0.2087    92.0066 </r>
       <r>     0.9278    -0.0882    92.0022 </r>
       <r>     0.9776    -0.0316    92.0006 </r>
       <r>     1.0274    -0.0097    92.0002 </r>
       <r>     1.0773    -0.0026    92.0000 </r>
       <r>     1.1271    -0.0006    92.0000 </r>
       <r>     1.1769    -0.0001    92.0000 </r>
       <r>     1.2267    -0.0000    92.0000 </r>
       <r>     1.2766    -0.0000    92.0000 </r>
       <r>     1.3264    -0.0000    92.0000 </r>
       <r>     1.3762    -0.0000    92.0000 </r>
       <r>     1.4261    -0.0000    92.0000 </r>
       <r>     1.4759    -0.0000    92.0000 </r>
       <r>     1.5257    -0.0000    92.0000 </r>
       <r>     1.5755    -0.0000    92.0000 </r>
       <r>     1.6254    -0.0000    92.0000 </r>
       <r>     1.6752    -0.0000    92.0000 </r>
       <r>     1.7250     0.0000    92.0000 </r>
       <r>     1.7748     0.0000    92.0000 </r>
       <r>     1.8247     0.0000    92.0000 </r>
       <r>     1.8745     0.0000    92.0000 </r>
       <r>     1.9243     0.0000    92.0000 </r>
       <r>     1.9741     0.0000    92.0000 </r>
       <r>     2.0240     0.0000    92.0000 </r>
       <r>     2.0738     0.0000    92.0000 </r>
       <r>     2.1236     0.0000    92.0000 </r>
       <r>     2.1735     0.0000    92.0000 </r>
       <r>     2.2233     0.0000    92.0000 </r>
       <r>     2.2731     0.0000    92.0000 </r>
       <r>     2.3229     0.0000    92.0000 </r>
       <r>     2.3728     0.0000    92.0000 </r>
       <r>     2.4226     0.0000    92.0000 </r>
      </set>
     </set>
    </array>
   </total>
  </dos>
 </calculation>
 <structure name="finalpos" >
  <crystal>
   <varray name="basis" >
    <v>      20.88929982       0.00000000       0.00000000 </v>
    <v>       0.00000000      22.93551249       0.00000000 </v>
    <v>       0.00000000       0.00000000      26.10348948 </v>
   </varray>
   <i name="volume">  12506.35923203 </i>
   <varray name="rec_basis" >
    <v>       0.04787140       0.00000000       0.00000000 </v>
    <v>       0.00000000       0.04360051       0.00000000 </v>
    <v>       0.00000000       0.00000000       0.03830905 </v>
   </varray>
  </crystal>
  <varray name="positions" >
   <v>       0.45933990       0.49036913       0.46614347 </v>
   <v>       0.56749654       0.52140560       0.41855739 </v>
   <v>       0.54962594       0.56239269       0.50622308 </v>
   <v>       0.56974074       0.45916661       0.49259976 </v>
   <v>       0.47551290       0.58837734       0.43411183 </v>
   <v>       0.51651028       0.42111092       0.41525486 </v>
   <v>       0.47003516       0.50449458       0.37278558 </v>
   <v>       0.43511829       0.57202958       0.52190217 </v>
   <v>       0.48902381       0.48373640       0.55850503 </v>
   <v>       0.47808167       0.39764707       0.50743904 </v>
   <v>       0.52963518       0.59038534       0.35311832 </v>
   <v>       0.40831491       0.53535252       0.60535227 </v>
   <v>       0.51199181       0.57974144       0.59291404 </v>
  </varray>
 </structure>
</modeling>
