unknown system                          
            1
    20.889300    0.000000    0.000000
     0.000000   22.935512    0.000000
     0.000000    0.000000   26.103489
   Cu
    13
Direct configuration=     1
   0.46182106  0.49317050  0.46713064
   0.56681537  0.52103220  0.41898127
   0.54728936  0.56047468  0.50620561
   0.57359027  0.45587650  0.49472446
   0.47663011  0.59190258  0.43307903
   0.52039759  0.42092012  0.41548303
   0.46453749  0.50453908  0.37331031
   0.43258521  0.57613264  0.52340934
   0.48948580  0.48352651  0.55866318
   0.47804298  0.39571530  0.50166148
   0.53029556  0.58630343  0.35112896
   0.40836323  0.53571513  0.60676103
   0.51057311  0.58090056  0.59436849
Direct configuration=     2
   0.46199577  0.49292209  0.46705801
   0.56642825  0.52073949  0.41898357
   0.54717243  0.56051810  0.50642387
   0.57278855  0.45642996  0.49449589
   0.47659984  0.59138184  0.43331395
   0.52003092  0.42150410  0.41534857
   0.46540454  0.50446050  0.37376937
   0.43326285  0.57565528  0.52308015
   0.48930009  0.48331368  0.55843275
   0.47818803  0.39651722  0.50214910
   0.53012165  0.58642213  0.35129482
   0.40855348  0.53566720  0.60656250
   0.51058075  0.58067764  0.59399427
Direct configuration=     3
   0.46232769  0.49245017  0.46692003
   0.56569280  0.52018341  0.41898795
   0.54695028  0.56060060  0.50683852
   0.57126545  0.45748142  0.49406165
   0.47654233  0.59039255  0.43376024
   0.51933433  0.42261353  0.41509312
   0.46705173  0.50431122  0.37464150
   0.43455020  0.57474840  0.52245476
   0.48894730  0.48290935  0.55799498
   0.47846359  0.39804068  0.50307548
   0.52979127  0.58664762  0.35160992
   0.40891492  0.53557614  0.60618535
   0.51059526  0.58025413  0.59328333
Direct configuration=     4
   0.46227959  0.49251857  0.46694002
   0.56579939  0.52026401  0.41898732
   0.54698248  0.56058864  0.50677842
   0.57148620  0.45732903  0.49412459
   0.47655067  0.59053594  0.43369555
   0.51943529  0.42245273  0.41513014
   0.46681298  0.50433286  0.37451509
   0.43436361  0.57487984  0.52254540
   0.48899843  0.48296795  0.55805843
   0.47842365  0.39781987  0.50294121
   0.52983915  0.58661494  0.35156425
   0.40886254  0.53558934  0.60624001
   0.51059316  0.58031551  0.59338638
Direct configuration=     5
   0.46181404  0.49239333  0.46692785
   0.56620597  0.52042360  0.41902463
   0.54747096  0.56083100  0.50682133
   0.57139253  0.45786906  0.49393112
   0.47644448  0.59019968  0.43382446
   0.51909796  0.42223305  0.41486114
   0.46711341  0.50433511  0.37439765
   0.43452488  0.57447323  0.52229750
   0.48865654  0.48289650  0.55829358
   0.47822467  0.39795345  0.50361384
   0.52971650  0.58695243  0.35172739
   0.40894557  0.53544789  0.60596651
   0.51081963  0.58020087  0.59321984
Direct configuration=     6
   0.46079473  0.49211911  0.46690118
   0.56709615  0.52077301  0.41910632
   0.54854048  0.56136164  0.50691527
   0.57118745  0.45905146  0.49350752
   0.47621200  0.58946345  0.43410670
   0.51835939  0.42175208  0.41427217
   0.46777117  0.50434005  0.37414051
   0.43487798  0.57358299  0.52175474
   0.48790798  0.48274007  0.55880844
   0.47778901  0.39824593  0.50508652
   0.52944796  0.58769137  0.35208459
   0.40912736  0.53513820  0.60536768
   0.51131549  0.57994986  0.59285520
Direct configuration=     7
   0.46052198  0.49133229  0.46670655
   0.56735040  0.52106264  0.41894356
   0.54908838  0.56174716  0.50682009
   0.57077025  0.45912022  0.49330987
   0.47618223  0.58927684  0.43400190
   0.51788243  0.42164613  0.41456263
   0.46813821  0.50439956  0.37388684
   0.43480538  0.57329152  0.52180693
   0.48808672  0.48274837  0.55879068
   0.47780172  0.39829030  0.50555539
   0.52940079  0.58820586  0.35233975
   0.40874675  0.53514953  0.60533279
   0.51165193  0.57993882  0.59284984
Direct configuration=     8
   0.46029165  0.49066786  0.46654219
   0.56756509  0.52130721  0.41880611
   0.54955106  0.56207272  0.50673972
   0.57041794  0.45917829  0.49314296
   0.47615709  0.58911926  0.43391340
   0.51747967  0.42155665  0.41480792
   0.46844815  0.50444981  0.37367263
   0.43474406  0.57304539  0.52185101
   0.48823765  0.48275538  0.55877569
   0.47781246  0.39832776  0.50595133
   0.52936095  0.58864031  0.35255523
   0.40842534  0.53515909  0.60530334
   0.51193604  0.57992950  0.59284531
Direct configuration=     9
   0.45991843  0.49051452  0.46632871
   0.56762002  0.52149208  0.41866077
   0.54975350  0.56237364  0.50655289
   0.57009935  0.45917871  0.49291511
   0.47602397  0.58875403  0.43403589
   0.51706388  0.42140774  0.41508019
   0.46895276  0.50448257  0.37339769
   0.43493081  0.57255424  0.52185616
   0.48854684  0.48317850  0.55874492
   0.47785730  0.39791613  0.50648026
   0.52942783  0.58932184  0.35271371
   0.40816953  0.53524345  0.60529924
   0.51206293  0.57979177  0.59284129
Direct configuration=    10
   0.45950270  0.49034372  0.46609093
   0.56768121  0.52169799  0.41849888
   0.54997899  0.56270883  0.50634479
   0.56974449  0.45917918  0.49266131
   0.47587568  0.58834723  0.43417234
   0.51660074  0.42124188  0.41538347
   0.46951482  0.50451907  0.37309144
   0.43513882  0.57200716  0.52186189
   0.48889123  0.48364981  0.55871064
   0.47790725  0.39745763  0.50706941
   0.52950233  0.59008097  0.35289024
   0.40788459  0.53533741  0.60529468
   0.51220428  0.57963836  0.59283680
Direct configuration=    11
   0.45935887  0.49045052  0.46620425
   0.56757657  0.52153454  0.41854304
   0.54981223  0.56252984  0.50624012
   0.56966842  0.45925134  0.49261197
   0.47567316  0.58832337  0.43420126
   0.51654814  0.42112035  0.41530735
   0.46985000  0.50451817  0.37288744
   0.43521007  0.57189085  0.52186006
   0.48900688  0.48371023  0.55851208
   0.47800103  0.39752321  0.50735654
   0.52957142  0.59031652  0.35298192
   0.40808782  0.53538704  0.60530589
   0.51206254  0.57965325  0.59289490
Direct configuration=    12
   0.45933817  0.49046589  0.46622057
   0.56756151  0.52151100  0.41854939
   0.54978823  0.56250407  0.50622505
   0.56965747  0.45926173  0.49260487
   0.47564400  0.58831994  0.43420542
   0.51654057  0.42110286  0.41529639
   0.46989826  0.50451804  0.37285807
   0.43522032  0.57187410  0.52185979
   0.48902353  0.48371893  0.55848350
   0.47801453  0.39753265  0.50739787
   0.52958136  0.59035043  0.35299512
   0.40811708  0.53539418  0.60530750
   0.51204213  0.57965539  0.59290326
Direct configuration=    13
   0.45933978  0.49037594  0.46614890
   0.56750111  0.52141301  0.41855683
   0.54963737  0.56240052  0.50622322
   0.56973488  0.45917331  0.49260012
   0.47552213  0.58837330  0.43411842
   0.51651241  0.42111035  0.41525778
   0.47002552  0.50449623  0.37279068
   0.43512547  0.57201864  0.52189919
   0.48902379  0.48373517  0.55850351
   0.47807695  0.39763902  0.50743614
   0.52963139  0.59038288  0.35310965
   0.40830098  0.53535546  0.60534912
   0.51199535  0.57973538  0.59291328
Direct configuration=    14
   0.45933990  0.49036913  0.46614347
   0.56749654  0.52140560  0.41855739
   0.54962594  0.56239269  0.50622308
   0.56974074  0.45916661  0.49259976
   0.47551290  0.58837734  0.43411183
   0.51651028  0.42111092  0.41525486
   0.47003516  0.50449458  0.37278558
   0.43511829  0.57202958  0.52190217
   0.48902381  0.48373640  0.55850503
   0.47808167  0.39764707  0.50743904
   0.52963518  0.59038534  0.35311832
   0.40831491  0.53535252  0.60535227
   0.51199181  0.57974144  0.59291404
