  13  13   0   0
  0.1113177E+04  0.2666979E-08  0.2311509E-08  0.2347428E-08  0.5000000E-15
   1.0000000000000000E-004
  CAR 
 unknown system                          
      2.31399572    -12.39958838  301     -3.88286307      1.00000000
    -12.400  0.0000E+00  0.0000E+00  0.0000E+00  0.0000E+00
    -12.351  0.0000E+00  0.0000E+00  0.0000E+00  0.0000E+00
    -12.301  0.0000E+00  0.0000E+00  0.0000E+00  0.0000E+00
    -12.252  0.0000E+00  0.0000E+00  0.0000E+00  0.0000E+00
    -12.203  0.0000E+00  0.0000E+00  0.0000E+00  0.0000E+00
    -12.154  0.0000E+00  0.0000E+00  0.0000E+00  0.0000E+00
    -12.105  0.0000E+00  0.0000E+00  0.0000E+00  0.0000E+00
    -12.056  0.0000E+00  0.0000E+00  0.0000E+00  0.0000E+00
    -12.007 -0.4019E-29 -0.4019E-29 -0.1971E-30 -0.1971E-30
    -11.958 -0.1851E-27 -0.1851E-27 -0.9274E-29 -0.9274E-29
    -11.909 -0.7692E-26 -0.7692E-26 -0.3865E-27 -0.3865E-27
    -11.860 -0.2831E-24 -0.2831E-24 -0.1427E-25 -0.1427E-25
    -11.811 -0.9222E-23 -0.9221E-23 -0.4665E-24 -0.4665E-24
    -11.762 -0.2659E-21 -0.2659E-21 -0.1351E-22 -0.1351E-22
    -11.713 -0.6787E-20 -0.6787E-20 -0.3464E-21 -0.3464E-21
    -11.664 -0.1533E-18 -0.1533E-18 -0.7864E-20 -0.7864E-20
    -11.615 -0.3063E-17 -0.3063E-17 -0.1581E-18 -0.1581E-18
    -11.566 -0.5299E-16 -0.5299E-16 -0.2757E-17 -0.2757E-17
    -11.517 -0.8187E-15 -0.8187E-15 -0.4291E-16 -0.4291E-16
    -11.468 -0.1128E-13 -0.1128E-13 -0.5962E-15 -0.5962E-15
    -11.419 -0.1372E-12 -0.1372E-12 -0.7326E-14 -0.7326E-14
    -11.370 -0.1474E-11 -0.1474E-11 -0.7961E-13 -0.7961E-13
    -11.321 -0.1396E-10 -0.1396E-10 -0.7645E-12 -0.7645E-12
    -11.272 -0.1167E-09 -0.1167E-09 -0.6486E-11 -0.6486E-11
    -11.223 -0.8585E-09 -0.8585E-09 -0.4859E-10 -0.4859E-10
    -11.173 -0.5559E-08 -0.5559E-08 -0.3212E-09 -0.3212E-09
    -11.124 -0.3162E-07 -0.3162E-07 -0.1872E-08 -0.1872E-08
    -11.075 -0.1578E-06 -0.1578E-06 -0.9609E-08 -0.9609E-08
    -11.026 -0.6886E-06 -0.6886E-06 -0.4338E-07 -0.4338E-07
    -10.977 -0.2621E-05 -0.2621E-05 -0.1719E-06 -0.1719E-06
    -10.928 -0.8655E-05 -0.8655E-05 -0.5964E-06 -0.5964E-06
    -10.879 -0.2463E-04 -0.2463E-04 -0.1804E-05 -0.1804E-05
    -10.830 -0.5970E-04 -0.5970E-04 -0.4733E-05 -0.4733E-05
    -10.781 -0.1207E-03 -0.1207E-03 -0.1065E-04 -0.1065E-04
    -10.732 -0.1950E-03 -0.1950E-03 -0.2022E-04 -0.2022E-04
    -10.683 -0.2225E-03 -0.2225E-03 -0.3113E-04 -0.3113E-04
    -10.634 -0.7878E-04 -0.7878E-04 -0.3499E-04 -0.3499E-04
    -10.585  0.3926E-03  0.3926E-03 -0.1574E-04 -0.1574E-04
    -10.536  0.1275E-02  0.1275E-02  0.4679E-04  0.4679E-04
    -10.487  0.2450E-02  0.2450E-02  0.1669E-03  0.1669E-03
    -10.438  0.3562E-02  0.3562E-02  0.3416E-03  0.3416E-03
    -10.389  0.4164E-02  0.4164E-02  0.5459E-03  0.5459E-03
    -10.340  0.3985E-02  0.3985E-02  0.7413E-03  0.7413E-03
    -10.291  0.3107E-02  0.3107E-02  0.8937E-03  0.8937E-03
    -10.242  0.1912E-02  0.1912E-02  0.9874E-03  0.9874E-03
    -10.193  0.8353E-03  0.8353E-03  0.1028E-02  0.1028E-02
    -10.144  0.1348E-03  0.1348E-03  0.1035E-02  0.1035E-02
    -10.094 -0.1737E-03 -0.1737E-03  0.1026E-02  0.1026E-02
    -10.045 -0.2226E-03 -0.2226E-03  0.1016E-02  0.1016E-02
     -9.996 -0.1629E-03 -0.1629E-03  0.1008E-02  0.1008E-02
     -9.947 -0.9061E-04 -0.9061E-04  0.1003E-02  0.1003E-02
     -9.898 -0.4140E-04 -0.4140E-04  0.1001E-02  0.1001E-02
     -9.849 -0.1670E-04 -0.1670E-04  0.1000E-02  0.1000E-02
     -9.800 -0.8531E-05 -0.8531E-05  0.9999E-03  0.9999E-03
     -9.751 -0.1220E-04 -0.1220E-04  0.9993E-03  0.9993E-03
     -9.702 -0.2998E-04 -0.2998E-04  0.9978E-03  0.9978E-03
     -9.653 -0.6953E-04 -0.6953E-04  0.9944E-03  0.9944E-03
     -9.604 -0.1351E-03 -0.1351E-03  0.9878E-03  0.9878E-03
     -9.555 -0.2069E-03 -0.2069E-03  0.9776E-03  0.9776E-03
     -9.506 -0.2129E-03 -0.2129E-03  0.9672E-03  0.9672E-03
     -9.457 -0.1764E-04 -0.1764E-04  0.9663E-03  0.9663E-03
     -9.408  0.5313E-03  0.5313E-03  0.9924E-03  0.9924E-03
     -9.359  0.1487E-02  0.1487E-02  0.1065E-02  0.1065E-02
     -9.310  0.2684E-02  0.2684E-02  0.1197E-02  0.1197E-02
     -9.261  0.3730E-02  0.3730E-02  0.1380E-02  0.1380E-02
     -9.212  0.4193E-02  0.4193E-02  0.1586E-02  0.1586E-02
     -9.163  0.3861E-02  0.3861E-02  0.1775E-02  0.1775E-02
     -9.114  0.2886E-02  0.2886E-02  0.1916E-02  0.1916E-02
     -9.065  0.1683E-02  0.1683E-02  0.1999E-02  0.1999E-02
     -9.015  0.6669E-03  0.6669E-03  0.2032E-02  0.2032E-02
     -8.966  0.4735E-04  0.4735E-04  0.2034E-02  0.2034E-02
     -8.917 -0.1988E-03 -0.1988E-03  0.2024E-02  0.2024E-02
     -8.868 -0.2174E-03 -0.2174E-03  0.2014E-02  0.2014E-02
     -8.819 -0.1543E-03 -0.1543E-03  0.2006E-02  0.2006E-02
     -8.770 -0.9740E-04 -0.9740E-04  0.2001E-02  0.2001E-02
     -8.721 -0.8175E-04 -0.8175E-04  0.1997E-02  0.1997E-02
     -8.672 -0.1138E-03 -0.1138E-03  0.1992E-02  0.1992E-02
     -8.623 -0.1802E-03 -0.1802E-03  0.1983E-02  0.1983E-02
     -8.574 -0.2324E-03 -0.2324E-03  0.1971E-02  0.1971E-02
     -8.525 -0.1654E-03 -0.1654E-03  0.1963E-02  0.1963E-02
     -8.476  0.1677E-03  0.1677E-03  0.1972E-02  0.1972E-02
     -8.427  0.8735E-03  0.8735E-03  0.2014E-02  0.2014E-02
     -8.378  0.1897E-02  0.1897E-02  0.2107E-02  0.2107E-02
     -8.329  0.2972E-02  0.2972E-02  0.2253E-02  0.2253E-02
     -8.280  0.3747E-02  0.3747E-02  0.2437E-02  0.2437E-02
     -8.231  0.4038E-02  0.4038E-02  0.2635E-02  0.2635E-02
     -8.182  0.4017E-02  0.4017E-02  0.2832E-02  0.2832E-02
     -8.133  0.4104E-02  0.4104E-02  0.3033E-02  0.3033E-02
     -8.084  0.4646E-02  0.4646E-02  0.3261E-02  0.3261E-02
     -8.035  0.5636E-02  0.5636E-02  0.3538E-02  0.3538E-02
     -7.986  0.6724E-02  0.6724E-02  0.3867E-02  0.3867E-02
     -7.936  0.7486E-02  0.7486E-02  0.4235E-02  0.4235E-02
     -7.887  0.7684E-02  0.7684E-02  0.4611E-02  0.4611E-02
     -7.838  0.7349E-02  0.7349E-02  0.4972E-02  0.4972E-02
     -7.789  0.6668E-02  0.6668E-02  0.5299E-02  0.5299E-02
     -7.740  0.5864E-02  0.5864E-02  0.5587E-02  0.5587E-02
     -7.691  0.5126E-02  0.5126E-02  0.5838E-02  0.5838E-02
     -7.642  0.4581E-02  0.4581E-02  0.6063E-02  0.6063E-02
     -7.593  0.4299E-02  0.4299E-02  0.6273E-02  0.6273E-02
     -7.544  0.4345E-02  0.4345E-02  0.6487E-02  0.6487E-02
     -7.495  0.4882E-02  0.4882E-02  0.6726E-02  0.6726E-02
     -7.446  0.6179E-02  0.6179E-02  0.7029E-02  0.7029E-02
     -7.397  0.8439E-02  0.8439E-02  0.7443E-02  0.7443E-02
     -7.348  0.1152E-01  0.1152E-01  0.8008E-02  0.8008E-02
     -7.299  0.1487E-01  0.1487E-01  0.8737E-02  0.8737E-02
     -7.250  0.1770E-01  0.1770E-01  0.9605E-02  0.9605E-02
     -7.201  0.1942E-01  0.1942E-01  0.1056E-01  0.1056E-01
     -7.152  0.1993E-01  0.1993E-01  0.1154E-01  0.1154E-01
     -7.103  0.1955E-01  0.1955E-01  0.1249E-01  0.1249E-01
     -7.054  0.1877E-01  0.1877E-01  0.1341E-01  0.1341E-01
     -7.005  0.1795E-01  0.1795E-01  0.1430E-01  0.1430E-01
     -6.956  0.1728E-01  0.1728E-01  0.1514E-01  0.1514E-01
     -6.907  0.1682E-01  0.1682E-01  0.1597E-01  0.1597E-01
     -6.857  0.1672E-01  0.1672E-01  0.1679E-01  0.1679E-01
     -6.808  0.1718E-01  0.1718E-01  0.1763E-01  0.1763E-01
     -6.759  0.1824E-01  0.1824E-01  0.1852E-01  0.1852E-01
     -6.710  0.1951E-01  0.1951E-01  0.1948E-01  0.1948E-01
     -6.661  0.2031E-01  0.2031E-01  0.2048E-01  0.2048E-01
     -6.612  0.2006E-01  0.2006E-01  0.2146E-01  0.2146E-01
     -6.563  0.1884E-01  0.1884E-01  0.2239E-01  0.2239E-01
     -6.514  0.1734E-01  0.1734E-01  0.2324E-01  0.2324E-01
     -6.465  0.1644E-01  0.1644E-01  0.2404E-01  0.2404E-01
     -6.416  0.1660E-01  0.1660E-01  0.2486E-01  0.2486E-01
     -6.367  0.1756E-01  0.1756E-01  0.2572E-01  0.2572E-01
     -6.318  0.1864E-01  0.1864E-01  0.2663E-01  0.2663E-01
     -6.269  0.1926E-01  0.1926E-01  0.2758E-01  0.2758E-01
     -6.220  0.1928E-01  0.1928E-01  0.2852E-01  0.2852E-01
     -6.171  0.1911E-01  0.1911E-01  0.2946E-01  0.2946E-01
     -6.122  0.1936E-01  0.1936E-01  0.3041E-01  0.3041E-01
     -6.073  0.2042E-01  0.2042E-01  0.3141E-01  0.3141E-01
     -6.024  0.2226E-01  0.2226E-01  0.3250E-01  0.3250E-01
     -5.975  0.2456E-01  0.2456E-01  0.3371E-01  0.3371E-01
     -5.926  0.2699E-01  0.2699E-01  0.3503E-01  0.3503E-01
     -5.877  0.2942E-01  0.2942E-01  0.3647E-01  0.3647E-01
     -5.828  0.3190E-01  0.3190E-01  0.3804E-01  0.3804E-01
     -5.778  0.3454E-01  0.3454E-01  0.3973E-01  0.3973E-01
     -5.729  0.3732E-01  0.3732E-01  0.4156E-01  0.4156E-01
     -5.680  0.4005E-01  0.4005E-01  0.4353E-01  0.4353E-01
     -5.631  0.4235E-01  0.4235E-01  0.4560E-01  0.4560E-01
     -5.582  0.4377E-01  0.4377E-01  0.4775E-01  0.4775E-01
     -5.533  0.4402E-01  0.4402E-01  0.4991E-01  0.4991E-01
     -5.484  0.4330E-01  0.4330E-01  0.5203E-01  0.5203E-01
     -5.435  0.4233E-01  0.4233E-01  0.5411E-01  0.5411E-01
     -5.386  0.4198E-01  0.4198E-01  0.5617E-01  0.5617E-01
     -5.337  0.4256E-01  0.4256E-01  0.5826E-01  0.5826E-01
     -5.288  0.4334E-01  0.4334E-01  0.6038E-01  0.6038E-01
     -5.239  0.4278E-01  0.4278E-01  0.6248E-01  0.6248E-01
     -5.190  0.3944E-01  0.3944E-01  0.6441E-01  0.6441E-01
     -5.141  0.3301E-01  0.3301E-01  0.6603E-01  0.6603E-01
     -5.092  0.2464E-01  0.2464E-01  0.6724E-01  0.6724E-01
     -5.043  0.1634E-01  0.1634E-01  0.6804E-01  0.6804E-01
     -4.994  0.9909E-02  0.9909E-02  0.6853E-01  0.6853E-01
     -4.945  0.6152E-02  0.6152E-02  0.6883E-01  0.6883E-01
     -4.896  0.4770E-02  0.4770E-02  0.6906E-01  0.6906E-01
     -4.847  0.4879E-02  0.4879E-02  0.6930E-01  0.6930E-01
     -4.798  0.5573E-02  0.5573E-02  0.6958E-01  0.6958E-01
     -4.749  0.6203E-02  0.6203E-02  0.6988E-01  0.6988E-01
     -4.699  0.6390E-02  0.6390E-02  0.7019E-01  0.7019E-01
     -4.650  0.5961E-02  0.5961E-02  0.7049E-01  0.7049E-01
     -4.601  0.4929E-02  0.4929E-02  0.7073E-01  0.7073E-01
     -4.552  0.3504E-02  0.3504E-02  0.7090E-01  0.7090E-01
     -4.503  0.2029E-02  0.2029E-02  0.7100E-01  0.7100E-01
     -4.454  0.8306E-03  0.8306E-03  0.7104E-01  0.7104E-01
     -4.405  0.7663E-04  0.7663E-04  0.7104E-01  0.7104E-01
     -4.356 -0.2632E-03 -0.2632E-03  0.7103E-01  0.7103E-01
     -4.307 -0.3454E-03 -0.3454E-03  0.7101E-01  0.7101E-01
     -4.258 -0.3351E-03 -0.3351E-03  0.7100E-01  0.7100E-01
     -4.209 -0.3194E-03 -0.3194E-03  0.7098E-01  0.7098E-01
     -4.160 -0.2709E-03 -0.2709E-03  0.7097E-01  0.7097E-01
     -4.111 -0.5978E-04 -0.5978E-04  0.7097E-01  0.7097E-01
     -4.062  0.4785E-03  0.4785E-03  0.7099E-01  0.7099E-01
     -4.013  0.1417E-02  0.1417E-02  0.7106E-01  0.7106E-01
     -3.964  0.2608E-02  0.2608E-02  0.7119E-01  0.7119E-01
     -3.915  0.3674E-02  0.3674E-02  0.7137E-01  0.7137E-01
     -3.866  0.4170E-02  0.4170E-02  0.7157E-01  0.7157E-01
     -3.817  0.3858E-02  0.3858E-02  0.7176E-01  0.7176E-01
     -3.768  0.2861E-02  0.2861E-02  0.7190E-01  0.7190E-01
     -3.719  0.1585E-02  0.1585E-02  0.7198E-01  0.7198E-01
     -3.670  0.4939E-03  0.4939E-03  0.7200E-01  0.7200E-01
     -3.620 -0.8738E-04 -0.8738E-04  0.7200E-01  0.7200E-01
     -3.571 -0.1655E-04 -0.1655E-04  0.7200E-01  0.7200E-01
     -3.522  0.6889E-03  0.6889E-03  0.7203E-01  0.7203E-01
     -3.473  0.1846E-02  0.1846E-02  0.7212E-01  0.7212E-01
     -3.424  0.3082E-02  0.3082E-02  0.7227E-01  0.7227E-01
     -3.375  0.3917E-02  0.3917E-02  0.7247E-01  0.7247E-01
     -3.326  0.3977E-02  0.3977E-02  0.7266E-01  0.7266E-01
     -3.277  0.3229E-02  0.3229E-02  0.7282E-01  0.7282E-01
     -3.228  0.2039E-02  0.2039E-02  0.7292E-01  0.7292E-01
     -3.179  0.9973E-03  0.9973E-03  0.7297E-01  0.7297E-01
     -3.130  0.6327E-03  0.6327E-03  0.7300E-01  0.7300E-01
     -3.081  0.1192E-02  0.1192E-02  0.7306E-01  0.7306E-01
     -3.032  0.2559E-02  0.2559E-02  0.7318E-01  0.7318E-01
     -2.983  0.4309E-02  0.4309E-02  0.7339E-01  0.7339E-01
     -2.934  0.5880E-02  0.5880E-02  0.7368E-01  0.7368E-01
     -2.885  0.6810E-02  0.6810E-02  0.7402E-01  0.7402E-01
     -2.836  0.6940E-02  0.6940E-02  0.7436E-01  0.7436E-01
     -2.787  0.6461E-02  0.6461E-02  0.7467E-01  0.7467E-01
     -2.738  0.5755E-02  0.5755E-02  0.7496E-01  0.7496E-01
     -2.689  0.5131E-02  0.5131E-02  0.7521E-01  0.7521E-01
     -2.640  0.4663E-02  0.4663E-02  0.7544E-01  0.7544E-01
     -2.591  0.4270E-02  0.4270E-02  0.7565E-01  0.7565E-01
     -2.541  0.3917E-02  0.3917E-02  0.7584E-01  0.7584E-01
     -2.492  0.3701E-02  0.3701E-02  0.7602E-01  0.7602E-01
     -2.443  0.3699E-02  0.3699E-02  0.7620E-01  0.7620E-01
     -2.394  0.3789E-02  0.3789E-02  0.7639E-01  0.7639E-01
     -2.345  0.3697E-02  0.3697E-02  0.7657E-01  0.7657E-01
     -2.296  0.3296E-02  0.3296E-02  0.7673E-01  0.7673E-01
     -2.247  0.2850E-02  0.2850E-02  0.7687E-01  0.7687E-01
     -2.198  0.2902E-02  0.2902E-02  0.7701E-01  0.7701E-01
     -2.149  0.3845E-02  0.3845E-02  0.7720E-01  0.7720E-01
     -2.100  0.5511E-02  0.5511E-02  0.7747E-01  0.7747E-01
     -2.051  0.7149E-02  0.7149E-02  0.7782E-01  0.7782E-01
     -2.002  0.7866E-02  0.7866E-02  0.7821E-01  0.7821E-01
     -1.953  0.7188E-02  0.7188E-02  0.7856E-01  0.7856E-01
     -1.904  0.5339E-02  0.5339E-02  0.7882E-01  0.7882E-01
     -1.855  0.3051E-02  0.3051E-02  0.7897E-01  0.7897E-01
     -1.806  0.1115E-02  0.1115E-02  0.7903E-01  0.7903E-01
     -1.757  0.2909E-04  0.2910E-04  0.7903E-01  0.7903E-01
     -1.708 -0.7896E-04 -0.7896E-04  0.7902E-01  0.7902E-01
     -1.659  0.6379E-03  0.6379E-03  0.7905E-01  0.7905E-01
     -1.610  0.1835E-02  0.1835E-02  0.7914E-01  0.7914E-01
     -1.561  0.3044E-02  0.3044E-02  0.7929E-01  0.7929E-01
     -1.512  0.3811E-02  0.3811E-02  0.7948E-01  0.7948E-01
     -1.462  0.3930E-02  0.3930E-02  0.7967E-01  0.7967E-01
     -1.413  0.3584E-02  0.3584E-02  0.7985E-01  0.7985E-01
     -1.364  0.3216E-02  0.3216E-02  0.8001E-01  0.8001E-01
     -1.315  0.3173E-02  0.3173E-02  0.8016E-01  0.8016E-01
     -1.266  0.3427E-02  0.3427E-02  0.8033E-01  0.8033E-01
     -1.217  0.3641E-02  0.3641E-02  0.8051E-01  0.8051E-01
     -1.168  0.3537E-02  0.3537E-02  0.8068E-01  0.8068E-01
     -1.119  0.3218E-02  0.3218E-02  0.8084E-01  0.8084E-01
     -1.070  0.3132E-02  0.3132E-02  0.8099E-01  0.8099E-01
     -1.021  0.3698E-02  0.3698E-02  0.8118E-01  0.8118E-01
     -0.972  0.4922E-02  0.4922E-02  0.8142E-01  0.8142E-01
     -0.923  0.6343E-02  0.6343E-02  0.8173E-01  0.8173E-01
     -0.874  0.7351E-02  0.7351E-02  0.8209E-01  0.8209E-01
     -0.825  0.7590E-02  0.7590E-02  0.8246E-01  0.8246E-01
     -0.776  0.7131E-02  0.7131E-02  0.8281E-01  0.8281E-01
     -0.727  0.6316E-02  0.6316E-02  0.8312E-01  0.8312E-01
     -0.678  0.5478E-02  0.5478E-02  0.8339E-01  0.8339E-01
     -0.629  0.4817E-02  0.4817E-02  0.8363E-01  0.8363E-01
     -0.580  0.4454E-02  0.4454E-02  0.8384E-01  0.8384E-01
     -0.531  0.4503E-02  0.4503E-02  0.8406E-01  0.8406E-01
     -0.482  0.5002E-02  0.5002E-02  0.8431E-01  0.8431E-01
     -0.433  0.5801E-02  0.5801E-02  0.8459E-01  0.8459E-01
     -0.383  0.6583E-02  0.6583E-02  0.8492E-01  0.8492E-01
     -0.334  0.7036E-02  0.7036E-02  0.8526E-01  0.8526E-01
     -0.285  0.7028E-02  0.7028E-02  0.8561E-01  0.8561E-01
     -0.236  0.6624E-02  0.6624E-02  0.8593E-01  0.8593E-01
     -0.187  0.5971E-02  0.5971E-02  0.8623E-01  0.8623E-01
     -0.138  0.5202E-02  0.5202E-02  0.8648E-01  0.8648E-01
     -0.089  0.4468E-02  0.4468E-02  0.8670E-01  0.8670E-01
     -0.040  0.4025E-02  0.4025E-02  0.8690E-01  0.8690E-01
      0.009  0.4240E-02  0.4239E-02  0.8710E-01  0.8710E-01
      0.058  0.5461E-02  0.5460E-02  0.8737E-01  0.8737E-01
      0.107  0.7816E-02  0.7815E-02  0.8776E-01  0.8776E-01
      0.156  0.1100E-01  0.1100E-01  0.8830E-01  0.8830E-01
      0.205  0.1420E-01  0.1420E-01  0.8899E-01  0.8899E-01
      0.254  0.1626E-01  0.1626E-01  0.8979E-01  0.8979E-01
      0.303  0.1620E-01  0.1620E-01  0.9058E-01  0.9058E-01
      0.352  0.1380E-01  0.1380E-01  0.9126E-01  0.9126E-01
      0.401  0.9805E-02  0.9808E-02  0.9174E-01  0.9174E-01
      0.450  0.5520E-02  0.5522E-02  0.9201E-01  0.9201E-01
      0.499  0.2111E-02  0.2112E-02  0.9212E-01  0.9212E-01
      0.548  0.8910E-04  0.8979E-04  0.9212E-01  0.9212E-01
      0.597 -0.7019E-03 -0.7017E-03  0.9209E-01  0.9209E-01
      0.646 -0.7509E-03 -0.7510E-03  0.9205E-01  0.9205E-01
      0.696 -0.5215E-03 -0.5217E-03  0.9202E-01  0.9202E-01
      0.745 -0.2840E-03 -0.2841E-03  0.9201E-01  0.9201E-01
      0.794 -0.1283E-03 -0.1284E-03  0.9200E-01  0.9200E-01
      0.843 -0.4935E-04 -0.4938E-04  0.9200E-01  0.9200E-01
      0.892 -0.1636E-04 -0.1637E-04  0.9200E-01  0.9200E-01
      0.941 -0.4715E-05 -0.4719E-05  0.9200E-01  0.9200E-01
      0.990 -0.1187E-05 -0.1188E-05  0.9200E-01  0.9200E-01
      1.039 -0.2617E-06 -0.2619E-06  0.9200E-01  0.9200E-01
      1.088 -0.5069E-07 -0.5074E-07  0.9200E-01  0.9200E-01
      1.137 -0.8641E-08 -0.8649E-08  0.9200E-01  0.9200E-01
      1.186 -0.1298E-08 -0.1299E-08  0.9200E-01  0.9200E-01
      1.235 -0.1719E-09 -0.1721E-09  0.9200E-01  0.9200E-01
      1.284 -0.2010E-10 -0.2013E-10  0.9200E-01  0.9200E-01
      1.333 -0.2076E-11 -0.2079E-11  0.9200E-01  0.9200E-01
      1.382 -0.1895E-12 -0.1898E-12  0.9200E-01  0.9200E-01
      1.431 -0.1529E-13 -0.1532E-13  0.9200E-01  0.9200E-01
      1.480 -0.1091E-14 -0.1096E-14  0.9200E-01  0.9200E-01
      1.529 -0.7244E-16 -0.7244E-16  0.9200E-01  0.9200E-01
      1.578 -0.4527E-17 -0.4527E-17  0.9200E-01  0.9200E-01
      1.627  0.0000E+00  0.0000E+00  0.9200E-01  0.9200E-01
      1.676  0.0000E+00  0.0000E+00  0.9200E-01  0.9200E-01
      1.725  0.0000E+00  0.0000E+00  0.9200E-01  0.9200E-01
      1.774  0.0000E+00  0.0000E+00  0.9200E-01  0.9200E-01
      1.824  0.0000E+00  0.0000E+00  0.9200E-01  0.9200E-01
      1.873  0.0000E+00  0.0000E+00  0.9200E-01  0.9200E-01
      1.922  0.0000E+00  0.0000E+00  0.9200E-01  0.9200E-01
      1.971  0.0000E+00  0.0000E+00  0.9200E-01  0.9200E-01
      2.020  0.0000E+00  0.0000E+00  0.9200E-01  0.9200E-01
      2.069  0.0000E+00  0.0000E+00  0.9200E-01  0.9200E-01
      2.118  0.0000E+00  0.0000E+00  0.9200E-01  0.9200E-01
      2.167  0.0000E+00  0.0000E+00  0.9200E-01  0.9200E-01
      2.216  0.0000E+00  0.0000E+00  0.9200E-01  0.9200E-01
      2.265  0.0000E+00  0.0000E+00  0.9200E-01  0.9200E-01
      2.314  0.0000E+00  0.0000E+00  0.9200E-01  0.9200E-01
