   13   13 1000    2
  0.1113177E+04  0.2666979E-08  0.2311509E-08  0.2347428E-08  0.5000000E-15
   1.0000000000000000E-004
  CAR 
 unknown system                          
    143      1     92
 
  0.1262379E-14  0.1262379E-14  0.1262379E-14  0.1000000E+01
    1      -10.399588    -10.399588   1.000000   1.000000
    2       -9.231987     -9.231987   1.000000   1.000000
    3       -8.276422     -8.276422   1.000000   1.000000
    4       -8.026103     -8.026103   1.000000   1.000000
    5       -7.911232     -7.911232   1.000000   1.000000
    6       -7.760833     -7.760833   1.000000   1.000000
    7       -7.555610     -7.555610   1.000000   1.000000
    8       -7.370583     -7.370583   1.000000   1.000000
    9       -7.288831     -7.288831   1.000000   1.000000
   10       -7.264179     -7.264179   1.000000   1.000000
   11       -7.209108     -7.209108   1.000000   1.000000
   12       -7.160670     -7.160670   1.000000   1.000000
   13       -7.113954     -7.113954   1.000000   1.000000
   14       -7.045571     -7.045571   1.000000   1.000000
   15       -6.989932     -6.989932   1.000000   1.000000
   16       -6.939246     -6.939246   1.000000   1.000000
   17       -6.881268     -6.881268   1.000000   1.000000
   18       -6.818246     -6.818246   1.000000   1.000000
   19       -6.744982     -6.744982   1.000000   1.000000
   20       -6.690651     -6.690651   1.000000   1.000000
   21       -6.644966     -6.644966   1.000000   1.000000
   22       -6.620258     -6.620258   1.000000   1.000000
   23       -6.610921     -6.610921   1.000000   1.000000
   24       -6.482007     -6.482007   1.000000   1.000000
   25       -6.433031     -6.433031   1.000000   1.000000
   26       -6.362902     -6.362902   1.000000   1.000000
   27       -6.326219     -6.326219   1.000000   1.000000
   28       -6.267152     -6.267152   1.000000   1.000000
   29       -6.246653     -6.246653   1.000000   1.000000
   30       -6.175271     -6.175271   1.000000   1.000000
   31       -6.119352     -6.119352   1.000000   1.000000
   32       -6.047042     -6.047042   1.000000   1.000000
   33       -6.006502     -6.006502   1.000000   1.000000
   34       -5.996732     -5.996732   1.000000   1.000000
   35       -5.965672     -5.965672   1.000000   1.000000
   36       -5.892867     -5.892867   1.000000   1.000000
   37       -5.865724     -5.865724   1.000000   1.000000
   38       -5.855930     -5.855930   1.000000   1.000000
   39       -5.804628     -5.804628   1.000000   1.000000
   40       -5.794820     -5.794820   1.000000   1.000000
   41       -5.755780     -5.755780   1.000000   1.000000
   42       -5.731431     -5.731431   1.000000   1.000000
   43       -5.691463     -5.691463   1.000000   1.000000
   44       -5.679827     -5.679827   1.000000   1.000000
   45       -5.651147     -5.651147   1.000000   1.000000
   46       -5.636399     -5.636399   1.000000   1.000000
   47       -5.610640     -5.610640   1.000000   1.000000
   48       -5.592113     -5.592113   1.000000   1.000000
   49       -5.566520     -5.566520   1.000000   1.000000
   50       -5.528040     -5.528040   1.000000   1.000000
   51       -5.515397     -5.515397   1.000000   1.000000
   52       -5.504953     -5.504953   1.000000   1.000000
   53       -5.487251     -5.487251   1.000000   1.000000
   54       -5.474516     -5.474516   1.000000   1.000000
   55       -5.436370     -5.436370   1.000000   1.000000
   56       -5.404015     -5.404015   1.000000   1.000000
   57       -5.351264     -5.351264   1.000000   1.000000
   58       -5.339445     -5.339445   1.000000   1.000000
   59       -5.316128     -5.316128   1.000000   1.000000
   60       -5.299843     -5.299843   1.000000   1.000000
   61       -5.278986     -5.278986   1.000000   1.000000
   62       -5.253740     -5.253740   1.000000   1.000000
   63       -5.233968     -5.233968   1.000000   1.000000
   64       -5.207636     -5.207636   1.000000   1.000000
   65       -5.204833     -5.204833   1.000000   1.000000
   66       -5.159786     -5.159786   1.000000   1.000000
   67       -5.153245     -5.153245   1.000000   1.000000
   68       -5.141484     -5.141483   1.000000   1.000000
   69       -4.958142     -4.958142   1.000000   1.000000
   70       -4.795045     -4.795045   1.000000   1.000000
   71       -4.647809     -4.647809   1.000000   1.000000
   72       -3.883060     -3.883060   0.500832   0.500832
   73       -3.368380     -3.368380  -0.000833  -0.000833
   74       -2.954233     -2.954233  -0.000000  -0.000000
   75       -2.829411     -2.829410  -0.000000  -0.000000
   76       -2.622074     -2.622074  -0.000000  -0.000000
   77       -2.364516     -2.364516  -0.000000  -0.000000
   78       -2.055031     -2.055031  -0.000000  -0.000000
   79       -1.997017     -1.997017  -0.000000  -0.000000
   80       -1.513762     -1.513762  -0.000000  -0.000000
   81       -1.223033     -1.223033  -0.000000  -0.000000
   82       -0.936282     -0.936281  -0.000000  -0.000000
   83       -0.839963     -0.839962  -0.000000  -0.000000
   84       -0.656400     -0.656399  -0.000000  -0.000000
   85       -0.434933     -0.434932  -0.000000  -0.000000
   86       -0.309567     -0.309564  -0.000000  -0.000000
   87       -0.141329     -0.141326  -0.000000  -0.000000
   88        0.079111      0.079133  -0.000000  -0.000000
   89        0.214721      0.214741  -0.000000  -0.000000
   90        0.251638      0.251660  -0.000000  -0.000000
   91        0.292282      0.292311  -0.000000  -0.000000
   92        0.313972      0.313996  -0.000000  -0.000000
