       N       E                     dE             d eps       ncg     rms          rms(c)
DAV:   1     0.928579280436E+03    0.92858E+03   -0.24458E+04   384   0.728E+02
DAV:   2     0.269782712192E+03   -0.65880E+03   -0.58167E+03   384   0.207E+02
DAV:   3     0.193560245586E+02   -0.25043E+03   -0.23678E+03   464   0.133E+02
DAV:   4    -0.331382013816E+02   -0.52494E+02   -0.48434E+02   440   0.119E+02
DAV:   5    -0.358902422544E+02   -0.27520E+01   -0.27220E+01   488   0.266E+01    0.281E+01
DAV:   6    -0.131435645599E+02    0.22747E+02   -0.13347E+02   400   0.872E+01    0.118E+01
DAV:   7    -0.969937039242E+01    0.34442E+01   -0.29865E+01   448   0.624E+01    0.507E+00
DAV:   8    -0.895224525366E+01    0.74713E+00   -0.64173E+00   448   0.522E+01    0.470E+00
DAV:   9    -0.106103146341E+02   -0.16581E+01   -0.14316E+00   472   0.296E+01    0.295E+00
DAV:  10    -0.147957421870E+02   -0.41854E+01   -0.23889E+00   536   0.161E+01    0.255E+00
DAV:  11    -0.169380994798E+02   -0.21424E+01   -0.92396E-01   472   0.139E+01    0.208E+00
DAV:  12    -0.200223836355E+02   -0.30843E+01   -0.14681E+00   568   0.789E+00    0.155E+00
DAV:  13    -0.248970956802E+02   -0.48747E+01   -0.29309E+00   456   0.675E+00    0.125E+00
DAV:  14    -0.263116903825E+02   -0.14146E+01   -0.38798E-01   488   0.779E+00    0.976E-01
DAV:  15    -0.282306771137E+02   -0.19190E+01   -0.44909E-01   524   0.512E+00    0.874E-01
DAV:  16    -0.300610131426E+02   -0.18303E+01   -0.47363E-01   520   0.484E+00    0.637E-01
DAV:  17    -0.305551028774E+02   -0.49409E+00   -0.10172E-01   528   0.255E+00    0.422E-01
DAV:  18    -0.309609490224E+02   -0.40585E+00   -0.46225E-02   520   0.204E+00    0.325E-01
DAV:  19    -0.313670817575E+02   -0.40613E+00   -0.26586E-02   504   0.206E+00    0.222E-01
DAV:  20    -0.316539795524E+02   -0.28690E+00   -0.11554E-02   520   0.119E+00    0.140E-01
DAV:  21    -0.318481779080E+02   -0.19420E+00   -0.93426E-03   504   0.821E-01    0.109E-01
DAV:  22    -0.319495337399E+02   -0.10136E+00   -0.27832E-03   528   0.649E-01    0.748E-02
DAV:  23    -0.320165793945E+02   -0.67046E-01   -0.15576E-03   484   0.500E-01    0.499E-02
DAV:  24    -0.320555048695E+02   -0.38925E-01   -0.86298E-04   388   0.286E-01    0.370E-02
DAV:  25    -0.320855652212E+02   -0.30060E-01   -0.43970E-04   316   0.222E-01    0.272E-02
DAV:  26    -0.321023974654E+02   -0.16832E-01   -0.24592E-04   280   0.217E-01    0.238E-02
DAV:  27    -0.321098035765E+02   -0.74061E-02   -0.14589E-04   280   0.150E-01    0.153E-02
DAV:  28    -0.321163046970E+02   -0.65011E-02   -0.13191E-04   272   0.840E-02    0.136E-02
DAV:  29    -0.321184403879E+02   -0.21357E-02   -0.65265E-05   272   0.105E-01    0.979E-03
DAV:  30    -0.321197310020E+02   -0.12906E-02   -0.33529E-05   256   0.780E-02    0.697E-03
DAV:  31    -0.321212980486E+02   -0.15670E-02   -0.27371E-05   244   0.502E-02    0.526E-03
DAV:  32    -0.321226458824E+02   -0.13478E-02   -0.19192E-05   260   0.359E-02    0.424E-03
DAV:  33    -0.321230181972E+02   -0.37231E-03   -0.95847E-06   248   0.313E-02    0.297E-03
DAV:  34    -0.321234748379E+02   -0.45664E-03   -0.60005E-06   240   0.207E-02    0.230E-03
DAV:  35    -0.321238234722E+02   -0.34863E-03   -0.45654E-06   232   0.189E-02    0.189E-03
DAV:  36    -0.321240013905E+02   -0.17792E-03   -0.30374E-06   248   0.166E-02    0.155E-03
DAV:  37    -0.321241219896E+02   -0.12060E-03   -0.20688E-06   232   0.114E-02    0.986E-04
DAV:  38    -0.321242432668E+02   -0.12128E-03   -0.15967E-06   248   0.926E-03    0.104E-03
DAV:  39    -0.321242849051E+02   -0.41638E-04   -0.83078E-07   256   0.799E-03
   1 F= -.32124285E+02 E0= -.32113410E+02  d E =-.321243E+02  mag=     0.0021
       N       E                     dE             d eps       ncg     rms          rms(c)
DAV:   1    -0.321730003496E+02   -0.48757E-01   -0.36796E+01   396   0.210E+01    0.557E-01
DAV:   2    -0.322455461787E+02   -0.72546E-01   -0.80482E-01   552   0.687E+00    0.618E-01
DAV:   3    -0.322409090788E+02    0.46371E-02   -0.38381E-02   412   0.439E+00    0.323E-01
DAV:   4    -0.322406525214E+02    0.25656E-03   -0.85705E-03   496   0.135E+00    0.254E-01
DAV:   5    -0.322403772053E+02    0.27532E-03   -0.18233E-03   408   0.491E-01    0.194E-01
DAV:   6    -0.322403303697E+02    0.46836E-04   -0.21384E-03   576   0.980E-01    0.132E-01
DAV:   7    -0.322400872617E+02    0.24311E-03   -0.79882E-04   408   0.877E-01    0.635E-02
DAV:   8    -0.322400868973E+02    0.36437E-06   -0.98454E-04   400   0.316E-01
   2 F= -.32240087E+02 E0= -.32229550E+02  d E =-.115802E+00  mag=     0.0015
       N       E                     dE             d eps       ncg     rms          rms(c)
DAV:   1    -0.320048143640E+02    0.23527E+00   -0.23216E+02   440   0.575E+01    0.128E+00
DAV:   2    -0.323977222169E+02   -0.39291E+00   -0.43266E+00   560   0.178E+01    0.143E+00
DAV:   3    -0.323709227158E+02    0.26800E-01   -0.19721E-01   408   0.114E+01    0.681E-01
DAV:   4    -0.323715211946E+02   -0.59848E-03   -0.58313E-02   432   0.287E+00    0.562E-01
DAV:   5    -0.323693702789E+02    0.21509E-02   -0.11530E-02   400   0.156E+00    0.374E-01
DAV:   6    -0.323688216467E+02    0.54863E-03   -0.11651E-02   624   0.198E+00    0.211E-01
DAV:   7    -0.323680696920E+02    0.75195E-03   -0.26174E-03   424   0.164E+00    0.902E-02
DAV:   8    -0.323681284661E+02   -0.58774E-04   -0.29317E-03   496   0.771E-01    0.793E-02
DAV:   9    -0.323681205705E+02    0.78956E-05   -0.65992E-04   400   0.379E-01
   3 F= -.32368121E+02 E0= -.32357740E+02  d E =-.243836E+00  mag=     0.0010
       N       E                     dE             d eps       ncg     rms          rms(c)
DAV:   1    -0.323575983648E+02    0.10530E-01   -0.22985E+01   392   0.166E+01    0.394E-01
DAV:   2    -0.324027807463E+02   -0.45182E-01   -0.48840E-01   536   0.540E+00    0.494E-01
DAV:   3    -0.324003298130E+02    0.24509E-02   -0.24508E-02   392   0.318E+00    0.271E-01
DAV:   4    -0.324001160684E+02    0.21374E-03   -0.49025E-03   512   0.104E+00    0.218E-01
DAV:   5    -0.323998176711E+02    0.29840E-03   -0.11523E-03   380   0.477E-01    0.153E-01
DAV:   6    -0.323997571171E+02    0.60554E-04   -0.15930E-03   568   0.809E-01    0.849E-02
DAV:   7    -0.323996693280E+02    0.87789E-04   -0.51854E-04   400   0.673E-01
   4 F= -.32399669E+02 E0= -.32389032E+02  d E =-.315488E-01  mag=     0.0007
       N       E                     dE             d eps       ncg     rms          rms(c)
DAV:   1    -0.323828867214E+02    0.16870E-01   -0.13986E+01   392   0.128E+01    0.303E-01
DAV:   2    -0.324089025262E+02   -0.26016E-01   -0.28200E-01   544   0.396E+00    0.368E-01
DAV:   3    -0.324075190877E+02    0.13834E-02   -0.13765E-02   392   0.222E+00    0.199E-01
DAV:   4    -0.324073984597E+02    0.12063E-03   -0.27150E-03   492   0.852E-01    0.157E-01
DAV:   5    -0.324072694192E+02    0.12904E-03   -0.64876E-04   360   0.388E-01    0.110E-01
DAV:   6    -0.324072801167E+02   -0.10697E-04   -0.76821E-04   440   0.599E-01
   5 F= -.32407280E+02 E0= -.32396337E+02  d E =-.391595E-01  mag=     0.0005
       N       E                     dE             d eps       ncg     rms          rms(c)
DAV:   1    -0.324016787671E+02    0.55907E-02   -0.99336E+00   392   0.108E+01    0.226E-01
DAV:   2    -0.324206654103E+02   -0.18987E-01   -0.19920E-01   536   0.309E+00    0.295E-01
DAV:   3    -0.324197190415E+02    0.94637E-03   -0.69561E-03   416   0.191E+00    0.166E-01
DAV:   4    -0.324196515957E+02    0.67446E-04   -0.17164E-03   480   0.564E-01    0.138E-01
DAV:   5    -0.324195169340E+02    0.13466E-03   -0.44020E-04   368   0.347E-01    0.937E-02
DAV:   6    -0.324194949972E+02    0.21937E-04   -0.75479E-04   496   0.478E-01
   6 F= -.32419495E+02 E0= -.32408501E+02  d E =-.122149E-01  mag=     0.0004
       N       E                     dE             d eps       ncg     rms          rms(c)
DAV:   1    -0.324035273372E+02    0.15990E-01   -0.11262E+01   400   0.115E+01    0.243E-01
DAV:   2    -0.324250729501E+02   -0.21546E-01   -0.22653E-01   536   0.316E+00    0.299E-01
DAV:   3    -0.324240136049E+02    0.10593E-02   -0.66516E-03   392   0.181E+00    0.175E-01
DAV:   4    -0.324239254348E+02    0.88170E-04   -0.18894E-03   476   0.644E-01    0.142E-01
DAV:   5    -0.324237847235E+02    0.14071E-03   -0.48208E-04   392   0.430E-01    0.100E-01
DAV:   6    -0.324237685492E+02    0.16174E-04   -0.89314E-04   536   0.494E-01
   7 F= -.32423769E+02 E0= -.32412717E+02  d E =-.164884E-01  mag=     0.0003
       N       E                     dE             d eps       ncg     rms          rms(c)
DAV:   1    -0.324149641800E+02    0.88205E-02   -0.11847E+01   412   0.118E+01    0.255E-01
DAV:   2    -0.324360937652E+02   -0.21130E-01   -0.22379E-01   560   0.345E+00    0.314E-01
DAV:   3    -0.324351256413E+02    0.96812E-03   -0.94904E-03   400   0.183E+00    0.187E-01
DAV:   4    -0.324349646264E+02    0.16101E-03   -0.18501E-03   480   0.702E-01    0.154E-01
DAV:   5    -0.324347273886E+02    0.23724E-03   -0.55251E-04   360   0.348E-01    0.103E-01
DAV:   6    -0.324346742448E+02    0.53144E-04   -0.11078E-03   536   0.550E-01    0.468E-02
DAV:   7    -0.324346507516E+02    0.23493E-04   -0.20087E-04   256   0.419E-01
   8 F= -.32434651E+02 E0= -.32423802E+02  d E =-.108822E-01  mag=     0.0002
       N       E                     dE             d eps       ncg     rms          rms(c)
DAV:   1    -0.322450422805E+02    0.18963E+00   -0.10850E+02   416   0.377E+01    0.813E-01
DAV:   2    -0.324646571215E+02   -0.21961E+00   -0.23125E+00   576   0.112E+01    0.978E-01
DAV:   3    -0.324545357284E+02    0.10121E-01   -0.88930E-02   416   0.661E+00    0.564E-01
DAV:   4    -0.324534720963E+02    0.10636E-02   -0.20667E-02   432   0.200E+00    0.485E-01
DAV:   5    -0.324505405843E+02    0.29315E-02   -0.63762E-03   496   0.112E+00    0.315E-01
DAV:   6    -0.324490107037E+02    0.15299E-02   -0.98146E-03   600   0.168E+00    0.135E-01
DAV:   7    -0.324487791191E+02    0.23158E-03   -0.18283E-03   432   0.122E+00    0.439E-02
DAV:   8    -0.324488995751E+02   -0.12046E-03   -0.97005E-04   464   0.384E-01    0.536E-02
DAV:   9    -0.324489128871E+02   -0.13312E-04   -0.25362E-04   304   0.267E-01
   9 F= -.32448913E+02 E0= -.32438529E+02  d E =-.251443E-01  mag=     0.0001
       N       E                     dE             d eps       ncg     rms          rms(c)
DAV:   1    -0.324482636465E+02    0.63593E-03   -0.49228E+00   416   0.760E+00    0.162E-01
DAV:   2    -0.324568190371E+02   -0.85554E-02   -0.90715E-02   560   0.240E+00    0.214E-01
DAV:   3    -0.324564314019E+02    0.38764E-03   -0.47024E-03   416   0.135E+00    0.128E-01
DAV:   4    -0.324563682654E+02    0.63136E-04   -0.82644E-04   400   0.420E-01
  10 F= -.32456368E+02 E0= -.32446039E+02  d E =-.745538E-02  mag=     0.0001
       N       E                     dE             d eps       ncg     rms          rms(c)
DAV:   1    -0.323979918912E+02    0.58440E-01   -0.44625E+01   416   0.234E+01    0.512E-01
DAV:   2    -0.324834804658E+02   -0.85489E-01   -0.90568E-01   560   0.750E+00    0.662E-01
DAV:   3    -0.324792287202E+02    0.42517E-02   -0.38686E-02   416   0.416E+00    0.408E-01
DAV:   4    -0.324786346712E+02    0.59405E-03   -0.85347E-03   432   0.119E+00    0.357E-01
DAV:   5    -0.324766372343E+02    0.19974E-02   -0.37837E-03   528   0.779E-01    0.197E-01
DAV:   6    -0.324760914870E+02    0.54575E-03   -0.42435E-03   600   0.115E+00    0.836E-02
DAV:   7    -0.324760242972E+02    0.67190E-04   -0.80723E-04   416   0.790E-01
  11 F= -.32476024E+02 E0= -.32465622E+02  d E =-.271114E-01  mag=     0.0001
       N       E                     dE             d eps       ncg     rms          rms(c)
DAV:   1    -0.321908058836E+02    0.28529E+00   -0.18396E+02   432   0.508E+01    0.104E+00
DAV:   2    -0.325317231221E+02   -0.34092E+00   -0.36080E+00   576   0.171E+01    0.131E+00
DAV:   3    -0.325132438591E+02    0.18479E-01   -0.17392E-01   416   0.992E+00    0.684E-01
DAV:   4    -0.325132754205E+02   -0.31561E-04   -0.46079E-02   432   0.215E+00    0.606E-01
DAV:   5    -0.325083050727E+02    0.49703E-02   -0.10746E-02   464   0.158E+00    0.401E-01
DAV:   6    -0.325053404451E+02    0.29646E-02   -0.15979E-02   592   0.192E+00    0.158E-01
DAV:   7    -0.325050382206E+02    0.30222E-03   -0.23124E-03   432   0.129E+00    0.839E-02
DAV:   8    -0.325051538742E+02   -0.11565E-03   -0.17374E-03   464   0.416E-01    0.760E-02
DAV:   9    -0.325051477055E+02    0.61687E-05   -0.40847E-04   384   0.381E-01
  12 F= -.32505148E+02 E0= -.32493347E+02  d E =-.562348E-01  mag=     0.0001
       N       E                     dE             d eps       ncg     rms          rms(c)
DAV:   1    -0.319157380187E+02    0.58942E+00   -0.83949E+02   536   0.134E+02    0.238E+00
DAV:   2    -0.326121509893E+02   -0.69641E+00   -0.84964E+00   576   0.420E+01    0.302E+00
DAV:   3    -0.324983806415E+02    0.11377E+00   -0.10827E+00   432   0.255E+01    0.108E+00
DAV:   4    -0.324960498762E+02    0.23308E-02   -0.31970E-01   496   0.699E+00    0.717E-01
DAV:   5    -0.324965742056E+02   -0.52433E-03   -0.12950E-01   416   0.708E+00    0.407E-01
DAV:   6    -0.324956829553E+02    0.89125E-03   -0.33514E-02   416   0.428E+00    0.116E-01
DAV:   7    -0.324961981106E+02   -0.51516E-03   -0.61542E-03   544   0.113E+00    0.102E-01
DAV:   8    -0.324963301171E+02   -0.13201E-03   -0.16730E-03   416   0.867E-01    0.638E-02
DAV:   9    -0.324967103495E+02   -0.38023E-03   -0.91730E-04   416   0.572E-01    0.527E-02
DAV:  10    -0.324967921292E+02   -0.81780E-04   -0.23426E-04   272   0.374E-01
  13 F= -.32496792E+02 E0= -.32480438E+02  d E =-.478792E-01  mag=     0.0000
       N       E                     dE             d eps       ncg     rms          rms(c)
DAV:   1    -0.321999341977E+02    0.29678E+00   -0.28627E+02   488   0.659E+01    0.130E+00
DAV:   2    -0.325564997686E+02   -0.35657E+00   -0.39999E+00   544   0.244E+01    0.172E+00
DAV:   3    -0.325237644285E+02    0.32735E-01   -0.33059E-01   432   0.139E+01    0.765E-01
DAV:   4    -0.325233905461E+02    0.37388E-03   -0.85456E-02   448   0.270E+00    0.580E-01
DAV:   5    -0.325189868965E+02    0.44036E-02   -0.24108E-02   400   0.306E+00    0.388E-01
DAV:   6    -0.325172598620E+02    0.17270E-02   -0.17567E-02   608   0.288E+00    0.194E-01
DAV:   7    -0.325168205062E+02    0.43936E-03   -0.36928E-03   592   0.111E+00    0.953E-02
DAV:   8    -0.325168392287E+02   -0.18723E-04   -0.22045E-03   496   0.741E-01    0.656E-02
DAV:   9    -0.325168900698E+02   -0.50841E-04   -0.76287E-04   400   0.446E-01
  14 F= -.32516890E+02 E0= -.32503240E+02  d E =-.679772E-01  mag=     0.0000
       N       E                     dE             d eps       ncg     rms          rms(c)
DAV:   1    -0.325002928752E+02    0.16546E-01   -0.19418E+01   408   0.152E+01    0.340E-01
DAV:   2    -0.325371616402E+02   -0.36869E-01   -0.39150E-01   552   0.498E+00    0.452E-01
DAV:   3    -0.325351341334E+02    0.20275E-02   -0.18281E-02   392   0.280E+00    0.268E-01
DAV:   4    -0.325348909581E+02    0.24318E-03   -0.37964E-03   464   0.799E-01    0.228E-01
DAV:   5    -0.325342638346E+02    0.62712E-03   -0.11663E-03   432   0.433E-01    0.148E-01
DAV:   6    -0.325339973713E+02    0.26646E-03   -0.23680E-03   592   0.789E-01    0.659E-02
DAV:   7    -0.325339436567E+02    0.53715E-04   -0.40860E-04   384   0.574E-01
  15 F= -.32533944E+02 E0= -.32519408E+02  d E =-.170536E-01  mag=     0.0000
       N       E                     dE             d eps       ncg     rms          rms(c)
DAV:   1    -0.322790882424E+02    0.25491E+00   -0.18129E+02   440   0.504E+01    0.994E-01
DAV:   2    -0.325924598998E+02   -0.31337E+00   -0.33147E+00   560   0.168E+01    0.129E+00
DAV:   3    -0.325745499345E+02    0.17910E-01   -0.16285E-01   392   0.952E+00    0.669E-01
DAV:   4    -0.325744954563E+02    0.54478E-04   -0.44059E-02   432   0.200E+00    0.588E-01
DAV:   5    -0.325696629495E+02    0.48325E-02   -0.10599E-02   432   0.162E+00    0.385E-01
DAV:   6    -0.325670194280E+02    0.26435E-02   -0.14822E-02   632   0.195E+00    0.153E-01
DAV:   7    -0.325667234746E+02    0.29595E-03   -0.22153E-03   432   0.127E+00    0.838E-02
DAV:   8    -0.325667950267E+02   -0.71552E-04   -0.16526E-03   464   0.391E-01    0.715E-02
DAV:   9    -0.325667778103E+02    0.17216E-04   -0.31349E-04   336   0.334E-01
  16 F= -.32566778E+02 E0= -.32550092E+02  d E =-.498877E-01  mag=     0.0000
       N       E                     dE             d eps       ncg     rms          rms(c)
DAV:   1    -0.324972658000E+02    0.69529E-01   -0.39757E+01   408   0.221E+01    0.453E-01
DAV:   2    -0.325748200902E+02   -0.77554E-01   -0.80420E-01   552   0.678E+00    0.595E-01
DAV:   3    -0.325712933958E+02    0.35267E-02   -0.30485E-02   392   0.372E+00    0.358E-01
DAV:   4    -0.325708367019E+02    0.45669E-03   -0.68312E-03   432   0.106E+00    0.314E-01
DAV:   5    -0.325694742558E+02    0.13624E-02   -0.24874E-03   464   0.704E-01    0.198E-01
DAV:   6    -0.325688775077E+02    0.59675E-03   -0.42093E-03   568   0.114E+00    0.820E-02
DAV:   7    -0.325688225665E+02    0.54941E-04   -0.81596E-04   416   0.768E-01
  17 F= -.32568823E+02 E0= -.32551430E+02  d E =-.519325E-01  mag=     0.0000
       N       E                     dE             d eps       ncg     rms          rms(c)
DAV:   1    -0.325607445725E+02    0.81329E-02   -0.20456E+01   392   0.156E+01    0.380E-01
DAV:   2    -0.325994401019E+02   -0.38696E-01   -0.41500E-01   560   0.540E+00    0.480E-01
DAV:   3    -0.325969706816E+02    0.24694E-02   -0.22802E-02   392   0.322E+00    0.263E-01
DAV:   4    -0.325968098363E+02    0.16085E-03   -0.49398E-03   464   0.857E-01    0.217E-01
DAV:   5    -0.325963122384E+02    0.49760E-03   -0.10987E-03   368   0.417E-01    0.150E-01
DAV:   6    -0.325960525395E+02    0.25970E-03   -0.20301E-03   536   0.759E-01    0.706E-02
DAV:   7    -0.325959995922E+02    0.52947E-04   -0.44368E-04   384   0.633E-01
  18 F= -.32596000E+02 E0= -.32578183E+02  d E =-.271770E-01  mag=     0.0000
       N       E                     dE             d eps       ncg     rms          rms(c)
DAV:   1    -0.322811401826E+02    0.31491E+00   -0.19003E+02   392   0.518E+01    0.114E+00
DAV:   2    -0.326760789631E+02   -0.39494E+00   -0.41531E+00   560   0.181E+01    0.142E+00
DAV:   3    -0.326514880044E+02    0.24591E-01   -0.18495E-01   392   0.106E+01    0.725E-01
DAV:   4    -0.326519731996E+02   -0.48520E-03   -0.53319E-02   432   0.221E+00    0.635E-01
DAV:   5    -0.326475310093E+02    0.44422E-02   -0.82085E-03   384   0.134E+00    0.465E-01
DAV:   6    -0.326434597322E+02    0.40713E-02   -0.17538E-02   584   0.171E+00    0.178E-01
DAV:   7    -0.326429922128E+02    0.46752E-03   -0.28206E-03   416   0.155E+00    0.951E-02
DAV:   8    -0.326430863462E+02   -0.94133E-04   -0.23229E-03   512   0.555E-01    0.917E-02
DAV:   9    -0.326430794747E+02    0.68715E-05   -0.65083E-04   384   0.406E-01
  19 F= -.32643079E+02 E0= -.32624596E+02  d E =-.742569E-01  mag=     0.0000
       N       E                     dE             d eps       ncg     rms          rms(c)
DAV:   1    -0.326210277184E+02    0.22059E-01   -0.14388E+01   392   0.131E+01    0.277E-01
DAV:   2    -0.326478195775E+02   -0.26792E-01   -0.27921E-01   544   0.415E+00    0.371E-01
DAV:   3    -0.326464813389E+02    0.13382E-02   -0.12663E-02   408   0.233E+00    0.218E-01
DAV:   4    -0.326463349979E+02    0.14634E-03   -0.27010E-03   416   0.658E-01    0.187E-01
DAV:   5    -0.326459342320E+02    0.40077E-03   -0.72414E-04   368   0.389E-01    0.126E-01
DAV:   6    -0.326457759629E+02    0.15827E-03   -0.15057E-03   536   0.692E-01    0.528E-02
DAV:   7    -0.326457691059E+02    0.68570E-05   -0.33180E-04   304   0.527E-01
  20 F= -.32645769E+02 E0= -.32627193E+02  d E =-.769465E-01  mag=     0.0000
       N       E                     dE             d eps       ncg     rms          rms(c)
DAV:   1    -0.325802898459E+02    0.65486E-01   -0.59182E+01   392   0.272E+01    0.631E-01
DAV:   2    -0.326997845942E+02   -0.11949E+00   -0.12602E+00   552   0.855E+00    0.754E-01
DAV:   3    -0.326926859974E+02    0.70986E-02   -0.47441E-02   408   0.516E+00    0.418E-01
DAV:   4    -0.326922648166E+02    0.42118E-03   -0.12750E-02   432   0.132E+00    0.349E-01
DAV:   5    -0.326909181513E+02    0.13467E-02   -0.29676E-03   408   0.857E-01    0.251E-01
DAV:   6    -0.326900230470E+02    0.89510E-03   -0.60328E-03   552   0.146E+00    0.112E-01
DAV:   7    -0.326898537391E+02    0.16931E-03   -0.12876E-03   432   0.105E+00    0.405E-02
DAV:   8    -0.326899299551E+02   -0.76216E-04   -0.76391E-04   416   0.296E-01
  21 F= -.32689930E+02 E0= -.32671254E+02  d E =-.441608E-01  mag=     0.0000
       N       E                     dE             d eps       ncg     rms          rms(c)
DAV:   1    -0.325397513541E+02    0.15010E+00   -0.89498E+01   392   0.340E+01    0.774E-01
DAV:   2    -0.327229602437E+02   -0.18321E+00   -0.19234E+00   560   0.107E+01    0.914E-01
DAV:   3    -0.327124714453E+02    0.10489E-01   -0.71365E-02   408   0.650E+00    0.500E-01
DAV:   4    -0.327120053794E+02    0.46607E-03   -0.19876E-02   432   0.158E+00    0.421E-01
DAV:   5    -0.327100375244E+02    0.19679E-02   -0.46619E-03   408   0.112E+00    0.306E-01
DAV:   6    -0.327086421917E+02    0.13953E-02   -0.90005E-03   568   0.179E+00    0.134E-01
DAV:   7    -0.327083968954E+02    0.24530E-03   -0.18823E-03   480   0.121E+00    0.546E-02
DAV:   8    -0.327084777564E+02   -0.80861E-04   -0.10716E-03   480   0.350E-01    0.531E-02
DAV:   9    -0.327084895432E+02   -0.11787E-04   -0.24572E-04   288   0.263E-01
  22 F= -.32708490E+02 E0= -.32689750E+02  d E =-.627204E-01  mag=     0.0000
       N       E                     dE             d eps       ncg     rms          rms(c)
DAV:   1    -0.326056047624E+02    0.10287E+00   -0.78786E+01   408   0.315E+01    0.682E-01
DAV:   2    -0.327660949068E+02   -0.16049E+00   -0.16767E+00   576   0.101E+01    0.834E-01
DAV:   3    -0.327574085653E+02    0.86863E-02   -0.58636E-02   392   0.582E+00    0.469E-01
DAV:   4    -0.327568335936E+02    0.57497E-03   -0.15269E-02   408   0.132E+00    0.401E-01
DAV:   5    -0.327550185922E+02    0.18150E-02   -0.35197E-03   416   0.949E-01    0.292E-01
DAV:   6    -0.327535372080E+02    0.14814E-02   -0.75729E-03   600   0.152E+00    0.135E-01
DAV:   7    -0.327532926626E+02    0.24455E-03   -0.16543E-03   464   0.108E+00    0.514E-02
DAV:   8    -0.327533976525E+02   -0.10499E-03   -0.12224E-03   496   0.392E-01    0.556E-02
DAV:   9    -0.327534068646E+02   -0.92121E-05   -0.24661E-04   272   0.255E-01
  23 F= -.32753407E+02 E0= -.32734639E+02  d E =-.449173E-01  mag=     0.0000
       N       E                     dE             d eps       ncg     rms          rms(c)
DAV:   1    -0.324916347779E+02    0.26176E+00   -0.18931E+02   440   0.515E+01    0.959E-01
DAV:   2    -0.328122675685E+02   -0.32063E+00   -0.33667E+00   576   0.159E+01    0.122E+00
DAV:   3    -0.327948423045E+02    0.17425E-01   -0.14110E-01   400   0.908E+00    0.641E-01
DAV:   4    -0.327944801507E+02    0.36215E-03   -0.39560E-02   416   0.182E+00    0.550E-01
DAV:   5    -0.327908782980E+02    0.36019E-02   -0.85641E-03   416   0.160E+00    0.401E-01
DAV:   6    -0.327882311006E+02    0.26472E-02   -0.15094E-02   584   0.209E+00    0.193E-01
DAV:   7    -0.327877418613E+02    0.48924E-03   -0.29050E-03   464   0.134E+00    0.113E-01
DAV:   8    -0.327877357359E+02    0.61254E-05   -0.26931E-03   464   0.536E-01    0.719E-02
DAV:   9    -0.327877452479E+02   -0.95120E-05   -0.44173E-04   368   0.396E-01
  24 F= -.32787745E+02 E0= -.32768966E+02  d E =-.792557E-01  mag=     0.0000
       N       E                     dE             d eps       ncg     rms          rms(c)
DAV:   1    -0.326247081677E+02    0.16303E+00   -0.13290E+02   424   0.421E+01    0.913E-01
DAV:   2    -0.328769704234E+02   -0.25226E+00   -0.26754E+00   560   0.154E+01    0.112E+00
DAV:   3    -0.328610801867E+02    0.15890E-01   -0.11907E-01   392   0.878E+00    0.563E-01
DAV:   4    -0.328613361705E+02   -0.25598E-03   -0.33031E-02   432   0.170E+00    0.490E-01
DAV:   5    -0.328589184550E+02    0.24177E-02   -0.52208E-03   384   0.129E+00    0.373E-01
DAV:   6    -0.328565650822E+02    0.23534E-02   -0.11896E-02   632   0.207E+00    0.166E-01
DAV:   7    -0.328562190461E+02    0.34604E-03   -0.28349E-03   464   0.130E+00    0.803E-02
DAV:   8    -0.328562991425E+02   -0.80096E-04   -0.16455E-03   480   0.450E-01    0.721E-02
DAV:   9    -0.328562928515E+02    0.62910E-05   -0.33661E-04   336   0.322E-01
  25 F= -.32856293E+02 E0= -.32837517E+02  d E =-.685476E-01  mag=     0.0000
       N       E                     dE             d eps       ncg     rms          rms(c)
DAV:   1    -0.327904551113E+02    0.65844E-01   -0.43363E+01   408   0.230E+01    0.528E-01
DAV:   2    -0.328772062768E+02   -0.86751E-01   -0.91580E-01   560   0.821E+00    0.649E-01
DAV:   3    -0.328721614953E+02    0.50448E-02   -0.38621E-02   392   0.469E+00    0.357E-01
DAV:   4    -0.328719419078E+02    0.21959E-03   -0.92575E-03   440   0.101E+00    0.309E-01
DAV:   5    -0.328709159318E+02    0.10260E-02   -0.18846E-03   392   0.665E-01    0.222E-01
DAV:   6    -0.328701843407E+02    0.73159E-03   -0.42090E-03   600   0.124E+00    0.102E-01
DAV:   7    -0.328700741224E+02    0.11022E-03   -0.11098E-03   432   0.871E-01    0.337E-02
DAV:   8    -0.328701565068E+02   -0.82384E-04   -0.56157E-04   352   0.275E-01
  26 F= -.32870157E+02 E0= -.32851391E+02  d E =-.824113E-01  mag=     0.0000
       N       E                     dE             d eps       ncg     rms          rms(c)
DAV:   1    -0.326805387765E+02    0.18954E+00   -0.11930E+02   408   0.394E+01    0.882E-01
DAV:   2    -0.329294852413E+02   -0.24895E+00   -0.26248E+00   560   0.134E+01    0.108E+00
DAV:   3    -0.329148603770E+02    0.14625E-01   -0.10370E-01   400   0.796E+00    0.574E-01
DAV:   4    -0.329145873017E+02    0.27308E-03   -0.30067E-02   416   0.188E+00    0.488E-01
DAV:   5    -0.329124702153E+02    0.21171E-02   -0.54258E-03   400   0.113E+00    0.366E-01
DAV:   6    -0.329104543306E+02    0.20159E-02   -0.11086E-02   632   0.192E+00    0.193E-01
DAV:   7    -0.329098994676E+02    0.55486E-03   -0.24673E-03   480   0.137E+00    0.793E-02
DAV:   8    -0.329099627205E+02   -0.63253E-04   -0.18450E-03   480   0.621E-01    0.566E-02
DAV:   9    -0.329100539006E+02   -0.91180E-04   -0.64539E-04   368   0.320E-01
  27 F= -.32910054E+02 E0= -.32891345E+02  d E =-.398974E-01  mag=     0.0000
       N       E                     dE             d eps       ncg     rms          rms(c)
DAV:   1    -0.329069329067E+02    0.30298E-02   -0.24310E+00   408   0.530E+00    0.127E-01
DAV:   2    -0.329111838760E+02   -0.42510E-02   -0.45541E-02   544   0.189E+00    0.166E-01
DAV:   3    -0.329108963991E+02    0.28748E-03   -0.28338E-03   400   0.120E+00    0.846E-02
DAV:   4    -0.329108917903E+02    0.46088E-05   -0.60383E-04   384   0.298E-01
  28 F= -.32910892E+02 E0= -.32892193E+02  d E =-.407353E-01  mag=     0.0000
       N       E                     dE             d eps       ncg     rms          rms(c)
DAV:   1    -0.328711288292E+02    0.39768E-01   -0.29955E+01   392   0.188E+01    0.469E-01
DAV:   2    -0.329301435089E+02   -0.59015E-01   -0.63794E-01   536   0.711E+00    0.583E-01
DAV:   3    -0.329259071573E+02    0.42364E-02   -0.32046E-02   400   0.433E+00    0.308E-01
DAV:   4    -0.329257660455E+02    0.14111E-03   -0.73073E-03   448   0.871E-01    0.258E-01
DAV:   5    -0.329251870815E+02    0.57896E-03   -0.12585E-03   376   0.503E-01    0.190E-01
DAV:   6    -0.329247701175E+02    0.41696E-03   -0.29747E-03   584   0.104E+00    0.949E-02
DAV:   7    -0.329246587006E+02    0.11142E-03   -0.79519E-04   416   0.795E-01    0.298E-02
DAV:   8    -0.329247064669E+02   -0.47766E-04   -0.39733E-04   304   0.278E-01
  29 F= -.32924706E+02 E0= -.32906061E+02  d E =-.138147E-01  mag=     0.0000
       N       E                     dE             d eps       ncg     rms          rms(c)
DAV:   1    -0.329224128832E+02    0.22458E-02   -0.18332E+00   392   0.458E+00    0.119E-01
DAV:   2    -0.329253117659E+02   -0.28989E-02   -0.32029E-02   544   0.183E+00    0.135E-01
DAV:   3    -0.329251709087E+02    0.14086E-03   -0.29045E-03   400   0.125E+00    0.597E-02
DAV:   4    -0.329251970613E+02   -0.26153E-04   -0.54693E-04   384   0.259E-01
  30 F= -.32925197E+02 E0= -.32906563E+02  d E =-.143053E-01  mag=     0.0000
       N       E                     dE             d eps       ncg     rms          rms(c)
DAV:   1    -0.329062208937E+02    0.18950E-01   -0.14924E+01   392   0.133E+01    0.291E-01
DAV:   2    -0.329343505737E+02   -0.28130E-01   -0.29827E-01   544   0.416E+00    0.388E-01
DAV:   3    -0.329326271642E+02    0.17234E-02   -0.12328E-02   400   0.231E+00    0.224E-01
DAV:   4    -0.329324396351E+02    0.18753E-03   -0.25770E-03   496   0.652E-01    0.185E-01
DAV:   5    -0.329321412538E+02    0.29838E-03   -0.63441E-04   360   0.422E-01    0.134E-01
DAV:   6    -0.329319886063E+02    0.15265E-03   -0.14608E-03   552   0.690E-01    0.627E-02
DAV:   7    -0.329319462039E+02    0.42402E-04   -0.31700E-04   288   0.537E-01
  31 F= -.32931946E+02 E0= -.32913329E+02  d E =-.674914E-02  mag=     0.0000
       N       E                     dE             d eps       ncg     rms          rms(c)
DAV:   1    -0.329272681566E+02    0.47204E-02   -0.34375E+00   400   0.631E+00    0.126E-01
DAV:   2    -0.329327490092E+02   -0.54809E-02   -0.57472E-02   544   0.179E+00    0.143E-01
DAV:   3    -0.329325702648E+02    0.17874E-03   -0.23696E-03   384   0.997E-01    0.807E-02
DAV:   4    -0.329325565205E+02    0.13744E-04   -0.46020E-04   368   0.345E-01
  32 F= -.32932557E+02 E0= -.32913946E+02  d E =-.735946E-02  mag=     0.0000
       N       E                     dE             d eps       ncg     rms          rms(c)
DAV:   1    -0.329210313032E+02    0.11539E-01   -0.91256E+00   408   0.103E+01    0.249E-01
DAV:   2    -0.329373571726E+02   -0.16326E-01   -0.17725E-01   536   0.390E+00    0.316E-01
DAV:   3    -0.329362781997E+02    0.10790E-02   -0.10241E-02   392   0.222E+00    0.175E-01
DAV:   4    -0.329361901160E+02    0.88084E-04   -0.19712E-03   400   0.460E-01    0.147E-01
DAV:   5    -0.329359582561E+02    0.23186E-03   -0.54107E-04   368   0.398E-01    0.945E-02
DAV:   6    -0.329359032691E+02    0.54987E-04   -0.90923E-04   472   0.617E-01
  33 F= -.32935903E+02 E0= -.32917288E+02  d E =-.334675E-02  mag=     0.0000
       N       E                     dE             d eps       ncg     rms          rms(c)
DAV:   1    -0.329327897052E+02    0.31686E-02   -0.21168E+00   416   0.494E+00    0.115E-01
DAV:   2    -0.329362796204E+02   -0.34899E-02   -0.37346E-02   536   0.190E+00    0.141E-01
DAV:   3    -0.329360826398E+02    0.19698E-03   -0.25551E-03   392   0.119E+00    0.618E-02
DAV:   4    -0.329361013980E+02   -0.18758E-04   -0.49751E-04   368   0.219E-01
  34 F= -.32936101E+02 E0= -.32917483E+02  d E =-.354488E-02  mag=     0.0000
       N       E                     dE             d eps       ncg     rms          rms(c)
DAV:   1    -0.329315294456E+02    0.45532E-02   -0.44973E+00   408   0.716E+00    0.146E-01
DAV:   2    -0.329393122153E+02   -0.77828E-02   -0.81582E-02   560   0.217E+00    0.204E-01
DAV:   3    -0.329388346368E+02    0.47758E-03   -0.29050E-03   392   0.117E+00    0.125E-01
DAV:   4    -0.329387607291E+02    0.73908E-04   -0.65293E-04   368   0.306E-01
  35 F= -.32938761E+02 E0= -.32920161E+02  d E =-.265933E-02  mag=     0.0000
       N       E                     dE             d eps       ncg     rms          rms(c)
DAV:   1    -0.329160025070E+02    0.22832E-01   -0.13885E+01   408   0.127E+01    0.267E-01
DAV:   2    -0.329420249634E+02   -0.26022E-01   -0.27297E-01   544   0.394E+00    0.369E-01
DAV:   3    -0.329404437695E+02    0.15812E-02   -0.89273E-03   392   0.201E+00    0.231E-01
DAV:   4    -0.329401601703E+02    0.28360E-03   -0.20504E-03   472   0.525E-01    0.193E-01
DAV:   5    -0.329397259519E+02    0.43422E-03   -0.78327E-04   408   0.535E-01    0.124E-01
DAV:   6    -0.329395899975E+02    0.13595E-03   -0.16416E-03   536   0.635E-01    0.425E-02
DAV:   7    -0.329395782297E+02    0.11768E-04   -0.22559E-04   256   0.394E-01
  36 F= -.32939578E+02 E0= -.32921024E+02  d E =-.347683E-02  mag=     0.0000
       N       E                     dE             d eps       ncg     rms          rms(c)
DAV:   1    -0.329351302850E+02    0.44597E-02   -0.38083E+00   416   0.661E+00    0.145E-01
DAV:   2    -0.329413762219E+02   -0.62459E-02   -0.66668E-02   536   0.210E+00    0.176E-01
DAV:   3    -0.329410700549E+02    0.30617E-03   -0.36320E-03   392   0.127E+00    0.938E-02
DAV:   4    -0.329410501063E+02    0.19949E-04   -0.65855E-04   368   0.321E-01
  37 F= -.32941050E+02 E0= -.32922524E+02  d E =-.147188E-02  mag=     0.0000
       N       E                     dE             d eps       ncg     rms          rms(c)
DAV:   1    -0.329406756736E+02    0.39438E-03   -0.34183E-01   416   0.199E+00    0.622E-02
DAV:   2    -0.329411597158E+02   -0.48404E-03   -0.56261E-03   528   0.636E-01    0.682E-02
DAV:   3    -0.329411214270E+02    0.38289E-04   -0.34643E-04   352   0.389E-01
  38 F= -.32941121E+02 E0= -.32922610E+02  d E =-.154320E-02  mag=     0.0000
       N       E                     dE             d eps       ncg     rms          rms(c)
DAV:   1    -0.329408047710E+02    0.35494E-03   -0.67964E-01   400   0.282E+00    0.517E-02
DAV:   2    -0.329419398836E+02   -0.11351E-02   -0.11640E-02   544   0.711E-01    0.609E-02
DAV:   3    -0.329419023947E+02    0.37489E-04   -0.23416E-04   224   0.291E-01
  39 F= -.32941902E+02 E0= -.32923404E+02  d E =-.780968E-03  mag=     0.0000
       N       E                     dE             d eps       ncg     rms          rms(c)
DAV:   1    -0.329418738354E+02    0.66048E-04   -0.84979E-04   480   0.203E-01    0.355E-02
DAV:   2    -0.329418751278E+02   -0.12924E-05   -0.81869E-05   224   0.265E-01
  40 F= -.32941875E+02 E0= -.32923377E+02  d E =-.753701E-03  mag=     0.0000
