 vasp.6.1.2 22Jul20 (build Aug  2 2021 21:04:21) gamma-only                      
 executed on             LinuxPGI date 2021.12.25  06:42:42
 running on   16 total cores
 distrk:  each k-point on   16 cores,    1 groups
 distr:  one band on NCORE=   8 cores,    2 groups


--------------------------------------------------------------------------------------------------------


 INCAR:
 POTCAR:    PAW_PBE Cu 22Jun2005                  
 -----------------------------------------------------------------------------
|                                                                             |
|           W    W    AA    RRRRR   N    N  II  N    N   GGGG   !!!           |
|           W    W   A  A   R    R  NN   N  II  NN   N  G    G  !!!           |
|           W    W  A    A  R    R  N N  N  II  N N  N  G       !!!           |
|           W WW W  AAAAAA  RRRRR   N  N N  II  N  N N  G  GGG   !            |
|           WW  WW  A    A  R   R   N   NN  II  N   NN  G    G                |
|           W    W  A    A  R    R  N    N  II  N    N   GGGG   !!!           |
|                                                                             |
|     You use a magnetic or noncollinear calculation, but did not specify     |
|     the initial magnetic moment with the MAGMOM tag. Note that a            |
|     default of 1 will be used for all atoms. This ferromagnetic setup       |
|     may break the symmetry of the crystal, in particular it may rule        |
|     out finding an antiferromagnetic solution. Thence, we recommend         |
|     setting the initial magnetic moment manually or verifying carefully     |
|     that this magnetic setup is desired.                                    |
|                                                                             |
 -----------------------------------------------------------------------------

 POTCAR:    PAW_PBE Cu 22Jun2005                  
   SHA256 =  0e71e558f37a4e8407882b4609ceaae59938afaad9ced71dfe8490308a0ab630 Cu/POTCAR             
   COPYR  = (c) Copyright 22Jun2005 Georg Kresse                                                    
   COPYR  = This file is part of the software VASP. Any use, copying, and all other rights are regul
   COPYR  = If you do not have a valid VASP license, you may not use, copy or distribute this file. 
   VRHFIN =Cu: d10 p1                                                                               
   LEXCH  = PE                                                                                      
   EATOM  =  1390.9808 eV,  102.2342 Ry                                                             
                                                                                                    
   TITEL  = PAW_PBE Cu 22Jun2005                                                                    
   LULTRA =        F    use ultrasoft PP ?                                                          
   IUNSCR =        1    unscreen: 0-lin 1-nonlin 2-no                                               
   RPACOR =    2.000    partial core radius                                                         
   POMASS =   63.546; ZVAL   =   11.000    mass and valenz                                          
   RCORE  =    2.300    outmost cutoff radius                                                       
   RWIGS  =    2.200; RWIGS  =    1.164    wigner-seitz radius (au A)                               
   ENMAX  =  295.446; ENMIN  =  221.585 eV                                                          
   ICORE  =        3    local potential                                                             
   LCOR   =        T    correct aug charges                                                         
   LPAW   =        T    paw PP                                                                      
   EAUG   =  586.980                                                                                
   DEXC   =    0.000                                                                                
   RMAX   =    2.344    core radius for proj-oper                                                   
   RAUG   =    1.300    factor for augmentation sphere                                              
   RDEP   =    2.302    radius for radial grids                                                     
   RDEPT  =    1.771    core radius for aug-charge                                                  
                                                                                                    
   Atomic configuration                                                                             
    9 entries                                                                                       
     n  l   j            E        occ.                                                              
     1  0  0.50     -8850.2468   2.0000                                                             
     2  0  0.50     -1062.3498   2.0000                                                             
     2  1  1.50      -916.8226   6.0000                                                             
     3  0  0.50      -114.6929   2.0000                                                             
     3  1  1.50       -72.1325   6.0000                                                             
     3  2  2.50        -5.0394  10.0000                                                             
     4  0  0.50        -4.6097   1.0000                                                             
     4  1  0.50        -4.0817   0.0000                                                             
     4  3  2.50        -1.3606   0.0000                                                             
   Description                                                                                      
     l       E           TYP  RCUT    TYP  RCUT                                                     
     2     -5.0393973     23  2.200                                                                 
     2     10.8846608     23  2.200                                                                 
     0     -4.6097109     23  2.200                                                                 
     0      8.2520465     23  2.200                                                                 
     1     -2.7211652     23  2.200                                                                 
     1     21.7055443     23  2.200                                                                 
     3      2.7211652     23  2.300                                                                 
  local pseudopotential read in
  partial core-charges read in
  partial kinetic energy density read in
  atomic valenz-charges read in
  non local Contribution for L=            2  read in
    real space projection operators read in
  non local Contribution for L=            2  read in
    real space projection operators read in
  non local Contribution for L=            0  read in
    real space projection operators read in
  non local Contribution for L=            0  read in
    real space projection operators read in
  non local Contribution for L=            1  read in
    real space projection operators read in
  non local Contribution for L=            1  read in
    real space projection operators read in
    PAW grid and wavefunctions read in
 
   number of l-projection  operators is LMAX  =            6
   number of lm-projection operators is LMMAX =           18
 
  PAW_PBE Cu 22Jun2005                  :
 energy of atom  1       EATOM=-1390.9808
 kinetic energy error for atom=    0.0232 (will be added to EATOM!!)
 
 
 POSCAR: Cu
  positions in cartesian coordinates
  No initial velocities read in
 exchange correlation table for  LEXCH =        8
   RHO(1)=    0.500       N(1)  =     2000
   RHO(2)=  100.500       N(2)  =     4000
 


--------------------------------------------------------------------------------------------------------


 ion  position               nearest neighbor table
   1  0.040  0.574  0.171-   5 2.34  11 2.34   2 2.41  10 2.47   7 2.70
   2  0.123  0.607  0.146-  12 2.38   1 2.41   9 2.42   7 2.48  10 2.50   8 2.50   4 2.68
   3  0.103  0.454  0.247-   7 2.35   4 2.39  11 2.51
   4  0.124  0.492  0.155-   7 2.38   3 2.39   6 2.41  10 2.49   5 2.53   9 2.56   2 2.68
   5  0.031  0.474  0.159-   1 2.34  11 2.41   4 2.53  10 2.73
   6  0.163  0.520  0.067-   8 2.33  10 2.40   4 2.41  13 2.41   9 2.64
   7  0.121  0.553  0.237-   3 2.35   4 2.38   2 2.48  11 2.67   1 2.70   9 2.72
   8  0.140  0.613  0.041-   6 2.33   2 2.50  10 2.54  12 2.57
   9  0.201  0.557  0.165-  13 2.41   2 2.42  12 2.44   4 2.56   6 2.64   7 2.72
  10  0.076  0.542  0.079-   6 2.40   1 2.47   4 2.49   2 2.50   8 2.54   5 2.73
  11  0.027  0.518  0.252-   1 2.34   5 2.41   3 2.51   7 2.67
  12  0.200  0.651  0.118-   2 2.38  13 2.40   9 2.44   8 2.57
  13  0.242  0.571  0.074-  12 2.40   9 2.41   6 2.41
 

IMPORTANT INFORMATION: All symmetrisations will be switched off!
NOSYMM: (Re-)initialisation of all symmetry stuff for point group C_1.


----------------------------------------------------------------------------------------

                                     Primitive cell                                     

  volume of cell :   14471.2968

  direct lattice vectors                    reciprocal lattice vectors
    26.669786885  0.000000000  0.000000000     0.037495613  0.000000000  0.000000000
     0.000000000 23.115094234  0.000000000     0.000000000  0.043261775  0.000000000
     0.000000000  0.000000000 23.474277615     0.000000000  0.000000000  0.042599820

  length of vectors
    26.669786885 23.115094234 23.474277615     0.037495613  0.043261775  0.042599820

  position of ions in fractional coordinates (direct lattice)
     0.040247016  0.574021587  0.170901612
     0.122977947  0.606983663  0.145572469
     0.102585272  0.453837293  0.246878519
     0.124007033  0.491579819  0.155384104
     0.030566532  0.474032846  0.159298703
     0.163141783  0.519711081  0.067199874
     0.121016168  0.552737397  0.236721492
     0.140041738  0.613216284  0.040821450
     0.200914316  0.557102515  0.164607619
     0.075915041  0.541735810  0.079316514
     0.026735947  0.517573848  0.252386485
     0.199798169  0.651199775  0.117984084
     0.241804636  0.570852761  0.073907171

  ion indices of the primitive-cell ions
   primitive index   ion index
                 1           1
                 2           2
                 3           3
                 4           4
                 5           5
                 6           6
                 7           7
                 8           8
                 9           9
                10          10
                11          11
                12          12
                13          13

----------------------------------------------------------------------------------------

 
 
 KPOINTS: KPOINTS created by Atomic Simulation Env

Automatic generation of k-mesh.
Space group operators:
 irot       det(A)        alpha          n_x          n_y          n_z        tau_x        tau_y        tau_z
    1     1.000000     0.000000     1.000000     0.000000     0.000000     0.000000     0.000000     0.000000
 
 Subroutine IBZKPT returns following result:
 ===========================================
 
 Found      1 irreducible k-points:
 
 Following reciprocal coordinates:
            Coordinates               Weight
  0.000000  0.000000  0.000000      1.000000
 
 Following cartesian coordinates:
            Coordinates               Weight
  0.000000  0.000000  0.000000      1.000000
 


--------------------------------------------------------------------------------------------------------




 Dimension of arrays:
   k-points           NKPTS =      1   k-points in BZ     NKDIM =      1   number of bands    NBANDS=     92
   number of dos      NEDOS =    301   number of ions     NIONS =     13
   non local maximal  LDIM  =      6   non local SUM 2l+1 LMDIM =     18
   total plane-waves  NPLWV = ******
   max r-space proj   IRMAX =      1   max aug-charges    IRDMAX=   4234
   dimension x,y,z NGX =   140 NGY =  120 NGZ =  120
   dimension x,y,z NGXF=   280 NGYF=  240 NGZF=  240
   support grid    NGXF=   280 NGYF=  240 NGZF=  240
   ions per type =              13
   NGX,Y,Z   is equivalent  to a cutoff of   8.73,  8.63,  8.50 a.u.
   NGXF,Y,Z  is equivalent  to a cutoff of  17.45, 17.26, 17.00 a.u.

 SYSTEM =  unknown system                          
 POSCAR =  Cu                                      

 Startparameter for this run:
   NWRITE =      2    write-flag & timer
   PREC   = normal    normal or accurate (medium, high low for compatibility)
   ISTART =      0    job   : 0-new  1-cont  2-samecut
   ICHARG =      2    charge: 1-file 2-atom 10-const
   ISPIN  =      2    spin polarized calculation?
   LNONCOLLINEAR =      F non collinear calculations
   LSORBIT =      F    spin-orbit coupling
   INIWAV =      1    electr: 0-lowe 1-rand  2-diag
   LASPH  =      F    aspherical Exc in radial PAW
   METAGGA=      F    non-selfconsistent MetaGGA calc.

 Electronic Relaxation 1
   ENCUT  =  400.0 eV  29.40 Ry    5.42 a.u.  43.49 37.69 38.28*2*pi/ulx,y,z
   ENINI  =  400.0     initial cutoff
   ENAUG  =  587.0 eV  augmentation charge cutoff
   NELM   =     60;   NELMIN=  2; NELMDL=  0     # of ELM steps 
   EDIFF  = 0.1E-03   stopping-criterion for ELM
   LREAL  =      F    real-space projection
   NLSPLINE    = F    spline interpolate recip. space projectors
   LCOMPAT=      F    compatible to vasp.4.4
   GGA_COMPAT  = T    GGA compatible to vasp.4.4-vasp.4.6
   LMAXPAW     = -100 max onsite density
   LMAXMIX     =    2 max onsite mixed and CHGCAR
   VOSKOWN=      0    Vosko Wilk Nusair interpolation
   ROPT   =    0.00000
 Ionic relaxation
   EDIFFG = 0.1E-02   stopping-criterion for IOM
   NSW    =   1000    number of steps for IOM
   NBLOCK =      1;   KBLOCK =   1000    inner block; outer block 
   IBRION =      2    ionic relax: 0-MD 1-quasi-New 2-CG
   NFREE  =      1    steps in history (QN), initial steepest desc. (CG)
   ISIF   =      0    stress and relaxation
   IWAVPR =     11    prediction:  0-non 1-charg 2-wave 3-comb
   ISYM   =      0    0-nonsym 1-usesym 2-fastsym
   LCORR  =      T    Harris-Foulkes like correction to forces

   POTIM  = 0.5000    time-step for ionic-motion
   TEIN   =    0.0    initial temperature
   TEBEG  =    0.0;   TEEND  =   0.0 temperature during run
   SMASS  =  -3.00    Nose mass-parameter (am)
   estimated Nose-frequenzy (Omega)   =  0.10E-29 period in steps = 0.13E+47 mass=  -0.163E-25a.u.
   SCALEE = 1.0000    scale energy and forces
   NPACO  =    256;   APACO  = 16.0  distance and # of slots for P.C.
   PSTRESS=    0.0 pullay stress

  Mass of Ions in am
   POMASS =  63.55
  Ionic Valenz
   ZVAL   =  11.00
  Atomic Wigner-Seitz radii
   RWIGS  =  -1.00
  virtual crystal weights 
   VCA    =   1.00
   NELECT =     143.0000    total number of electrons
   NUPDOWN=      -1.0000    fix difference up-down

 DOS related values:
   EMIN   =  10.00;   EMAX   =-10.00  energy-range for DOS
   EFERMI =   0.00
   ISMEAR =     1;   SIGMA  =   0.20  broadening in eV -4-tet -1-fermi 0-gaus

 Electronic relaxation 2 (details)
   IALGO  =     38    algorithm
   LDIAG  =      T    sub-space diagonalisation (order eigenvalues)
   LSUBROT=      F    optimize rotation matrix (better conditioning)
   TURBO    =      0    0=normal 1=particle mesh
   IRESTART =      0    0=no restart 2=restart with 2 vectors
   NREBOOT  =      0    no. of reboots
   NMIN     =      0    reboot dimension
   EREF     =   0.00    reference energy to select bands
   IMIX   =      4    mixing-type and parameters
     AMIX     =   0.40;   BMIX     =  1.00
     AMIX_MAG =   1.60;   BMIX_MAG =  1.00
     AMIN     =   0.10
     WC   =   100.;   INIMIX=   1;  MIXPRE=   1;  MAXMIX= -45

 Intra band minimization:
   WEIMIN = 0.0010     energy-eigenvalue tresh-hold
   EBREAK =  0.27E-06  absolut break condition
   DEPER  =   0.30     relativ break condition  

   TIME   =   0.40     timestep for ELM

  volume/ion in A,a.u.               =    1113.18      7512.09
  Fermi-wavevector in a.u.,A,eV,Ry     =   0.351305  0.663870  1.679166  0.123415
  Thomas-Fermi vector in A             =   1.263852
 
 Write flags
   LWAVE        =      F    write WAVECAR
   LDOWNSAMPLE  =      F    k-point downsampling of WAVECAR
   LCHARG       =      F    write CHGCAR
   LVTOT        =      F    write LOCPOT, total local potential
   LVHAR        =      F    write LOCPOT, Hartree potential only
   LELF         =      F    write electronic localiz. function (ELF)
   LORBIT       =      0    0 simple, 1 ext, 2 COOP (PROOUT), +10 PAW based schemes


 Dipole corrections
   LMONO  =      F    monopole corrections only (constant potential shift)
   LDIPOL =      F    correct potential (dipole corrections)
   IDIPOL =      0    1-x, 2-y, 3-z, 4-all directions 
   EPSILON=  1.0000000 bulk dielectric constant

 Exchange correlation treatment:
   GGA     =    PE    GGA type
   LEXCH   =     8    internal setting for exchange type
   VOSKOWN=      0    Vosko Wilk Nusair interpolation
   LHFCALC =     F    Hartree Fock is set to
   LHFONE  =     F    Hartree Fock one center treatment
   AEXX    =    0.0000 exact exchange contribution

 Linear response parameters
   LEPSILON=     F    determine dielectric tensor
   LRPA    =     F    only Hartree local field effects (RPA)
   LNABLA  =     F    use nabla operator in PAW spheres
   LVEL    =     F    velocity operator in full k-point grid
   LINTERFAST=   F  fast interpolation
   KINTER  =     0    interpolate to denser k-point grid
   CSHIFT  =0.1000    complex shift for real part using Kramers Kronig
   OMEGAMAX=  -1.0    maximum frequency
   DEG_THRESHOLD= 0.2000000E-02 threshold for treating states as degnerate
   RTIME   =   -0.100 relaxation time in fs
  (WPLASMAI=    0.000 imaginary part of plasma frequency in eV, 0.658/RTIME)
   DFIELD  = 0.0000000 0.0000000 0.0000000 field for delta impulse in time
 
 Orbital magnetization related:
   ORBITALMAG=     F  switch on orbital magnetization
   LCHIMAG   =     F  perturbation theory with respect to B field
   DQ        =  0.001000  dq finite difference perturbation B field
   LLRAUG    =     F  two centre corrections for induced B field



--------------------------------------------------------------------------------------------------------


 conjugate gradient relaxation of ions
 charge density and potential will be updated during run
 spin polarized calculation
 Variant of blocked Davidson
 Davidson routine will perform the subspace rotation
 perform sub-space diagonalisation
    after iterative eigenvector-optimisation
 modified Broyden-mixing scheme, WC =      100.0
 initial mixing is a Kerker type mixing with AMIX =  0.4000 and BMIX =      1.0000
 Hartree-type preconditioning will be used
 using additional bands            20
 reciprocal scheme for non local part
 use partial core corrections
 calculate Harris-corrections to forces 
   (improved forces if not selfconsistent)
 use gradient corrections 
 use of overlap-Matrix (Vanderbilt PP)
 Methfessel and Paxton  Order N= 1 SIGMA  =   0.20


--------------------------------------------------------------------------------------------------------


  energy-cutoff  :      400.00
  volume of cell :    14471.30
      direct lattice vectors                 reciprocal lattice vectors
    26.669786885  0.000000000  0.000000000     0.037495613  0.000000000  0.000000000
     0.000000000 23.115094234  0.000000000     0.000000000  0.043261775  0.000000000
     0.000000000  0.000000000 23.474277615     0.000000000  0.000000000  0.042599820

  length of vectors
    26.669786885 23.115094234 23.474277615     0.037495613  0.043261775  0.042599820


 
 k-points in units of 2pi/SCALE and weight: KPOINTS created by Atomic Simulation Env
   0.00000000  0.00000000  0.00000000       1.000
 
 k-points in reciprocal lattice and weights: KPOINTS created by Atomic Simulation Env
   0.00000000  0.00000000  0.00000000       1.000
 
 position of ions in fractional coordinates (direct lattice) 
   0.04024702  0.57402159  0.17090161
   0.12297795  0.60698366  0.14557247
   0.10258527  0.45383729  0.24687852
   0.12400703  0.49157982  0.15538410
   0.03056653  0.47403285  0.15929870
   0.16314178  0.51971108  0.06719987
   0.12101617  0.55273740  0.23672149
   0.14004174  0.61321628  0.04082145
   0.20091432  0.55710252  0.16460762
   0.07591504  0.54173581  0.07931651
   0.02673595  0.51757385  0.25238649
   0.19979817  0.65119978  0.11798408
   0.24180464  0.57085276  0.07390717
 
 position of ions in cartesian coordinates  (Angst):
   1.07337934 13.26856307  4.01179189
   3.27979563 14.03048456  3.41720855
   2.73592733 10.49049179  5.79529489
   3.30724113 11.36291385  3.64752960
   0.81520289 10.95731391  3.73942197
   4.35095660 12.01317061  1.57746849
   3.22747540 12.77657703  5.55686602
   3.73488330 14.17455220  0.95825404
   5.35834199 12.87747714  3.86404495
   2.02463795 12.52227430  1.86189786
   0.71304201 11.96376827  5.92459042
   5.32857459 15.05254416  2.76959114
   6.44887810 13.19531537  1.73491744
 


--------------------------------------------------------------------------------------------------------


 use parallel FFT for orbitals z direction half grid
 k-point   1 :   0.0000 0.0000 0.0000  plane waves:  131435

 maximum and minimum number of plane-waves per node :     16434    16426

 maximum number of plane-waves:    131435
 maximum index in each direction: 
   IXMAX=   43   IYMAX=   37   IZMAX=   38
   IXMIN=  -43   IYMIN=  -37   IZMIN=    0


 parallel 3D FFT for wavefunctions:
    minimum data exchange during FFTs selected (reduces bandwidth)
 parallel 3D FFT for charge:
    minimum data exchange during FFTs selected (reduces bandwidth)


 total amount of memory used by VASP MPI-rank0   196271. kBytes
=======================================================================

   base      :      30000. kBytes
   nonl-proj :       5783. kBytes
   fftplans  :      40308. kBytes
   grid      :      95938. kBytes
   one-center:         31. kBytes
   wavefun   :      24211. kBytes
 
     INWAV:  cpu time    0.0000: real time    0.0000
 Broyden mixing: mesh for mixing (old mesh)
   NGX = 87   NGY = 75   NGZ = 77
  (NGX  =280   NGY  =240   NGZ  =240)
  gives a total of 502425 points

 initial charge density was supplied:
 charge density of overlapping atoms calculated
 number of electron     143.0000000 magnetization      13.0000000
 keeping initial charge density in first step


--------------------------------------------------------------------------------------------------------


 Maximum index for augmentation-charges           285 (set IRDMAX)


--------------------------------------------------------------------------------------------------------


 First call to EWALD:  gamma=   0.073
 Maximum number of real-space cells 3x 3x 3
 Maximum number of reciprocal cells 3x 3x 3

    FEWALD:  cpu time    0.0010: real time    0.0010


--------------------------------------- Iteration      1(   1)  ---------------------------------------


    POTLOK:  cpu time    2.6799: real time    2.6879
    SETDIJ:  cpu time    0.0195: real time    0.0195
     EDDAV:  cpu time   15.8087: real time   15.8545
       DOS:  cpu time    0.0023: real time    0.0023
    --------------------------------------------
      LOOP:  cpu time   18.5104: real time   18.5642

 eigenvalue-minimisations  :   384
 total energy-change (2. order) : 0.9285793E+03  (-0.2445819E+04)
 number of electron     143.0000000 magnetization      13.0000000
 augmentation part      143.0000000 magnetization      13.0000000

 Free energy of the ion-electron system (eV)
  ---------------------------------------------------
  alpha Z        PSCENC =         8.54066088
  Ewald energy   TEWEN  =     24260.28966365
  -Hartree energ DENC   =    -40728.07859822
  -exchange      EXHF   =         0.00000000
  -V(xc)+E(xc)   XCENC  =       583.75888620
  PAW double counting   =     15965.26744864   -17340.97210982
  entropy T*S    EENTRO =         0.04829983
  eigenvalues    EBANDS =        97.27570669
  atomic energy  EATOM  =     18082.44932260
  Solvation  Ediel_sol  =         0.00000000
  ---------------------------------------------------
  free energy    TOTEN  =       928.57928044 eV

  energy without entropy =      928.53098060  energy(sigma->0) =      928.56318049


--------------------------------------------------------------------------------------------------------




--------------------------------------- Iteration      1(   2)  ---------------------------------------


     EDDAV:  cpu time   17.2580: real time   17.3001
       DOS:  cpu time    0.0023: real time    0.0023
    --------------------------------------------
      LOOP:  cpu time   17.2603: real time   17.3024

 eigenvalue-minimisations  :   384
 total energy-change (2. order) :-0.6587966E+03  (-0.5816665E+03)
 number of electron     143.0000000 magnetization      13.0000000
 augmentation part      143.0000000 magnetization      13.0000000

 Free energy of the ion-electron system (eV)
  ---------------------------------------------------
  alpha Z        PSCENC =         8.54066088
  Ewald energy   TEWEN  =     24260.28966365
  -Hartree energ DENC   =    -40728.07859822
  -exchange      EXHF   =         0.00000000
  -V(xc)+E(xc)   XCENC  =       583.75888620
  PAW double counting   =     15965.26744864   -17340.97210982
  entropy T*S    EENTRO =        -0.02862166
  eigenvalues    EBANDS =      -561.44394006
  atomic energy  EATOM  =     18082.44932260
  Solvation  Ediel_sol  =         0.00000000
  ---------------------------------------------------
  free energy    TOTEN  =       269.78271219 eV

  energy without entropy =      269.81133385  energy(sigma->0) =      269.79225275


--------------------------------------------------------------------------------------------------------




--------------------------------------- Iteration      1(   3)  ---------------------------------------


     EDDAV:  cpu time   20.0860: real time   20.1113
       DOS:  cpu time    0.0075: real time    0.0076
    --------------------------------------------
      LOOP:  cpu time   20.0935: real time   20.1188

 eigenvalue-minimisations  :   464
 total energy-change (2. order) :-0.2504267E+03  (-0.2367759E+03)
 number of electron     143.0000000 magnetization      13.0000000
 augmentation part      143.0000000 magnetization      13.0000000

 Free energy of the ion-electron system (eV)
  ---------------------------------------------------
  alpha Z        PSCENC =         8.54066088
  Ewald energy   TEWEN  =     24260.28966365
  -Hartree energ DENC   =    -40728.07859822
  -exchange      EXHF   =         0.00000000
  -V(xc)+E(xc)   XCENC  =       583.75888620
  PAW double counting   =     15965.26744864   -17340.97210982
  entropy T*S    EENTRO =        -0.03025474
  eigenvalues    EBANDS =      -811.86899462
  atomic energy  EATOM  =     18082.44932260
  Solvation  Ediel_sol  =         0.00000000
  ---------------------------------------------------
  free energy    TOTEN  =        19.35602456 eV

  energy without entropy =       19.38627930  energy(sigma->0) =       19.36610947


--------------------------------------------------------------------------------------------------------




--------------------------------------- Iteration      1(   4)  ---------------------------------------


     EDDAV:  cpu time   19.3306: real time   19.3562
       DOS:  cpu time    0.0124: real time    0.0124
    --------------------------------------------
      LOOP:  cpu time   19.3429: real time   19.3685

 eigenvalue-minimisations  :   440
 total energy-change (2. order) :-0.5249423E+02  (-0.4843445E+02)
 number of electron     143.0000000 magnetization      13.0000000
 augmentation part      143.0000000 magnetization      13.0000000

 Free energy of the ion-electron system (eV)
  ---------------------------------------------------
  alpha Z        PSCENC =         8.54066088
  Ewald energy   TEWEN  =     24260.28966365
  -Hartree energ DENC   =    -40728.07859822
  -exchange      EXHF   =         0.00000000
  -V(xc)+E(xc)   XCENC  =       583.75888620
  PAW double counting   =     15965.26744864   -17340.97210982
  entropy T*S    EENTRO =         0.05947140
  eigenvalues    EBANDS =      -864.45294670
  atomic energy  EATOM  =     18082.44932260
  Solvation  Ediel_sol  =         0.00000000
  ---------------------------------------------------
  free energy    TOTEN  =       -33.13820138 eV

  energy without entropy =      -33.19767278  energy(sigma->0) =      -33.15802518


--------------------------------------------------------------------------------------------------------




--------------------------------------- Iteration      1(   5)  ---------------------------------------


     EDDAV:  cpu time   21.2619: real time   21.5818
       DOS:  cpu time    0.0009: real time    0.0009
    CHARGE:  cpu time    1.0091: real time    1.0127
    MIXING:  cpu time    0.0449: real time    0.0453
    --------------------------------------------
      LOOP:  cpu time   22.3167: real time   22.6407

 eigenvalue-minimisations  :   488
 total energy-change (2. order) :-0.2752041E+01  (-0.2721969E+01)
 number of electron     142.9999813 magnetization      11.9866718
 augmentation part       87.8026720 magnetization      12.3240058

 Broyden mixing:
  rms(total) = 0.28105E+01    rms(broyden)= 0.28103E+01
  rms(prec ) = 0.28649E+01
  weight for this iteration     100.00

 Free energy of the ion-electron system (eV)
  ---------------------------------------------------
  alpha Z        PSCENC =         8.54066088
  Ewald energy   TEWEN  =     24260.28966365
  -Hartree energ DENC   =    -40728.07859822
  -exchange      EXHF   =         0.00000000
  -V(xc)+E(xc)   XCENC  =       583.75888620
  PAW double counting   =     15965.26744864   -17340.97210982
  entropy T*S    EENTRO =         0.05075984
  eigenvalues    EBANDS =      -867.19627601
  atomic energy  EATOM  =     18082.44932260
  Solvation  Ediel_sol  =         0.00000000
  ---------------------------------------------------
  free energy    TOTEN  =       -35.89024225 eV

  energy without entropy =      -35.94100209  energy(sigma->0) =      -35.90716220


--------------------------------------------------------------------------------------------------------




--------------------------------------- Iteration      1(   6)  ---------------------------------------


    POTLOK:  cpu time    2.7136: real time    2.7225
    SETDIJ:  cpu time    0.0239: real time    0.0240
     EDDAV:  cpu time   18.3686: real time   18.5324
       DOS:  cpu time    0.0099: real time    0.0100
    CHARGE:  cpu time    1.3959: real time    1.4029
    MIXING:  cpu time    0.0757: real time    0.0758
    --------------------------------------------
      LOOP:  cpu time   22.5876: real time   22.7676

 eigenvalue-minimisations  :   400
 total energy-change (2. order) : 0.2274668E+02  (-0.1334744E+02)
 number of electron     142.9999797 magnetization      11.4050184
 augmentation part       94.8062190 magnetization       7.5801597

 Broyden mixing:
  rms(total) = 0.11775E+01    rms(broyden)= 0.11772E+01
  rms(prec ) = 0.12320E+01
  weight for this iteration     100.00

 eigenvalues of (default mixing * dielectric matrix)
  average eigenvalue GAMMA=   0.8210
  0.8210

 Free energy of the ion-electron system (eV)
  ---------------------------------------------------
  alpha Z        PSCENC =         8.54066088
  Ewald energy   TEWEN  =     24260.28966365
  -Hartree energ DENC   =    -40525.51890649
  -exchange      EXHF   =         0.00000000
  -V(xc)+E(xc)   XCENC  =       587.00303123
  PAW double counting   =     16110.94757547   -17444.01324695
  entropy T*S    EENTRO =         0.01022010
  eigenvalues    EBANDS =     -1092.85188504
  atomic energy  EATOM  =     18082.44932260
  Solvation  Ediel_sol  =         0.00000000
  ---------------------------------------------------
  free energy    TOTEN  =       -13.14356456 eV

  energy without entropy =      -13.15378466  energy(sigma->0) =      -13.14697126


--------------------------------------------------------------------------------------------------------




--------------------------------------- Iteration      1(   7)  ---------------------------------------


    POTLOK:  cpu time    3.2217: real time    3.2585
    SETDIJ:  cpu time    0.0366: real time    0.0372
     EDDAV:  cpu time   19.1724: real time   19.2987
       DOS:  cpu time    0.0015: real time    0.0015
    CHARGE:  cpu time    1.1904: real time    1.1987
    MIXING:  cpu time    0.0687: real time    0.0688
    --------------------------------------------
      LOOP:  cpu time   23.6913: real time   23.8634

 eigenvalue-minimisations  :   448
 total energy-change (2. order) : 0.3444194E+01  (-0.2986508E+01)
 number of electron     142.9999804 magnetization      10.6223791
 augmentation part       92.0685515 magnetization       7.0941148

 Broyden mixing:
  rms(total) = 0.50693E+00    rms(broyden)= 0.50685E+00
  rms(prec ) = 0.52502E+00
  weight for this iteration     100.00

 eigenvalues of (default mixing * dielectric matrix)
  average eigenvalue GAMMA=   0.8642
  1.0772  0.6513

 Free energy of the ion-electron system (eV)
  ---------------------------------------------------
  alpha Z        PSCENC =         8.54066088
  Ewald energy   TEWEN  =     24260.28966365
  -Hartree energ DENC   =    -40677.79907893
  -exchange      EXHF   =         0.00000000
  -V(xc)+E(xc)   XCENC  =       593.35902743
  PAW double counting   =     16405.65021089   -17789.66183979
  entropy T*S    EENTRO =        -0.01292940
  eigenvalues    EBANDS =      -892.51440771
  atomic energy  EATOM  =     18082.44932260
  Solvation  Ediel_sol  =         0.00000000
  ---------------------------------------------------
  free energy    TOTEN  =        -9.69937039 eV

  energy without entropy =       -9.68644099  energy(sigma->0) =       -9.69506059


--------------------------------------------------------------------------------------------------------




--------------------------------------- Iteration      1(   8)  ---------------------------------------


    POTLOK:  cpu time    3.1594: real time    3.1695
    SETDIJ:  cpu time    0.0229: real time    0.0229
     EDDAV:  cpu time   21.4452: real time   21.7518
       DOS:  cpu time    0.0012: real time    0.0012
    CHARGE:  cpu time    1.4460: real time    1.4496
    MIXING:  cpu time    0.0754: real time    0.0756
    --------------------------------------------
      LOOP:  cpu time   26.1501: real time   26.4706

 eigenvalue-minimisations  :   448
 total energy-change (2. order) : 0.7471251E+00  (-0.6417261E+00)
 number of electron     142.9999804 magnetization      10.1228020
 augmentation part       91.5788284 magnetization       6.1495462

 Broyden mixing:
  rms(total) = 0.46998E+00    rms(broyden)= 0.46988E+00
  rms(prec ) = 0.48785E+00
  weight for this iteration     100.00

 eigenvalues of (default mixing * dielectric matrix)
  average eigenvalue GAMMA=   0.7791
  1.1840  0.6589  0.4944

 Free energy of the ion-electron system (eV)
  ---------------------------------------------------
  alpha Z        PSCENC =         8.54066088
  Ewald energy   TEWEN  =     24260.28966365
  -Hartree energ DENC   =    -40711.96401985
  -exchange      EXHF   =         0.00000000
  -V(xc)+E(xc)   XCENC  =       594.03276598
  PAW double counting   =     16603.46349903   -17998.06496301
  entropy T*S    EENTRO =         0.01554552
  eigenvalues    EBANDS =      -847.71472005
  atomic energy  EATOM  =     18082.44932260
  Solvation  Ediel_sol  =         0.00000000
  ---------------------------------------------------
  free energy    TOTEN  =        -8.95224525 eV

  energy without entropy =       -8.96779078  energy(sigma->0) =       -8.95742709


--------------------------------------------------------------------------------------------------------




--------------------------------------- Iteration      1(   9)  ---------------------------------------


    POTLOK:  cpu time    3.1406: real time    3.1528
    SETDIJ:  cpu time    0.0233: real time    0.0233
     EDDAV:  cpu time   19.9839: real time   20.5116
       DOS:  cpu time    0.0078: real time    0.0079
    CHARGE:  cpu time    1.1105: real time    1.1159
    MIXING:  cpu time    0.0693: real time    0.0693
    --------------------------------------------
      LOOP:  cpu time   24.3353: real time   24.8808

 eigenvalue-minimisations  :   472
 total energy-change (2. order) :-0.1658069E+01  (-0.1431568E+00)
 number of electron     142.9999805 magnetization       9.1131517
 augmentation part       91.6108033 magnetization       5.5769596

 Broyden mixing:
  rms(total) = 0.29527E+00    rms(broyden)= 0.29521E+00
  rms(prec ) = 0.30164E+00
  weight for this iteration     100.00

 eigenvalues of (default mixing * dielectric matrix)
  average eigenvalue GAMMA=   0.9186
  1.2289  1.2289  0.7729  0.4435

 Free energy of the ion-electron system (eV)
  ---------------------------------------------------
  alpha Z        PSCENC =         8.54066088
  Ewald energy   TEWEN  =     24260.28966365
  -Hartree energ DENC   =    -40716.46947195
  -exchange      EXHF   =         0.00000000
  -V(xc)+E(xc)   XCENC  =       592.11262631
  PAW double counting   =     16675.94812729   -18071.47760057
  entropy T*S    EENTRO =        -0.01884803
  eigenvalues    EBANDS =      -841.98479479
  atomic energy  EATOM  =     18082.44932260
  Solvation  Ediel_sol  =         0.00000000
  ---------------------------------------------------
  free energy    TOTEN  =       -10.61031463 eV

  energy without entropy =      -10.59146660  energy(sigma->0) =      -10.60403196


--------------------------------------------------------------------------------------------------------




--------------------------------------- Iteration      1(  10)  ---------------------------------------


    POTLOK:  cpu time    2.7061: real time    2.7129
    SETDIJ:  cpu time    0.0408: real time    0.0408
     EDDAV:  cpu time   22.9438: real time   22.9889
       DOS:  cpu time    0.0017: real time    0.0017
    CHARGE:  cpu time    1.4452: real time    1.4469
    MIXING:  cpu time    0.1194: real time    0.1195
    --------------------------------------------
      LOOP:  cpu time   27.2569: real time   27.3107

 eigenvalue-minimisations  :   536
 total energy-change (2. order) :-0.4185428E+01  (-0.2388865E+00)
 number of electron     142.9999805 magnetization       8.4040890
 augmentation part       91.9760553 magnetization       5.9103360

 Broyden mixing:
  rms(total) = 0.25464E+00    rms(broyden)= 0.25450E+00
  rms(prec ) = 0.26147E+00
  weight for this iteration     100.00

 eigenvalues of (default mixing * dielectric matrix)
  average eigenvalue GAMMA=   0.9499
  1.6120  1.4354  0.7046  0.4987  0.4987

 Free energy of the ion-electron system (eV)
  ---------------------------------------------------
  alpha Z        PSCENC =         8.54066088
  Ewald energy   TEWEN  =     24260.28966365
  -Hartree energ DENC   =    -40713.64920536
  -exchange      EXHF   =         0.00000000
  -V(xc)+E(xc)   XCENC  =       588.12886708
  PAW double counting   =     16730.81353839   -18122.94808915
  entropy T*S    EENTRO =        -0.03323397
  eigenvalues    EBANDS =      -848.38726630
  atomic energy  EATOM  =     18082.44932260
  Solvation  Ediel_sol  =         0.00000000
  ---------------------------------------------------
  free energy    TOTEN  =       -14.79574219 eV

  energy without entropy =      -14.76250821  energy(sigma->0) =      -14.78466420


--------------------------------------------------------------------------------------------------------




--------------------------------------- Iteration      1(  11)  ---------------------------------------


    POTLOK:  cpu time    3.5181: real time    3.5349
    SETDIJ:  cpu time    0.0438: real time    0.0438
     EDDAV:  cpu time   19.5344: real time   19.5607
       DOS:  cpu time    0.0009: real time    0.0009
    CHARGE:  cpu time    1.4794: real time    1.4812
    MIXING:  cpu time    0.1200: real time    0.1202
    --------------------------------------------
      LOOP:  cpu time   24.6965: real time   24.7417

 eigenvalue-minimisations  :   472
 total energy-change (2. order) :-0.2142357E+01  (-0.9239646E-01)
 number of electron     142.9999805 magnetization       7.4127239
 augmentation part       92.0402996 magnetization       5.3769747

 Broyden mixing:
  rms(total) = 0.20850E+00    rms(broyden)= 0.20845E+00
  rms(prec ) = 0.21343E+00
  weight for this iteration     100.00

 eigenvalues of (default mixing * dielectric matrix)
  average eigenvalue GAMMA=   1.0018
  2.0773  1.3319  0.8162  0.8162  0.4980  0.4714

 Free energy of the ion-electron system (eV)
  ---------------------------------------------------
  alpha Z        PSCENC =         8.54066088
  Ewald energy   TEWEN  =     24260.28966365
  -Hartree energ DENC   =    -40720.82611504
  -exchange      EXHF   =         0.00000000
  -V(xc)+E(xc)   XCENC  =       586.52997441
  PAW double counting   =     16759.76806086   -18152.25062947
  entropy T*S    EENTRO =        -0.00273102
  eigenvalues    EBANDS =      -841.43630634
  atomic energy  EATOM  =     18082.44932260
  Solvation  Ediel_sol  =         0.00000000
  ---------------------------------------------------
  free energy    TOTEN  =       -16.93809948 eV

  energy without entropy =      -16.93536846  energy(sigma->0) =      -16.93718914


--------------------------------------------------------------------------------------------------------




--------------------------------------- Iteration      1(  12)  ---------------------------------------


    POTLOK:  cpu time    3.4452: real time    3.4615
    SETDIJ:  cpu time    0.0271: real time    0.0272
     EDDAV:  cpu time   22.6191: real time   22.7229
       DOS:  cpu time    0.0010: real time    0.0010
    CHARGE:  cpu time    1.3316: real time    1.3426
    MIXING:  cpu time    0.1152: real time    0.1154
    --------------------------------------------
      LOOP:  cpu time   27.5392: real time   27.6706

 eigenvalue-minimisations  :   568
 total energy-change (2. order) :-0.3084284E+01  (-0.1468103E+00)
 number of electron     142.9999806 magnetization       5.7730900
 augmentation part       91.8390786 magnetization       4.0903297

 Broyden mixing:
  rms(total) = 0.15493E+00    rms(broyden)= 0.15491E+00
  rms(prec ) = 0.15741E+00
  weight for this iteration     100.00

 eigenvalues of (default mixing * dielectric matrix)
  average eigenvalue GAMMA=   1.2260
  2.9862  2.3121  0.8276  0.8276  0.6487  0.4897  0.4897

 Free energy of the ion-electron system (eV)
  ---------------------------------------------------
  alpha Z        PSCENC =         8.54066088
  Ewald energy   TEWEN  =     24260.28966365
  -Hartree energ DENC   =    -40737.31708920
  -exchange      EXHF   =         0.00000000
  -V(xc)+E(xc)   XCENC  =       584.69081488
  PAW double counting   =     16771.42960791   -18166.49340573
  entropy T*S    EENTRO =         0.03083616
  eigenvalues    EBANDS =      -823.64279480
  atomic energy  EATOM  =     18082.44932260
  Solvation  Ediel_sol  =         0.00000000
  ---------------------------------------------------
  free energy    TOTEN  =       -20.02238364 eV

  energy without entropy =      -20.05321980  energy(sigma->0) =      -20.03266236


--------------------------------------------------------------------------------------------------------




--------------------------------------- Iteration      1(  13)  ---------------------------------------


    POTLOK:  cpu time    3.3970: real time    3.4034
    SETDIJ:  cpu time    0.0393: real time    0.0394
     EDDAV:  cpu time   16.4757: real time   16.5908
       DOS:  cpu time    0.0011: real time    0.0011
    CHARGE:  cpu time    1.1386: real time    1.1409
    MIXING:  cpu time    0.0908: real time    0.0910
    --------------------------------------------
      LOOP:  cpu time   21.1425: real time   21.2667

 eigenvalue-minimisations  :   456
 total energy-change (2. order) :-0.4874712E+01  (-0.2930919E+00)
 number of electron     142.9999806 magnetization       5.6256565
 augmentation part       91.8345382 magnetization       4.3035759

 Broyden mixing:
  rms(total) = 0.12455E+00    rms(broyden)= 0.12454E+00
  rms(prec ) = 0.12776E+00
  weight for this iteration     100.00

 eigenvalues of (default mixing * dielectric matrix)
  average eigenvalue GAMMA=   1.1735
  2.5750  2.5750  0.9827  0.9827  0.6601  0.6601  0.4761  0.4761

 Free energy of the ion-electron system (eV)
  ---------------------------------------------------
  alpha Z        PSCENC =         8.54066088
  Ewald energy   TEWEN  =     24260.28966365
  -Hartree energ DENC   =    -40738.60319632
  -exchange      EXHF   =         0.00000000
  -V(xc)+E(xc)   XCENC  =       581.00383170
  PAW double counting   =     16722.37002921   -18115.47625539
  entropy T*S    EENTRO =         0.03283386
  eigenvalues    EBANDS =      -825.50398587
  atomic energy  EATOM  =     18082.44932260
  Solvation  Ediel_sol  =         0.00000000
  ---------------------------------------------------
  free energy    TOTEN  =       -24.89709568 eV

  energy without entropy =      -24.92992954  energy(sigma->0) =      -24.90804030


--------------------------------------------------------------------------------------------------------




--------------------------------------- Iteration      1(  14)  ---------------------------------------


    POTLOK:  cpu time    2.9226: real time    2.9350
    SETDIJ:  cpu time    0.0234: real time    0.0235
     EDDAV:  cpu time   20.2843: real time   21.4713
       DOS:  cpu time    0.0012: real time    0.0012
    CHARGE:  cpu time    1.3900: real time    1.4005
    MIXING:  cpu time    0.1224: real time    0.1230
    --------------------------------------------
      LOOP:  cpu time   24.7438: real time   25.9545

 eigenvalue-minimisations  :   488
 total energy-change (2. order) :-0.1414595E+01  (-0.3879771E-01)
 number of electron     142.9999806 magnetization       5.1191878
 augmentation part       91.8917264 magnetization       3.8743160

 Broyden mixing:
  rms(total) = 0.97597E-01    rms(broyden)= 0.97588E-01
  rms(prec ) = 0.99911E-01
  weight for this iteration     100.00

 eigenvalues of (default mixing * dielectric matrix)
  average eigenvalue GAMMA=   1.2382
  2.9985  2.9985  1.1139  1.1139  0.6828  0.6828  0.6189  0.4671  0.4671

 Free energy of the ion-electron system (eV)
  ---------------------------------------------------
  alpha Z        PSCENC =         8.54066088
  Ewald energy   TEWEN  =     24260.28966365
  -Hartree energ DENC   =    -40729.94635697
  -exchange      EXHF   =         0.00000000
  -V(xc)+E(xc)   XCENC  =       579.66464884
  PAW double counting   =     16707.90983212   -18099.56973977
  entropy T*S    EENTRO =         0.03260276
  eigenvalues    EBANDS =      -835.68232449
  atomic energy  EATOM  =     18082.44932260
  Solvation  Ediel_sol  =         0.00000000
  ---------------------------------------------------
  free energy    TOTEN  =       -26.31169038 eV

  energy without entropy =      -26.34429314  energy(sigma->0) =      -26.32255797


--------------------------------------------------------------------------------------------------------




--------------------------------------- Iteration      1(  15)  ---------------------------------------


    POTLOK:  cpu time    5.1003: real time    5.1221
    SETDIJ:  cpu time    0.0272: real time    0.0273
     EDDAV:  cpu time   22.9897: real time   23.2718
       DOS:  cpu time    0.0010: real time    0.0010
    CHARGE:  cpu time    1.2677: real time    1.2707
    MIXING:  cpu time    0.0882: real time    0.0883
    --------------------------------------------
      LOOP:  cpu time   29.4741: real time   29.7811

 eigenvalue-minimisations  :   524
 total energy-change (2. order) :-0.1918987E+01  (-0.4490890E-01)
 number of electron     142.9999806 magnetization       3.9709607
 augmentation part       91.9665904 magnetization       2.8611125

 Broyden mixing:
  rms(total) = 0.87409E-01    rms(broyden)= 0.87403E-01
  rms(prec ) = 0.89265E-01
  weight for this iteration     100.00

 eigenvalues of (default mixing * dielectric matrix)
  average eigenvalue GAMMA=   1.3284
  3.5500  3.5500  1.3369  0.9964  0.9964  0.7275  0.5948  0.5948  0.4689  0.4689

 Free energy of the ion-electron system (eV)
  ---------------------------------------------------
  alpha Z        PSCENC =         8.54066088
  Ewald energy   TEWEN  =     24260.28966365
  -Hartree energ DENC   =    -40717.43212739
  -exchange      EXHF   =         0.00000000
  -V(xc)+E(xc)   XCENC  =       577.86918621
  PAW double counting   =     16666.96200047   -18057.53168321
  entropy T*S    EENTRO =         0.03231978
  eigenvalues    EBANDS =      -849.41002010
  atomic energy  EATOM  =     18082.44932260
  Solvation  Ediel_sol  =         0.00000000
  ---------------------------------------------------
  free energy    TOTEN  =       -28.23067711 eV

  energy without entropy =      -28.26299689  energy(sigma->0) =      -28.24145037


--------------------------------------------------------------------------------------------------------




--------------------------------------- Iteration      1(  16)  ---------------------------------------


    POTLOK:  cpu time    2.8202: real time    2.8557
    SETDIJ:  cpu time    0.0173: real time    0.0173
     EDDAV:  cpu time   22.1604: real time   22.5125
       DOS:  cpu time    0.0089: real time    0.0088
    CHARGE:  cpu time    1.3944: real time    1.4011
    MIXING:  cpu time    0.1066: real time    0.1069
    --------------------------------------------
      LOOP:  cpu time   26.5078: real time   26.9024

 eigenvalue-minimisations  :   520
 total energy-change (2. order) :-0.1830336E+01  (-0.4736307E-01)
 number of electron     142.9999806 magnetization       3.1431920
 augmentation part       91.9157598 magnetization       2.2575868

 Broyden mixing:
  rms(total) = 0.63676E-01    rms(broyden)= 0.63664E-01
  rms(prec ) = 0.64622E-01
  weight for this iteration     100.00

 eigenvalues of (default mixing * dielectric matrix)
  average eigenvalue GAMMA=   1.4018
  4.9313  2.4851  2.4851  1.0014  1.0014  0.7124  0.7124  0.6761  0.4716  0.4716
  0.4716

 Free energy of the ion-electron system (eV)
  ---------------------------------------------------
  alpha Z        PSCENC =         8.54066088
  Ewald energy   TEWEN  =     24260.28966365
  -Hartree energ DENC   =    -40709.81304267
  -exchange      EXHF   =         0.00000000
  -V(xc)+E(xc)   XCENC  =       576.29629511
  PAW double counting   =     16635.84106561   -18027.79500431
  entropy T*S    EENTRO =         0.01935026
  eigenvalues    EBANDS =      -855.88932427
  atomic energy  EATOM  =     18082.44932260
  Solvation  Ediel_sol  =         0.00000000
  ---------------------------------------------------
  free energy    TOTEN  =       -30.06101314 eV

  energy without entropy =      -30.08036341  energy(sigma->0) =      -30.06746323


--------------------------------------------------------------------------------------------------------




--------------------------------------- Iteration      1(  17)  ---------------------------------------


    POTLOK:  cpu time    2.8797: real time    2.8961
    SETDIJ:  cpu time    0.0273: real time    0.0273
     EDDAV:  cpu time   23.8130: real time   23.9319
       DOS:  cpu time    0.0102: real time    0.0102
    CHARGE:  cpu time    1.2504: real time    1.2566
    MIXING:  cpu time    0.1670: real time    0.1713
    --------------------------------------------
      LOOP:  cpu time   28.1475: real time   28.2934

 eigenvalue-minimisations  :   528
 total energy-change (2. order) :-0.4940897E+00  (-0.1017243E-01)
 number of electron     142.9999806 magnetization       2.4698091
 augmentation part       91.8667076 magnetization       1.7361069

 Broyden mixing:
  rms(total) = 0.42184E-01    rms(broyden)= 0.42166E-01
  rms(prec ) = 0.43725E-01
  weight for this iteration     100.00

 eigenvalues of (default mixing * dielectric matrix)
  average eigenvalue GAMMA=   1.4602
  6.3031  2.4230  2.4230  1.0489  1.0489  0.7787  0.7787  0.6856  0.5872  0.4659
  0.4659  0.5128

 Free energy of the ion-electron system (eV)
  ---------------------------------------------------
  alpha Z        PSCENC =         8.54066088
  Ewald energy   TEWEN  =     24260.28966365
  -Hartree energ DENC   =    -40708.74784195
  -exchange      EXHF   =         0.00000000
  -V(xc)+E(xc)   XCENC  =       575.86541565
  PAW double counting   =     16643.10851240   -18036.56639424
  entropy T*S    EENTRO =         0.00578666
  eigenvalues    EBANDS =      -855.50022852
  atomic energy  EATOM  =     18082.44932260
  Solvation  Ediel_sol  =         0.00000000
  ---------------------------------------------------
  free energy    TOTEN  =       -30.55510288 eV

  energy without entropy =      -30.56088954  energy(sigma->0) =      -30.55703176


--------------------------------------------------------------------------------------------------------




--------------------------------------- Iteration      1(  18)  ---------------------------------------


    POTLOK:  cpu time    3.1170: real time    3.1442
    SETDIJ:  cpu time    0.0248: real time    0.0249
     EDDAV:  cpu time   18.7128: real time   18.7884
       DOS:  cpu time    0.0107: real time    0.0107
    CHARGE:  cpu time    1.3634: real time    1.3663
    MIXING:  cpu time    0.1320: real time    0.1323
    --------------------------------------------
      LOOP:  cpu time   23.3607: real time   23.4668

 eigenvalue-minimisations  :   520
 total energy-change (2. order) :-0.4058461E+00  (-0.4622538E-02)
 number of electron     142.9999806 magnetization       1.8095320
 augmentation part       91.9028489 magnetization       1.2391385

 Broyden mixing:
  rms(total) = 0.32547E-01    rms(broyden)= 0.32515E-01
  rms(prec ) = 0.34103E-01
  weight for this iteration     100.00

 eigenvalues of (default mixing * dielectric matrix)
  average eigenvalue GAMMA=   1.5278
  7.2838  2.5829  2.5829  1.0077  1.0077  0.9961  0.9961  0.7349  0.6635  0.6061
  0.4690  0.4690  0.4622

 Free energy of the ion-electron system (eV)
  ---------------------------------------------------
  alpha Z        PSCENC =         8.54066088
  Ewald energy   TEWEN  =     24260.28966365
  -Hartree energ DENC   =    -40704.17377032
  -exchange      EXHF   =         0.00000000
  -V(xc)+E(xc)   XCENC  =       575.36416221
  PAW double counting   =     16644.13777897   -18037.43872338
  entropy T*S    EENTRO =        -0.00794797
  eigenvalues    EBANDS =      -860.12209566
  atomic energy  EATOM  =     18082.44932260
  Solvation  Ediel_sol  =         0.00000000
  ---------------------------------------------------
  free energy    TOTEN  =       -30.96094902 eV

  energy without entropy =      -30.95300105  energy(sigma->0) =      -30.95829970


--------------------------------------------------------------------------------------------------------




--------------------------------------- Iteration      1(  19)  ---------------------------------------


    POTLOK:  cpu time    3.3312: real time    3.3640
    SETDIJ:  cpu time    0.0358: real time    0.0359
     EDDAV:  cpu time   20.8255: real time   20.9067
       DOS:  cpu time    0.0067: real time    0.0067
    CHARGE:  cpu time    1.0733: real time    1.0749
    MIXING:  cpu time    0.1262: real time    0.1264
    --------------------------------------------
      LOOP:  cpu time   25.3987: real time   25.5146

 eigenvalue-minimisations  :   504
 total energy-change (2. order) :-0.4061327E+00  (-0.2658576E-02)
 number of electron     142.9999806 magnetization       1.3298749
 augmentation part       91.9189801 magnetization       0.9210333

 Broyden mixing:
  rms(total) = 0.22182E-01    rms(broyden)= 0.22128E-01
  rms(prec ) = 0.23564E-01
  weight for this iteration     100.00

 eigenvalues of (default mixing * dielectric matrix)
  average eigenvalue GAMMA=   1.6377
  8.6288  2.8588  2.8588  1.5716  1.0312  1.0312  0.8124  0.8124  0.7046  0.7046
  0.4709  0.4709  0.5070  0.4644

 Free energy of the ion-electron system (eV)
  ---------------------------------------------------
  alpha Z        PSCENC =         8.54066088
  Ewald energy   TEWEN  =     24260.28966365
  -Hartree energ DENC   =    -40699.44557084
  -exchange      EXHF   =         0.00000000
  -V(xc)+E(xc)   XCENC  =       574.88892316
  PAW double counting   =     16648.33719974   -18041.65025767
  entropy T*S    EENTRO =        -0.01987665
  eigenvalues    EBANDS =      -864.75714662
  atomic energy  EATOM  =     18082.44932260
  Solvation  Ediel_sol  =         0.00000000
  ---------------------------------------------------
  free energy    TOTEN  =       -31.36708176 eV

  energy without entropy =      -31.34720511  energy(sigma->0) =      -31.36045621


--------------------------------------------------------------------------------------------------------




--------------------------------------- Iteration      1(  20)  ---------------------------------------


    POTLOK:  cpu time    3.2241: real time    3.2677
    SETDIJ:  cpu time    0.0251: real time    0.0251
     EDDAV:  cpu time   23.7908: real time   23.8999
       DOS:  cpu time    0.0076: real time    0.0076
    CHARGE:  cpu time    1.1583: real time    1.1641
    MIXING:  cpu time    0.1832: real time    0.1836
    --------------------------------------------
      LOOP:  cpu time   28.3891: real time   28.5480

 eigenvalue-minimisations  :   520
 total energy-change (2. order) :-0.2868978E+00  (-0.1155398E-02)
 number of electron     142.9999806 magnetization       0.9041913
 augmentation part       91.9123682 magnetization       0.6061583

 Broyden mixing:
  rms(total) = 0.13969E-01    rms(broyden)= 0.13915E-01
  rms(prec ) = 0.15047E-01
  weight for this iteration     100.00

 eigenvalues of (default mixing * dielectric matrix)
  average eigenvalue GAMMA=   1.7514
 10.3026  3.0682  3.0682  1.9010  1.0411  1.0411  0.8944  0.8944  0.7789  0.7789
  0.6321  0.4713  0.4713  0.4639  0.4639

 Free energy of the ion-electron system (eV)
  ---------------------------------------------------
  alpha Z        PSCENC =         8.54066088
  Ewald energy   TEWEN  =     24260.28966365
  -Hartree energ DENC   =    -40696.33119048
  -exchange      EXHF   =         0.00000000
  -V(xc)+E(xc)   XCENC  =       574.58701417
  PAW double counting   =     16652.58284452   -18045.90695478
  entropy T*S    EENTRO =        -0.02605593
  eigenvalues    EBANDS =      -867.83928418
  atomic energy  EATOM  =     18082.44932260
  Solvation  Ediel_sol  =         0.00000000
  ---------------------------------------------------
  free energy    TOTEN  =       -31.65397955 eV

  energy without entropy =      -31.62792362  energy(sigma->0) =      -31.64529424


--------------------------------------------------------------------------------------------------------




--------------------------------------- Iteration      1(  21)  ---------------------------------------


    POTLOK:  cpu time    3.3084: real time    3.3323
    SETDIJ:  cpu time    0.0353: real time    0.0354
     EDDAV:  cpu time   20.4605: real time   20.6185
       DOS:  cpu time    0.0009: real time    0.0009
    CHARGE:  cpu time    1.0443: real time    1.0580
    MIXING:  cpu time    0.1359: real time    0.1362
    --------------------------------------------
      LOOP:  cpu time   24.9854: real time   25.1813

 eigenvalue-minimisations  :   504
 total energy-change (2. order) :-0.1941984E+00  (-0.9342630E-03)
 number of electron     142.9999806 magnetization       0.6750433
 augmentation part       91.9068193 magnetization       0.4865805

 Broyden mixing:
  rms(total) = 0.10858E-01    rms(broyden)= 0.10804E-01
  rms(prec ) = 0.11669E-01
  weight for this iteration     100.00

 eigenvalues of (default mixing * dielectric matrix)
  average eigenvalue GAMMA=   1.7800
 11.2943  3.2325  3.2325  2.1297  1.0379  1.0379  1.1552  0.8078  0.8078  0.6751
  0.6532  0.5592  0.4712  0.4712  0.4575  0.4575

 Free energy of the ion-electron system (eV)
  ---------------------------------------------------
  alpha Z        PSCENC =         8.54066088
  Ewald energy   TEWEN  =     24260.28966365
  -Hartree energ DENC   =    -40693.57225165
  -exchange      EXHF   =         0.00000000
  -V(xc)+E(xc)   XCENC  =       574.39933518
  PAW double counting   =     16650.55948531   -18043.67405741
  entropy T*S    EENTRO =        -0.02972763
  eigenvalues    EBANDS =      -870.81060882
  atomic energy  EATOM  =     18082.44932260
  Solvation  Ediel_sol  =         0.00000000
  ---------------------------------------------------
  free energy    TOTEN  =       -31.84817791 eV

  energy without entropy =      -31.81845027  energy(sigma->0) =      -31.83826870


--------------------------------------------------------------------------------------------------------




--------------------------------------- Iteration      1(  22)  ---------------------------------------


    POTLOK:  cpu time    2.7671: real time    2.7995
    SETDIJ:  cpu time    0.0240: real time    0.0241
     EDDAV:  cpu time   19.6294: real time   19.7708
       DOS:  cpu time    0.0011: real time    0.0011
    CHARGE:  cpu time    1.3390: real time    1.3575
    MIXING:  cpu time    0.2026: real time    0.2031
    --------------------------------------------
      LOOP:  cpu time   23.9633: real time   24.1561

 eigenvalue-minimisations  :   528
 total energy-change (2. order) :-0.1013558E+00  (-0.2783193E-03)
 number of electron     142.9999806 magnetization       0.4853313
 augmentation part       91.9035278 magnetization       0.3535094

 Broyden mixing:
  rms(total) = 0.74838E-02    rms(broyden)= 0.74515E-02
  rms(prec ) = 0.81777E-02
  weight for this iteration     100.00

 eigenvalues of (default mixing * dielectric matrix)
  average eigenvalue GAMMA=   1.8014
 12.0072  3.3313  3.3313  2.2557  1.3464  1.0335  1.0335  0.8779  0.8779  0.7189
  0.7189  0.6599  0.5686  0.4727  0.4727  0.4584  0.4584

 Free energy of the ion-electron system (eV)
  ---------------------------------------------------
  alpha Z        PSCENC =         8.54066088
  Ewald energy   TEWEN  =     24260.28966365
  -Hartree energ DENC   =    -40691.99491905
  -exchange      EXHF   =         0.00000000
  -V(xc)+E(xc)   XCENC  =       574.29635482
  PAW double counting   =     16651.30004079   -18044.32272612
  entropy T*S    EENTRO =        -0.03126186
  eigenvalues    EBANDS =      -872.47666945
  atomic energy  EATOM  =     18082.44932260
  Solvation  Ediel_sol  =         0.00000000
  ---------------------------------------------------
  free energy    TOTEN  =       -31.94953374 eV

  energy without entropy =      -31.91827188  energy(sigma->0) =      -31.93911312


--------------------------------------------------------------------------------------------------------




--------------------------------------- Iteration      1(  23)  ---------------------------------------


    POTLOK:  cpu time    3.2368: real time    3.2680
    SETDIJ:  cpu time    0.0205: real time    0.0205
     EDDAV:  cpu time   21.0170: real time   21.1140
       DOS:  cpu time    0.0031: real time    0.0031
    CHARGE:  cpu time    1.0479: real time    1.0538
    MIXING:  cpu time    0.1527: real time    0.1529
    --------------------------------------------
      LOOP:  cpu time   25.4779: real time   25.6123

 eigenvalue-minimisations  :   484
 total energy-change (2. order) :-0.6704565E-01  (-0.1557641E-03)
 number of electron     142.9999806 magnetization       0.3527995
 augmentation part       91.9057491 magnetization       0.2626891

 Broyden mixing:
  rms(total) = 0.49856E-02    rms(broyden)= 0.49607E-02
  rms(prec ) = 0.55672E-02
  weight for this iteration     100.00

 eigenvalues of (default mixing * dielectric matrix)
  average eigenvalue GAMMA=   1.8388
 12.6923  3.4419  3.4419  2.4949  1.8809  1.0379  1.0379  0.9279  0.9279  0.7783
  0.7783  0.6849  0.6289  0.4732  0.4732  0.4597  0.4597  0.4794

 Free energy of the ion-electron system (eV)
  ---------------------------------------------------
  alpha Z        PSCENC =         8.54066088
  Ewald energy   TEWEN  =     24260.28966365
  -Hartree energ DENC   =    -40690.61344179
  -exchange      EXHF   =         0.00000000
  -V(xc)+E(xc)   XCENC  =       574.21758359
  PAW double counting   =     16652.02766836   -18044.97363397
  entropy T*S    EENTRO =        -0.03204844
  eigenvalues    EBANDS =      -873.92235427
  atomic energy  EATOM  =     18082.44932260
  Solvation  Ediel_sol  =         0.00000000
  ---------------------------------------------------
  free energy    TOTEN  =       -32.01657939 eV

  energy without entropy =      -31.98453095  energy(sigma->0) =      -32.00589658


--------------------------------------------------------------------------------------------------------




--------------------------------------- Iteration      1(  24)  ---------------------------------------


    POTLOK:  cpu time    2.7474: real time    2.7634
    SETDIJ:  cpu time    0.0171: real time    0.0259
     EDDAV:  cpu time   14.5464: real time   14.6505
       DOS:  cpu time    0.0009: real time    0.0009
    CHARGE:  cpu time    1.0803: real time    1.0862
    MIXING:  cpu time    0.1680: real time    0.1683
    --------------------------------------------
      LOOP:  cpu time   18.5601: real time   18.6952

 eigenvalue-minimisations  :   388
 total energy-change (2. order) :-0.3892547E-01  (-0.8629773E-04)
 number of electron     142.9999806 magnetization       0.2461465
 augmentation part       91.9118795 magnetization       0.1847504

 Broyden mixing:
  rms(total) = 0.37019E-02    rms(broyden)= 0.36872E-02
  rms(prec ) = 0.41011E-02
  weight for this iteration     100.00

 eigenvalues of (default mixing * dielectric matrix)
  average eigenvalue GAMMA=   1.8457
 13.0647  3.5661  3.5661  2.4202  2.4202  1.0354  1.0354  1.0067  1.0067  0.8745
  0.7696  0.7696  0.6111  0.6111  0.4741  0.4741  0.4572  0.4572  0.4487

 Free energy of the ion-electron system (eV)
  ---------------------------------------------------
  alpha Z        PSCENC =         8.54066088
  Ewald energy   TEWEN  =     24260.28966365
  -Hartree energ DENC   =    -40689.26749904
  -exchange      EXHF   =         0.00000000
  -V(xc)+E(xc)   XCENC  =       574.16774842
  PAW double counting   =     16650.77909877   -18043.64556664
  entropy T*S    EENTRO =        -0.03241980
  eigenvalues    EBANDS =      -875.33651371
  atomic energy  EATOM  =     18082.44932260
  Solvation  Ediel_sol  =         0.00000000
  ---------------------------------------------------
  free energy    TOTEN  =       -32.05550487 eV

  energy without entropy =      -32.02308507  energy(sigma->0) =      -32.04469827


--------------------------------------------------------------------------------------------------------




--------------------------------------- Iteration      1(  25)  ---------------------------------------


    POTLOK:  cpu time    2.9040: real time    2.9126
    SETDIJ:  cpu time    0.0205: real time    0.0205
     EDDAV:  cpu time   15.0668: real time   15.1271
       DOS:  cpu time    0.0030: real time    0.0030
    CHARGE:  cpu time    1.4260: real time    1.4288
    MIXING:  cpu time    0.2518: real time    0.2525
    --------------------------------------------
      LOOP:  cpu time   19.6719: real time   19.7445

 eigenvalue-minimisations  :   316
 total energy-change (2. order) :-0.3006035E-01  (-0.4396957E-04)
 number of electron     142.9999806 magnetization       0.1725004
 augmentation part       91.9094655 magnetization       0.1313055

 Broyden mixing:
  rms(total) = 0.27167E-02    rms(broyden)= 0.27068E-02
  rms(prec ) = 0.29881E-02
  weight for this iteration     100.00

 eigenvalues of (default mixing * dielectric matrix)
  average eigenvalue GAMMA=   1.8598
 13.3364  3.7247  3.7247  2.5984  2.5984  1.5060  1.0326  1.0326  0.8729  0.8729
  0.8473  0.8131  0.6812  0.6812  0.5765  0.4730  0.4730  0.4580  0.4580  0.4360

 Free energy of the ion-electron system (eV)
  ---------------------------------------------------
  alpha Z        PSCENC =         8.54066088
  Ewald energy   TEWEN  =     24260.28966365
  -Hartree energ DENC   =    -40688.46191635
  -exchange      EXHF   =         0.00000000
  -V(xc)+E(xc)   XCENC  =       574.14107673
  PAW double counting   =     16650.65094033   -18043.58816164
  entropy T*S    EENTRO =        -0.03251490
  eigenvalues    EBANDS =      -876.07463653
  atomic energy  EATOM  =     18082.44932260
  Solvation  Ediel_sol  =         0.00000000
  ---------------------------------------------------
  free energy    TOTEN  =       -32.08556522 eV

  energy without entropy =      -32.05305032  energy(sigma->0) =      -32.07472692


--------------------------------------------------------------------------------------------------------




--------------------------------------- Iteration      1(  26)  ---------------------------------------


    POTLOK:  cpu time    3.4840: real time    3.5025
    SETDIJ:  cpu time    0.4053: real time    0.4055
     EDDAV:  cpu time   14.6813: real time   15.3120
       DOS:  cpu time    0.0053: real time    0.0053
    CHARGE:  cpu time    1.0668: real time    1.0688
    MIXING:  cpu time    0.1926: real time    0.1929
    --------------------------------------------
      LOOP:  cpu time   19.8351: real time   20.4870

 eigenvalue-minimisations  :   280
 total energy-change (2. order) :-0.1683224E-01  (-0.2459237E-04)
 number of electron     142.9999806 magnetization       0.1246231
 augmentation part       91.9077221 magnetization       0.0967613

 Broyden mixing:
  rms(total) = 0.23841E-02    rms(broyden)= 0.23792E-02
  rms(prec ) = 0.25651E-02
  weight for this iteration     100.00

 eigenvalues of (default mixing * dielectric matrix)
  average eigenvalue GAMMA=   1.8417
 13.5535  3.8692  3.8692  2.7446  2.7446  1.6176  1.0341  1.0341  0.9982  0.8868
  0.8868  0.7298  0.7298  0.6772  0.5979  0.4725  0.4725  0.4577  0.4577  0.4500
  0.3929

 Free energy of the ion-electron system (eV)
  ---------------------------------------------------
  alpha Z        PSCENC =         8.54066088
  Ewald energy   TEWEN  =     24260.28966365
  -Hartree energ DENC   =    -40687.78523278
  -exchange      EXHF   =         0.00000000
  -V(xc)+E(xc)   XCENC  =       574.12418877
  PAW double counting   =     16650.60883422   -18043.59206233
  entropy T*S    EENTRO =        -0.03255988
  eigenvalues    EBANDS =      -876.70521260
  atomic energy  EATOM  =     18082.44932260
  Solvation  Ediel_sol  =         0.00000000
  ---------------------------------------------------
  free energy    TOTEN  =       -32.10239747 eV

  energy without entropy =      -32.06983759  energy(sigma->0) =      -32.09154417


--------------------------------------------------------------------------------------------------------




--------------------------------------- Iteration      1(  27)  ---------------------------------------


    POTLOK:  cpu time    2.6739: real time    2.7178
    SETDIJ:  cpu time    0.0252: real time    0.0253
     EDDAV:  cpu time   15.5922: real time   15.8473
       DOS:  cpu time    0.0041: real time    0.0041
    CHARGE:  cpu time    1.1401: real time    1.1621
    MIXING:  cpu time    0.2027: real time    0.2070
    --------------------------------------------
      LOOP:  cpu time   19.6382: real time   19.9635

 eigenvalue-minimisations  :   280
 total energy-change (2. order) :-0.7406111E-02  (-0.1458858E-04)
 number of electron     142.9999806 magnetization       0.0764687
 augmentation part       91.9082952 magnetization       0.0570938

 Broyden mixing:
  rms(total) = 0.15292E-02    rms(broyden)= 0.15261E-02
  rms(prec ) = 0.16409E-02
  weight for this iteration     100.00

 eigenvalues of (default mixing * dielectric matrix)
  average eigenvalue GAMMA=   1.8613
 13.7636  4.9508  3.2716  2.9596  2.9596  1.7796  1.0331  1.0331  1.1090  0.9300
  0.9300  0.7798  0.7798  0.7369  0.6673  0.5799  0.4735  0.4735  0.4579  0.4579
  0.4468  0.3750

 Free energy of the ion-electron system (eV)
  ---------------------------------------------------
  alpha Z        PSCENC =         8.54066088
  Ewald energy   TEWEN  =     24260.28966365
  -Hartree energ DENC   =    -40687.24657214
  -exchange      EXHF   =         0.00000000
  -V(xc)+E(xc)   XCENC  =       574.11353206
  PAW double counting   =     16650.49768663   -18043.48337905
  entropy T*S    EENTRO =        -0.03258029
  eigenvalues    EBANDS =      -877.23813789
  atomic energy  EATOM  =     18082.44932260
  Solvation  Ediel_sol  =         0.00000000
  ---------------------------------------------------
  free energy    TOTEN  =       -32.10980358 eV

  energy without entropy =      -32.07722328  energy(sigma->0) =      -32.09894348


--------------------------------------------------------------------------------------------------------




--------------------------------------- Iteration      1(  28)  ---------------------------------------


    POTLOK:  cpu time    2.7354: real time    2.7589
    SETDIJ:  cpu time    0.0258: real time    0.0258
     EDDAV:  cpu time   14.1868: real time   14.2710
       DOS:  cpu time    0.0021: real time    0.0022
    CHARGE:  cpu time    1.4418: real time    1.4485
    MIXING:  cpu time    0.2938: real time    0.2984
    --------------------------------------------
      LOOP:  cpu time   18.6857: real time   18.8048

 eigenvalue-minimisations  :   272
 total energy-change (2. order) :-0.6501121E-02  (-0.1319089E-04)
 number of electron     142.9999806 magnetization       0.0585708
 augmentation part       91.9100512 magnetization       0.0455284

 Broyden mixing:
  rms(total) = 0.13616E-02    rms(broyden)= 0.13596E-02
  rms(prec ) = 0.14198E-02
  weight for this iteration     100.00

 eigenvalues of (default mixing * dielectric matrix)
  average eigenvalue GAMMA=   1.8955
 13.9208  5.7847  3.4172  3.0567  3.0567  2.0397  1.4218  1.0327  1.0327  0.9402
  0.9402  0.9406  0.7490  0.7490  0.6413  0.6413  0.5874  0.4733  0.4733  0.4565
  0.4565  0.4407  0.3440

 Free energy of the ion-electron system (eV)
  ---------------------------------------------------
  alpha Z        PSCENC =         8.54066088
  Ewald energy   TEWEN  =     24260.28966365
  -Hartree energ DENC   =    -40686.64304933
  -exchange      EXHF   =         0.00000000
  -V(xc)+E(xc)   XCENC  =       574.10120937
  PAW double counting   =     16650.81697580   -18043.79302943
  entropy T*S    EENTRO =        -0.03260570
  eigenvalues    EBANDS =      -877.84545252
  atomic energy  EATOM  =     18082.44932260
  Solvation  Ediel_sol  =         0.00000000
  ---------------------------------------------------
  free energy    TOTEN  =       -32.11630470 eV

  energy without entropy =      -32.08369900  energy(sigma->0) =      -32.10543613


--------------------------------------------------------------------------------------------------------




--------------------------------------- Iteration      1(  29)  ---------------------------------------


    POTLOK:  cpu time    3.3558: real time    3.7044
    SETDIJ:  cpu time    0.0287: real time    0.0287
     EDDAV:  cpu time   12.3437: real time   12.3929
       DOS:  cpu time    0.0010: real time    0.0010
    CHARGE:  cpu time    1.5395: real time    1.8011
    MIXING:  cpu time    0.2420: real time    0.2423
    --------------------------------------------
      LOOP:  cpu time   17.5107: real time   18.1703

 eigenvalue-minimisations  :   272
 total energy-change (2. order) :-0.2135691E-02  (-0.6526542E-05)
 number of electron     142.9999806 magnetization       0.0450288
 augmentation part       91.9099818 magnetization       0.0336681

 Broyden mixing:
  rms(total) = 0.97944E-03    rms(broyden)= 0.97895E-03
  rms(prec ) = 0.10293E-02
  weight for this iteration     100.00

 eigenvalues of (default mixing * dielectric matrix)
  average eigenvalue GAMMA=   1.9028
 14.0865  6.5823  3.6876  3.0936  3.0936  2.1529  1.5055  1.0322  1.0322  0.9778
  0.9411  0.9411  0.7638  0.7638  0.6643  0.6643  0.5887  0.4730  0.4730  0.4609
  0.4609  0.4682  0.4257  0.3347

 Free energy of the ion-electron system (eV)
  ---------------------------------------------------
  alpha Z        PSCENC =         8.54066088
  Ewald energy   TEWEN  =     24260.28966365
  -Hartree energ DENC   =    -40686.43063647
  -exchange      EXHF   =         0.00000000
  -V(xc)+E(xc)   XCENC  =       574.09808200
  PAW double counting   =     16650.93941108   -18043.91408228
  entropy T*S    EENTRO =        -0.03261614
  eigenvalues    EBANDS =      -878.05824570
  atomic energy  EATOM  =     18082.44932260
  Solvation  Ediel_sol  =         0.00000000
  ---------------------------------------------------
  free energy    TOTEN  =       -32.11844039 eV

  energy without entropy =      -32.08582425  energy(sigma->0) =      -32.10756834


--------------------------------------------------------------------------------------------------------




--------------------------------------- Iteration      1(  30)  ---------------------------------------


    POTLOK:  cpu time    2.7109: real time    2.7176
    SETDIJ:  cpu time    0.0239: real time    0.0239
     EDDAV:  cpu time   10.7123: real time   10.7368
       DOS:  cpu time    0.0039: real time    0.0039
    CHARGE:  cpu time    1.1163: real time    1.1177
    MIXING:  cpu time    0.2685: real time    0.2687
    --------------------------------------------
      LOOP:  cpu time   14.8358: real time   14.8688

 eigenvalue-minimisations  :   256
 total energy-change (2. order) :-0.1290614E-02  (-0.3352897E-05)
 number of electron     142.9999806 magnetization       0.0316141
 augmentation part       91.9096590 magnetization       0.0219364

 Broyden mixing:
  rms(total) = 0.69662E-03    rms(broyden)= 0.69631E-03
  rms(prec ) = 0.73232E-03
  weight for this iteration     100.00

 eigenvalues of (default mixing * dielectric matrix)
  average eigenvalue GAMMA=   1.9110
 14.2276  7.3521  3.7188  3.1262  3.1262  2.3141  1.5843  1.0327  1.0327  1.0556
  1.0556  0.9069  0.9069  0.7377  0.7377  0.6772  0.6403  0.5823  0.4733  0.4733
  0.4566  0.4566  0.4398  0.3546  0.3050

 Free energy of the ion-electron system (eV)
  ---------------------------------------------------
  alpha Z        PSCENC =         8.54066088
  Ewald energy   TEWEN  =     24260.28966365
  -Hartree energ DENC   =    -40686.34244696
  -exchange      EXHF   =         0.00000000
  -V(xc)+E(xc)   XCENC  =       574.09694765
  PAW double counting   =     16651.07893769   -18044.05780870
  entropy T*S    EENTRO =        -0.03262098
  eigenvalues    EBANDS =      -878.14238682
  atomic energy  EATOM  =     18082.44932260
  Solvation  Ediel_sol  =         0.00000000
  ---------------------------------------------------
  free energy    TOTEN  =       -32.11973100 eV

  energy without entropy =      -32.08711002  energy(sigma->0) =      -32.10885734


--------------------------------------------------------------------------------------------------------




--------------------------------------- Iteration      1(  31)  ---------------------------------------


    POTLOK:  cpu time    2.7543: real time    2.7573
    SETDIJ:  cpu time    0.0248: real time    0.0248
     EDDAV:  cpu time   12.7306: real time   12.7527
       DOS:  cpu time    0.0095: real time    0.0095
[...]
     26      -6.3629      1.00000
     27      -6.3262      1.00000
     28      -6.2672      1.00000
     29      -6.2467      1.00000
     30      -6.1753      1.00000
     31      -6.1194      1.00000
     32      -6.0470      1.00000
     33      -6.0065      1.00000
     34      -5.9967      1.00000
     35      -5.9657      1.00000
     36      -5.8929      1.00000
     37      -5.8657      1.00000
     38      -5.8559      1.00000
     39      -5.8046      1.00000
     40      -5.7948      1.00000
     41      -5.7558      1.00000
     42      -5.7314      1.00000
     43      -5.6915      1.00000
     44      -5.6798      1.00000
     45      -5.6511      1.00000
     46      -5.6364      1.00000
     47      -5.6106      1.00000
     48      -5.5921      1.00000
     49      -5.5665      1.00000
     50      -5.5280      1.00000
     51      -5.5154      1.00000
     52      -5.5050      1.00000
     53      -5.4873      1.00000
     54      -5.4745      1.00000
     55      -5.4364      1.00000
     56      -5.4040      1.00000
     57      -5.3513      1.00000
     58      -5.3394      1.00000
     59      -5.3161      1.00000
     60      -5.2998      1.00000
     61      -5.2790      1.00000
     62      -5.2537      1.00000
     63      -5.2340      1.00000
     64      -5.2076      1.00000
     65      -5.2048      1.00000
     66      -5.1598      1.00000
     67      -5.1532      1.00000
     68      -5.1415      1.00000
     69      -4.9581      1.00000
     70      -4.7950      1.00000
     71      -4.6478      1.00000
     72      -3.8831      0.50083
     73      -3.3684     -0.00083
     74      -2.9542     -0.00000
     75      -2.8294     -0.00000
     76      -2.6221     -0.00000
     77      -2.3645     -0.00000
     78      -2.0550     -0.00000
     79      -1.9970     -0.00000
     80      -1.5138     -0.00000
     81      -1.2230     -0.00000
     82      -0.9363     -0.00000
     83      -0.8400     -0.00000
     84      -0.6564     -0.00000
     85      -0.4349     -0.00000
     86      -0.3096     -0.00000
     87      -0.1413     -0.00000
     88       0.0791     -0.00000
     89       0.2147     -0.00000
     90       0.2516     -0.00000
     91       0.2923     -0.00000
     92       0.3140     -0.00000

 spin component 2

 k-point     1 :       0.0000    0.0000    0.0000
  band No.  band energies     occupation 
      1     -10.3996      1.00000
      2      -9.2320      1.00000
      3      -8.2764      1.00000
      4      -8.0261      1.00000
      5      -7.9112      1.00000
      6      -7.7608      1.00000
      7      -7.5556      1.00000
      8      -7.3706      1.00000
      9      -7.2888      1.00000
     10      -7.2642      1.00000
     11      -7.2091      1.00000
     12      -7.1607      1.00000
     13      -7.1140      1.00000
     14      -7.0456      1.00000
     15      -6.9899      1.00000
     16      -6.9392      1.00000
     17      -6.8813      1.00000
     18      -6.8182      1.00000
     19      -6.7450      1.00000
     20      -6.6907      1.00000
     21      -6.6450      1.00000
     22      -6.6203      1.00000
     23      -6.6109      1.00000
     24      -6.4820      1.00000
     25      -6.4330      1.00000
     26      -6.3629      1.00000
     27      -6.3262      1.00000
     28      -6.2672      1.00000
     29      -6.2467      1.00000
     30      -6.1753      1.00000
     31      -6.1194      1.00000
     32      -6.0470      1.00000
     33      -6.0065      1.00000
     34      -5.9967      1.00000
     35      -5.9657      1.00000
     36      -5.8929      1.00000
     37      -5.8657      1.00000
     38      -5.8559      1.00000
     39      -5.8046      1.00000
     40      -5.7948      1.00000
     41      -5.7558      1.00000
     42      -5.7314      1.00000
     43      -5.6915      1.00000
     44      -5.6798      1.00000
     45      -5.6511      1.00000
     46      -5.6364      1.00000
     47      -5.6106      1.00000
     48      -5.5921      1.00000
     49      -5.5665      1.00000
     50      -5.5280      1.00000
     51      -5.5154      1.00000
     52      -5.5050      1.00000
     53      -5.4873      1.00000
     54      -5.4745      1.00000
     55      -5.4364      1.00000
     56      -5.4040      1.00000
     57      -5.3513      1.00000
     58      -5.3394      1.00000
     59      -5.3161      1.00000
     60      -5.2998      1.00000
     61      -5.2790      1.00000
     62      -5.2537      1.00000
     63      -5.2340      1.00000
     64      -5.2076      1.00000
     65      -5.2048      1.00000
     66      -5.1598      1.00000
     67      -5.1532      1.00000
     68      -5.1415      1.00000
     69      -4.9581      1.00000
     70      -4.7950      1.00000
     71      -4.6478      1.00000
     72      -3.8831      0.50083
     73      -3.3684     -0.00083
     74      -2.9542     -0.00000
     75      -2.8294     -0.00000
     76      -2.6221     -0.00000
     77      -2.3645     -0.00000
     78      -2.0550     -0.00000
     79      -1.9970     -0.00000
     80      -1.5138     -0.00000
     81      -1.2230     -0.00000
     82      -0.9363     -0.00000
     83      -0.8400     -0.00000
     84      -0.6564     -0.00000
     85      -0.4349     -0.00000
     86      -0.3096     -0.00000
     87      -0.1413     -0.00000
     88       0.0791     -0.00000
     89       0.2147     -0.00000
     90       0.2517     -0.00000
     91       0.2923     -0.00000
     92       0.3140     -0.00000


--------------------------------------------------------------------------------------------------------


 soft charge-density along one line, spin component            1
         0         1         2         3         4         5         6         7         8         9
 total charge-density along one line
 
 soft charge-density along one line, spin component            2
         0         1         2         3         4         5         6         7         8         9
 total charge-density along one line
 
 pseudopotential strength for first ion, spin component:            1
-10.721   0.009   0.000   0.010  -0.000   1.166  -0.007  -0.001
  0.009 -10.718   0.002   0.003   0.000  -0.007   1.165  -0.001
  0.000   0.002 -10.718   0.007  -0.003  -0.001  -0.001   1.166
  0.010   0.003   0.007 -10.718   0.002  -0.007  -0.001  -0.005
 -0.000   0.000  -0.003   0.002 -10.722   0.000  -0.000   0.002
  1.166  -0.007  -0.001  -0.007   0.000   6.194   0.005   0.002
 -0.007   1.165  -0.001  -0.001  -0.000   0.005   6.194   0.001
 -0.001  -0.001   1.166  -0.005   0.002   0.002   0.001   6.193
 -0.007  -0.001  -0.005   1.165  -0.002   0.005  -0.001   0.004
  0.000  -0.000   0.002  -0.002   1.167  -0.000   0.001  -0.001
  0.002  -0.001   0.001  -0.002  -0.001  -0.003  -0.000  -0.002
  0.003  -0.002   0.001  -0.004  -0.001  -0.006  -0.001  -0.003
 -0.014  -0.004  -0.010  -0.000  -0.018   0.010   0.003   0.007
 -0.000   0.017  -0.005  -0.014   0.001   0.000  -0.012   0.003
  0.018  -0.000   0.008  -0.003  -0.014  -0.012   0.000  -0.006
 -0.015  -0.005  -0.012  -0.000  -0.019   0.010   0.004   0.007
 -0.000   0.019  -0.005  -0.015   0.001   0.000  -0.012   0.004
  0.020  -0.000   0.009  -0.004  -0.015  -0.012   0.000  -0.006
 pseudopotential strength for first ion, spin component:            2
-10.721   0.009   0.000   0.010  -0.000   1.166  -0.007  -0.001
  0.009 -10.718   0.002   0.003   0.000  -0.007   1.165  -0.001
  0.000   0.002 -10.718   0.007  -0.003  -0.001  -0.001   1.166
  0.010   0.003   0.007 -10.718   0.002  -0.007  -0.001  -0.005
 -0.000   0.000  -0.003   0.002 -10.722   0.000  -0.000   0.002
  1.166  -0.007  -0.001  -0.007   0.000   6.194   0.005   0.002
 -0.007   1.165  -0.001  -0.001  -0.000   0.005   6.194   0.001
 -0.001  -0.001   1.166  -0.005   0.002   0.002   0.001   6.193
 -0.007  -0.001  -0.005   1.165  -0.002   0.005  -0.001   0.004
  0.000  -0.000   0.002  -0.002   1.167  -0.000   0.001  -0.001
  0.002  -0.001   0.001  -0.002  -0.001  -0.003  -0.000  -0.002
  0.003  -0.002   0.001  -0.004  -0.001  -0.006  -0.001  -0.003
 -0.014  -0.004  -0.010  -0.000  -0.018   0.010   0.003   0.007
 -0.000   0.017  -0.005  -0.014   0.001   0.000  -0.012   0.003
  0.018  -0.000   0.008  -0.003  -0.014  -0.012   0.000  -0.006
 -0.015  -0.005  -0.012  -0.000  -0.019   0.010   0.004   0.007
 -0.000   0.019  -0.005  -0.015   0.001   0.000  -0.012   0.004
  0.020  -0.000   0.009  -0.004  -0.015  -0.012   0.000  -0.006
 total augmentation occupancy for first ion, spin component:            1
  1.948   0.006   0.007   0.008  -0.001  -0.016  -0.004  -0.001  -0.007   0.000  -0.009  -0.004   0.047  -0.004  -0.032  -0.023
  0.006   1.946  -0.002  -0.005   0.008  -0.004  -0.017  -0.000  -0.003  -0.002  -0.014   0.004  -0.005  -0.056  -0.006  -0.003
  0.007  -0.002   1.943   0.004  -0.002  -0.001  -0.000  -0.014  -0.005   0.002  -0.004  -0.003   0.016   0.002  -0.027  -0.013
  0.008  -0.005   0.004   1.946  -0.002  -0.007  -0.003  -0.005  -0.014   0.002  -0.003   0.004  -0.004   0.049   0.015  -0.000
 -0.001   0.008  -0.002  -0.002   1.952   0.000  -0.002   0.002   0.002  -0.013   0.005   0.000   0.054   0.010   0.051  -0.026
 -0.016  -0.004  -0.001  -0.007   0.000   0.008  -0.000   0.001  -0.001   0.001  -0.006   0.004   0.016  -0.001  -0.009  -0.001
 -0.004  -0.017  -0.000  -0.003  -0.002  -0.000   0.010  -0.001  -0.003   0.001  -0.015   0.002   0.003  -0.024   0.000  -0.000
 -0.001  -0.000  -0.014  -0.005   0.002   0.001  -0.001   0.007  -0.000  -0.000  -0.003   0.002   0.005   0.004  -0.010  -0.000
 -0.007  -0.003  -0.005  -0.014   0.002  -0.001  -0.003  -0.000   0.008  -0.000  -0.012   0.001  -0.001   0.020  -0.001   0.000
  0.000  -0.002   0.002   0.002  -0.013   0.001   0.001  -0.000  -0.000   0.012  -0.003  -0.000   0.023  -0.002   0.020  -0.001
 -0.009  -0.014  -0.004  -0.003   0.005  -0.006  -0.015  -0.003  -0.012  -0.003   1.661  -0.110  -0.189   0.022   0.194   0.024
 -0.004   0.004  -0.003   0.004   0.000   0.004   0.002   0.002   0.001  -0.000  -0.110   0.012   0.021  -0.002  -0.024  -0.002
  0.047  -0.005   0.016  -0.004   0.054   0.016   0.003   0.005  -0.001   0.023  -0.189   0.021   0.112  -0.013   0.005  -0.009
 -0.004  -0.056   0.002   0.049   0.010  -0.001  -0.024   0.004   0.020  -0.002   0.022  -0.002  -0.013   0.118  -0.014   0.001
 -0.032  -0.006  -0.027   0.015   0.051  -0.009   0.000  -0.010  -0.001   0.020   0.194  -0.024   0.005  -0.014   0.107   0.002
 -0.023  -0.003  -0.013  -0.000  -0.026  -0.001  -0.000  -0.000   0.000  -0.001   0.024  -0.002  -0.009   0.001   0.002   0.001
 -0.000   0.026  -0.004  -0.024  -0.000   0.000   0.001  -0.000  -0.001   0.000  -0.003   0.000   0.001  -0.007   0.001  -0.000
  0.022  -0.000   0.013  -0.003  -0.024   0.001   0.000   0.001   0.000  -0.001  -0.026   0.002   0.002   0.001  -0.009  -0.000
 total augmentation occupancy for first ion, spin component:            2
 -0.000  -0.000   0.000   0.000   0.000  -0.000   0.000  -0.000   0.000  -0.000  -0.000   0.000  -0.000  -0.000   0.000  -0.000
 -0.000   0.000  -0.000  -0.000  -0.000   0.000  -0.000   0.000   0.000   0.000   0.000   0.000   0.000   0.000   0.000   0.000
  0.000  -0.000   0.000   0.000   0.000  -0.000   0.000   0.000  -0.000  -0.000   0.000  -0.000  -0.000  -0.000  -0.000   0.000
  0.000  -0.000   0.000  -0.000   0.000   0.000   0.000  -0.000  -0.000  -0.000   0.000  -0.000  -0.000  -0.000   0.000  -0.000
  0.000  -0.000   0.000   0.000   0.000   0.000   0.000  -0.000  -0.000  -0.000   0.000  -0.000  -0.000  -0.000  -0.000   0.000
 -0.000   0.000  -0.000   0.000   0.000  -0.000  -0.000   0.000   0.000   0.000  -0.000  -0.000  -0.000   0.000   0.000  -0.000
  0.000  -0.000   0.000   0.000   0.000  -0.000   0.000  -0.000  -0.000  -0.000   0.000  -0.000  -0.000  -0.000  -0.000  -0.000
 -0.000   0.000   0.000  -0.000  -0.000   0.000  -0.000   0.000   0.000   0.000   0.000  -0.000   0.000   0.000   0.000  -0.000
  0.000   0.000  -0.000  -0.000  -0.000   0.000  -0.000   0.000  -0.000   0.000   0.000   0.000   0.000   0.000   0.000   0.000
 -0.000   0.000  -0.000  -0.000  -0.000   0.000  -0.000   0.000   0.000   0.000   0.000   0.000   0.000   0.000  -0.000   0.000
 -0.000   0.000   0.000   0.000   0.000  -0.000   0.000   0.000   0.000   0.000  -0.000   0.000   0.000   0.000  -0.000  -0.000
  0.000   0.000  -0.000  -0.000  -0.000  -0.000  -0.000  -0.000   0.000   0.000   0.000  -0.000  -0.000   0.000   0.000   0.000
 -0.000   0.000  -0.000  -0.000  -0.000  -0.000  -0.000   0.000   0.000   0.000   0.000  -0.000   0.000   0.000   0.000   0.000
 -0.000   0.000  -0.000  -0.000  -0.000   0.000  -0.000   0.000   0.000   0.000   0.000   0.000   0.000   0.000   0.000   0.000
  0.000   0.000  -0.000   0.000  -0.000   0.000  -0.000   0.000   0.000  -0.000  -0.000   0.000   0.000   0.000  -0.000  -0.000
 -0.000   0.000   0.000  -0.000   0.000  -0.000  -0.000  -0.000   0.000   0.000  -0.000   0.000   0.000   0.000  -0.000   0.000
 -0.000   0.000   0.000   0.000   0.000  -0.000  -0.000  -0.000  -0.000   0.000   0.000  -0.000  -0.000  -0.000   0.000  -0.000
 -0.000  -0.000   0.000   0.000   0.000  -0.000  -0.000  -0.000  -0.000  -0.000   0.000  -0.000  -0.000  -0.000   0.000   0.000


------------------------ aborting loop because EDIFF is reached ----------------------------------------


    CHARGE:  cpu time    1.2855: real time    1.2871
    FORLOC:  cpu time    0.0883: real time    0.0884
    FORNL :  cpu time    3.5712: real time    3.5910
    FORCOR:  cpu time    2.5846: real time    2.6040
    FORHAR:  cpu time    0.3527: real time    0.3533
    MIXING:  cpu time    0.0501: real time    0.0502
    OFIELD:  cpu time    0.0000: real time    0.0000

 VOLUME and BASIS-vectors are now :
 -----------------------------------------------------------------------------
  energy-cutoff  :      400.00
  volume of cell :    14471.30
      direct lattice vectors                 reciprocal lattice vectors
    26.669786885  0.000000000  0.000000000     0.037495613  0.000000000  0.000000000
     0.000000000 23.115094234  0.000000000     0.000000000  0.043261775  0.000000000
     0.000000000  0.000000000 23.474277615     0.000000000  0.000000000  0.042599820

  length of vectors
    26.669786885 23.115094234 23.474277615     0.037495613  0.043261775  0.042599820


 FORCES acting on ions
    electron-ion (+dipol)            ewald-force                    non-local-force                 convergence-correction
 -----------------------------------------------------------------------------------------------
   0.115E+04 -.749E+03 -.109E+03   -.114E+04 0.743E+03 0.109E+03   -.612E+01 0.640E+01 -.746E+00   0.326E-01 -.552E-01 0.379E-01
   0.193E+03 -.119E+04 -.237E+03   -.192E+03 0.119E+04 0.237E+03   -.130E+01 0.391E+01 -.182E-02   -.165E-01 -.473E-01 -.314E-01
   -.132E+03 0.104E+04 -.855E+03   0.128E+03 -.103E+04 0.849E+03   0.330E+01 -.765E+01 0.618E+01   0.150E-01 0.184E-01 0.471E-01
   -.452E+03 0.117E+04 0.154E+03   0.449E+03 -.117E+04 -.153E+03   0.314E+01 -.552E+01 -.108E+01   -.157E-02 0.102E+00 0.525E-01
   0.997E+03 0.891E+03 0.240E+03   -.993E+03 -.887E+03 -.240E+03   -.404E+01 -.375E+01 -.152E+00   0.472E-01 -.412E-01 0.188E-02
   -.458E+03 0.561E+03 0.102E+04   0.457E+03 -.560E+03 -.101E+04   0.114E+01 -.490E+00 -.279E+01   -.199E-01 0.847E-01 -.272E-01
   -.223E+03 -.324E+03 -.106E+04   0.224E+03 0.324E+03 0.106E+04   -.159E+01 -.374E+00 0.228E+01   0.442E-01 -.576E-02 -.263E-01
   0.300E+03 -.709E+03 0.115E+04   -.296E+03 0.704E+03 -.114E+04   -.427E+01 0.499E+01 -.853E+01   0.253E-01 0.195E-01 -.119E+00
   -.971E+03 -.672E+02 -.775E+03   0.966E+03 0.672E+02 0.771E+03   0.475E+01 0.836E-01 0.353E+01   0.297E-01 -.344E-01 0.224E-01
   0.776E+03 0.228E+03 0.961E+03   -.773E+03 -.228E+03 -.957E+03   -.270E+01 0.870E-01 -.361E+01   -.998E-01 0.782E-01 -.406E-01
   0.856E+03 0.327E+02 -.105E+04   -.850E+03 -.328E+02 0.104E+04   -.663E+01 0.138E+00 0.745E+01   -.378E-01 0.360E-02 -.847E-02
   -.768E+03 -.107E+04 0.309E+03   0.764E+03 0.107E+04 -.308E+03   0.391E+01 0.583E+01 -.964E+00   -.295E-02 -.316E-01 0.496E-01
   -.127E+04 0.187E+03 0.259E+03   0.126E+04 -.183E+03 -.257E+03   0.112E+02 -.368E+01 -.218E+01   0.371E-02 -.152E-01 0.136E-01
 -----------------------------------------------------------------------------------------------
   -.778E+00 -.939E-01 0.647E+00   -.455E-12 -.568E-12 0.568E-12   0.795E+00 -.963E-02 -.618E+00   0.190E-01 0.763E-01 -.274E-01
 
 
 POSITION                                       TOTAL-FORCE (eV/Angst)
 -----------------------------------------------------------------------------------
      0.90900     13.48291      4.07953        -0.000668     -0.014253      0.014840
      3.15545     14.37096      3.36029         0.001912     -0.013709     -0.011861
      2.62549     10.35602      5.65112        -0.005083      0.003109      0.015456
      3.63827     10.97600      3.46928         0.001011      0.018036      0.002042
      1.22130     11.09505      3.86303         0.007416     -0.021149      0.003413
      4.50435     12.41642      1.67418        -0.006851      0.025285     -0.009292
      2.94260     12.68307      5.09340         0.007879     -0.009896     -0.003644
      3.26246     14.33790      0.93225         0.005623      0.003257     -0.025295
      5.07240     12.95706      3.99204         0.015268     -0.023190      0.000247
      2.13835     12.48649      2.14870        -0.025898      0.019020     -0.008044
      0.86867     12.01760      6.07246        -0.011340      0.008187     -0.000142
      5.28199     14.68536      2.21769        -0.005486     -0.002333      0.017008
      6.77800     12.82059      2.30492         0.016218      0.007636      0.005273
 -----------------------------------------------------------------------------------
    total drift:                                0.036250     -0.027310      0.001679


--------------------------------------------------------------------------------------------------------



  FREE ENERGIE OF THE ION-ELECTRON SYSTEM (eV)
  ---------------------------------------------------
  free  energy   TOTEN  =       -32.94187513 eV

  energy  without entropy=      -32.88637993  energy(sigma->0) =      -32.92337673
 
 d Force =-0.1420335E-04[-0.300E-04, 0.156E-05]  d Energy =-0.2726691E-04 0.131E-04
 d Force =-0.2813099E+00[-0.281E+00,-0.281E+00]  d Ewald  =-0.2813099E+00-0.278E-11


--------------------------------------------------------------------------------------------------------


    POTLOK:  cpu time    2.6434: real time    2.6745


--------------------------------------------------------------------------------------------------------




--------------------------------------------------------------------------------------------------------


  
 reached required accuracy - stopping structural energy minimisation
     LOOP+:  cpu time   48.7749: real time   52.3338
    4ORBIT:  cpu time    0.0000: real time    0.0000

 total amount of memory used by VASP MPI-rank0   196271. kBytes
=======================================================================

   base      :      30000. kBytes
   nonl-proj :       5783. kBytes
   fftplans  :      40308. kBytes
   grid      :      95938. kBytes
   one-center:         31. kBytes
   wavefun   :      24211. kBytes
 
  
  
 General timing and accounting informations for this job:
 ========================================================
  
                  Total CPU time used (sec):     7423.425
                            User time (sec):     7371.087
                          System time (sec):       52.338
                         Elapsed time (sec):     7520.612
  
                   Maximum memory used (kb):      379168.
                   Average memory used (kb):           0.
  
                          Minor page faults:     12810373
                          Major page faults:       245386
                 Voluntary context switches:         8460
