<?xml version="1.0" encoding="ISO-8859-1"?>
<modeling>
 <generator>
  <i name="program" type="string">vasp </i>
  <i name="version" type="string">6.1.2  </i>
  <i name="subversion" type="string">22Jul20 (build Aug  2 2021 21:04:21) gamma-only                       parallel </i>
  <i name="platform" type="string">LinuxPGI </i>
  <i name="date" type="string">2021 12 25 </i>
  <i name="time" type="string">06:42:42 </i>
 </generator>
 <incar>
  <i type="int" name="ISPIN">     2</i>
  <i type="int" name="IBRION">     2</i>
  <i type="int" name="NSW">  1000</i>
  <i type="int" name="ISIF">     0</i>
  <i type="int" name="ISYM">     0</i>
  <i name="ENCUT">    400.00000000</i>
  <i type="logical" name="LREAL"> F  </i>
  <i type="int" name="ISMEAR">     1</i>
  <i name="SIGMA">      0.20000000</i>
  <i type="logical" name="LWAVE"> F  </i>
  <i type="logical" name="LCHARG"> F  </i>
  <i type="int" name="KPAR">     1</i>
  <i type="int" name="NCORE">     8</i>
  <i type="string" name="GGA"> PE</i>
  <i type="int" name="ISPIN">     2</i>
 </incar>
 <structure name="primitive_cell" >
  <crystal>
   <varray name="basis" >
    <v>      26.66978688       0.00000000       0.00000000 </v>
    <v>       0.00000000      23.11509423       0.00000000 </v>
    <v>       0.00000000       0.00000000      23.47427762 </v>
   </varray>
   <i name="volume">  14471.29677277 </i>
   <varray name="rec_basis" >
    <v>       0.03749561       0.00000000       0.00000000 </v>
    <v>       0.00000000       0.04326177       0.00000000 </v>
    <v>       0.00000000       0.00000000       0.04259982 </v>
   </varray>
  </crystal>
  <varray name="positions" >
   <v>       0.04024702       0.57402159       0.17090161 </v>
   <v>       0.12297795       0.60698366       0.14557247 </v>
   <v>       0.10258527       0.45383729       0.24687852 </v>
   <v>       0.12400703       0.49157982       0.15538410 </v>
   <v>       0.03056653       0.47403285       0.15929870 </v>
   <v>       0.16314178       0.51971108       0.06719987 </v>
   <v>       0.12101617       0.55273740       0.23672149 </v>
   <v>       0.14004174       0.61321628       0.04082145 </v>
   <v>       0.20091432       0.55710252       0.16460762 </v>
   <v>       0.07591504       0.54173581       0.07931651 </v>
   <v>       0.02673595       0.51757385       0.25238649 </v>
   <v>       0.19979817       0.65119978       0.11798408 </v>
   <v>       0.24180464       0.57085276       0.07390717 </v>
  </varray>
 </structure>
 <varray name="primitive_index" >
  <v type="int" >        1 </v>
  <v type="int" >        2 </v>
  <v type="int" >        3 </v>
  <v type="int" >        4 </v>
  <v type="int" >        5 </v>
  <v type="int" >        6 </v>
  <v type="int" >        7 </v>
  <v type="int" >        8 </v>
  <v type="int" >        9 </v>
  <v type="int" >       10 </v>
  <v type="int" >       11 </v>
  <v type="int" >       12 </v>
  <v type="int" >       13 </v>
 </varray>
 <kpoints>
  <generation param="Gamma">
   <v type="int" name="divisions">       1        1        1 </v>
   <v name="usershift">      0.00000000       0.00000000       0.00000000 </v>
   <v name="genvec1">      1.00000000       0.00000000       0.00000000 </v>
   <v name="genvec2">      0.00000000       1.00000000       0.00000000 </v>
   <v name="genvec3">      0.00000000       0.00000000       1.00000000 </v>
   <v name="shift">      0.00000000       0.00000000       0.00000000 </v>
  </generation>
  <varray name="kpointlist" >
   <v>       0.00000000       0.00000000       0.00000000 </v>
  </varray>
  <varray name="weights" >
   <v>       1.00000000 </v>
  </varray>
 </kpoints>
 <parameters>
  <separator name="general" >
   <i type="string" name="SYSTEM">unknown system</i>
   <i type="logical" name="LCOMPAT"> F  </i>
  </separator>
  <separator name="electronic" >
   <i type="string" name="PREC">normal</i>
   <i name="ENMAX">    400.00000000</i>
   <i name="ENAUG">    586.98000000</i>
   <i name="EDIFF">      0.00010000</i>
   <i type="int" name="IALGO">    38</i>
   <i type="int" name="IWAVPR">    11</i>
   <i type="int" name="NBANDS">    92</i>
   <i type="int" name="NBANDSLOW">    -1</i>
   <i type="int" name="NBANDSHIGH">    -1</i>
   <i name="NELECT">    143.00000000</i>
   <i type="int" name="TURBO">     0</i>
   <i type="int" name="IRESTART">     0</i>
   <i type="int" name="NREBOOT">     0</i>
   <i type="int" name="NMIN">     0</i>
   <i name="EREF">      0.00000000</i>
   <separator name="electronic smearing" >
    <i type="int" name="ISMEAR">     1</i>
    <i name="SIGMA">      0.20000000</i>
    <i name="KSPACING">      0.50000000</i>
    <i type="logical" name="KGAMMA"> T  </i>
    <i type="logical" name="KBLOWUP"> T  </i>
   </separator>
   <separator name="electronic projectors" >
    <i type="logical" name="LREAL"> F  </i>
    <v name="ROPT">      0.00000000</v>
    <i type="int" name="LMAXPAW">  -100</i>
    <i type="int" name="LMAXMIX">     2</i>
    <i type="logical" name="NLSPLINE"> F  </i>
   </separator>
   <separator name="electronic startup" >
    <i type="int" name="ISTART">     0</i>
    <i type="int" name="ICHARG">     2</i>
    <i type="int" name="INIWAV">     1</i>
   </separator>
   <separator name="electronic spin" >
    <i type="int" name="ISPIN">     2</i>
    <i type="logical" name="LNONCOLLINEAR"> F  </i>
    <v name="MAGMOM">      1.00000000      1.00000000      1.00000000      1.00000000      1.00000000      1.00000000      1.00000000      1.00000000      1.00000000      1.00000000      1.00000000      1.00000000      1.00000000</v>
    <i name="NUPDOWN">     -1.00000000</i>
    <i type="logical" name="LSORBIT"> F  </i>
    <v name="SAXIS">      0.00000000      0.00000000      1.00000000</v>
    <i type="logical" name="LSPIRAL"> F  </i>
    <v name="QSPIRAL">      0.00000000      0.00000000      0.00000000</v>
    <i type="logical" name="LZEROZ"> F  </i>
   </separator>
   <separator name="electronic exchange-correlation" >
    <i type="logical" name="LASPH"> F  </i>
    <i type="logical" name="LMETAGGA"> F  </i>
   </separator>
   <separator name="electronic convergence" >
    <i type="int" name="NELM">    60</i>
    <i type="int" name="NELMDL">     0</i>
    <i type="int" name="NELMIN">     2</i>
    <i name="ENINI">    400.00000000</i>
    <separator name="electronic convergence detail" >
     <i type="logical" name="LDIAG"> T  </i>
     <i type="logical" name="LSUBROT"> F  </i>
     <i name="WEIMIN">      0.00100000</i>
     <i name="EBREAK">      0.00000027</i>
     <i name="DEPER">      0.30000000</i>
     <i type="int" name="NRMM">     4</i>
     <i name="TIME">      0.40000000</i>
    </separator>
   </separator>
   <separator name="electronic mixer" >
    <i name="AMIX">      0.40000000</i>
    <i name="BMIX">      1.00000000</i>
    <i name="AMIN">      0.10000000</i>
    <i name="AMIX_MAG">      1.60000000</i>
    <i name="BMIX_MAG">      1.00000000</i>
    <separator name="electronic mixer details" >
     <i type="int" name="IMIX">     4</i>
     <i type="logical" name="MIXFIRST"> F  </i>
     <i type="int" name="MAXMIX">   -45</i>
     <i name="WC">    100.00000000</i>
     <i type="int" name="INIMIX">     1</i>
     <i type="int" name="MIXPRE">     1</i>
     <i type="int" name="MREMOVE">     5</i>
    </separator>
   </separator>
   <separator name="electronic dipolcorrection" >
    <i type="logical" name="LDIPOL"> F  </i>
    <i type="logical" name="LMONO"> F  </i>
    <i type="int" name="IDIPOL">     0</i>
    <i name="EPSILON">      1.00000000</i>
    <v name="DIPOL">   -100.00000000   -100.00000000   -100.00000000</v>
    <i name="EFIELD">      0.00000000</i>
   </separator>
  </separator>
  <separator name="grids" >
   <i type="int" name="NGX">   140</i>
   <i type="int" name="NGY">   120</i>
   <i type="int" name="NGZ">   120</i>
   <i type="int" name="NGXF">   280</i>
   <i type="int" name="NGYF">   240</i>
   <i type="int" name="NGZF">   240</i>
   <i type="logical" name="ADDGRID"> F  </i>
  </separator>
  <separator name="ionic" >
   <i type="int" name="NSW">  1000</i>
   <i type="int" name="IBRION">     2</i>
   <i type="int" name="MDALGO">     0</i>
   <i type="int" name="ISIF">     0</i>
   <i name="PSTRESS">      0.00000000</i>
   <i name="EDIFFG">      0.00100000</i>
   <i type="int" name="NFREE">     1</i>
   <i name="POTIM">      0.50000000</i>
   <i name="SMASS">     -3.00000000</i>
   <i name="SCALEE">      1.00000000</i>
  </separator>
  <separator name="ionic md" >
   <i name="TEBEG">      0.00010000</i>
   <i name="TEEND">      0.00010000</i>
   <i type="int" name="NBLOCK">     1</i>
   <i type="int" name="KBLOCK">  1000</i>
   <i type="int" name="NPACO">   256</i>
   <i name="APACO">     16.00000000</i>
  </separator>
  <separator name="symmetry" >
   <i type="int" name="ISYM">     0</i>
   <i name="SYMPREC">      0.00001000</i>
  </separator>
  <separator name="dos" >
   <i type="int" name="LORBIT">     0</i>
   <v name="RWIGS">     -1.00000000</v>
   <i type="int" name="NEDOS">   301</i>
   <i name="EMIN">     10.00000000</i>
   <i name="EMAX">    -10.00000000</i>
   <i name="EFERMI">      0.00000000</i>
  </separator>
  <separator name="writing" >
   <i type="int" name="NWRITE">     2</i>
   <i type="logical" name="LWAVE"> F  </i>
   <i type="logical" name="LDOWNSAMPLE"> F  </i>
   <i type="logical" name="LCHARG"> F  </i>
   <i type="logical" name="LPARD"> F  </i>
   <i type="logical" name="LVTOT"> F  </i>
   <i type="logical" name="LVHAR"> F  </i>
   <i type="logical" name="LELF"> F  </i>
   <i type="logical" name="LOPTICS"> F  </i>
   <v name="STM">      0.00000000      0.00000000      0.00000000      0.00000000      0.00000000      0.00000000      0.00000000</v>
  </separator>
  <separator name="performance" >
   <i type="int" name="NPAR">     2</i>
   <i type="int" name="NSIM">     4</i>
   <i type="int" name="NBLK">    -1</i>
   <i type="logical" name="LPLANE"> T  </i>
   <i type="logical" name="LSCALAPACK"> T  </i>
   <i type="logical" name="LSCAAWARE"> F  </i>
   <i type="logical" name="LSCALU"> F  </i>
   <i type="logical" name="LASYNC"> F  </i>
   <i type="logical" name="LORBITALREAL"> F  </i>
  </separator>
  <separator name="miscellaneous" >
   <i type="int" name="IDIOT">     3</i>
   <i type="int" name="PHON_NSTRUCT">    -1</i>
   <i type="logical" name="LMUSIC"> F  </i>
   <v name="POMASS">     63.54600000</v>
   <v name="DARWINR">      0.00000000</v>
   <v name="DARWINV">      1.00000000</v>
   <i type="logical" name="LCORR"> T  </i>
  </separator>
  <i type="logical" name="GGA_COMPAT"> T  </i>
  <i type="logical" name="LBERRY"> F  </i>
  <i type="int" name="ICORELEVEL">     0</i>
  <i type="logical" name="LDAU"> F  </i>
  <i type="int" name="I_CONSTRAINED_M">     0</i>
  <separator name="electronic exchange-correlation" >
   <i type="string" name="GGA">PE</i>
   <i type="int" name="VOSKOWN">     0</i>
   <i type="logical" name="LHFCALC"> F  </i>
   <i type="string" name="PRECFOCK"></i>
   <i type="logical" name="LSYMGRAD"> F  </i>
   <i type="logical" name="LHFONE"> F  </i>
   <i type="logical" name="LRHFCALC"> F  </i>
   <i type="logical" name="LTHOMAS"> F  </i>
   <i type="logical" name="LMODELHF"> F  </i>
   <i type="logical" name="LFOCKACE"> F  </i>
   <i name="ENCUT4O">     -1.00000000</i>
   <i type="int" name="EXXOEP">     0</i>
   <i type="int" name="FOURORBIT">     0</i>
   <i name="AEXX">      0.00000000</i>
   <i name="HFALPHA">      0.00000000</i>
   <i name="MCALPHA">      0.00000000</i>
   <i name="ALDAX">      1.00000000</i>
   <i name="AGGAX">      1.00000000</i>
   <i name="ALDAC">      1.00000000</i>
   <i name="AGGAC">      1.00000000</i>
   <i type="int" name="NKREDX">     1</i>
   <i type="int" name="NKREDY">     1</i>
   <i type="int" name="NKREDZ">     1</i>
   <i type="logical" name="SHIFTRED"> F  </i>
   <i type="logical" name="ODDONLY"> F  </i>
   <i type="logical" name="EVENONLY"> F  </i>
   <i type="int" name="LMAXFOCK">     0</i>
   <i type="int" name="NMAXFOCKAE">     0</i>
   <i type="logical" name="LFOCKAEDFT"> F  </i>
   <i name="HFSCREEN">      0.00000000</i>
   <i name="HFSCREENC">      0.00000000</i>
   <i type="int" name="NBANDSGWLOW">     0</i>
  </separator>
  <separator name="vdW DFT" >
   <i type="logical" name="LUSE_VDW"> F  </i>
   <i name="Zab_VDW">     -0.84910000</i>
   <i name="PARAM1">      0.12340000</i>
   <i name="PARAM2">      1.00000000</i>
   <i name="PARAM3">      0.00000000</i>
  </separator>
  <separator name="model GW" >
   <i type="int" name="MODEL_GW">     0</i>
   <i name="MODEL_EPS0">    667.90600490</i>
   <i name="MODEL_ALPHA">      1.00000000</i>
  </separator>
  <separator name="linear response parameters" >
   <i type="logical" name="LEPSILON"> F  </i>
   <i type="logical" name="LRPA"> F  </i>
   <i type="logical" name="LNABLA"> F  </i>
   <i type="logical" name="LVEL"> F  </i>
   <i type="int" name="KINTER">     0</i>
   <i name="CSHIFT">      0.10000000</i>
   <i name="OMEGAMAX">     -1.00000000</i>
   <i name="DEG_THRESHOLD">      0.00200000</i>
   <i name="RTIME">     -0.10000000</i>
   <i name="WPLASMAI">      0.00000000</i>
   <v name="DFIELD">      0.00000000      0.00000000      0.00000000</v>
   <v name="WPLASMA">      0.00000000      0.00000000      0.00000000      0.00000000      0.00000000      0.00000000      0.00000000      0.00000000      0.00000000</v>
  </separator>
  <separator name="orbital magnetization" >
   <i type="logical" name="NUCIND"> F  </i>
   <v name="MAGPOS">      0.00000000      0.00000000      0.00000000</v>
   <i type="logical" name="LNICSALL"> T  </i>
   <i type="logical" name="ORBITALMAG"> F  </i>
   <i type="logical" name="LMAGBLOCH"> F  </i>
   <i type="logical" name="LCHIMAG"> F  </i>
   <i type="logical" name="LGAUGE"> T  </i>
   <i type="int" name="MAGATOM">     0</i>
   <v name="MAGDIPOL">      0.00000000      0.00000000      0.00000000</v>
   <v name="AVECCONST">      0.00000000      0.00000000      0.00000000</v>
  </separator>
  <separator name="response functions" >
   <i type="logical" name="LFINITE_TEMPERATURE"> F  </i>
   <i type="logical" name="LADDER"> F  </i>
   <i type="logical" name="LRPAFORCE"> F  </i>
   <i type="logical" name="LFXC"> F  </i>
   <i type="logical" name="LHARTREE"> T  </i>
   <i type="int" name="IBSE">     0</i>
   <v type="int" name="KPOINT">    -1     0     0     0</v>
   <i type="logical" name="LTCTC"> F  </i>
   <i type="logical" name="LTCTE"> F  </i>
   <i type="logical" name="LTETE"> F  </i>
   <i type="logical" name="LTRIPLET"> F  </i>
   <i type="logical" name="LFXCEPS"> F  </i>
   <i type="logical" name="LFXHEG"> F  </i>
   <i type="int" name="NATURALO">     2</i>
   <i type="logical" name="LHOLEGF"> F  </i>
   <i type="logical" name="L2ORDER"> F  </i>
   <i type="logical" name="LDMP1"> F  </i>
   <i type="logical" name="LMP2LT"> F  </i>
   <i type="logical" name="LSMP2LT"> F  </i>
   <i type="logical" name="LGWLF"> F  </i>
   <i name="ENCUTGW">     -2.00000000</i>
   <i name="ENCUTGWSOFT">     -2.00000000</i>
   <i name="ENCUTLF">     -1.00000000</i>
   <i type="logical" name="LESF_SPLINES"> F  </i>
   <i type="int" name="LMAXMP2">    -1</i>
   <i name="SCISSOR">      0.00000000</i>
   <i type="int" name="NOMEGA">     0</i>
   <i type="int" name="NOMEGAR">     0</i>
   <i type="int" name="NBANDSGW">    -1</i>
   <i type="int" name="NBANDSO">    -1</i>
   <i type="int" name="NBANDSV">    -1</i>
   <i type="int" name="NELM">     1</i>
   <i type="int" name="NELMHF">     1</i>
   <i type="int" name="DIM">     3</i>
   <i type="int" name="IESPILON">     4</i>
   <i type="int" name="ANTIRES">     0</i>
   <i name="OMEGAMAX">    -30.00000000</i>
   <i name="OMEGAMIN">    -30.00000000</i>
   <i name="OMEGATL">   -200.00000000</i>
   <i type="int" name="OMEGAGRID">     0</i>
   <i name="CSHIFT">     -0.10000000</i>
   <i type="logical" name="LSELFENERGY"> F  </i>
   <i type="logical" name="LSPECTRAL"> F  </i>
   <i type="logical" name="LSPECTRALGW"> F  </i>
   <i type="logical" name="LSINGLES"> F  </i>
   <i type="logical" name="LFERMIGW"> F  </i>
   <i type="logical" name="ODDONLYGW"> F  </i>
   <i type="logical" name="EVENONLYGW"> F  </i>
   <i type="int" name="NKREDLFX">     1</i>
   <i type="int" name="NKREDLFY">     1</i>
   <i type="int" name="NKREDLFZ">     1</i>
   <i type="int" name="MAXMEM">  2800</i>
   <i type="int" name="TELESCOPE">     0</i>
   <i type="int" name="NTAUPAR">    -1</i>
   <i type="int" name="NOMEGAPAR">    -1</i>
   <i name="LAMBDA">      1.00000000</i>
  </separator>
  <separator name="External order field" >
   <i name="OFIELD_KAPPA">      0.00000000</i>
   <v name="OFIELD_K">      0.00000000      0.00000000      0.00000000</v>
   <i name="OFIELD_Q6_NEAR">      0.00000000</i>
   <i name="OFIELD_Q6_FAR">      0.00000000</i>
   <i name="OFIELD_A">      0.00000000</i>
  </separator>
 </parameters>
 <atominfo>
  <atoms>      13 </atoms>
  <types>       1 </types>
  <array name="atoms" >
   <dimension dim="1">ion</dimension>
   <field type="string">element</field>
   <field type="int">atomtype</field>
   <set>
    <rc><c>Cu</c><c>   1</c></rc>
    <rc><c>Cu</c><c>   1</c></rc>
    <rc><c>Cu</c><c>   1</c></rc>
    <rc><c>Cu</c><c>   1</c></rc>
    <rc><c>Cu</c><c>   1</c></rc>
    <rc><c>Cu</c><c>   1</c></rc>
    <rc><c>Cu</c><c>   1</c></rc>
    <rc><c>Cu</c><c>   1</c></rc>
    <rc><c>Cu</c><c>   1</c></rc>
    <rc><c>Cu</c><c>   1</c></rc>
    <rc><c>Cu</c><c>   1</c></rc>
    <rc><c>Cu</c><c>   1</c></rc>
    <rc><c>Cu</c><c>   1</c></rc>
   </set>
  </array>
  <array name="atomtypes" >
   <dimension dim="1">type</dimension>
   <field type="int">atomspertype</field>
   <field type="string">element</field>
   <field>mass</field>
   <field>valence</field>
   <field type="string">pseudopotential</field>
   <set>
    <rc><c>  13</c><c>Cu</c><c>     63.54600000</c><c>     11.00000000</c><c>  PAW_PBE Cu 22Jun2005                  </c></rc>
   </set>
  </array>
 </atominfo>
 <structure name="initialpos" >
  <crystal>
   <varray name="basis" >
    <v>      26.66978688       0.00000000       0.00000000 </v>
    <v>       0.00000000      23.11509423       0.00000000 </v>
    <v>       0.00000000       0.00000000      23.47427762 </v>
   </varray>
   <i name="volume">  14471.29677277 </i>
   <varray name="rec_basis" >
    <v>       0.03749561       0.00000000       0.00000000 </v>
    <v>       0.00000000       0.04326177       0.00000000 </v>
    <v>       0.00000000       0.00000000       0.04259982 </v>
   </varray>
  </crystal>
  <varray name="positions" >
   <v>       0.04024702       0.57402159       0.17090161 </v>
   <v>       0.12297795       0.60698366       0.14557247 </v>
   <v>       0.10258527       0.45383729       0.24687852 </v>
   <v>       0.12400703       0.49157982       0.15538410 </v>
   <v>       0.03056653       0.47403285       0.15929870 </v>
   <v>       0.16314178       0.51971108       0.06719987 </v>
   <v>       0.12101617       0.55273740       0.23672149 </v>
   <v>       0.14004174       0.61321628       0.04082145 </v>
   <v>       0.20091432       0.55710252       0.16460762 </v>
   <v>       0.07591504       0.54173581       0.07931651 </v>
   <v>       0.02673595       0.51757385       0.25238649 </v>
   <v>       0.19979817       0.65119978       0.11798408 </v>
   <v>       0.24180464       0.57085276       0.07390717 </v>
  </varray>
 </structure>
 <calculation>
  <scstep>
   <time name="dav">   15.81   15.85</time>
   <time name="total">   18.51   18.56</time>
   <energy>
    <i name="alphaZ">      8.54066088 </i>
    <i name="ewald">  24260.28966365 </i>
    <i name="hartreedc"> -40728.07859822 </i>
    <i name="XCdc">    583.75888620 </i>
    <i name="pawpsdc">  15965.26744864 </i>
    <i name="pawaedc"> -17340.97210982 </i>
    <i name="eentropy">      0.04829983 </i>
    <i name="bandstr">     97.27570669 </i>
    <i name="atom">  18082.44932260 </i>
    <i name="e_fr_energy">    928.57928044 </i>
    <i name="e_wo_entrp">    928.53098060 </i>
    <i name="e_0_energy">    928.56318049 </i>
   </energy>
  </scstep>
  <scstep>
   <time name="dav">   17.26   17.30</time>
   <time name="total">   17.26   17.30</time>
   <energy>
    <i name="e_fr_energy">    269.78271219 </i>
    <i name="e_wo_entrp">    269.81133385 </i>
    <i name="e_0_energy">    269.79225275 </i>
   </energy>
  </scstep>
  <scstep>
   <time name="dav">   20.09   20.11</time>
   <time name="total">   20.09   20.12</time>
   <energy>
    <i name="e_fr_energy">     19.35602456 </i>
    <i name="e_wo_entrp">     19.38627930 </i>
    <i name="e_0_energy">     19.36610947 </i>
   </energy>
  </scstep>
  <scstep>
   <time name="dav">   19.33   19.36</time>
   <time name="total">   19.34   19.37</time>
   <energy>
    <i name="e_fr_energy">    -33.13820138 </i>
    <i name="e_wo_entrp">    -33.19767278 </i>
    <i name="e_0_energy">    -33.15802518 </i>
   </energy>
  </scstep>
  <scstep>
   <time name="dav">   21.26   21.58</time>
   <time name="total">   22.32   22.64</time>
   <energy>
    <i name="e_fr_energy">    -35.89024225 </i>
    <i name="e_wo_entrp">    -35.94100209 </i>
    <i name="e_0_energy">    -35.90716220 </i>
   </energy>
  </scstep>
  <scstep>
   <time name="dav">   18.37   18.53</time>
   <time name="total">   22.59   22.77</time>
   <energy>
    <i name="e_fr_energy">    -13.14356456 </i>
    <i name="e_wo_entrp">    -13.15378466 </i>
    <i name="e_0_energy">    -13.14697126 </i>
   </energy>
  </scstep>
  <scstep>
   <time name="dav">   19.17   19.30</time>
   <time name="total">   23.69   23.86</time>
   <energy>
    <i name="e_fr_energy">     -9.69937039 </i>
    <i name="e_wo_entrp">     -9.68644099 </i>
    <i name="e_0_energy">     -9.69506059 </i>
   </energy>
  </scstep>
  <scstep>
   <time name="dav">   21.45   21.75</time>
   <time name="total">   26.15   26.47</time>
   <energy>
    <i name="e_fr_energy">     -8.95224525 </i>
    <i name="e_wo_entrp">     -8.96779078 </i>
    <i name="e_0_energy">     -8.95742709 </i>
   </energy>
  </scstep>
  <scstep>
   <time name="dav">   19.98   20.51</time>
   <time name="total">   24.34   24.88</time>
   <energy>
    <i name="e_fr_energy">    -10.61031463 </i>
    <i name="e_wo_entrp">    -10.59146660 </i>
    <i name="e_0_energy">    -10.60403196 </i>
   </energy>
  </scstep>
  <scstep>
   <time name="dav">   22.94   22.99</time>
   <time name="total">   27.26   27.31</time>
   <energy>
    <i name="e_fr_energy">    -14.79574219 </i>
    <i name="e_wo_entrp">    -14.76250821 </i>
    <i name="e_0_energy">    -14.78466420 </i>
   </energy>
  </scstep>
  <scstep>
   <time name="dav">   19.53   19.56</time>
   <time name="total">   24.70   24.74</time>
   <energy>
    <i name="e_fr_energy">    -16.93809948 </i>
    <i name="e_wo_entrp">    -16.93536846 </i>
    <i name="e_0_energy">    -16.93718914 </i>
   </energy>
  </scstep>
  <scstep>
   <time name="dav">   22.62   22.72</time>
   <time name="total">   27.54   27.67</time>
   <energy>
    <i name="e_fr_energy">    -20.02238364 </i>
    <i name="e_wo_entrp">    -20.05321980 </i>
    <i name="e_0_energy">    -20.03266236 </i>
   </energy>
  </scstep>
  <scstep>
   <time name="dav">   16.48   16.59</time>
   <time name="total">   21.14   21.27</time>
   <energy>
    <i name="e_fr_energy">    -24.89709568 </i>
    <i name="e_wo_entrp">    -24.92992954 </i>
    <i name="e_0_energy">    -24.90804030 </i>
   </energy>
  </scstep>
  <scstep>
   <time name="dav">   20.28   21.47</time>
   <time name="total">   24.74   25.95</time>
   <energy>
    <i name="e_fr_energy">    -26.31169038 </i>
    <i name="e_wo_entrp">    -26.34429314 </i>
    <i name="e_0_energy">    -26.32255797 </i>
   </energy>
  </scstep>
  <scstep>
   <time name="dav">   22.99   23.27</time>
   <time name="total">   29.47   29.78</time>
   <energy>
    <i name="e_fr_energy">    -28.23067711 </i>
    <i name="e_wo_entrp">    -28.26299689 </i>
    <i name="e_0_energy">    -28.24145037 </i>
   </energy>
  </scstep>
  <scstep>
   <time name="dav">   22.16   22.51</time>
   <time name="total">   26.51   26.90</time>
   <energy>
    <i name="e_fr_energy">    -30.06101314 </i>
    <i name="e_wo_entrp">    -30.08036341 </i>
    <i name="e_0_energy">    -30.06746323 </i>
   </energy>
  </scstep>
  <scstep>
   <time name="dav">   23.81   23.93</time>
   <time name="total">   28.15   28.29</time>
   <energy>
    <i name="e_fr_energy">    -30.55510288 </i>
    <i name="e_wo_entrp">    -30.56088954 </i>
    <i name="e_0_energy">    -30.55703176 </i>
   </energy>
  </scstep>
  <scstep>
   <time name="dav">   18.71   18.79</time>
   <time name="total">   23.36   23.47</time>
   <energy>
    <i name="e_fr_energy">    -30.96094902 </i>
    <i name="e_wo_entrp">    -30.95300105 </i>
    <i name="e_0_energy">    -30.95829970 </i>
   </energy>
  </scstep>
  <scstep>
   <time name="dav">   20.83   20.91</time>
   <time name="total">   25.40   25.51</time>
   <energy>
    <i name="e_fr_energy">    -31.36708176 </i>
    <i name="e_wo_entrp">    -31.34720511 </i>
    <i name="e_0_energy">    -31.36045621 </i>
   </energy>
  </scstep>
  <scstep>
   <time name="dav">   23.79   23.90</time>
   <time name="total">   28.39   28.55</time>
   <energy>
    <i name="e_fr_energy">    -31.65397955 </i>
    <i name="e_wo_entrp">    -31.62792362 </i>
    <i name="e_0_energy">    -31.64529424 </i>
   </energy>
  </scstep>
  <scstep>
   <time name="dav">   20.46   20.62</time>
   <time name="total">   24.99   25.18</time>
   <energy>
    <i name="e_fr_energy">    -31.84817791 </i>
    <i name="e_wo_entrp">    -31.81845027 </i>
    <i name="e_0_energy">    -31.83826870 </i>
   </energy>
  </scstep>
  <scstep>
   <time name="dav">   19.63   19.77</time>
   <time name="total">   23.96   24.16</time>
   <energy>
    <i name="e_fr_energy">    -31.94953374 </i>
    <i name="e_wo_entrp">    -31.91827188 </i>
    <i name="e_0_energy">    -31.93911312 </i>
   </energy>
  </scstep>
  <scstep>
   <time name="dav">   21.02   21.11</time>
   <time name="total">   25.48   25.61</time>
   <energy>
    <i name="e_fr_energy">    -32.01657939 </i>
    <i name="e_wo_entrp">    -31.98453095 </i>
    <i name="e_0_energy">    -32.00589658 </i>
   </energy>
  </scstep>
  <scstep>
   <time name="dav">   14.55   14.65</time>
   <time name="total">   18.56   18.70</time>
   <energy>
    <i name="e_fr_energy">    -32.05550487 </i>
    <i name="e_wo_entrp">    -32.02308507 </i>
    <i name="e_0_energy">    -32.04469827 </i>
   </energy>
  </scstep>
  <scstep>
   <time name="dav">   15.07   15.13</time>
   <time name="total">   19.67   19.74</time>
   <energy>
    <i name="e_fr_energy">    -32.08556522 </i>
    <i name="e_wo_entrp">    -32.05305032 </i>
    <i name="e_0_energy">    -32.07472692 </i>
   </energy>
  </scstep>
  <scstep>
   <time name="dav">   14.68   15.31</time>
   <time name="total">   19.84   20.49</time>
   <energy>
    <i name="e_fr_energy">    -32.10239747 </i>
    <i name="e_wo_entrp">    -32.06983759 </i>
    <i name="e_0_energy">    -32.09154417 </i>
   </energy>
  </scstep>
  <scstep>
   <time name="dav">   15.59   15.85</time>
   <time name="total">   19.64   19.96</time>
   <energy>
    <i name="e_fr_energy">    -32.10980358 </i>
    <i name="e_wo_entrp">    -32.07722328 </i>
    <i name="e_0_energy">    -32.09894348 </i>
   </energy>
  </scstep>
  <scstep>
   <time name="dav">   14.19   14.27</time>
   <time name="total">   18.69   18.80</time>
   <energy>
    <i name="e_fr_energy">    -32.11630470 </i>
    <i name="e_wo_entrp">    -32.08369900 </i>
    <i name="e_0_energy">    -32.10543613 </i>
   </energy>
  </scstep>
  <scstep>
   <time name="dav">   12.34   12.39</time>
   <time name="total">   17.51   18.17</time>
   <energy>
    <i name="e_fr_energy">    -32.11844039 </i>
    <i name="e_wo_entrp">    -32.08582425 </i>
    <i name="e_0_energy">    -32.10756834 </i>
   </energy>
  </scstep>
  <scstep>
   <time name="dav">   10.71   10.74</time>
   <time name="total">   14.84   14.87</time>
   <energy>
    <i name="e_fr_energy">    -32.11973100 </i>
    <i name="e_wo_entrp">    -32.08711002 </i>
    <i name="e_0_energy">    -32.10885734 </i>
   </energy>
  </scstep>
  <scstep>
   <time name="dav">   12.73   12.75</time>
   <time name="total">   16.89   16.92</time>
   <energy>
    <i name="e_fr_energy">    -32.12129805 </i>
    <i name="e_wo_entrp">    -32.08867587 </i>
    <i name="e_0_energy">    -32.11042399 </i>
   </energy>
  </scstep>
  <scstep>
   <time name="dav">   12.60   12.64</time>
   <time name="total">   16.94   16.99</time>
   <energy>
    <i name="e_fr_energy">    -32.12264588 </i>
    <i name="e_wo_entrp">    -32.09002190 </i>
    <i name="e_0_energy">    -32.11177122 </i>
   </energy>
  </scstep>
  <scstep>
   <time name="dav">   13.08   13.09</time>
   <time name="total">   17.18   17.20</time>
   <energy>
    <i name="e_fr_energy">    -32.12301820 </i>
    <i name="e_wo_entrp">    -32.09039437 </i>
    <i name="e_0_energy">    -32.11214359 </i>
   </energy>
  </scstep>
  <scstep>
   <time name="dav">   14.18   14.28</time>
   <time name="total">   18.99   19.10</time>
   <energy>
    <i name="e_fr_energy">    -32.12347484 </i>
    <i name="e_wo_entrp">    -32.09085265 </i>
    <i name="e_0_energy">    -32.11260077 </i>
   </energy>
  </scstep>
  <scstep>
   <time name="dav">   12.74   12.85</time>
   <time name="total">   18.04   18.16</time>
   <energy>
    <i name="e_fr_energy">    -32.12382347 </i>
    <i name="e_wo_entrp">    -32.09120068 </i>
    <i name="e_0_energy">    -32.11294921 </i>
   </energy>
  </scstep>
  <scstep>
   <time name="dav">   11.15   11.33</time>
   <time name="total">   15.93   16.12</time>
   <energy>
    <i name="e_fr_energy">    -32.12400139 </i>
    <i name="e_wo_entrp">    -32.09137840 </i>
    <i name="e_0_energy">    -32.11312706 </i>
   </energy>
  </scstep>
  <scstep>
   <time name="dav">   13.65   13.67</time>
   <time name="total">   18.04   18.07</time>
   <energy>
    <i name="e_fr_energy">    -32.12412199 </i>
    <i name="e_wo_entrp">    -32.09149803 </i>
    <i name="e_0_energy">    -32.11324734 </i>
   </energy>
  </scstep>
  <scstep>
   <time name="dav">   12.17   12.20</time>
   <time name="total">   17.00   17.22</time>
   <energy>
    <i name="e_fr_energy">    -32.12424327 </i>
    <i name="e_wo_entrp">    -32.09161793 </i>
    <i name="e_0_energy">    -32.11336815 </i>
   </energy>
  </scstep>
  <scstep>
   <time name="dav">   14.19   14.23</time>
   <time name="total">   17.63   17.67</time>
   <energy>
    <i name="alphaZ">      8.54066088 </i>
    <i name="ewald">  24260.28966365 </i>
    <i name="hartreedc"> -40686.40816336 </i>
    <i name="XCdc">    574.09372410 </i>
    <i name="pawpsdc">  16651.16041141 </i>
    <i name="pawaedc"> -18044.13182075 </i>
    <i name="eentropy">     -0.03262537 </i>
    <i name="bandstr">   -878.08545805 </i>
    <i name="atom">  18082.44932260 </i>
    <i name="e_fr_energy">    -32.12428491 </i>
    <i name="e_wo_entrp">    -32.09165953 </i>
    <i name="e_0_energy">    -32.11340978 </i>
   </energy>
  </scstep>
  <structure>
   <crystal>
    <varray name="basis" >
     <v>      26.66978688       0.00000000       0.00000000 </v>
     <v>       0.00000000      23.11509423       0.00000000 </v>
     <v>       0.00000000       0.00000000      23.47427762 </v>
    </varray>
    <i name="volume">  14471.29677277 </i>
    <varray name="rec_basis" >
     <v>       0.03749561       0.00000000       0.00000000 </v>
     <v>       0.00000000       0.04326177       0.00000000 </v>
     <v>       0.00000000       0.00000000       0.04259982 </v>
    </varray>
   </crystal>
   <varray name="positions" >
    <v>       0.04024702       0.57402159       0.17090161 </v>
    <v>       0.12297795       0.60698366       0.14557247 </v>
    <v>       0.10258527       0.45383729       0.24687852 </v>
    <v>       0.12400703       0.49157982       0.15538410 </v>
    <v>       0.03056653       0.47403285       0.15929870 </v>
    <v>       0.16314178       0.51971108       0.06719987 </v>
    <v>       0.12101617       0.55273740       0.23672149 </v>
    <v>       0.14004174       0.61321628       0.04082145 </v>
    <v>       0.20091432       0.55710252       0.16460762 </v>
    <v>       0.07591504       0.54173581       0.07931651 </v>
    <v>       0.02673595       0.51757385       0.25238649 </v>
    <v>       0.19979817       0.65119978       0.11798408 </v>
    <v>       0.24180464       0.57085276       0.07390717 </v>
   </varray>
  </structure>
  <varray name="forces" >
   <v>       0.29288786       0.15354976       0.03331581 </v>
   <v>       0.02053422      -0.14404369      -0.29769962 </v>
   <v>      -0.54356999      -0.02228191      -0.00865204 </v>
   <v>      -0.27142009       0.05012269      -0.01699620 </v>
   <v>       0.58940987      -0.00758017      -0.12872047 </v>
   <v>       0.38816150       0.06183468       0.28251145 </v>
   <v>      -0.29868784       0.27312731      -0.30392831 </v>
   <v>       0.10562427       0.19150733       0.36537841 </v>
   <v>      -0.42045886      -0.29994113      -0.07088170 </v>
   <v>      -0.08159111       0.00425723       0.28368291 </v>
   <v>       0.66430481      -0.20180684       0.08418797 </v>
   <v>      -0.09599742      -0.10079585      -0.30814299 </v>
   <v>      -0.34919721       0.04205059       0.08594480 </v>
  </varray>
  <energy>
   <i name="e_fr_energy">    -32.12428491 </i>
   <i name="e_wo_entrp">    -32.09165953 </i>
   <i name="e_0_energy">    -32.11340978 </i>
  </energy>
  <time name="totalsc">  854.60  862.52</time>
 </calculation>
 <calculation>
  <scstep>
   <time name="dav">   16.26   16.28</time>
   <time name="total">   20.43   20.46</time>
   <energy>
    <i name="alphaZ">      8.54066088 </i>
    <i name="ewald">  24437.46323199 </i>
    <i name="hartreedc"> -40862.53683919 </i>
    <i name="XCdc">    574.35000110 </i>
    <i name="pawpsdc">  16651.14413945 </i>
    <i name="pawaedc"> -18044.11491014 </i>
    <i name="eentropy">     -0.03165970 </i>
    <i name="bandstr">   -879.43694734 </i>
    <i name="atom">  18082.44932260 </i>
    <i name="e_fr_energy">    -32.17300035 </i>
    <i name="e_wo_entrp">    -32.14134065 </i>
    <i name="e_0_energy">    -32.16244712 </i>
   </energy>
  </scstep>
  <scstep>
   <time name="dav">   18.60   18.79</time>
   <time name="total">   22.37   22.57</time>
   <energy>
    <i name="e_fr_energy">    -32.24554618 </i>
    <i name="e_wo_entrp">    -32.21362447 </i>
    <i name="e_0_energy">    -32.23490561 </i>
   </energy>
  </scstep>
  <scstep>
   <time name="dav">   14.70   14.77</time>
   <time name="total">   18.54   18.63</time>
   <energy>
    <i name="e_fr_energy">    -32.24090908 </i>
    <i name="e_wo_entrp">    -32.20905487 </i>
    <i name="e_0_energy">    -32.23029101 </i>
   </energy>
  </scstep>
  <scstep>
   <time name="dav">   17.86   17.97</time>
   <time name="total">   21.81   21.95</time>
   <energy>
    <i name="e_fr_energy">    -32.24065252 </i>
    <i name="e_wo_entrp">    -32.20892121 </i>
    <i name="e_0_energy">    -32.23007542 </i>
   </energy>
  </scstep>
  <scstep>
   <time name="dav">   19.50   19.57</time>
   <time name="total">   24.23   24.34</time>
   <energy>
    <i name="e_fr_energy">    -32.24037721 </i>
    <i name="e_wo_entrp">    -32.20866118 </i>
    <i name="e_0_energy">    -32.22980520 </i>
   </energy>
  </scstep>
  <scstep>
   <time name="dav">   24.84   25.05</time>
   <time name="total">   29.20   29.45</time>
   <energy>
    <i name="e_fr_energy">    -32.24033037 </i>
    <i name="e_wo_entrp">    -32.20868351 </i>
    <i name="e_0_energy">    -32.22978142 </i>
   </energy>
  </scstep>
  <scstep>
   <time name="dav">   17.48   17.61</time>
   <time name="total">   21.93   22.09</time>
   <energy>
    <i name="e_fr_energy">    -32.24008726 </i>
    <i name="e_wo_entrp">    -32.20846091 </i>
    <i name="e_0_energy">    -32.22954515 </i>
   </energy>
  </scstep>
  <scstep>
   <time name="dav">   19.74   19.85</time>
   <time name="total">   22.79   22.93</time>
   <energy>
    <i name="alphaZ">      8.54066088 </i>
    <i name="ewald">  24437.46323199 </i>
    <i name="hartreedc"> -40860.43093326 </i>
    <i name="XCdc">    574.25184548 </i>
    <i name="pawpsdc">  16676.52175799 </i>
    <i name="pawaedc"> -18070.07092153 </i>
    <i name="eentropy">     -0.03161001 </i>
    <i name="bandstr">   -880.93344103 </i>
    <i name="atom">  18082.44932260 </i>
    <i name="e_fr_energy">    -32.24008690 </i>
    <i name="e_wo_entrp">    -32.20847688 </i>
    <i name="e_0_energy">    -32.22955023 </i>
   </energy>
  </scstep>
  <structure>
   <crystal>
    <varray name="basis" >
     <v>      26.66978688       0.00000000       0.00000000 </v>
     <v>       0.00000000      23.11509423       0.00000000 </v>
     <v>       0.00000000       0.00000000      23.47427762 </v>
    </varray>
    <i name="volume">  14471.29677277 </i>
    <varray name="rec_basis" >
     <v>       0.03749561       0.00000000       0.00000000 </v>
     <v>       0.00000000       0.04326177       0.00000000 </v>
     <v>       0.00000000       0.00000000       0.04259982 </v>
    </varray>
   </crystal>
   <varray name="positions" >
    <v>       0.04077682       0.57434205       0.17097008 </v>
    <v>       0.12301509       0.60668303       0.14496066 </v>
    <v>       0.10160201       0.45379079       0.24686074 </v>
    <v>       0.12351606       0.49168443       0.15534918 </v>
    <v>       0.03163271       0.47401703       0.15903417 </v>
    <v>       0.16384392       0.51984013       0.06778047 </v>
    <v>       0.12047587       0.55330743       0.23609688 </v>
    <v>       0.14023280       0.61361597       0.04157235 </v>
    <v>       0.20015375       0.55647652       0.16446195 </v>
    <v>       0.07576745       0.54174470       0.07989952 </v>
    <v>       0.02793760       0.51715266       0.25255950 </v>
    <v>       0.19962452       0.65098941       0.11735081 </v>
    <v>       0.24117298       0.57094052       0.07408380 </v>
   </varray>
  </structure>
  <varray name="forces" >
   <v>       0.18157010       0.12532267       0.09084412 </v>
   <v>       0.01521616      -0.06176382      -0.25385530 </v>
   <v>      -0.41599668      -0.02917936      -0.03339538 </v>
   <v>      -0.18796045      -0.00453067      -0.00280728 </v>
   <v>       0.48572001      -0.00476864      -0.10368685 </v>
   <v>       0.20352789       0.03432594       0.24882428 </v>
   <v>      -0.26990329       0.20978230      -0.24007623 </v>
   <v>       0.07905043       0.14217500       0.28350508 </v>
   <v>      -0.33679379      -0.26649813      -0.02755363 </v>
   <v>      -0.03662099      -0.01847789       0.16985586 </v>
   <v>       0.54514868      -0.13098330       0.05287105 </v>
   <v>      -0.08080395      -0.04343284      -0.23615980 </v>
   <v>      -0.18215413       0.04802874       0.05163410 </v>
  </varray>
  <energy>
   <i name="e_fr_energy">    -32.24008690 </i>
   <i name="e_wo_entrp">    -32.20847688 </i>
   <i name="e_0_energy">    -32.22955023 </i>
  </energy>
  <time name="totalsc">  195.49  196.73</time>
 </calculation>
 <calculation>
  <scstep>
   <time name="dav">   17.35   17.41</time>
   <time name="total">   21.73   21.80</time>
   <energy>
    <i name="alphaZ">      8.54066088 </i>
    <i name="ewald">  24883.59309639 </i>
    <i name="hartreedc"> -41303.45955683 </i>
    <i name="XCdc">    574.97742198 </i>
    <i name="pawpsdc">  16676.36102186 </i>
    <i name="pawaedc"> -18069.88342093 </i>
    <i name="eentropy">     -0.03112511 </i>
    <i name="bandstr">   -884.55223521 </i>
    <i name="atom">  18082.44932260 </i>
    <i name="e_fr_energy">    -32.00481436 </i>
    <i name="e_wo_entrp">    -31.97368925 </i>
    <i name="e_0_energy">    -31.99443933 </i>
   </energy>
  </scstep>
  <scstep>
   <time name="dav">   22.32   22.47</time>
   <time name="total">   26.48   26.67</time>
   <energy>
    <i name="e_fr_energy">    -32.39772222 </i>
    <i name="e_wo_entrp">    -32.36674742 </i>
    <i name="e_0_energy">    -32.38739728 </i>
   </energy>
  </scstep>
  <scstep>
   <time name="dav">   16.99   17.11</time>
   <time name="total">   20.79   20.93</time>
   <energy>
    <i name="e_fr_energy">    -32.37092272 </i>
    <i name="e_wo_entrp">    -32.33995208 </i>
    <i name="e_0_energy">    -32.36059917 </i>
   </energy>
  </scstep>
  <scstep>
   <time name="dav">   20.53   20.61</time>
   <time name="total">   24.93   25.03</time>
   <energy>
    <i name="e_fr_energy">    -32.37152119 </i>
    <i name="e_wo_entrp">    -32.34047338 </i>
    <i name="e_0_energy">    -32.36117192 </i>
   </energy>
  </scstep>
  <scstep>
   <time name="dav">   15.50   15.58</time>
   <time name="total">   19.45   19.56</time>
   <energy>
    <i name="e_fr_energy">    -32.36937028 </i>
    <i name="e_wo_entrp">    -32.33830944 </i>
    <i name="e_0_energy">    -32.35901667 </i>
   </energy>
  </scstep>
  <scstep>
   <time name="dav">   27.16   28.41</time>
   <time name="total">   31.56   32.84</time>
   <energy>
    <i name="e_fr_energy">    -32.36882165 </i>
    <i name="e_wo_entrp">    -32.33766046 </i>
    <i name="e_0_energy">    -32.35843458 </i>
   </energy>
  </scstep>
  <scstep>
   <time name="dav">   17.58   17.64</time>
   <time name="total">   21.79   21.90</time>
   <energy>
    <i name="e_fr_energy">    -32.36806969 </i>
    <i name="e_wo_entrp">    -32.33691805 </i>
    <i name="e_0_energy">    -32.35768581 </i>
   </energy>
  </scstep>
  <scstep>
   <time name="dav">   20.61   20.74</time>
   <time name="total">   24.80   24.98</time>
   <energy>
    <i name="e_fr_energy">    -32.36812847 </i>
    <i name="e_wo_entrp">    -32.33698491 </i>
    <i name="e_0_energy">    -32.35774728 </i>
   </energy>
  </scstep>
  <scstep>
   <time name="dav">   16.25   16.56</time>
   <time name="total">   19.08   19.44</time>
   <energy>
    <i name="alphaZ">      8.54066088 </i>
    <i name="ewald">  24883.59309639 </i>
    <i name="hartreedc"> -41297.33698464 </i>
    <i name="XCdc">    574.68249801 </i>
    <i name="pawpsdc">  16753.27186773 </i>
    <i name="pawaedc"> -18148.35377507 </i>
    <i name="eentropy">     -0.03114043 </i>
    <i name="bandstr">   -889.18366604 </i>
    <i name="atom">  18082.44932260 </i>
    <i name="e_fr_energy">    -32.36812057 </i>
    <i name="e_wo_entrp">    -32.33698014 </i>
    <i name="e_0_energy">    -32.35774043 </i>
   </energy>
  </scstep>
  <structure>
   <crystal>
    <varray name="basis" >
     <v>      26.66978688       0.00000000       0.00000000 </v>
     <v>       0.00000000      23.11509423       0.00000000 </v>
     <v>       0.00000000       0.00000000      23.47427762 </v>
    </varray>
    <i name="volume">  14471.29677277 </i>
    <varray name="rec_basis" >
     <v>       0.03749561       0.00000000       0.00000000 </v>
     <v>       0.00000000       0.04326177       0.00000000 </v>
     <v>       0.00000000       0.00000000       0.04259982 </v>
    </varray>
   </crystal>
   <varray name="positions" >
    <v>       0.04208397       0.57513273       0.17113901 </v>
    <v>       0.12310673       0.60594131       0.14345117 </v>
    <v>       0.09917607       0.45367605       0.24681687 </v>
    <v>       0.12230472       0.49194253       0.15526300 </v>
    <v>       0.03426323       0.47397799       0.15838149 </v>
    <v>       0.16557628       0.52015854       0.06921295 </v>
    <v>       0.11914284       0.55471385       0.23455581 </v>
    <v>       0.14070420       0.61460210       0.04342501 </v>
    <v>       0.19827725       0.55493203       0.16410254 </v>
    <v>       0.07540331       0.54176662       0.08133794 </v>
    <v>       0.03090238       0.51611350       0.25298638 </v>
    <v>       0.19919609       0.65047038       0.11578837 </v>
    <v>       0.23961452       0.57115705       0.07451958 </v>
   </varray>
  </structure>
  <varray name="forces" >
   <v>      -0.13233033       0.07352389       0.24347864 </v>
   <v>       0.00272981       0.16122797      -0.08625778 </v>
   <v>       0.01088576      -0.20055841      -0.08394578 </v>
   <v>       0.12026000      -0.13175001       0.04783648 </v>
   <v>       0.12595584      -0.01667037      -0.04768450 </v>
   <v>      -0.30725864      -0.11422576       0.10854633 </v>
   <v>      -0.13674005       0.09347125      -0.04728668 </v>
   <v>      -0.02281845      -0.00167711      -0.02221961 </v>
   <v>      -0.09506799      -0.18112097       0.12130542 </v>
   <v>       0.03350810      -0.06985493      -0.17417679 </v>
   <v>       0.09695287       0.15425581       0.01400063 </v>
   <v>      -0.01483333       0.14352200      -0.01982582 </v>
   <v>       0.31875640       0.08985663      -0.05377054 </v>
  </varray>
  <energy>
   <i name="e_fr_energy">    -32.36812057 </i>
   <i name="e_wo_entrp">    -32.33698014 </i>
   <i name="e_0_energy">    -32.35774043 </i>
  </energy>
  <time name="totalsc">  223.08  225.78</time>
 </calculation>
 <calculation>
  <scstep>
   <time name="dav">   15.46   15.52</time>
   <time name="total">   20.00   20.09</time>
   <energy>
    <i name="alphaZ">      8.54066088 </i>
    <i name="ewald">  24875.08155391 </i>
    <i name="hartreedc"> -41288.93514579 </i>
    <i name="XCdc">    574.63397380 </i>
    <i name="pawpsdc">  16752.86409448 </i>
    <i name="pawaedc"> -18147.84135970 </i>
    <i name="eentropy">     -0.03198140 </i>
    <i name="bandstr">   -889.11871715 </i>
    <i name="atom">  18082.44932260 </i>
    <i name="e_fr_energy">    -32.35759836 </i>
    <i name="e_wo_entrp">    -32.32561697 </i>
    <i name="e_0_energy">    -32.34693790 </i>
   </energy>
  </scstep>
  <scstep>
   <time name="dav">   18.18   18.53</time>
   <time name="total">   22.00   22.37</time>
   <energy>
    <i name="e_fr_energy">    -32.40278075 </i>
    <i name="e_wo_entrp">    -32.37113183 </i>
    <i name="e_0_energy">    -32.39223111 </i>
   </energy>
  </scstep>
  <scstep>
   <time name="dav">   15.09   15.19</time>
   <time name="total">   18.82   18.93</time>
   <energy>
    <i name="e_fr_energy">    -32.40032981 </i>
    <i name="e_wo_entrp">    -32.36857893 </i>
    <i name="e_0_energy">    -32.38974619 </i>
   </energy>
  </scstep>
  <scstep>
   <time name="dav">   21.25   21.28</time>
   <time name="total">   24.96   25.02</time>
   <energy>
    <i name="e_fr_energy">    -32.40011607 </i>
    <i name="e_wo_entrp">    -32.36829718 </i>
    <i name="e_0_energy">    -32.38950977 </i>
   </energy>
  </scstep>
  <scstep>
   <time name="dav">   16.58   16.63</time>
   <time name="total">   20.81   20.89</time>
   <energy>
    <i name="e_fr_energy">    -32.39981767 </i>
    <i name="e_wo_entrp">    -32.36798057 </i>
    <i name="e_0_energy">    -32.38920530 </i>
   </energy>
  </scstep>
  <scstep>
   <time name="dav">   23.75   23.80</time>
   <time name="total">   28.08   28.13</time>
   <energy>
    <i name="e_fr_energy">    -32.39975712 </i>
    <i name="e_wo_entrp">    -32.36783024 </i>
    <i name="e_0_energy">    -32.38911482 </i>
   </energy>
  </scstep>
  <scstep>
   <time name="dav">   18.60   18.62</time>
   <time name="total">   21.56   21.60</time>
   <energy>
    <i name="alphaZ">      8.54066088 </i>
    <i name="ewald">  24875.08155391 </i>
    <i name="hartreedc"> -41288.85859139 </i>
    <i name="XCdc">    574.63244370 </i>
    <i name="pawpsdc">  16746.94793389 </i>
    <i name="pawaedc"> -18141.77583553 </i>
    <i name="eentropy">     -0.03191093 </i>
    <i name="bandstr">   -889.38524646 </i>
    <i name="atom">  18082.44932260 </i>
    <i name="e_fr_energy">    -32.39966933 </i>
    <i name="e_wo_entrp">    -32.36775840 </i>
    <i name="e_0_energy">    -32.38903235 </i>
   </energy>
  </scstep>
  <structure>
   <crystal>
    <varray name="basis" >
     <v>      26.66978688       0.00000000       0.00000000 </v>
     <v>       0.00000000      23.11509423       0.00000000 </v>
     <v>       0.00000000       0.00000000      23.47427762 </v>
    </varray>
    <i name="volume">  14471.29677277 </i>
    <varray name="rec_basis" >
     <v>       0.03749561       0.00000000       0.00000000 </v>
     <v>       0.00000000       0.04326177       0.00000000 </v>
     <v>       0.00000000       0.00000000       0.04259982 </v>
    </varray>
   </crystal>
   <varray name="positions" >
    <v>       0.04192409       0.57548143       0.17191184 </v>
    <v>       0.12312796       0.60633172       0.14295823 </v>
    <v>       0.09883875       0.45303358       0.24655259 </v>
    <v>       0.12244648       0.49157089       0.15539679 </v>
    <v>       0.03500116       0.47392013       0.15813647 </v>
    <v>       0.16500811       0.51985064       0.06976265 </v>
    <v>       0.11857192       0.55521780       0.23417771 </v>
    <v>       0.14071382       0.61474595       0.04363688 </v>
    <v>       0.19773676       0.55413401       0.16442052 </v>
    <v>       0.07543879       0.54155220       0.08102080 </v>
    <v>       0.03161248       0.51643721       0.25309388 </v>
    <v>       0.19909125       0.65083926       0.11549132 </v>
    <v>       0.24024004       0.57146986       0.07442043 </v>
   </varray>
  </structure>
  <varray name="forces" >
   <v>      -0.07822234       0.07951885       0.08522397 </v>
   <v>      -0.06952920       0.09262354      -0.01773768 </v>
   <v>       0.05450619      -0.17857209      -0.09677806 </v>
   <v>       0.11433050      -0.12598702       0.07815798 </v>
   <v>       0.05313995       0.01229454      -0.01554784 </v>
   <v>      -0.09221651       0.00827783       0.04887428 </v>
   <v>      -0.09408334       0.03756511      -0.04595078 </v>
   <v>      -0.01570551      -0.02280628      -0.08420889 </v>
   <v>      -0.02207636      -0.08146117       0.02073777 </v>
   <v>      -0.01115576      -0.03511510      -0.05176684 </v>
   <v>       0.01954375       0.12451417       0.04769366 </v>
   <v>       0.03036273       0.06731981      -0.00960625 </v>
   <v>       0.11110591       0.02182782       0.04090868 </v>
  </varray>
  <energy>
   <i name="e_fr_energy">    -32.39966933 </i>
   <i name="e_wo_entrp">    -32.36775840 </i>
   <i name="e_0_energy">    -32.38903235 </i>
  </energy>
  <time name="totalsc">  170.03  170.90</time>
 </calculation>
 <calculation>
  <scstep>
   <time name="dav">   17.21   17.24</time>
   <time name="total">   21.74   21.79</time>
   <energy>
    <i name="alphaZ">      8.54066088 </i>
    <i name="ewald">  24868.83794931 </i>
    <i name="hartreedc"> -41283.17114521 </i>
    <i name="XCdc">    574.62385978 </i>
    <i name="pawpsdc">  16747.30000849 </i>
    <i name="pawaedc"> -18142.21061432 </i>
    <i name="eentropy">     -0.03294203 </i>
    <i name="bandstr">   -888.71998621 </i>
    <i name="atom">  18082.44932260 </i>
    <i name="e_fr_energy">    -32.38288672 </i>
    <i name="e_wo_entrp">    -32.34994469 </i>
    <i name="e_0_energy">    -32.37190604 </i>
   </energy>
  </scstep>
  <scstep>
   <time name="dav">   19.11   19.18</time>
   <time name="total">   23.28   23.36</time>
   <energy>
    <i name="e_fr_energy">    -32.40890253 </i>
    <i name="e_wo_entrp">    -32.37636027 </i>
    <i name="e_0_energy">    -32.39805511 </i>
   </energy>
  </scstep>
  <scstep>
   <time name="dav">   18.78   18.83</time>
   <time name="total">   23.43   23.49</time>
   <energy>
    <i name="e_fr_energy">    -32.40751909 </i>
    <i name="e_wo_entrp">    -32.37482511 </i>
    <i name="e_0_energy">    -32.39662109 </i>
   </energy>
  </scstep>
  <scstep>
   <time name="dav">   19.14   19.21</time>
   <time name="total">   23.46   23.55</time>
   <energy>
    <i name="e_fr_energy">    -32.40739846 </i>
    <i name="e_wo_entrp">    -32.37465216 </i>
    <i name="e_0_energy">    -32.39648303 </i>
   </energy>
  </scstep>
  <scstep>
   <time name="dav">   13.66   13.70</time>
   <time name="total">   18.24   18.29</time>
   <energy>
    <i name="e_fr_energy">    -32.40726942 </i>
    <i name="e_wo_entrp">    -32.37450962 </i>
    <i name="e_0_energy">    -32.39634948 </i>
   </energy>
  </scstep>
  <scstep>
   <time name="dav">   15.78   15.83</time>
   <time name="total">   18.50   18.55</time>
   <energy>
    <i name="alphaZ">      8.54066088 </i>
    <i name="ewald">  24868.83794931 </i>
    <i name="hartreedc"> -41282.85774025 </i>
    <i name="XCdc">    574.60849460 </i>
    <i name="pawpsdc">  16743.92972602 </i>
    <i name="pawaedc"> -18138.59980445 </i>
    <i name="eentropy">     -0.03282957 </i>
    <i name="bandstr">   -889.28305925 </i>
    <i name="atom">  18082.44932260 </i>
    <i name="e_fr_energy">    -32.40728012 </i>
    <i name="e_wo_entrp">    -32.37445055 </i>
    <i name="e_0_energy">    -32.39633693 </i>
   </energy>
  </scstep>
  <structure>
   <crystal>
    <varray name="basis" >
     <v>      26.66978688       0.00000000       0.00000000 </v>
     <v>       0.00000000      23.11509423       0.00000000 </v>
     <v>       0.00000000       0.00000000      23.47427762 </v>
    </varray>
    <i name="volume">  14471.29677277 </i>
    <varray name="rec_basis" >
     <v>       0.03749561       0.00000000       0.00000000 </v>
     <v>       0.00000000       0.04326177       0.00000000 </v>
     <v>       0.00000000       0.00000000       0.04259982 </v>
    </varray>
   </crystal>
   <varray name="positions" >
    <v>       0.04179927       0.57575362       0.17251513 </v>
    <v>       0.12314453       0.60663648       0.14257343 </v>
    <v>       0.09857543       0.45253206       0.24634628 </v>
    <v>       0.12255714       0.49128078       0.15550123 </v>
    <v>       0.03557720       0.47387496       0.15794520 </v>
    <v>       0.16456458       0.51961029       0.07019176 </v>
    <v>       0.11812625       0.55561120       0.23388256 </v>
    <v>       0.14072133       0.61485824       0.04380227 </v>
    <v>       0.19731483       0.55351105       0.16466875 </v>
    <v>       0.07546648       0.54138482       0.08077323 </v>
    <v>       0.03216681       0.51668991       0.25317780 </v>
    <v>       0.19900941       0.65112722       0.11525944 </v>
    <v>       0.24072834       0.57171405       0.07434302 </v>
   </varray>
  </structure>
  <varray name="forces" >
   <v>      -0.04558454       0.08872445      -0.03823667 </v>
   <v>      -0.12466523       0.04114040       0.03949279 </v>
   <v>       0.08722663      -0.16066032      -0.10409827 </v>
   <v>       0.11273983      -0.12695039       0.10595507 </v>
   <v>       0.00229316       0.03723381       0.00902661 </v>
   <v>       0.05810380       0.09527237      -0.00085793 </v>
   <v>      -0.05568741      -0.00335847      -0.04856509 </v>
   <v>      -0.00887144      -0.04230022      -0.13486280 </v>
   <v>       0.03094175      -0.00784598      -0.04810891 </v>
   <v>      -0.04361927      -0.00836791       0.03473550 </v>
   <v>      -0.03409294       0.10025934       0.07941336 </v>
   <v>       0.06284775       0.01284937      -0.00276192 </v>
   <v>      -0.04163210      -0.02599645       0.10886825 </v>
  </varray>
  <energy>
   <i name="e_fr_energy">    -32.40728012 </i>
   <i name="e_wo_entrp">    -32.37445055 </i>
   <i name="e_0_energy">    -32.39633693 </i>
  </energy>
  <time name="totalsc">  141.64  142.07</time>
 </calculation>
 <calculation>
  <scstep>
   <time name="dav">   14.82   14.83</time>
   <time name="total">   18.92   18.96</time>
   <energy>
    <i name="alphaZ">      8.54066088 </i>
    <i name="ewald">  24828.73149514 </i>
    <i name="hartreedc"> -41243.47364016 </i>
    <i name="XCdc">    574.54598199 </i>
    <i name="pawpsdc">  16743.77799589 </i>
    <i name="pawaedc"> -18138.51869091 </i>
    <i name="eentropy">     -0.03310722 </i>
    <i name="bandstr">   -888.42169697 </i>
    <i name="atom">  18082.44932260 </i>
    <i name="e_fr_energy">    -32.40167877 </i>
    <i name="e_wo_entrp">    -32.36857155 </i>
    <i name="e_0_energy">    -32.39064303 </i>
   </energy>
  </scstep>
  <scstep>
   <time name="dav">   23.32   23.36</time>
   <time name="total">   27.94   27.98</time>
   <energy>
    <i name="e_fr_energy">    -32.42066541 </i>
    <i name="e_wo_entrp">    -32.38779664 </i>
    <i name="e_0_energy">    -32.40970915 </i>
   </energy>
  </scstep>
  <scstep>
   <time name="dav">   16.25   16.29</time>
   <time name="total">   20.71   20.75</time>
   <energy>
    <i name="e_fr_energy">    -32.41971904 </i>
    <i name="e_wo_entrp">    -32.38670732 </i>
    <i name="e_0_energy">    -32.40871514 </i>
   </energy>
  </scstep>
  <scstep>
   <time name="dav">   20.01   20.05</time>
   <time name="total">   23.85   23.90</time>
   <energy>
    <i name="e_fr_energy">    -32.41965160 </i>
    <i name="e_wo_entrp">    -32.38662878 </i>
    <i name="e_0_energy">    -32.40864399 </i>
   </energy>
  </scstep>
  <scstep>
   <time name="dav">   14.95   14.97</time>
   <time name="total">   18.78   18.83</time>
   <energy>
    <i name="e_fr_energy">    -32.41951693 </i>
    <i name="e_wo_entrp">    -32.38648450 </i>
    <i name="e_0_energy">    -32.40850612 </i>
   </energy>
  </scstep>
  <scstep>
   <time name="dav">   20.08   20.14</time>
   <time name="total">   22.69   22.79</time>
   <energy>
    <i name="alphaZ">      8.54066088 </i>
    <i name="ewald">  24828.73149514 </i>
    <i name="hartreedc"> -41243.84086061 </i>
    <i name="XCdc">    574.56357476 </i>
    <i name="pawpsdc">  16734.97364255 </i>
    <i name="pawaedc"> -18129.49684403 </i>
    <i name="eentropy">     -0.03298334 </i>
    <i name="bandstr">   -888.30750295 </i>
    <i name="atom">  18082.44932260 </i>
    <i name="e_fr_energy">    -32.41949500 </i>
    <i name="e_wo_entrp">    -32.38651165 </i>
    <i name="e_0_energy">    -32.40850055 </i>
   </energy>
  </scstep>
  <structure>
   <crystal>
    <varray name="basis" >
     <v>      26.66978688       0.00000000       0.00000000 </v>
     <v>       0.00000000      23.11509423       0.00000000 </v>
     <v>       0.00000000       0.00000000      23.47427762 </v>
    </varray>
    <i name="volume">  14471.29677277 </i>
    <varray name="rec_basis" >
     <v>       0.03749561       0.00000000       0.00000000 </v>
     <v>       0.00000000       0.04326177       0.00000000 </v>
     <v>       0.00000000       0.00000000       0.04259982 </v>
    </varray>
   </crystal>
   <varray name="positions" >
    <v>       0.04161222       0.57617080       0.17259544 </v>
    <v>       0.12276111       0.60689384       0.14257581 </v>
    <v>       0.09875358       0.45177355       0.24590304 </v>
    <v>       0.12294888       0.49071944       0.15591460 </v>
    <v>       0.03579060       0.47399297       0.15790875 </v>
    <v>       0.16458726       0.51986755       0.07034235 </v>
    <v>       0.11779276       0.55573994       0.23360455 </v>
    <v>       0.14069631       0.61474601       0.04338293 </v>
    <v>       0.19726041       0.55325975       0.16458691 </v>
    <v>       0.07534016       0.54129474       0.08080785 </v>
    <v>       0.03225879       0.51714167       0.25348964 </v>
    <v>       0.19917640       0.65127662       0.11516662 </v>
    <v>       0.24077313       0.57170780       0.07470162 </v>
   </varray>
  </structure>
  <varray name="forces" >
   <v>      -0.06778727       0.04496156      -0.04180478 </v>
   <v>      -0.01988809       0.04164789      -0.01650184 </v>
   <v>      -0.00403849      -0.05808556      -0.06983931 </v>
   <v>       0.10518056      -0.09519904       0.00223798 </v>
   <v>       0.02138863       0.07654173       0.04914560 </v>
   <v>       0.03175241       0.06941157       0.01081906 </v>
   <v>      -0.04892974      -0.04259436      -0.03674818 </v>
   <v>      -0.00800427      -0.02315859      -0.06874125 </v>
   <v>      -0.00534846       0.03781271      -0.04045965 </v>
   <v>      -0.00676546      -0.02110458       0.08484187 </v>
   <v>       0.03243586       0.03516749       0.03818330 </v>
   <v>      -0.01226028      -0.03301572      -0.00354513 </v>
   <v>      -0.01773540      -0.03238508       0.09241234 </v>
  </varray>
  <energy>
   <i name="e_fr_energy">    -32.41949500 </i>
   <i name="e_wo_entrp">    -32.38651165 </i>
   <i name="e_0_energy">    -32.40850055 </i>
  </energy>
  <time name="totalsc">  145.11  145.52</time>
 </calculation>
 <calculation>
  <scstep>
   <time name="dav">   16.93   16.95</time>
   <time name="total">   23.24   23.26</time>
   <energy>
    <i name="alphaZ">      8.54066088 </i>
    <i name="ewald">  24785.97840180 </i>
    <i name="hartreedc"> -41201.86583115 </i>
    <i name="XCdc">    574.49925023 </i>
    <i name="pawpsdc">  16734.82428066 </i>
    <i name="pawaedc"> -18129.39699067 </i>
    <i name="eentropy">     -0.03327989 </i>
    <i name="bandstr">   -887.39934179 </i>
    <i name="atom">  18082.44932260 </i>
    <i name="e_fr_energy">    -32.40352734 </i>
    <i name="e_wo_entrp">    -32.37024744 </i>
    <i name="e_0_energy">    -32.39243404 </i>
   </energy>
  </scstep>
  <scstep>
   <time name="dav">   22.86   22.89</time>
   <time name="total">   30.18   30.23</time>
   <energy>
    <i name="e_fr_energy">    -32.42507295 </i>
    <i name="e_wo_entrp">    -32.39198611 </i>
    <i name="e_0_energy">    -32.41404400 </i>
   </energy>
  </scstep>
  <scstep>
   <time name="dav">   20.23   20.26</time>
   <time name="total">   25.28   25.59</time>
   <energy>
    <i name="e_fr_energy">    -32.42401360 </i>
    <i name="e_wo_entrp">    -32.39083722 </i>
    <i name="e_0_energy">    -32.41295481 </i>
   </energy>
  </scstep>
  <scstep>
   <time name="dav">   22.30   22.42</time>
   <time name="total">   26.71   26.86</time>
   <energy>
    <i name="e_fr_energy">    -32.42392543 </i>
    <i name="e_wo_entrp">    -32.39071664 </i>
    <i name="e_0_energy">    -32.41285584 </i>
   </energy>
  </scstep>
  <scstep>
   <time name="dav">   18.02   18.10</time>
   <time name="total">   22.66   22.76</time>
   <energy>
    <i name="e_fr_energy">    -32.42378472 </i>
    <i name="e_wo_entrp">    -32.39056446 </i>
    <i name="e_0_energy">    -32.41271130 </i>
   </energy>
  </scstep>
  <scstep>
   <time name="dav">   21.26   21.66</time>
   <time name="total">   24.49   24.91</time>
   <energy>
    <i name="alphaZ">      8.54066088 </i>
    <i name="ewald">  24785.97840180 </i>
    <i name="hartreedc"> -41202.14628344 </i>
    <i name="XCdc">    574.51250606 </i>
    <i name="pawpsdc">  16725.99380467 </i>
    <i name="pawaedc"> -18120.32380646 </i>
    <i name="eentropy">     -0.03315442 </i>
    <i name="bandstr">   -887.39522023 </i>
    <i name="atom">  18082.44932260 </i>
    <i name="e_fr_energy">    -32.42376855 </i>
    <i name="e_wo_entrp">    -32.39061413 </i>
    <i name="e_0_energy">    -32.41271708 </i>
   </energy>
  </scstep>
  <structure>
   <crystal>
    <varray name="basis" >
     <v>      26.66978688       0.00000000       0.00000000 </v>
     <v>       0.00000000      23.11509423       0.00000000 </v>
     <v>       0.00000000       0.00000000      23.47427762 </v>
    </varray>
    <i name="volume">  14471.29677277 </i>
    <varray name="rec_basis" >
     <v>       0.03749561       0.00000000       0.00000000 </v>
     <v>       0.00000000       0.04326177       0.00000000 </v>
     <v>       0.00000000       0.00000000       0.04259982 </v>
    </varray>
   </crystal>
   <varray name="positions" >
    <v>       0.04141307       0.57661493       0.17268094 </v>
    <v>       0.12235290       0.60716784       0.14257833 </v>
    <v>       0.09894325       0.45096603       0.24543115 </v>
    <v>       0.12336593       0.49012183       0.15635467 </v>
    <v>       0.03601779       0.47411860       0.15786994 </v>
    <v>       0.16461140       0.52014144       0.07050267 </v>
    <v>       0.11743773       0.55587700       0.23330859 </v>
    <v>       0.14066967       0.61462653       0.04293650 </v>
    <v>       0.19720248       0.55299221       0.16449978 </v>
    <v>       0.07520568       0.54119884       0.08084470 </v>
    <v>       0.03235671       0.51762262       0.25382162 </v>
    <v>       0.19935418       0.65143568       0.11506780 </v>
    <v>       0.24082082       0.57170114       0.07508339 </v>
   </varray>
  </structure>
  <varray name="forces" >
   <v>      -0.09470435       0.00150667      -0.04123857 </v>
   <v>       0.09045747       0.03208912      -0.08182583 </v>
   <v>      -0.10064173       0.03173860      -0.02908965 </v>
   <v>       0.09920863      -0.05348641      -0.10673405 </v>
   <v>       0.03975374       0.11191943       0.08661395 </v>
   <v>       0.00126083       0.04674095       0.02590432 </v>
   <v>      -0.04005135      -0.07848861      -0.02546952 </v>
   <v>      -0.00440244      -0.00346277       0.00518004 </v>
   <v>      -0.03557964       0.08187374      -0.02427790 </v>
   <v>       0.02953968      -0.02992188       0.12961179 </v>
   <v>       0.09184857      -0.02982773      -0.00107677 </v>
   <v>      -0.08875489      -0.07309017      -0.00633555 </v>
   <v>       0.01206550      -0.03759094       0.06873776 </v>
  </varray>
  <energy>
   <i name="e_fr_energy">    -32.42376855 </i>
   <i name="e_wo_entrp">    -32.39061413 </i>
   <i name="e_0_energy">    -32.41271708 </i>
  </energy>
  <time name="totalsc">  166.60  167.79</time>
 </calculation>
 <calculation>
  <scstep>
   <time name="dav">   17.31   17.43</time>
   <time name="total">   21.59   21.73</time>
   <energy>
    <i name="alphaZ">      8.54066088 </i>
    <i name="ewald">  24808.64982118 </i>
    <i name="hartreedc"> -41224.97497514 </i>
    <i name="XCdc">    574.56914702 </i>
    <i name="pawpsdc">  16725.86132998 </i>
    <i name="pawaedc"> -18120.24773972 </i>
    <i name="eentropy">     -0.03258194 </i>
    <i name="bandstr">   -887.22994905 </i>
    <i name="atom">  18082.44932260 </i>
    <i name="e_fr_energy">    -32.41496418 </i>
    <i name="e_wo_entrp">    -32.38238224 </i>
    <i name="e_0_energy">    -32.40410353 </i>
   </energy>
  </scstep>
  <scstep>
   <time name="dav">   22.27   22.40</time>
   <time name="total">   26.76   27.15</time>
   <energy>
    <i name="e_fr_energy">    -32.43609377 </i>
    <i name="e_wo_entrp">    -32.40353595 </i>
    <i name="e_0_energy">    -32.42524116 </i>
   </energy>
  </scstep>
  <scstep>
   <time name="dav">   15.98   16.06</time>
   <time name="total">   19.78   19.91</time>
   <energy>
    <i name="e_fr_energy">    -32.43512564 </i>
    <i name="e_wo_entrp">    -32.40255272 </i>
    <i name="e_0_energy">    -32.42426800 </i>
   </energy>
  </scstep>
  <scstep>
   <time name="dav">   17.82   17.96</time>
   <time name="total">   22.41   22.58</time>
   <energy>
    <i name="e_fr_energy">    -32.43496463 </i>
    <i name="e_wo_entrp">    -32.40235899 </i>
    <i name="e_0_energy">    -32.42409608 </i>
   </energy>
  </scstep>
  <scstep>
   <time name="dav">   15.21   17.43</time>
   <time name="total">   19.38   21.64</time>
   <energy>
    <i name="e_fr_energy">    -32.43472739 </i>
    <i name="e_wo_entrp">    -32.40214091 </i>
    <i name="e_0_energy">    -32.42386523 </i>
   </energy>
  </scstep>
  <scstep>
   <time name="dav">   26.22   26.49</time>
   <time name="total">   30.74   31.04</time>
   <energy>
    <i name="e_fr_energy">    -32.43467424 </i>
    <i name="e_wo_entrp">    -32.40216292 </i>
    <i name="e_0_energy">    -32.42383714 </i>
   </energy>
  </scstep>
  <scstep>
   <time name="dav">   16.88   17.31</time>
   <time name="total">   20.46   20.91</time>
   <energy>
    <i name="alphaZ">      8.54066088 </i>
    <i name="ewald">  24808.64982118 </i>
    <i name="hartreedc"> -41224.55409266 </i>
    <i name="XCdc">    574.55093781 </i>
    <i name="pawpsdc">  16731.59009190 </i>
    <i name="pawaedc"> -18126.11333575 </i>
    <i name="eentropy">     -0.03254496 </i>
    <i name="bandstr">   -887.51551176 </i>
    <i name="atom">  18082.44932260 </i>
    <i name="e_fr_energy">    -32.43465075 </i>
    <i name="e_wo_entrp">    -32.40210580 </i>
    <i name="e_0_energy">    -32.42380243 </i>
   </energy>
  </scstep>
  <structure>
   <crystal>
    <varray name="basis" >
     <v>      26.66978688       0.00000000       0.00000000 </v>
     <v>       0.00000000      23.11509423       0.00000000 </v>
     <v>       0.00000000       0.00000000      23.47427762 </v>
    </varray>
    <i name="volume">  14471.29677277 </i>
    <varray name="rec_basis" >
     <v>       0.03749561       0.00000000       0.00000000 </v>
     <v>       0.00000000       0.04326177       0.00000000 </v>
     <v>       0.00000000       0.00000000       0.04259982 </v>
    </varray>
   </crystal>
   <varray name="positions" >
    <v>       0.04097798       0.57693922       0.17259783 </v>
    <v>       0.12233877       0.60747877       0.14229342 </v>
    <v>       0.09876904       0.45049911       0.24499037 </v>
    <v>       0.12397138       0.48950237       0.15629668 </v>
    <v>       0.03630353       0.47460707       0.15814558 </v>
    <v>       0.16463263       0.52050445       0.07070856 </v>
    <v>       0.11705926       0.55569612       0.23300682 </v>
    <v>       0.14063696       0.61452841       0.04263408 </v>
    <v>       0.19705114       0.55309144       0.16435214 </v>
    <v>       0.07520022       0.54102350       0.08132534 </v>
    <v>       0.03271031       0.51786184       0.25405624 </v>
    <v>       0.19920810       0.65128980       0.11497465 </v>
    <v>       0.24089228       0.57156259       0.07559839 </v>
   </varray>
  </structure>
  <varray name="forces" >
   <v>      -0.06143204       0.02569163      -0.02479130 </v>
   <v>       0.02309017      -0.00877667      -0.03455769 </v>
   <v>      -0.10942859       0.02961236      -0.02397487 </v>
   <v>       0.07642395      -0.04977317      -0.10117144 </v>
   <v>       0.05677946       0.08886838       0.09344750 </v>
   <v>      -0.00407164       0.02336592       0.00012962 </v>
   <v>      -0.01197047      -0.07178408      -0.07151962 </v>
   <v>      -0.01816071       0.02393027       0.00316023 </v>
   <v>      -0.02963298       0.08260183       0.03504587 </v>
   <v>       0.03214747      -0.03289823       0.10352629 </v>
   <v>       0.05847384      -0.02934604       0.00355144 </v>
   <v>      -0.07281092      -0.03975179      -0.01839563 </v>
   <v>       0.06059247      -0.04174040       0.03554960 </v>
  </varray>
  <energy>
   <i name="e_fr_energy">    -32.43465075 </i>
   <i name="e_wo_entrp">    -32.40210580 </i>
   <i name="e_0_energy">    -32.42380243 </i>
  </energy>
  <time name="totalsc">  174.55  178.49</time>
 </calculation>
 <calculation>
  <scstep>
   <time name="dav">   18.30   18.73</time>
   <time name="total">   22.13   22.60</time>
   <energy>
    <i name="alphaZ">      8.54066088 </i>
    <i name="ewald">  24873.63539515 </i>
    <i name="hartreedc"> -41289.82649020 </i>
    <i name="XCdc">    574.72296702 </i>
    <i name="pawpsdc">  16731.82196727 </i>
    <i name="pawaedc"> -18126.38560793 </i>
    <i name="eentropy">     -0.03122422 </i>
    <i name="bandstr">   -887.17203285 </i>
    <i name="atom">  18082.44932260 </i>
    <i name="e_fr_energy">    -32.24504228 </i>
    <i name="e_wo_entrp">    -32.21381806 </i>
    <i name="e_0_energy">    -32.23463421 </i>
   </energy>
  </scstep>
  <scstep>
   <time name="dav">   22.37   22.56</time>
   <time name="total">   26.12   26.33</time>
   <energy>
    <i name="e_fr_energy">    -32.46465712 </i>
    <i name="e_wo_entrp">    -32.43352932 </i>
    <i name="e_0_energy">    -32.45428119 </i>
   </energy>
  </scstep>
  <scstep>
   <time name="dav">   16.23   16.35</time>
   <time name="total">   20.04   20.20</time>
   <energy>
    <i name="e_fr_energy">    -32.45453573 </i>
    <i name="e_wo_entrp">    -32.42337263 </i>
    <i name="e_0_energy">    -32.44414803 </i>
   </energy>
  </scstep>
  <scstep>
   <time name="dav">   19.20   19.31</time>
   <time name="total">   24.39   24.53</time>
   <energy>
    <i name="e_fr_energy">    -32.45347210 </i>
    <i name="e_wo_entrp">    -32.42229152 </i>
    <i name="e_0_energy">    -32.44307857 </i>
   </energy>
  </scstep>
  <scstep>
   <time name="dav">   17.42   17.86</time>
   <time name="total">   21.47   21.96</time>
   <energy>
    <i name="e_fr_energy">    -32.45054058 </i>
    <i name="e_wo_entrp">    -32.41936549 </i>
    <i name="e_0_energy">    -32.44014889 </i>
   </energy>
  </scstep>
  <scstep>
   <time name="dav">   24.73   25.05</time>
   <time name="total">   28.62   29.07</time>
   <energy>
    <i name="e_fr_energy">    -32.44901070 </i>
    <i name="e_wo_entrp">    -32.41791138 </i>
    <i name="e_0_energy">    -32.43864426 </i>
   </energy>
  </scstep>
  <scstep>
   <time name="dav">   15.62   15.64</time>
   <time name="total">   19.35   19.38</time>
   <energy>
    <i name="e_fr_energy">    -32.44877912 </i>
    <i name="e_wo_entrp">    -32.41764216 </i>
    <i name="e_0_energy">    -32.43840013 </i>
   </energy>
  </scstep>
  <scstep>
   <time name="dav">   17.40   18.90</time>
   <time name="total">   21.44   22.98</time>
   <energy>
    <i name="e_fr_energy">    -32.44889958 </i>
    <i name="e_wo_entrp">    -32.41774184 </i>
    <i name="e_0_energy">    -32.43851366 </i>
   </energy>
  </scstep>
  <scstep>
   <time name="dav">   15.33   15.67</time>
   <time name="total">   18.93   19.67</time>
   <energy>
    <i name="alphaZ">      8.54066088 </i>
    <i name="ewald">  24873.63539515 </i>
    <i name="hartreedc"> -41288.20012711 </i>
    <i name="XCdc">    574.64534112 </i>
    <i name="pawpsdc">  16750.20755946 </i>
    <i name="pawaedc"> -18145.18221976 </i>
    <i name="eentropy">     -0.03115056 </i>
    <i name="bandstr">   -888.51369466 </i>
    <i name="atom">  18082.44932260 </i>
    <i name="e_fr_energy">    -32.44891289 </i>
    <i name="e_wo_entrp">    -32.41776232 </i>
    <i name="e_0_energy">    -32.43852937 </i>
   </energy>
  </scstep>
  <structure>
   <crystal>
    <varray name="basis" >
     <v>      26.66978688       0.00000000       0.00000000 </v>
     <v>       0.00000000      23.11509423       0.00000000 </v>
     <v>       0.00000000       0.00000000      23.47427762 </v>
    </varray>
    <i name="volume">  14471.29677277 </i>
    <varray name="rec_basis" >
     <v>       0.03749561       0.00000000       0.00000000 </v>
     <v>       0.00000000       0.04326177       0.00000000 </v>
     <v>       0.00000000       0.00000000       0.04259982 </v>
    </varray>
   </crystal>
   <varray name="positions" >
    <v>       0.03967272       0.57791207       0.17234852 </v>
    <v>       0.12229638       0.60841159       0.14143868 </v>
    <v>       0.09824643       0.44909836       0.24366802 </v>
    <v>       0.12578774       0.48764398       0.15612269 </v>
    <v>       0.03716077       0.47607251       0.15897249 </v>
    <v>       0.16469631       0.52159345       0.07132623 </v>
    <v>       0.11592385       0.55515347       0.23210151 </v>
    <v>       0.14053885       0.61423406       0.04172682 </v>
    <v>       0.19659713       0.55338913       0.16390924 </v>
    <v>       0.07518383       0.54049747       0.08276724 </v>
    <v>       0.03377110       0.51857950       0.25476010 </v>
    <v>       0.19876985       0.65085216       0.11469517 </v>
    <v>       0.24110665       0.57114694       0.07714339 </v>
   </varray>
  </structure>
  <varray name="forces" >
   <v>       0.02454110       0.10037547       0.03425909 </v>
   <v>      -0.18337631      -0.09774820       0.09606322 </v>
   <v>      -0.12852355       0.03371689       0.01175473 </v>
   <v>       0.01066231      -0.06378307      -0.07750923 </v>
   <v>       0.09032930       0.01294313       0.10881402 </v>
   <v>      -0.02871464      -0.05064879      -0.09049648 </v>
   <v>       0.12296275      -0.04355549      -0.21741047 </v>
   <v>      -0.05986367       0.10631371      -0.00491987 </v>
   <v>      -0.01703251       0.08160587       0.23632796 </v>
   <v>       0.05134133      -0.03385331       0.03177172 </v>
   <v>      -0.08721136      -0.04972963       0.01663880 </v>
   <v>      -0.01542407       0.05712925      -0.05917243 </v>
   <v>       0.22030933      -0.05276584      -0.08612106 </v>
  </varray>
  <energy>
   <i name="e_fr_energy">    -32.44891289 </i>
   <i name="e_wo_entrp">    -32.41776232 </i>
   <i name="e_0_energy">    -32.43852937 </i>
  </energy>
  <time name="totalsc">  217.28  221.67</time>
 </calculation>
 <calculation>
  <scstep>
   <time name="dav">   20.84   20.94</time>
   <time name="total">   24.50   24.62</time>
   <energy>
    <i name="alphaZ">      8.54066088 </i>
    <i name="ewald">  24877.10686087 </i>
    <i name="hartreedc"> -41291.35045447 </i>
    <i name="XCdc">    574.63648355 </i>
    <i name="pawpsdc">  16749.77262229 </i>
    <i name="pawaedc"> -18144.59744890 </i>
    <i name="eentropy">     -0.03098844 </i>
    <i name="bandstr">   -888.97532201 </i>
    <i name="atom">  18082.44932260 </i>
    <i name="e_fr_energy">    -32.44826365 </i>
    <i name="e_wo_entrp">    -32.41727520 </i>
    <i name="e_0_energy">    -32.43793417 </i>
   </energy>
  </scstep>
  <scstep>
   <time name="dav">   20.71   20.84</time>
   <time name="total">   24.77   24.93</time>
   <energy>
    <i name="e_fr_energy">    -32.45681904 </i>
    <i name="e_wo_entrp">    -32.42583119 </i>
    <i name="e_0_energy">    -32.44648975 </i>
   </energy>
  </scstep>
  <scstep>
   <time name="dav">   17.49   17.56</time>
   <time name="total">   22.32   23.91</time>
   <energy>
    <i name="e_fr_energy">    -32.45643140 </i>
    <i name="e_wo_entrp">    -32.42544764 </i>
    <i name="e_0_energy">    -32.44610348 </i>
   </energy>
  </scstep>
  <scstep>
   <time name="dav">   15.60   17.87</time>
   <time name="total">   18.83   21.11</time>
   <energy>
    <i name="alphaZ">      8.54066088 </i>
    <i name="ewald">  24877.10686087 </i>
    <i name="hartreedc"> -41291.30408038 </i>
    <i name="XCdc">    574.62722787 </i>
    <i name="pawpsdc">  16750.46795497 </i>
    <i name="pawaedc"> -18145.14832171 </i>
    <i name="eentropy">     -0.03098825 </i>
    <i name="bandstr">   -889.16500511 </i>
    <i name="atom">  18082.44932260 </i>
    <i name="e_fr_energy">    -32.45636827 </i>
    <i name="e_wo_entrp">    -32.42538001 </i>
    <i name="e_0_energy">    -32.44603885 </i>
   </energy>
  </scstep>
  <structure>
   <crystal>
    <varray name="basis" >
     <v>      26.66978688       0.00000000       0.00000000 </v>
     <v>       0.00000000      23.11509423       0.00000000 </v>
     <v>       0.00000000       0.00000000      23.47427762 </v>
    </varray>
    <i name="volume">  14471.29677277 </i>
    <varray name="rec_basis" >
     <v>       0.03749561       0.00000000       0.00000000 </v>
     <v>       0.00000000       0.04326177       0.00000000 </v>
     <v>       0.00000000       0.00000000       0.04259982 </v>
    </varray>
   </crystal>
   <varray name="positions" >
    <v>       0.03943828       0.57819449       0.17233123 </v>
    <v>       0.12214087       0.60850264       0.14135991 </v>
    <v>       0.09804146       0.44885687       0.24342128 </v>
    <v>       0.12614995       0.48722305       0.15601810 </v>
    <v>       0.03740022       0.47636983       0.15923277 </v>
    <v>       0.16468565       0.52175856       0.07136393 </v>
    <v>       0.11580152       0.55500746       0.23172688 </v>
    <v>       0.14047167       0.61427525       0.04154568 </v>
    <v>       0.19649505       0.55352271       0.16403861 </v>
    <v>       0.07522187       0.54036368       0.08307698 </v>
    <v>       0.03390761       0.51867315       0.25491232 </v>
    <v>       0.19867214       0.65081988       0.11458677 </v>
    <v>       0.24132530       0.57101712       0.07736564 </v>
   </varray>
  </structure>
  <varray name="forces" >
   <v>       0.01081111       0.10982361       0.05208819 </v>
[...]
       <r>    -1.3154     3.1728    80.1630 </r>
       <r>    -1.2663     3.4269    80.3310 </r>
       <r>    -1.2173     3.6413    80.5096 </r>
       <r>    -1.1682     3.5372    80.6831 </r>
       <r>    -1.1192     3.2177    80.8409 </r>
       <r>    -1.0701     3.1316    80.9945 </r>
       <r>    -1.0211     3.6977    81.1759 </r>
       <r>    -0.9720     4.9217    81.4173 </r>
       <r>    -0.9230     6.3434    81.7284 </r>
       <r>    -0.8739     7.3512    82.0889 </r>
       <r>    -0.8249     7.5901    82.4612 </r>
       <r>    -0.7759     7.1313    82.8109 </r>
       <r>    -0.7268     6.3156    83.1207 </r>
       <r>    -0.6778     5.4776    83.3893 </r>
       <r>    -0.6287     4.8166    83.6256 </r>
       <r>    -0.5797     4.4543    83.8440 </r>
       <r>    -0.5306     4.5031    84.0649 </r>
       <r>    -0.4816     5.0016    84.3102 </r>
       <r>    -0.4325     5.8010    84.5947 </r>
       <r>    -0.3835     6.5831    84.9176 </r>
       <r>    -0.3344     7.0357    85.2626 </r>
       <r>    -0.2854     7.0276    85.6073 </r>
       <r>    -0.2364     6.6243    85.9322 </r>
       <r>    -0.1873     5.9714    86.2251 </r>
       <r>    -0.1383     5.2021    86.4802 </r>
       <r>    -0.0892     4.4681    86.6993 </r>
       <r>    -0.0402     4.0254    86.8968 </r>
       <r>     0.0089     4.2398    87.1047 </r>
       <r>     0.0579     5.4613    87.3726 </r>
       <r>     0.1070     7.8162    87.7559 </r>
       <r>     0.1560    11.0027    88.2955 </r>
       <r>     0.2050    14.2016    88.9921 </r>
       <r>     0.2541    16.2602    89.7896 </r>
       <r>     0.3031    16.2006    90.5841 </r>
       <r>     0.3522    13.8021    91.2610 </r>
       <r>     0.4012     9.8054    91.7420 </r>
       <r>     0.4503     5.5202    92.0127 </r>
       <r>     0.4993     2.1108    92.1162 </r>
       <r>     0.5484     0.0891    92.1206 </r>
       <r>     0.5974    -0.7019    92.0862 </r>
       <r>     0.6465    -0.7509    92.0493 </r>
       <r>     0.6955    -0.5215    92.0238 </r>
       <r>     0.7445    -0.2840    92.0098 </r>
       <r>     0.7936    -0.1283    92.0035 </r>
       <r>     0.8426    -0.0494    92.0011 </r>
       <r>     0.8917    -0.0164    92.0003 </r>
       <r>     0.9407    -0.0047    92.0001 </r>
       <r>     0.9898    -0.0012    92.0000 </r>
       <r>     1.0388    -0.0003    92.0000 </r>
       <r>     1.0879    -0.0001    92.0000 </r>
       <r>     1.1369    -0.0000    92.0000 </r>
       <r>     1.1860    -0.0000    92.0000 </r>
       <r>     1.2350    -0.0000    92.0000 </r>
       <r>     1.2840    -0.0000    92.0000 </r>
       <r>     1.3331    -0.0000    92.0000 </r>
       <r>     1.3821    -0.0000    92.0000 </r>
       <r>     1.4312    -0.0000    92.0000 </r>
       <r>     1.4802    -0.0000    92.0000 </r>
       <r>     1.5293    -0.0000    92.0000 </r>
       <r>     1.5783    -0.0000    92.0000 </r>
       <r>     1.6274     0.0000    92.0000 </r>
       <r>     1.6764     0.0000    92.0000 </r>
       <r>     1.7255     0.0000    92.0000 </r>
       <r>     1.7745     0.0000    92.0000 </r>
       <r>     1.8235     0.0000    92.0000 </r>
       <r>     1.8726     0.0000    92.0000 </r>
       <r>     1.9216     0.0000    92.0000 </r>
       <r>     1.9707     0.0000    92.0000 </r>
       <r>     2.0197     0.0000    92.0000 </r>
       <r>     2.0688     0.0000    92.0000 </r>
       <r>     2.1178     0.0000    92.0000 </r>
       <r>     2.1669     0.0000    92.0000 </r>
       <r>     2.2159     0.0000    92.0000 </r>
       <r>     2.2650     0.0000    92.0000 </r>
       <r>     2.3140     0.0000    92.0000 </r>
      </set>
      <set comment="spin 2">
       <r>   -12.3996     0.0000     0.0000 </r>
       <r>   -12.3505     0.0000     0.0000 </r>
       <r>   -12.3015     0.0000     0.0000 </r>
       <r>   -12.2525     0.0000     0.0000 </r>
       <r>   -12.2034     0.0000     0.0000 </r>
       <r>   -12.1544     0.0000     0.0000 </r>
       <r>   -12.1053     0.0000     0.0000 </r>
       <r>   -12.0563     0.0000     0.0000 </r>
       <r>   -12.0072    -0.0000    -0.0000 </r>
       <r>   -11.9582    -0.0000    -0.0000 </r>
       <r>   -11.9091    -0.0000    -0.0000 </r>
       <r>   -11.8601    -0.0000    -0.0000 </r>
       <r>   -11.8110    -0.0000    -0.0000 </r>
       <r>   -11.7620    -0.0000    -0.0000 </r>
       <r>   -11.7130    -0.0000    -0.0000 </r>
       <r>   -11.6639    -0.0000    -0.0000 </r>
       <r>   -11.6149    -0.0000    -0.0000 </r>
       <r>   -11.5658    -0.0000    -0.0000 </r>
       <r>   -11.5168    -0.0000    -0.0000 </r>
       <r>   -11.4677    -0.0000    -0.0000 </r>
       <r>   -11.4187    -0.0000    -0.0000 </r>
       <r>   -11.3696    -0.0000    -0.0000 </r>
       <r>   -11.3206    -0.0000    -0.0000 </r>
       <r>   -11.2715    -0.0000    -0.0000 </r>
       <r>   -11.2225    -0.0000    -0.0000 </r>
       <r>   -11.1735    -0.0000    -0.0000 </r>
       <r>   -11.1244    -0.0000    -0.0000 </r>
       <r>   -11.0754    -0.0002    -0.0000 </r>
       <r>   -11.0263    -0.0007    -0.0000 </r>
       <r>   -10.9773    -0.0026    -0.0002 </r>
       <r>   -10.9282    -0.0087    -0.0006 </r>
       <r>   -10.8792    -0.0246    -0.0018 </r>
       <r>   -10.8301    -0.0597    -0.0047 </r>
       <r>   -10.7811    -0.1207    -0.0107 </r>
       <r>   -10.7320    -0.1950    -0.0202 </r>
       <r>   -10.6830    -0.2225    -0.0311 </r>
       <r>   -10.6340    -0.0788    -0.0350 </r>
       <r>   -10.5849     0.3926    -0.0157 </r>
       <r>   -10.5359     1.2750     0.0468 </r>
       <r>   -10.4868     2.4499     0.1669 </r>
       <r>   -10.4378     3.5617     0.3416 </r>
       <r>   -10.3887     4.1642     0.5459 </r>
       <r>   -10.3397     3.9848     0.7413 </r>
       <r>   -10.2906     3.1067     0.8937 </r>
       <r>   -10.2416     1.9118     0.9874 </r>
       <r>   -10.1926     0.8353     1.0284 </r>
       <r>   -10.1435     0.1348     1.0350 </r>
       <r>   -10.0945    -0.1737     1.0265 </r>
       <r>   -10.0454    -0.2226     1.0156 </r>
       <r>    -9.9964    -0.1629     1.0076 </r>
       <r>    -9.9473    -0.0906     1.0031 </r>
       <r>    -9.8983    -0.0414     1.0011 </r>
       <r>    -9.8492    -0.0167     1.0003 </r>
       <r>    -9.8002    -0.0085     0.9999 </r>
       <r>    -9.7511    -0.0122     0.9993 </r>
       <r>    -9.7021    -0.0300     0.9978 </r>
       <r>    -9.6531    -0.0695     0.9944 </r>
       <r>    -9.6040    -0.1351     0.9878 </r>
       <r>    -9.5550    -0.2069     0.9776 </r>
       <r>    -9.5059    -0.2129     0.9672 </r>
       <r>    -9.4569    -0.0176     0.9663 </r>
       <r>    -9.4078     0.5313     0.9924 </r>
       <r>    -9.3588     1.4874     1.0653 </r>
       <r>    -9.3097     2.6839     1.1970 </r>
       <r>    -9.2607     3.7305     1.3799 </r>
       <r>    -9.2116     4.1933     1.5856 </r>
       <r>    -9.1626     3.8607     1.7749 </r>
       <r>    -9.1136     2.8858     1.9165 </r>
       <r>    -9.0645     1.6829     1.9990 </r>
       <r>    -9.0155     0.6669     2.0317 </r>
       <r>    -8.9664     0.0473     2.0340 </r>
       <r>    -8.9174    -0.1988     2.0243 </r>
       <r>    -8.8683    -0.2174     2.0136 </r>
       <r>    -8.8193    -0.1543     2.0061 </r>
       <r>    -8.7702    -0.0974     2.0013 </r>
       <r>    -8.7212    -0.0817     1.9973 </r>
       <r>    -8.6721    -0.1138     1.9917 </r>
       <r>    -8.6231    -0.1802     1.9829 </r>
       <r>    -8.5741    -0.2324     1.9715 </r>
       <r>    -8.5250    -0.1654     1.9633 </r>
       <r>    -8.4760     0.1677     1.9716 </r>
       <r>    -8.4269     0.8735     2.0144 </r>
       <r>    -8.3779     1.8971     2.1075 </r>
       <r>    -8.3288     2.9725     2.2532 </r>
       <r>    -8.2798     3.7466     2.4370 </r>
       <r>    -8.2307     4.0382     2.6351 </r>
       <r>    -8.1817     4.0167     2.8321 </r>
       <r>    -8.1326     4.1040     3.0333 </r>
       <r>    -8.0836     4.6463     3.2612 </r>
       <r>    -8.0346     5.6361     3.5376 </r>
       <r>    -7.9855     6.7244     3.8674 </r>
       <r>    -7.9365     7.4856     4.2346 </r>
       <r>    -7.8874     7.6845     4.6115 </r>
       <r>    -7.8384     7.3490     4.9719 </r>
       <r>    -7.7893     6.6682     5.2989 </r>
       <r>    -7.7403     5.8644     5.5866 </r>
       <r>    -7.6912     5.1257     5.8379 </r>
       <r>    -7.6422     4.5809     6.0626 </r>
       <r>    -7.5932     4.2988     6.2735 </r>
       <r>    -7.5441     4.3450     6.4866 </r>
       <r>    -7.4951     4.8816     6.7260 </r>
       <r>    -7.4460     6.1794     7.0290 </r>
       <r>    -7.3970     8.4388     7.4429 </r>
       <r>    -7.3479    11.5236     8.0081 </r>
       <r>    -7.2989    14.8675     8.7373 </r>
       <r>    -7.2498    17.6957     9.6052 </r>
       <r>    -7.2008    19.4229    10.5578 </r>
       <r>    -7.1517    19.9327    11.5354 </r>
       <r>    -7.1027    19.5499    12.4942 </r>
       <r>    -7.0537    18.7662    13.4146 </r>
       <r>    -7.0046    17.9546    14.2952 </r>
       <r>    -6.9556    17.2785    15.1426 </r>
       <r>    -6.9065    16.8151    15.9673 </r>
       <r>    -6.8575    16.7153    16.7871 </r>
       <r>    -6.8084    17.1834    17.6299 </r>
       <r>    -6.7594    18.2431    18.5246 </r>
       <r>    -6.7103    19.5149    19.4818 </r>
       <r>    -6.6613    20.3060    20.4777 </r>
       <r>    -6.6122    20.0622    21.4616 </r>
       <r>    -6.5632    18.8377    22.3855 </r>
       <r>    -6.5142    17.3373    23.2358 </r>
       <r>    -6.4651    16.4418    24.0422 </r>
       <r>    -6.4161    16.5969    24.8562 </r>
       <r>    -6.3670    17.5579    25.7174 </r>
       <r>    -6.3180    18.6439    26.6318 </r>
       <r>    -6.2689    19.2564    27.5762 </r>
       <r>    -6.2199    19.2790    28.5217 </r>
       <r>    -6.1708    19.1120    29.4591 </r>
       <r>    -6.1218    19.3601    30.4086 </r>
       <r>    -6.0727    20.4178    31.4100 </r>
       <r>    -6.0237    22.2589    32.5017 </r>
       <r>    -5.9747    24.5577    33.7062 </r>
       <r>    -5.9256    26.9866    35.0297 </r>
       <r>    -5.8766    29.4174    36.4725 </r>
       <r>    -5.8275    31.9048    38.0373 </r>
       <r>    -5.7785    34.5411    39.7314 </r>
       <r>    -5.7294    37.3180    41.5616 </r>
       <r>    -5.6804    40.0471    43.5258 </r>
       <r>    -5.6313    42.3509    45.6029 </r>
       <r>    -5.5823    43.7703    47.7496 </r>
       <r>    -5.5332    44.0233    49.9087 </r>
       <r>    -5.4842    43.3018    52.0325 </r>
       <r>    -5.4352    42.3313    54.1086 </r>
       <r>    -5.3861    41.9805    56.1676 </r>
       <r>    -5.3371    42.5616    58.2550 </r>
       <r>    -5.2880    43.3440    60.3808 </r>
       <r>    -5.2390    42.7829    62.4791 </r>
       <r>    -5.1899    39.4447    64.4137 </r>
       <r>    -5.1409    33.0146    66.0329 </r>
       <r>    -5.0918    24.6392    67.2414 </r>
       <r>    -5.0428    16.3353    68.0425 </r>
       <r>    -4.9938     9.9093    68.5285 </r>
       <r>    -4.9447     6.1523    68.8303 </r>
       <r>    -4.8957     4.7698    69.0642 </r>
       <r>    -4.8466     4.8790    69.3035 </r>
       <r>    -4.7976     5.5729    69.5768 </r>
       <r>    -4.7485     6.2031    69.8811 </r>
       <r>    -4.6995     6.3905    70.1945 </r>
       <r>    -4.6504     5.9607    70.4868 </r>
       <r>    -4.6014     4.9288    70.7286 </r>
       <r>    -4.5523     3.5044    70.9004 </r>
       <r>    -4.5033     2.0293    71.0000 </r>
       <r>    -4.4543     0.8306    71.0407 </r>
       <r>    -4.4052     0.0766    71.0445 </r>
       <r>    -4.3562    -0.2632    71.0315 </r>
       <r>    -4.3071    -0.3454    71.0146 </r>
       <r>    -4.2581    -0.3351    70.9982 </r>
       <r>    -4.2090    -0.3194    70.9825 </r>
       <r>    -4.1600    -0.2709    70.9692 </r>
       <r>    -4.1109    -0.0598    70.9663 </r>
       <r>    -4.0619     0.4785    70.9898 </r>
       <r>    -4.0128     1.4167    71.0592 </r>
       <r>    -3.9638     2.6083    71.1872 </r>
       <r>    -3.9148     3.6737    71.3674 </r>
       <r>    -3.8657     4.1702    71.5719 </r>
       <r>    -3.8167     3.8584    71.7611 </r>
       <r>    -3.7676     2.8608    71.9014 </r>
       <r>    -3.7186     1.5853    71.9792 </r>
       <r>    -3.6695     0.4939    72.0034 </r>
       <r>    -3.6205    -0.0874    71.9991 </r>
       <r>    -3.5714    -0.0166    71.9983 </r>
       <r>    -3.5224     0.6889    72.0321 </r>
       <r>    -3.4733     1.8456    72.1226 </r>
       <r>    -3.4243     3.0823    72.2738 </r>
       <r>    -3.3753     3.9171    72.4659 </r>
       <r>    -3.3262     3.9765    72.6609 </r>
       <r>    -3.2772     3.2286    72.8193 </r>
       <r>    -3.2281     2.0391    72.9193 </r>
       <r>    -3.1791     0.9973    72.9682 </r>
       <r>    -3.1300     0.6327    72.9992 </r>
       <r>    -3.0810     1.1925    73.0577 </r>
       <r>    -3.0319     2.5594    73.1832 </r>
       <r>    -2.9829     4.3090    73.3946 </r>
       <r>    -2.9338     5.8796    73.6829 </r>
       <r>    -2.8848     6.8095    74.0169 </r>
       <r>    -2.8358     6.9396    74.3573 </r>
       <r>    -2.7867     6.4610    74.6741 </r>
       <r>    -2.7377     5.7555    74.9564 </r>
       <r>    -2.6886     5.1309    75.2081 </r>
       <r>    -2.6396     4.6629    75.4368 </r>
       <r>    -2.5905     4.2697    75.6462 </r>
       <r>    -2.5415     3.9173    75.8383 </r>
       <r>    -2.4924     3.7010    76.0198 </r>
       <r>    -2.4434     3.6991    76.2012 </r>
       <r>    -2.3944     3.7890    76.3871 </r>
       <r>    -2.3453     3.6971    76.5684 </r>
       <r>    -2.2963     3.2964    76.7301 </r>
       <r>    -2.2472     2.8496    76.8698 </r>
       <r>    -2.1982     2.9017    77.0121 </r>
       <r>    -2.1491     3.8452    77.2007 </r>
       <r>    -2.1001     5.5105    77.4710 </r>
       <r>    -2.0510     7.1490    77.8216 </r>
       <r>    -2.0020     7.8658    78.2074 </r>
       <r>    -1.9529     7.1876    78.5599 </r>
       <r>    -1.9039     5.3387    78.8218 </r>
       <r>    -1.8549     3.0511    78.9714 </r>
       <r>    -1.8058     1.1150    79.0261 </r>
       <r>    -1.7568     0.0291    79.0275 </r>
       <r>    -1.7077    -0.0790    79.0236 </r>
       <r>    -1.6587     0.6379    79.0549 </r>
       <r>    -1.6096     1.8352    79.1449 </r>
       <r>    -1.5606     3.0437    79.2942 </r>
       <r>    -1.5115     3.8108    79.4811 </r>
       <r>    -1.4625     3.9300    79.6739 </r>
       <r>    -1.4134     3.5840    79.8496 </r>
       <r>    -1.3644     3.2158    80.0074 </r>
       <r>    -1.3154     3.1728    80.1630 </r>
       <r>    -1.2663     3.4269    80.3310 </r>
       <r>    -1.2173     3.6413    80.5096 </r>
       <r>    -1.1682     3.5372    80.6831 </r>
       <r>    -1.1192     3.2177    80.8409 </r>
       <r>    -1.0701     3.1316    80.9945 </r>
       <r>    -1.0211     3.6976    81.1759 </r>
       <r>    -0.9720     4.9217    81.4173 </r>
       <r>    -0.9230     6.3434    81.7284 </r>
       <r>    -0.8739     7.3512    82.0889 </r>
       <r>    -0.8249     7.5901    82.4612 </r>
       <r>    -0.7759     7.1313    82.8109 </r>
       <r>    -0.7268     6.3156    83.1207 </r>
       <r>    -0.6778     5.4777    83.3893 </r>
       <r>    -0.6287     4.8166    83.6256 </r>
       <r>    -0.5797     4.4543    83.8440 </r>
       <r>    -0.5306     4.5031    84.0649 </r>
       <r>    -0.4816     5.0015    84.3102 </r>
       <r>    -0.4325     5.8010    84.5947 </r>
       <r>    -0.3835     6.5830    84.9176 </r>
       <r>    -0.3344     7.0356    85.2626 </r>
       <r>    -0.2854     7.0276    85.6073 </r>
       <r>    -0.2364     6.6244    85.9322 </r>
       <r>    -0.1873     5.9714    86.2251 </r>
       <r>    -0.1383     5.2021    86.4802 </r>
       <r>    -0.0892     4.4680    86.6993 </r>
       <r>    -0.0402     4.0250    86.8967 </r>
       <r>     0.0089     4.2390    87.1046 </r>
       <r>     0.0579     5.4601    87.3724 </r>
       <r>     0.1070     7.8147    87.7557 </r>
       <r>     0.1560    11.0010    88.2952 </r>
       <r>     0.2050    14.2002    88.9917 </r>
       <r>     0.2541    16.2596    89.7892 </r>
       <r>     0.3031    16.2011    90.5837 </r>
       <r>     0.3522    13.8036    91.2607 </r>
       <r>     0.4012     9.8075    91.7418 </r>
       <r>     0.4503     5.5221    92.0126 </r>
       <r>     0.4993     2.1122    92.1162 </r>
       <r>     0.5484     0.0898    92.1206 </r>
       <r>     0.5974    -0.7017    92.0862 </r>
       <r>     0.6465    -0.7510    92.0493 </r>
       <r>     0.6955    -0.5217    92.0238 </r>
       <r>     0.7445    -0.2841    92.0098 </r>
       <r>     0.7936    -0.1284    92.0035 </r>
       <r>     0.8426    -0.0494    92.0011 </r>
       <r>     0.8917    -0.0164    92.0003 </r>
       <r>     0.9407    -0.0047    92.0001 </r>
       <r>     0.9898    -0.0012    92.0000 </r>
       <r>     1.0388    -0.0003    92.0000 </r>
       <r>     1.0879    -0.0001    92.0000 </r>
       <r>     1.1369    -0.0000    92.0000 </r>
       <r>     1.1860    -0.0000    92.0000 </r>
       <r>     1.2350    -0.0000    92.0000 </r>
       <r>     1.2840    -0.0000    92.0000 </r>
       <r>     1.3331    -0.0000    92.0000 </r>
       <r>     1.3821    -0.0000    92.0000 </r>
       <r>     1.4312    -0.0000    92.0000 </r>
       <r>     1.4802    -0.0000    92.0000 </r>
       <r>     1.5293    -0.0000    92.0000 </r>
       <r>     1.5783    -0.0000    92.0000 </r>
       <r>     1.6274     0.0000    92.0000 </r>
       <r>     1.6764     0.0000    92.0000 </r>
       <r>     1.7255     0.0000    92.0000 </r>
       <r>     1.7745     0.0000    92.0000 </r>
       <r>     1.8235     0.0000    92.0000 </r>
       <r>     1.8726     0.0000    92.0000 </r>
       <r>     1.9216     0.0000    92.0000 </r>
       <r>     1.9707     0.0000    92.0000 </r>
       <r>     2.0197     0.0000    92.0000 </r>
       <r>     2.0688     0.0000    92.0000 </r>
       <r>     2.1178     0.0000    92.0000 </r>
       <r>     2.1669     0.0000    92.0000 </r>
       <r>     2.2159     0.0000    92.0000 </r>
       <r>     2.2650     0.0000    92.0000 </r>
       <r>     2.3140     0.0000    92.0000 </r>
      </set>
     </set>
    </array>
   </total>
  </dos>
 </calculation>
 <structure name="finalpos" >
  <crystal>
   <varray name="basis" >
    <v>      26.66978688       0.00000000       0.00000000 </v>
    <v>       0.00000000      23.11509423       0.00000000 </v>
    <v>       0.00000000       0.00000000      23.47427762 </v>
   </varray>
   <i name="volume">  14471.29677277 </i>
   <varray name="rec_basis" >
    <v>       0.03749561       0.00000000       0.00000000 </v>
    <v>       0.00000000       0.04326177       0.00000000 </v>
    <v>       0.00000000       0.00000000       0.04259982 </v>
   </varray>
  </crystal>
  <varray name="positions" >
   <v>       0.03408344       0.58329451       0.17378733 </v>
   <v>       0.11831555       0.62171336       0.14314756 </v>
   <v>       0.09844453       0.44802002       0.24073689 </v>
   <v>       0.13641932       0.47484116       0.14779056 </v>
   <v>       0.04579327       0.47999166       0.16456418 </v>
   <v>       0.16889344       0.53715643       0.07131978 </v>
   <v>       0.11033462       0.54869199       0.21697803 </v>
   <v>       0.12232809       0.62028314       0.03971360 </v>
   <v>       0.19019293       0.56054546       0.17006003 </v>
   <v>       0.08017858       0.54018756       0.09153417 </v>
   <v>       0.03257129       0.51990282       0.25868577 </v>
   <v>       0.19805146       0.63531489       0.09447316 </v>
   <v>       0.25414508       0.55464168       0.09818903 </v>
  </varray>
 </structure>
</modeling>
