unknown system                          
            1
    26.669787    0.000000    0.000000
     0.000000   23.115094    0.000000
     0.000000    0.000000   23.474278
   Cu
    13
Direct configuration=     1
   0.04024702  0.57402159  0.17090161
   0.12297795  0.60698366  0.14557247
   0.10258527  0.45383729  0.24687852
   0.12400703  0.49157982  0.15538410
   0.03056653  0.47403285  0.15929870
   0.16314178  0.51971108  0.06719987
   0.12101617  0.55273740  0.23672149
   0.14004174  0.61321628  0.04082145
   0.20091432  0.55710252  0.16460762
   0.07591504  0.54173581  0.07931651
   0.02673595  0.51757385  0.25238649
   0.19979817  0.65119978  0.11798408
   0.24180464  0.57085276  0.07390717
Direct configuration=     2
   0.04077682  0.57434205  0.17097008
   0.12301509  0.60668303  0.14496066
   0.10160201  0.45379079  0.24686074
   0.12351606  0.49168443  0.15534918
   0.03163271  0.47401703  0.15903417
   0.16384392  0.51984013  0.06778047
   0.12047587  0.55330743  0.23609688
   0.14023280  0.61361597  0.04157235
   0.20015375  0.55647652  0.16446195
   0.07576745  0.54174470  0.07989952
   0.02793760  0.51715266  0.25255950
   0.19962452  0.65098941  0.11735081
   0.24117298  0.57094052  0.07408380
Direct configuration=     3
   0.04208397  0.57513273  0.17113901
   0.12310673  0.60594131  0.14345117
   0.09917607  0.45367605  0.24681687
   0.12230472  0.49194253  0.15526300
   0.03426323  0.47397799  0.15838149
   0.16557628  0.52015854  0.06921295
   0.11914284  0.55471385  0.23455581
   0.14070420  0.61460210  0.04342501
   0.19827725  0.55493203  0.16410254
   0.07540331  0.54176662  0.08133794
   0.03090238  0.51611350  0.25298638
   0.19919609  0.65047038  0.11578837
   0.23961452  0.57115705  0.07451958
Direct configuration=     4
   0.04192409  0.57548143  0.17191184
   0.12312796  0.60633172  0.14295823
   0.09883875  0.45303358  0.24655259
   0.12244648  0.49157089  0.15539679
   0.03500116  0.47392013  0.15813647
   0.16500811  0.51985064  0.06976265
   0.11857192  0.55521780  0.23417771
   0.14071382  0.61474595  0.04363688
   0.19773676  0.55413401  0.16442052
   0.07543879  0.54155220  0.08102080
   0.03161248  0.51643721  0.25309388
   0.19909125  0.65083926  0.11549132
   0.24024004  0.57146986  0.07442043
Direct configuration=     5
   0.04179927  0.57575362  0.17251513
   0.12314453  0.60663648  0.14257343
   0.09857543  0.45253206  0.24634628
   0.12255714  0.49128078  0.15550123
   0.03557720  0.47387496  0.15794520
   0.16456458  0.51961029  0.07019176
   0.11812625  0.55561120  0.23388256
   0.14072133  0.61485824  0.04380227
   0.19731483  0.55351105  0.16466875
   0.07546648  0.54138482  0.08077323
   0.03216681  0.51668991  0.25317780
   0.19900941  0.65112722  0.11525944
   0.24072834  0.57171405  0.07434302
Direct configuration=     6
   0.04161222  0.57617080  0.17259544
   0.12276111  0.60689384  0.14257581
   0.09875358  0.45177355  0.24590304
   0.12294888  0.49071944  0.15591460
   0.03579060  0.47399297  0.15790875
   0.16458726  0.51986755  0.07034235
   0.11779276  0.55573994  0.23360455
   0.14069631  0.61474601  0.04338293
   0.19726041  0.55325975  0.16458691
   0.07534016  0.54129474  0.08080785
   0.03225879  0.51714167  0.25348964
   0.19917640  0.65127662  0.11516662
   0.24077313  0.57170780  0.07470162
Direct configuration=     7
   0.04141307  0.57661493  0.17268094
   0.12235290  0.60716784  0.14257833
   0.09894325  0.45096603  0.24543115
   0.12336593  0.49012183  0.15635467
   0.03601779  0.47411860  0.15786994
   0.16461140  0.52014144  0.07050267
   0.11743773  0.55587700  0.23330859
   0.14066967  0.61462653  0.04293650
   0.19720248  0.55299221  0.16449978
   0.07520568  0.54119884  0.08084470
   0.03235671  0.51762262  0.25382162
   0.19935418  0.65143568  0.11506780
   0.24082082  0.57170114  0.07508339
Direct configuration=     8
   0.04097798  0.57693922  0.17259783
   0.12233877  0.60747877  0.14229342
   0.09876904  0.45049911  0.24499037
   0.12397138  0.48950237  0.15629668
   0.03630353  0.47460707  0.15814558
   0.16463263  0.52050445  0.07070856
   0.11705926  0.55569612  0.23300682
   0.14063696  0.61452841  0.04263408
   0.19705114  0.55309144  0.16435214
   0.07520022  0.54102350  0.08132534
   0.03271031  0.51786184  0.25405624
   0.19920810  0.65128980  0.11497465
   0.24089228  0.57156259  0.07559839
Direct configuration=     9
   0.03967272  0.57791207  0.17234852
   0.12229638  0.60841159  0.14143868
   0.09824643  0.44909836  0.24366802
   0.12578774  0.48764398  0.15612269
   0.03716077  0.47607251  0.15897249
   0.16469631  0.52159345  0.07132623
   0.11592385  0.55515347  0.23210151
   0.14053885  0.61423406  0.04172682
   0.19659713  0.55338913  0.16390924
   0.07518383  0.54049747  0.08276724
   0.03377110  0.51857950  0.25476010
   0.19876985  0.65085216  0.11469517
   0.24110665  0.57114694  0.07714339
Direct configuration=    10
   0.03943828  0.57819449  0.17233123
   0.12214087  0.60850264  0.14135991
   0.09804146  0.44885687  0.24342128
   0.12614995  0.48722305  0.15601810
   0.03740022  0.47636983  0.15923277
   0.16468565  0.52175856  0.07136393
   0.11580152  0.55500746  0.23172688
   0.14047167  0.61427525  0.04154568
   0.19649505  0.55352271  0.16403861
   0.07522187  0.54036368  0.08307698
   0.03390761  0.51867315  0.25491232
   0.19867214  0.65081988  0.11458677
   0.24132530  0.57101712  0.07736564
Direct configuration=    11
   0.03873497  0.57904175  0.17227937
   0.12167433  0.60877582  0.14112357
   0.09742656  0.44813238  0.24268104
   0.12723661  0.48596024  0.15570432
   0.03811857  0.47726179  0.16001362
   0.16465367  0.52225389  0.07147703
   0.11543454  0.55456942  0.23060300
   0.14027014  0.61439882  0.04100227
   0.19618882  0.55392343  0.16442675
   0.07533599  0.53996232  0.08400618
   0.03431713  0.51895412  0.25536900
   0.19837900  0.65072304  0.11426156
   0.24198127  0.57062766  0.07803238
Direct configuration=    12
   0.03732835  0.58073628  0.17217564
   0.12074125  0.60932216  0.14065091
   0.09619676  0.44668341  0.24120058
   0.12940992  0.48343462  0.15507676
   0.03955526  0.47904571  0.16157531
   0.16458970  0.52324454  0.07170322
   0.11470058  0.55369335  0.22835524
   0.13986708  0.61464596  0.03991544
   0.19557636  0.55472487  0.16520302
   0.07556422  0.53915961  0.08586459
   0.03513618  0.51951605  0.25628235
   0.19779271  0.65052937  0.11361115
   0.24329322  0.56984875  0.07936587
Direct configuration=    13
   0.03451512  0.58412533  0.17196820
   0.11887510  0.61041485  0.13970558
   0.09373716  0.44378547  0.23823964
   0.13375654  0.47838339  0.15382165
   0.04242864  0.48261357  0.16469870
   0.16446178  0.52522584  0.07215562
   0.11323266  0.55194120  0.22385972
   0.13906096  0.61514025  0.03774178
   0.19435143  0.55632776  0.16675557
   0.07602069  0.53755417  0.08958141
   0.03677428  0.52063992  0.25810905
   0.19662014  0.65014203  0.11231033
   0.24591710  0.56829092  0.08203284
Direct configuration=    14
   0.03624559  0.58204066  0.17209580
   0.12002300  0.60974272  0.14028707
   0.09525011  0.44556805  0.24006097
   0.13108285  0.48149050  0.15459370
   0.04066117  0.48041891  0.16277744
   0.16454047  0.52400710  0.07187734
   0.11413561  0.55301898  0.22662500
   0.13955682  0.61483620  0.03907884
   0.19510491  0.55534179  0.16580057
   0.07573991  0.53854170  0.08729512
   0.03576665  0.51994860  0.25698541
   0.19734141  0.65038029  0.11311049
   0.24430310  0.56924917  0.08039234
Direct configuration=    15
   0.03582689  0.58263137  0.17228986
   0.11972027  0.61002781  0.14013246
   0.09486362  0.44515236  0.23969248
   0.13171357  0.48051832  0.15438966
   0.04116177  0.48077925  0.16329230
   0.16474056  0.52440041  0.07183808
   0.11410433  0.55264671  0.22572068
   0.13932123  0.61502357  0.03893536
   0.19489181  0.55573111  0.16607797
   0.07583661  0.53831150  0.08760778
   0.03569092  0.52022334  0.25738293
   0.19719395  0.65016574  0.11275334
   0.24468606  0.56897319  0.08086721
Direct configuration=    16
   0.03457078  0.58440349  0.17287202
   0.11881207  0.61088310  0.13966863
   0.09370417  0.44390530  0.23858701
   0.13360574  0.47760181  0.15377753
   0.04266358  0.48186026  0.16483685
   0.16534085  0.52558031  0.07172030
   0.11401051  0.55152992  0.22300773
   0.13861446  0.61558565  0.03850492
   0.19425252  0.55689904  0.16691016
   0.07612669  0.53762091  0.08854573
   0.03546370  0.52104753  0.25857549
   0.19675157  0.64952211  0.11168189
   0.24583495  0.56814525  0.08229182
Direct configuration=    17
   0.03397292  0.58524696  0.17314911
   0.11837980  0.61129018  0.13944787
   0.09315232  0.44331175  0.23806085
   0.13450634  0.47621366  0.15348619
   0.04337839  0.48237478  0.16557200
   0.16562657  0.52614189  0.07166424
   0.11396585  0.55099837  0.22171647
   0.13827807  0.61585318  0.03830005
   0.19394824  0.55745493  0.16730625
   0.07626476  0.53729221  0.08899217
   0.03535555  0.52143982  0.25914311
   0.19654102  0.64921577  0.11117192
   0.24638177  0.56775118  0.08296988
Direct configuration=    18
   0.03390075  0.58536379  0.17363116
   0.11814322  0.61193020  0.13922288
   0.09304317  0.44309003  0.23834129
   0.13497783  0.47538371  0.15307556
   0.04367367  0.48265725  0.16572352
   0.16605967  0.52664430  0.07177421
   0.11374662  0.55023830  0.22093160
   0.13774333  0.61615243  0.03845101
   0.19370979  0.55780328  0.16728949
   0.07651419  0.53719078  0.08882757
   0.03504654  0.52193941  0.25955090
   0.19656370  0.64866084  0.11056694
   0.24662911  0.56753037  0.08359396
Direct configuration=    19
   0.03368424  0.58571427  0.17507731
   0.11743349  0.61385027  0.13854791
   0.09271572  0.44242487  0.23918262
   0.13639231  0.47289387  0.15184367
   0.04455954  0.48350465  0.16617809
   0.16735900  0.52815153  0.07210409
   0.11308890  0.54795810  0.21857699
   0.13613913  0.61705016  0.03890391
   0.19299442  0.55884832  0.16723924
   0.07726248  0.53688646  0.08833378
   0.03411950  0.52343817  0.26077429
   0.19663173  0.64699607  0.10875200
   0.24737113  0.56686793  0.08546620
Direct configuration=    20
   0.03362369  0.58581230  0.17548177
   0.11723500  0.61438727  0.13835914
   0.09262414  0.44223884  0.23941792
   0.13678791  0.47219752  0.15149914
   0.04480729  0.48374164  0.16630522
   0.16772239  0.52857307  0.07219635
   0.11290496  0.54732038  0.21791846
   0.13569048  0.61730124  0.03903057
   0.19279435  0.55914059  0.16722518
   0.07747175  0.53680135  0.08819568
   0.03386022  0.52385734  0.26111644
   0.19665075  0.64653048  0.10824441
   0.24757866  0.56668266  0.08598983
Direct configuration=    21
   0.03417859  0.58545669  0.17603910
   0.11652825  0.61528848  0.13888339
   0.09274836  0.44280981  0.24014945
   0.13688244  0.47147220  0.15088549
   0.04520975  0.48400545  0.16635456
   0.16779653  0.52929472  0.07242568
   0.11210832  0.54591735  0.21687029
   0.13428530  0.61764446  0.03882872
   0.19209830  0.55924307  0.16739457
   0.07827914  0.53701737  0.08794907
   0.03371143  0.52423831  0.26120215
   0.19697152  0.64604704  0.10712261
   0.24895368  0.56614973  0.08687500
Direct configuration=    22
   0.03485869  0.58502084  0.17672218
   0.11566204  0.61639304  0.13952594
   0.09290061  0.44350962  0.24104604
   0.13699829  0.47058323  0.15013338
   0.04570302  0.48432877  0.16641504
   0.16788741  0.53017921  0.07270675
   0.11113194  0.54419774  0.21558563
   0.13256306  0.61806512  0.03858133
   0.19124519  0.55936867  0.16760219
   0.07926869  0.53728213  0.08764682
   0.03352905  0.52470525  0.26130720
   0.19736466  0.64545453  0.10574769
   0.25063895  0.56549654  0.08795990
Direct configuration=    23
   0.03505249  0.58522312  0.17664737
   0.11582646  0.61752672  0.14034254
   0.09330552  0.44452927  0.24190673
   0.13659976  0.47009564  0.14940892
   0.04575478  0.48356203  0.16581312
   0.16843837  0.53171287  0.07272143
   0.11102882  0.54356041  0.21500575
   0.13070886  0.61817727  0.03858823
   0.19047615  0.55929660  0.16757658
   0.08003447  0.53777006  0.08781258
   0.03334277  0.52438608  0.26147924
   0.19720077  0.64413063  0.10429558
   0.25198237  0.56461398  0.08938203
Direct configuration=    24
   0.03534872  0.58553231  0.17653302
   0.11607778  0.61925954  0.14159069
   0.09392443  0.44608779  0.24322228
   0.13599062  0.46935038  0.14830160
   0.04583390  0.48239006  0.16489309
   0.16928050  0.53405706  0.07274388
   0.11087120  0.54258625  0.21411940
   0.12787473  0.61834869  0.03859877
   0.18930068  0.55918643  0.16753743
   0.08120497  0.53851587  0.08806594
   0.03305804  0.52389825  0.26174220
   0.19695027  0.64210707  0.10207606
   0.25403576  0.56326498  0.09155573
Direct configuration=    25
   0.03513754  0.58500440  0.17594578
   0.11681286  0.62030089  0.14234016
   0.09438392  0.44650041  0.24370983
   0.13555763  0.46940659  0.14706574
   0.04545083  0.48157855  0.16451731
   0.17059134  0.53589245  0.07206759
   0.11079239  0.54417314  0.21436679
   0.12585257  0.61867868  0.03883178
   0.18982556  0.55892824  0.16787999
   0.08112614  0.53901692  0.08956060
   0.03313198  0.52306313  0.26094592
   0.19656616  0.63963430  0.09999627
   0.25452268  0.56240697  0.09375233
Direct configuration=    26
   0.03501553  0.58469941  0.17560650
   0.11723756  0.62090253  0.14277317
   0.09464939  0.44673881  0.24399151
   0.13530747  0.46943906  0.14635172
   0.04522952  0.48110971  0.16430021
   0.17134868  0.53695284  0.07167687
   0.11074685  0.54508997  0.21450973
   0.12468426  0.61886933  0.03896639
   0.19012880  0.55877907  0.16807791
   0.08108059  0.53930640  0.09042414
   0.03317470  0.52258063  0.26048587
   0.19634423  0.63820566  0.09879468
   0.25480400  0.56191125  0.09502141
Direct configuration=    27
   0.03451908  0.58399760  0.17460358
   0.11761904  0.62141971  0.14351183
   0.09523568  0.44735442  0.24290052
   0.13492811  0.47119240  0.14588117
   0.04515575  0.48044870  0.16503704
   0.17072101  0.53744501  0.07078817
   0.11096565  0.54605534  0.21471089
   0.12290887  0.61919327  0.03920103
   0.19068244  0.55803924  0.16925637
   0.08144275  0.53979826  0.09209290
   0.03316010  0.52181982  0.25931867
   0.19630823  0.63705913  0.09661052
   0.25610489  0.56076177  0.09706741
Direct configuration=    28
   0.03444749  0.58389640  0.17445895
   0.11767405  0.62149429  0.14361835
   0.09532023  0.44744320  0.24274318
   0.13487341  0.47144525  0.14581331
   0.04514512  0.48035338  0.16514330
   0.17063049  0.53751598  0.07066001
   0.11099721  0.54619456  0.21473990
   0.12265284  0.61923999  0.03923486
   0.19076228  0.55793255  0.16942632
   0.08149498  0.53986920  0.09233355
   0.03315799  0.52171010  0.25915035
   0.19630304  0.63689378  0.09629554
   0.25629249  0.56059600  0.09736246
Direct configuration=    29
   0.03410417  0.58369800  0.17390605
   0.11817605  0.62172007  0.14378846
   0.09624486  0.44734574  0.24179269
   0.13522520  0.47272165  0.14613401
   0.04498421  0.48002320  0.16510227
   0.17034087  0.53731971  0.07097854
   0.11089472  0.54645796  0.21512541
   0.12195877  0.61950887  0.03948904
   0.19095698  0.55779717  0.16889122
   0.08137039  0.54002005  0.09269634
   0.03279939  0.52178947  0.25911266
   0.19670319  0.63623502  0.09561239
   0.25599280  0.55994777  0.09835101
Direct configuration=    30
   0.03401902  0.58364880  0.17376892
   0.11830056  0.62177606  0.14383065
   0.09647418  0.44732157  0.24155696
   0.13531245  0.47303821  0.14621355
   0.04494430  0.47994131  0.16509209
   0.17026904  0.53727103  0.07105754
   0.11086931  0.54652329  0.21522102
   0.12178664  0.61957556  0.03955208
   0.19100527  0.55776360  0.16875851
   0.08133949  0.54005746  0.09278631
   0.03271045  0.52180916  0.25910331
   0.19680243  0.63607164  0.09544296
   0.25591847  0.55978700  0.09859618
Direct configuration=    31
   0.03405861  0.58345491  0.17359620
   0.11865127  0.62175572  0.14394436
   0.09716983  0.44730595  0.24085095
   0.13578735  0.47328847  0.14677502
   0.04488030  0.47986219  0.16495028
   0.16991320  0.53710080  0.07092928
   0.11051293  0.54711218  0.21554270
   0.12173734  0.61963491  0.04001194
   0.19061093  0.55805954  0.16904441
   0.08089953  0.54021278  0.09261906
   0.03265023  0.52180189  0.25903314
   0.19702876  0.63599992  0.09493793
   0.25585131  0.55899542  0.09874482
Direct configuration=    32
   0.03407763  0.58336178  0.17351322
   0.11881973  0.62174594  0.14399898
   0.09750399  0.44729844  0.24051180
   0.13601548  0.47340868  0.14704474
   0.04484955  0.47982419  0.16488216
   0.16974227  0.53701903  0.07086767
   0.11034174  0.54739506  0.21569723
   0.12171367  0.61966342  0.04023284
   0.19042150  0.55820170  0.16918175
   0.08068819  0.54028738  0.09253872
   0.03262130  0.52179840  0.25899944
   0.19713748  0.63596546  0.09469532
   0.25581905  0.55861517  0.09881623
Direct configuration=    33
   0.03405182  0.58344796  0.17350945
   0.11880269  0.62174897  0.14397222
   0.09776366  0.44755230  0.24024175
   0.13610252  0.47352946  0.14731847
   0.04512337  0.47982127  0.16481576
   0.16968270  0.53699636  0.07096007
   0.11014983  0.54776881  0.21611242
   0.12182080  0.61982583  0.04028237
   0.19032735  0.55880956  0.16934442
   0.08047783  0.54012082  0.09233002
   0.03273297  0.52139665  0.25889589
   0.19749563  0.63574254  0.09449466
   0.25522042  0.55782414  0.09870262
Direct configuration=    34
   0.03403937  0.58348952  0.17350763
   0.11879447  0.62175043  0.14395931
   0.09788891  0.44767474  0.24011149
   0.13614450  0.47358771  0.14745049
   0.04525544  0.47981986  0.16478373
   0.16965397  0.53698543  0.07100464
   0.11005727  0.54794908  0.21631268
   0.12187247  0.61990416  0.04030626
   0.19028194  0.55910274  0.16942287
   0.08037637  0.54004049  0.09222935
   0.03278683  0.52120287  0.25884595
   0.19766838  0.63563502  0.09439787
   0.25493169  0.55744261  0.09864782
Direct configuration=    35
   0.03400612  0.58353696  0.17353189
   0.11870428  0.62173648  0.14380407
   0.09804068  0.44775372  0.24020244
   0.13620623  0.47384669  0.14750412
   0.04539359  0.47986654  0.16469163
   0.16943033  0.53696097  0.07110670
   0.11016233  0.54822011  0.21649398
   0.12198680  0.61999202  0.04027461
   0.19016077  0.55953034  0.16962473
   0.08039841  0.53998312  0.09205659
   0.03275720  0.52085336  0.25883763
   0.19778550  0.63559577  0.09434971
   0.25471935  0.55670860  0.09850200
Direct configuration=    36
   0.03394776  0.58362020  0.17357446
   0.11854600  0.62171200  0.14353163
   0.09830702  0.44789231  0.24036205
   0.13631457  0.47430118  0.14759823
   0.04563603  0.47994847  0.16453000
   0.16903787  0.53691805  0.07128581
   0.11034670  0.54869575  0.21681214
   0.12218746  0.62014620  0.04021908
   0.18994813  0.56028075  0.16997899
   0.08043709  0.53988245  0.09175340
   0.03270521  0.52024000  0.25882302
   0.19799104  0.63552687  0.09426519
   0.25434672  0.55542044  0.09824609
Direct configuration=    37
   0.03403450  0.58342627  0.17369012
   0.11838543  0.62175037  0.14324896
   0.09840787  0.44799187  0.24059739
   0.13639162  0.47463365  0.14767241
   0.04572359  0.48005950  0.16454868
   0.16892157  0.53700765  0.07136485
   0.11028836  0.54871122  0.21698511
   0.12227522  0.62023908  0.03998186
   0.19010323  0.56055513  0.17002943
   0.08035317  0.54002486  0.09161094
   0.03267637  0.51996539  0.25870287
   0.19803445  0.63539980  0.09436177
   0.25415621  0.55481991  0.09818571
Direct configuration=    38
   0.03406042  0.58336831  0.17372468
   0.11833745  0.62176184  0.14316448
   0.09843801  0.44802162  0.24066772
   0.13641464  0.47473300  0.14769458
   0.04574976  0.48009267  0.16455426
   0.16888682  0.53703442  0.07138847
   0.11027092  0.54871584  0.21703680
   0.12230145  0.62026684  0.03991097
   0.19014958  0.56063712  0.17004450
   0.08032809  0.54006742  0.09156836
   0.03266775  0.51988333  0.25866697
   0.19804743  0.63536182  0.09439064
   0.25409927  0.55464044  0.09816766
Direct configuration=    39
   0.03408436  0.58329155  0.17378983
   0.11831467  0.62171142  0.14314688
   0.09844480  0.44801995  0.24073966
   0.13641951  0.47484549  0.14779440
   0.04579501  0.47998762  0.16456458
   0.16889370  0.53716131  0.07131703
   0.11033717  0.54869103  0.21697567
   0.12232916  0.62028379  0.03970570
   0.19019466  0.56054179  0.17006065
   0.08017259  0.54019237  0.09153280
   0.03256743  0.51990361  0.25868653
   0.19805163  0.63531301  0.09447647
   0.25414691  0.55464173  0.09818989
Direct configuration=    40
   0.03408344  0.58329451  0.17378733
   0.11831555  0.62171336  0.14314756
   0.09844453  0.44802002  0.24073689
   0.13641932  0.47484116  0.14779056
   0.04579327  0.47999166  0.16456418
   0.16889344  0.53715643  0.07131978
   0.11033462  0.54869199  0.21697803
   0.12232809  0.62028314  0.03971360
   0.19019293  0.56054546  0.17006003
   0.08017858  0.54018756  0.09153417
   0.03257129  0.51990282  0.25868577
   0.19805146  0.63531489  0.09447316
   0.25414508  0.55464168  0.09818903
