  16  16   0   0
  0.8675594E+03  0.2332410E-08  0.2478345E-08  0.2401334E-08  0.5000000E-15
   1.0000000000000000E-004
  CAR 
 unknown system                          
      2.39008314    -11.33468776  301     -4.33682367      1.00000000
    -11.335  0.0000E+00  0.0000E+00  0.0000E+00  0.0000E+00
    -11.289  0.0000E+00  0.0000E+00  0.0000E+00  0.0000E+00
    -11.243  0.0000E+00  0.0000E+00  0.0000E+00  0.0000E+00
    -11.197  0.0000E+00  0.0000E+00  0.0000E+00  0.0000E+00
    -11.152  0.0000E+00  0.0000E+00  0.0000E+00  0.0000E+00
    -11.106  0.0000E+00  0.0000E+00  0.0000E+00  0.0000E+00
    -11.060  0.0000E+00  0.0000E+00  0.0000E+00  0.0000E+00
    -11.014  0.0000E+00  0.0000E+00  0.0000E+00  0.0000E+00
    -10.969 -0.5168E-30  0.0000E+00 -0.2364E-31  0.0000E+00
    -10.923 -0.1951E-28  0.0000E+00 -0.9161E-30  0.0000E+00
    -10.877 -0.6781E-27 -0.3423E-29 -0.3194E-28 -0.1566E-30
    -10.831 -0.2121E-25 -0.1222E-27 -0.1002E-26 -0.5748E-29
    -10.786 -0.5965E-24 -0.4024E-26 -0.2829E-25 -0.1898E-27
    -10.740 -0.1509E-22 -0.1192E-24 -0.7186E-24 -0.5642E-26
    -10.694 -0.3432E-21 -0.3174E-23 -0.1642E-22 -0.1509E-24
    -10.648 -0.7021E-20 -0.7604E-22 -0.3376E-21 -0.3630E-23
    -10.603 -0.1291E-18 -0.1638E-20 -0.6243E-20 -0.7856E-22
    -10.557 -0.2134E-17 -0.3172E-19 -0.1039E-18 -0.1530E-20
    -10.511 -0.3048E-16 -0.5522E-18 -0.1498E-17 -0.2679E-19
    -10.465 -0.4096E-15 -0.8640E-17 -0.2024E-16 -0.4221E-18
    -10.420 -0.4900E-14 -0.1178E-15 -0.2444E-15 -0.5813E-17
    -10.374 -0.5258E-13 -0.1485E-14 -0.2650E-14 -0.7373E-16
    -10.328 -0.5064E-12 -0.1679E-13 -0.2582E-13 -0.8420E-15
    -10.282 -0.4374E-11 -0.1705E-12 -0.2259E-12 -0.8642E-14
    -10.237 -0.3387E-10 -0.1553E-11 -0.1775E-11 -0.7968E-13
    -10.191 -0.2349E-09 -0.1268E-10 -0.1252E-10 -0.6598E-12
    -10.145 -0.1458E-08 -0.9280E-10 -0.7925E-10 -0.4905E-11
    -10.099 -0.8098E-08 -0.6082E-09 -0.4497E-09 -0.3273E-10
    -10.054 -0.4016E-07 -0.3566E-08 -0.2287E-08 -0.1959E-09
    -10.008 -0.1776E-06 -0.1869E-07 -0.1041E-07 -0.1051E-08
     -9.962 -0.6988E-06 -0.8739E-07 -0.4238E-07 -0.5049E-08
     -9.916 -0.2441E-05 -0.3641E-06 -0.1540E-06 -0.2171E-07
     -9.871 -0.7537E-05 -0.1348E-05 -0.4989E-06 -0.8339E-07
     -9.825 -0.2046E-04 -0.4423E-05 -0.1435E-05 -0.2857E-06
     -9.779 -0.4842E-04 -0.1280E-04 -0.3650E-05 -0.8711E-06
     -9.733 -0.9844E-04 -0.3242E-04 -0.8154E-05 -0.2354E-05
     -9.688 -0.1673E-03 -0.7112E-04 -0.1581E-04 -0.5608E-05
     -9.642 -0.2229E-03 -0.1325E-03 -0.2600E-04 -0.1167E-04
     -9.596 -0.1860E-03 -0.2012E-03 -0.3451E-04 -0.2088E-04
     -9.550  0.6595E-04 -0.2225E-03 -0.3150E-04 -0.3106E-04
     -9.505  0.6493E-03 -0.9195E-04 -0.1793E-05 -0.3527E-04
     -9.459  0.1582E-02  0.3194E-03  0.7059E-04 -0.2065E-04
     -9.413  0.2704E-02  0.1090E-02  0.1943E-03  0.2922E-04
     -9.367  0.3687E-02  0.2153E-02  0.3630E-03  0.1277E-03
     -9.322  0.4167E-02  0.3254E-02  0.5536E-03  0.2766E-03
     -9.276  0.3933E-02  0.4025E-02  0.7336E-03  0.4607E-03
     -9.230  0.3042E-02  0.4169E-02  0.8727E-03  0.6514E-03
     -9.184  0.1770E-02  0.3626E-02  0.9537E-03  0.8173E-03
     -9.139  0.4541E-03  0.2612E-02  0.9745E-03  0.9368E-03
     -9.093 -0.6184E-03  0.1484E-02  0.9462E-03  0.1005E-02
     -9.047 -0.1187E-02  0.5490E-03  0.8919E-03  0.1030E-02
     -9.001 -0.8982E-03 -0.6871E-04  0.8508E-03  0.1027E-02
     -8.956  0.7234E-03 -0.4293E-03  0.8839E-03  0.1007E-02
     -8.910  0.4056E-02 -0.6768E-03  0.1069E-02  0.9761E-03
     -8.864  0.8957E-02 -0.9044E-03  0.1479E-02  0.9347E-03
     -8.818  0.1445E-01 -0.1035E-02  0.2140E-02  0.8873E-03
     -8.773  0.1888E-01 -0.7560E-03  0.3004E-02  0.8527E-03
     -8.727  0.2065E-01  0.4332E-03  0.3949E-02  0.8726E-03
     -8.681  0.1904E-01  0.3001E-02  0.4820E-02  0.1010E-02
     -8.635  0.1469E-01  0.7028E-02  0.5492E-02  0.1331E-02
     -8.590  0.9170E-02  0.1191E-01  0.5911E-02  0.1876E-02
     -8.544  0.4165E-02  0.1640E-01  0.6102E-02  0.2626E-02
     -8.498  0.7182E-03  0.1904E-01  0.6135E-02  0.3497E-02
     -8.452 -0.9586E-03  0.1890E-01  0.6091E-02  0.4362E-02
     -8.407 -0.1194E-02  0.1605E-01  0.6036E-02  0.5096E-02
     -8.361 -0.4504E-03  0.1150E-01  0.6016E-02  0.5623E-02
     -8.315  0.9094E-03  0.6723E-02  0.6057E-02  0.5930E-02
     -8.269  0.2630E-02  0.2964E-02  0.6178E-02  0.6066E-02
     -8.224  0.4491E-02  0.8704E-03  0.6383E-02  0.6106E-02
     -8.178  0.6283E-02  0.4253E-03  0.6671E-02  0.6125E-02
     -8.132  0.7843E-02  0.1167E-02  0.7029E-02  0.6179E-02
     -8.086  0.9087E-02  0.2481E-02  0.7445E-02  0.6292E-02
     -8.041  0.9979E-02  0.3858E-02  0.7902E-02  0.6469E-02
     -7.995  0.1048E-01  0.5038E-02  0.8381E-02  0.6699E-02
     -7.949  0.1053E-01  0.6006E-02  0.8863E-02  0.6974E-02
     -7.903  0.1017E-01  0.6874E-02  0.9328E-02  0.7288E-02
     -7.858  0.9626E-02  0.7720E-02  0.9768E-02  0.7641E-02
     -7.812  0.9368E-02  0.8514E-02  0.1020E-01  0.8031E-02
     -7.766  0.9920E-02  0.9155E-02  0.1065E-01  0.8450E-02
     -7.720  0.1155E-01  0.9541E-02  0.1118E-01  0.8886E-02
     -7.675  0.1399E-01  0.9637E-02  0.1182E-01  0.9327E-02
     -7.629  0.1650E-01  0.9526E-02  0.1257E-01  0.9763E-02
     -7.583  0.1831E-01  0.9441E-02  0.1341E-01  0.1019E-01
     -7.538  0.1904E-01  0.9737E-02  0.1428E-01  0.1064E-01
     -7.492  0.1900E-01  0.1073E-01  0.1515E-01  0.1113E-01
     -7.446  0.1885E-01  0.1245E-01  0.1601E-01  0.1170E-01
     -7.400  0.1918E-01  0.1458E-01  0.1689E-01  0.1237E-01
     -7.355  0.2011E-01  0.1659E-01  0.1781E-01  0.1313E-01
     -7.309  0.2134E-01  0.1805E-01  0.1879E-01  0.1395E-01
     -7.263  0.2234E-01  0.1890E-01  0.1981E-01  0.1482E-01
     -7.217  0.2265E-01  0.1937E-01  0.2085E-01  0.1570E-01
     -7.172  0.2212E-01  0.1974E-01  0.2186E-01  0.1661E-01
     -7.126  0.2103E-01  0.2017E-01  0.2282E-01  0.1753E-01
     -7.080  0.1990E-01  0.2063E-01  0.2373E-01  0.1847E-01
     -7.034  0.1919E-01  0.2096E-01  0.2461E-01  0.1943E-01
     -6.989  0.1900E-01  0.2098E-01  0.2548E-01  0.2039E-01
     -6.943  0.1901E-01  0.2055E-01  0.2635E-01  0.2133E-01
     -6.897  0.1875E-01  0.1969E-01  0.2720E-01  0.2223E-01
     -6.851  0.1791E-01  0.1865E-01  0.2802E-01  0.2309E-01
     -6.806  0.1656E-01  0.1781E-01  0.2878E-01  0.2390E-01
     -6.760  0.1504E-01  0.1752E-01  0.2947E-01  0.2470E-01
     -6.714  0.1383E-01  0.1778E-01  0.3010E-01  0.2552E-01
     -6.668  0.1327E-01  0.1825E-01  0.3071E-01  0.2635E-01
     -6.623  0.1348E-01  0.1843E-01  0.3133E-01  0.2719E-01
     -6.577  0.1439E-01  0.1805E-01  0.3198E-01  0.2802E-01
     -6.531  0.1568E-01  0.1713E-01  0.3270E-01  0.2880E-01
     -6.485  0.1688E-01  0.1602E-01  0.3347E-01  0.2954E-01
     -6.440  0.1750E-01  0.1507E-01  0.3427E-01  0.3023E-01
     -6.394  0.1727E-01  0.1451E-01  0.3506E-01  0.3089E-01
     -6.348  0.1628E-01  0.1440E-01  0.3581E-01  0.3155E-01
     -6.302  0.1500E-01  0.1470E-01  0.3650E-01  0.3222E-01
     -6.257  0.1412E-01  0.1525E-01  0.3714E-01  0.3292E-01
     -6.211  0.1423E-01  0.1579E-01  0.3779E-01  0.3364E-01
     -6.165  0.1546E-01  0.1600E-01  0.3850E-01  0.3437E-01
     -6.119  0.1733E-01  0.1566E-01  0.3929E-01  0.3509E-01
     -6.074  0.1886E-01  0.1478E-01  0.4016E-01  0.3577E-01
     -6.028  0.1908E-01  0.1371E-01  0.4103E-01  0.3639E-01
     -5.982  0.1761E-01  0.1297E-01  0.4183E-01  0.3699E-01
     -5.936  0.1492E-01  0.1308E-01  0.4252E-01  0.3758E-01
     -5.891  0.1218E-01  0.1422E-01  0.4307E-01  0.3824E-01
     -5.845  0.1056E-01  0.1610E-01  0.4356E-01  0.3897E-01
     -5.799  0.1064E-01  0.1795E-01  0.4404E-01  0.3979E-01
     -5.753  0.1225E-01  0.1888E-01  0.4460E-01  0.4066E-01
     -5.708  0.1468E-01  0.1838E-01  0.4528E-01  0.4150E-01
     -5.662  0.1723E-01  0.1671E-01  0.4606E-01  0.4226E-01
     -5.616  0.1955E-01  0.1479E-01  0.4696E-01  0.4294E-01
     -5.570  0.2170E-01  0.1365E-01  0.4795E-01  0.4356E-01
     -5.525  0.2385E-01  0.1381E-01  0.4904E-01  0.4419E-01
     -5.479  0.2607E-01  0.1504E-01  0.5024E-01  0.4488E-01
     -5.433  0.2823E-01  0.1667E-01  0.5153E-01  0.4565E-01
     -5.387  0.3024E-01  0.1808E-01  0.5291E-01  0.4647E-01
     -5.342  0.3209E-01  0.1907E-01  0.5438E-01  0.4734E-01
     -5.296  0.3375E-01  0.1986E-01  0.5592E-01  0.4825E-01
     -5.250  0.3485E-01  0.2079E-01  0.5752E-01  0.4920E-01
     -5.204  0.3477E-01  0.2212E-01  0.5911E-01  0.5022E-01
     -5.159  0.3300E-01  0.2402E-01  0.6062E-01  0.5132E-01
     -5.113  0.2970E-01  0.2663E-01  0.6198E-01  0.5253E-01
     -5.067  0.2582E-01  0.2989E-01  0.6316E-01  0.5390E-01
     -5.021  0.2270E-01  0.3336E-01  0.6420E-01  0.5543E-01
     -4.976  0.2145E-01  0.3609E-01  0.6518E-01  0.5708E-01
     -4.930  0.2258E-01  0.3695E-01  0.6621E-01  0.5877E-01
     -4.884  0.2607E-01  0.3528E-01  0.6740E-01  0.6038E-01
     -4.838  0.3140E-01  0.3139E-01  0.6884E-01  0.6182E-01
     -4.793  0.3764E-01  0.2653E-01  0.7056E-01  0.6303E-01
     -4.747  0.4328E-01  0.2229E-01  0.7254E-01  0.6405E-01
     -4.701  0.4658E-01  0.1988E-01  0.7467E-01  0.6496E-01
     -4.655  0.4617E-01  0.1974E-01  0.7678E-01  0.6587E-01
     -4.610  0.4180E-01  0.2174E-01  0.7870E-01  0.6686E-01
     -4.564  0.3453E-01  0.2542E-01  0.8028E-01  0.6802E-01
     -4.518  0.2622E-01  0.3022E-01  0.8148E-01  0.6941E-01
     -4.472  0.1861E-01  0.3523E-01  0.8233E-01  0.7102E-01
     -4.427  0.1272E-01  0.3922E-01  0.8291E-01  0.7281E-01
     -4.381  0.8688E-02  0.4089E-01  0.8331E-01  0.7468E-01
     -4.335  0.6100E-02  0.3951E-01  0.8359E-01  0.7649E-01
     -4.289  0.4356E-02  0.3538E-01  0.8379E-01  0.7811E-01
     -4.244  0.2998E-02  0.2968E-01  0.8392E-01  0.7947E-01
     -4.198  0.1819E-02  0.2392E-01  0.8401E-01  0.8056E-01
     -4.152  0.8148E-03  0.1913E-01  0.8404E-01  0.8144E-01
     -4.106  0.5232E-04  0.1560E-01  0.8405E-01  0.8215E-01
     -4.061 -0.4397E-03  0.1295E-01  0.8403E-01  0.8274E-01
     -4.015 -0.6856E-03  0.1058E-01  0.8399E-01  0.8323E-01
     -3.969 -0.6946E-03  0.8100E-02  0.8396E-01  0.8360E-01
     -3.923 -0.3850E-03  0.5492E-02  0.8394E-01  0.8385E-01
     -3.878  0.4123E-03  0.3017E-02  0.8396E-01  0.8399E-01
     -3.832  0.1834E-02  0.1022E-02  0.8405E-01  0.8403E-01
     -3.786  0.3802E-02 -0.2209E-03  0.8422E-01  0.8402E-01
     -3.740  0.5917E-02 -0.5467E-03  0.8449E-01  0.8400E-01
     -3.695  0.7539E-02  0.1182E-03  0.8484E-01  0.8400E-01
     -3.649  0.8079E-02  0.1719E-02  0.8521E-01  0.8408E-01
     -3.603  0.7313E-02  0.3968E-02  0.8554E-01  0.8426E-01
     -3.557  0.5520E-02  0.6278E-02  0.8579E-01  0.8455E-01
     -3.512  0.3338E-02  0.7900E-02  0.8595E-01  0.8491E-01
     -3.466  0.1458E-02  0.8235E-02  0.8601E-01  0.8529E-01
     -3.420  0.3567E-03  0.7160E-02  0.8603E-01  0.8562E-01
     -3.374  0.1834E-03  0.5104E-02  0.8604E-01  0.8585E-01
     -3.329  0.7927E-03  0.2823E-02  0.8607E-01  0.8598E-01
     -3.283  0.1835E-02  0.1030E-02  0.8616E-01  0.8603E-01
     -3.237  0.2886E-02  0.1387E-03  0.8629E-01  0.8603E-01
     -3.191  0.3628E-02  0.1980E-03  0.8646E-01  0.8604E-01
     -3.146  0.4018E-02  0.9754E-03  0.8664E-01  0.8609E-01
     -3.100  0.4324E-02  0.2087E-02  0.8684E-01  0.8618E-01
     -3.054  0.4929E-02  0.3148E-02  0.8706E-01  0.8633E-01
     -3.008  0.5989E-02  0.3942E-02  0.8734E-01  0.8651E-01
     -2.963  0.7219E-02  0.4528E-02  0.8767E-01  0.8671E-01
     -2.917  0.7999E-02  0.5173E-02  0.8803E-01  0.8695E-01
     -2.871  0.7771E-02  0.6094E-02  0.8839E-01  0.8723E-01
     -2.825  0.6420E-02  0.7192E-02  0.8868E-01  0.8756E-01
     -2.780  0.4371E-02  0.8005E-02  0.8888E-01  0.8792E-01
     -2.734  0.2350E-02  0.7989E-02  0.8899E-01  0.8829E-01
     -2.688  0.1019E-02  0.6896E-02  0.8904E-01  0.8861E-01
     -2.642  0.7003E-03  0.4983E-02  0.8907E-01  0.8883E-01
     -2.597  0.1304E-02  0.2885E-02  0.8913E-01  0.8897E-01
     -2.551  0.2418E-02  0.1290E-02  0.8924E-01  0.8902E-01
     -2.505  0.3486E-02  0.6306E-03  0.8940E-01  0.8905E-01
     -2.459  0.4030E-02  0.9536E-03  0.8958E-01  0.8910E-01
     -2.414  0.3837E-02  0.1953E-02  0.8976E-01  0.8919E-01
     -2.368  0.3019E-02  0.3112E-02  0.8990E-01  0.8933E-01
     -2.322  0.1914E-02  0.3907E-02  0.8998E-01  0.8951E-01
     -2.276  0.8869E-03  0.4008E-02  0.9002E-01  0.8969E-01
     -2.231  0.1568E-03  0.3402E-02  0.9003E-01  0.8985E-01
     -2.185 -0.2516E-03  0.2357E-02  0.9002E-01  0.8995E-01
     -2.139 -0.4367E-03  0.1246E-02  0.9000E-01  0.9001E-01
     -2.093 -0.5029E-03  0.3582E-03  0.8998E-01  0.9003E-01
     -2.048 -0.4673E-03 -0.2060E-03  0.8996E-01  0.9002E-01
     -2.002 -0.2308E-03 -0.4897E-03  0.8994E-01  0.9000E-01
     -1.956  0.3775E-03 -0.5630E-03  0.8996E-01  0.8997E-01
     -1.910  0.1491E-02 -0.4172E-03  0.9003E-01  0.8995E-01
     -1.865  0.3080E-02  0.5969E-04  0.9017E-01  0.8995E-01
     -1.819  0.4881E-02  0.1009E-02  0.9039E-01  0.9000E-01
     -1.773  0.6467E-02  0.2468E-02  0.9069E-01  0.9011E-01
     -1.727  0.7435E-02  0.4250E-02  0.9103E-01  0.9031E-01
     -1.682  0.7614E-02  0.5956E-02  0.9138E-01  0.9058E-01
     -1.636  0.7134E-02  0.7124E-02  0.9171E-01  0.9091E-01
     -1.590  0.6338E-02  0.7465E-02  0.9200E-01  0.9125E-01
     -1.544  0.5596E-02  0.7026E-02  0.9225E-01  0.9157E-01
     -1.499  0.5184E-02  0.6152E-02  0.9249E-01  0.9185E-01
     -1.453  0.5262E-02  0.5286E-02  0.9273E-01  0.9209E-01
     -1.407  0.5871E-02  0.4761E-02  0.9300E-01  0.9231E-01
     -1.361  0.6875E-02  0.4728E-02  0.9331E-01  0.9253E-01
     -1.316  0.7888E-02  0.5210E-02  0.9367E-01  0.9276E-01
     -1.270  0.8368E-02  0.6136E-02  0.9406E-01  0.9304E-01
     -1.224  0.7873E-02  0.7289E-02  0.9442E-01  0.9338E-01
     -1.178  0.6341E-02  0.8246E-02  0.9471E-01  0.9376E-01
     -1.133  0.4145E-02  0.8488E-02  0.9490E-01  0.9414E-01
     -1.087  0.1901E-02  0.7672E-02  0.9498E-01  0.9449E-01
     -1.041  0.1792E-03  0.5867E-02  0.9499E-01  0.9476E-01
     -0.995 -0.6456E-03  0.3553E-02  0.9496E-01  0.9493E-01
     -0.950 -0.3748E-03  0.1378E-02  0.9494E-01  0.9499E-01
     -0.904  0.1086E-02 -0.1068E-03  0.9499E-01  0.9498E-01
     -0.858  0.3709E-02 -0.5695E-03  0.9516E-01  0.9496E-01
     -0.812  0.7238E-02  0.1425E-03  0.9549E-01  0.9496E-01
     -0.767  0.1110E-01  0.2053E-02  0.9600E-01  0.9506E-01
     -0.721  0.1449E-01  0.5025E-02  0.9667E-01  0.9529E-01
     -0.675  0.1658E-01  0.8671E-02  0.9742E-01  0.9569E-01
     -0.629  0.1681E-01  0.1234E-01  0.9819E-01  0.9625E-01
     -0.584  0.1513E-01  0.1523E-01  0.9889E-01  0.9695E-01
     -0.538  0.1198E-01  0.1663E-01  0.9943E-01  0.9771E-01
     -0.492  0.8171E-02  0.1618E-01  0.9981E-01  0.9845E-01
     -0.446  0.4567E-02  0.1399E-01  0.1000E+00  0.9909E-01
     -0.401  0.1784E-02  0.1062E-01  0.1001E+00  0.9957E-01
     -0.355  0.3530E-04  0.6877E-02  0.1001E+00  0.9989E-01
     -0.309 -0.8220E-03  0.3558E-02  0.1001E+00  0.1001E+00
     -0.263 -0.1093E-02  0.1144E-02  0.1000E+00  0.1001E+00
     -0.218 -0.1017E-02 -0.2753E-03  0.9997E-01  0.1001E+00
     -0.172 -0.6404E-03 -0.9193E-03  0.9994E-01  0.1000E+00
     -0.126  0.1715E-03 -0.1101E-02  0.9994E-01  0.1000E+00
     -0.080  0.1581E-02 -0.1020E-02  0.1000E+00  0.9995E-01
     -0.035  0.3597E-02 -0.6538E-03  0.1002E+00  0.9992E-01
      0.011  0.5982E-02  0.2022E-03  0.1005E+00  0.9993E-01
      0.057  0.8322E-02  0.1778E-02  0.1008E+00  0.1000E+00
      0.103  0.1021E-01  0.4120E-02  0.1013E+00  0.1002E+00
      0.148  0.1138E-01  0.6959E-02  0.1018E+00  0.1005E+00
      0.194  0.1173E-01  0.9751E-02  0.1024E+00  0.1010E+00
      0.240  0.1119E-01  0.1187E-01  0.1029E+00  0.1015E+00
      0.286  0.9779E-02  0.1286E-01  0.1033E+00  0.1021E+00
      0.331  0.7645E-02  0.1252E-01  0.1037E+00  0.1027E+00
      0.377  0.5154E-02  0.1100E-01  0.1039E+00  0.1032E+00
      0.423  0.2804E-02  0.8653E-02  0.1040E+00  0.1036E+00
      0.469  0.1017E-02  0.5966E-02  0.1041E+00  0.1038E+00
      0.514 -0.4000E-04  0.3449E-02  0.1041E+00  0.1040E+00
      0.560 -0.4626E-03  0.1488E-02  0.1041E+00  0.1041E+00
      0.606 -0.4899E-03  0.2455E-03  0.1040E+00  0.1041E+00
      0.652 -0.3555E-03 -0.3422E-03  0.1040E+00  0.1041E+00
      0.697 -0.2068E-03 -0.4805E-03  0.1040E+00  0.1040E+00
      0.743 -0.1014E-03 -0.3962E-03  0.1040E+00  0.1040E+00
      0.789 -0.4291E-04 -0.2542E-03  0.1040E+00  0.1040E+00
      0.835 -0.1587E-04 -0.1364E-03  0.1040E+00  0.1040E+00
      0.880 -0.5166E-05 -0.6296E-04  0.1040E+00  0.1040E+00
      0.926 -0.1489E-05 -0.2539E-04  0.1040E+00  0.1040E+00
      0.972 -0.3810E-06 -0.9019E-05  0.1040E+00  0.1040E+00
      1.018 -0.8681E-07 -0.2837E-05  0.1040E+00  0.1040E+00
      1.063 -0.1765E-07 -0.7935E-06  0.1040E+00  0.1040E+00
      1.109 -0.3205E-08 -0.1978E-06  0.1040E+00  0.1040E+00
      1.155 -0.5208E-09 -0.4400E-07  0.1040E+00  0.1040E+00
      1.201 -0.7577E-10 -0.8753E-08  0.1040E+00  0.1040E+00
      1.246 -0.9879E-11 -0.1559E-08  0.1040E+00  0.1040E+00
      1.292 -0.1155E-11 -0.2486E-09  0.1040E+00  0.1040E+00
      1.338 -0.1211E-12 -0.3555E-10  0.1040E+00  0.1040E+00
      1.384 -0.1141E-13 -0.4559E-11  0.1040E+00  0.1040E+00
      1.429 -0.9561E-15 -0.5246E-12  0.1040E+00  0.1040E+00
      1.475 -0.7766E-16 -0.5420E-13  0.1040E+00  0.1040E+00
      1.521 -0.4854E-17 -0.5028E-14  0.1040E+00  0.1040E+00
      1.567  0.0000E+00 -0.4174E-15  0.1040E+00  0.1040E+00
      1.612  0.0000E+00 -0.3397E-16  0.1040E+00  0.1040E+00
      1.658  0.0000E+00  0.0000E+00  0.1040E+00  0.1040E+00
      1.704  0.0000E+00  0.0000E+00  0.1040E+00  0.1040E+00
      1.750  0.0000E+00  0.0000E+00  0.1040E+00  0.1040E+00
      1.795  0.0000E+00  0.0000E+00  0.1040E+00  0.1040E+00
      1.841  0.0000E+00  0.0000E+00  0.1040E+00  0.1040E+00
      1.887  0.0000E+00  0.0000E+00  0.1040E+00  0.1040E+00
      1.933  0.0000E+00  0.0000E+00  0.1040E+00  0.1040E+00
      1.978  0.0000E+00  0.0000E+00  0.1040E+00  0.1040E+00
      2.024  0.0000E+00  0.0000E+00  0.1040E+00  0.1040E+00
      2.070  0.0000E+00  0.0000E+00  0.1040E+00  0.1040E+00
      2.116  0.0000E+00  0.0000E+00  0.1040E+00  0.1040E+00
      2.161  0.0000E+00  0.0000E+00  0.1040E+00  0.1040E+00
      2.207  0.0000E+00  0.0000E+00  0.1040E+00  0.1040E+00
      2.253  0.0000E+00  0.0000E+00  0.1040E+00  0.1040E+00
      2.299  0.0000E+00  0.0000E+00  0.1040E+00  0.1040E+00
      2.344  0.0000E+00  0.0000E+00  0.1040E+00  0.1040E+00
      2.390  0.0000E+00  0.0000E+00  0.1040E+00  0.1040E+00
