   16   16 1000    2
  0.8675594E+03  0.2332410E-08  0.2478345E-08  0.2401334E-08  0.5000000E-15
   1.0000000000000000E-004
  CAR 
 unknown system                          
    160      1    104
 
  0.1262379E-14  0.1262379E-14  0.1262379E-14  0.1000000E+01
    1       -9.334688     -9.266676   1.000000   1.000000
    2       -8.778450     -8.544631   1.000000   1.000000
    3       -8.765483     -8.536703   1.000000   1.000000
    4       -8.740556     -8.501665   1.000000   1.000000
    5       -8.733921     -8.484392   1.000000   1.000000
    6       -8.725387     -8.419633   1.000000   1.000000
    7       -8.201986     -8.041187   1.000000   1.000000
    8       -8.080589     -7.864726   1.000000   1.000000
    9       -7.979979     -7.770278   1.000000   1.000000
   10       -7.902982     -7.648980   1.000000   1.000000
   11       -7.797256     -7.581281   1.000000   1.000000
   12       -7.628257     -7.416181   1.000000   1.000000
   13       -7.615690     -7.385659   1.000000   1.000000
   14       -7.610808     -7.358098   1.000000   1.000000
   15       -7.575506     -7.285139   1.000000   1.000000
   16       -7.446343     -7.223970   1.000000   1.000000
   17       -7.433286     -7.181182   1.000000   1.000000
   18       -7.351910     -7.098947   1.000000   1.000000
   19       -7.329947     -7.095215   1.000000   1.000000
   20       -7.265373     -7.047758   1.000000   1.000000
   21       -7.213497     -6.952284   1.000000   1.000000
   22       -7.210356     -6.936094   1.000000   1.000000
   23       -7.149948     -6.905244   1.000000   1.000000
   24       -7.119554     -6.852508   1.000000   1.000000
   25       -7.010385     -6.742834   1.000000   1.000000
   26       -6.963064     -6.700797   1.000000   1.000000
   27       -6.949834     -6.664084   1.000000   1.000000
   28       -6.897076     -6.615657   1.000000   1.000000
   29       -6.803735     -6.551862   1.000000   1.000000
   30       -6.794742     -6.502813   1.000000   1.000000
   31       -6.651784     -6.391789   1.000000   1.000000
   32       -6.635404     -6.373584   1.000000   1.000000
   33       -6.519251     -6.282404   1.000000   1.000000
   34       -6.453613     -6.182842   1.000000   1.000000
   35       -6.451861     -6.165938   1.000000   1.000000
   36       -6.394563     -6.128599   1.000000   1.000000
   37       -6.287402     -5.997325   1.000000   1.000000
   38       -6.260207     -5.974070   1.000000   1.000000
   39       -6.110620     -5.826433   1.000000   1.000000
   40       -6.103316     -5.805872   1.000000   1.000000
   41       -6.035548     -5.753387   1.000000   1.000000
   42       -6.023772     -5.722904   1.000000   1.000000
   43       -6.000410     -5.703288   1.000000   1.000000
   44       -5.842120     -5.557555   1.000000   1.000000
   45       -5.717976     -5.472708   1.000000   1.000000
   46       -5.696927     -5.432533   1.000000   1.000000
   47       -5.658495     -5.411906   1.000000   1.000000
   48       -5.606202     -5.354366   1.000000   1.000000
   49       -5.530538     -5.257187   1.000000   1.000000
   50       -5.476069     -5.219074   1.000000   1.000000
   51       -5.474390     -5.216990   1.000000   1.000000
   52       -5.443936     -5.168495   1.000000   1.000000
   53       -5.405282     -5.088378   1.000000   1.000001
   54       -5.374401     -5.084507   1.000000   1.000001
   55       -5.348399     -5.040596   1.000000   1.000004
   56       -5.307580     -5.009134   1.000000   1.000011
   57       -5.236314     -4.955250   1.000000   1.000055
   58       -5.234121     -4.946720   1.000000   1.000071
   59       -5.215678     -4.931867   1.000000   1.000107
   60       -5.188985     -4.921011   1.000000   1.000144
   61       -5.182778     -4.909734   1.000000   1.000195
   62       -5.154557     -4.873317   1.000000   1.000493
   63       -5.150377     -4.864977   1.000000   1.000603
   64       -5.044221     -4.775454   1.000003   1.004079
   65       -5.016049     -4.716447   1.000009   1.010955
   66       -4.924191     -4.647960   1.000132   1.025116
   67       -4.922263     -4.629800   1.000140   1.029185
   68       -4.875461     -4.574591   1.000468   1.035249
   69       -4.869424     -4.567950   1.000542   1.034651
   70       -4.793680     -4.489001   1.002874   0.979354
   71       -4.767657     -4.448944   1.004708   0.901550
   72       -4.725257     -4.431337   1.009594   0.854661
   73       -4.723603     -4.422393   1.009840   0.827937
   74       -4.713307     -4.407372   1.011471   0.778922
   75       -4.706363     -4.386609   1.012666   0.703595
   76       -4.693278     -4.375664   1.015122   0.660962
   77       -4.671323     -4.352970   1.019761   0.568075
   78       -4.662056     -4.351067   1.021860   0.560102
   79       -4.633998     -4.283348   1.028277   0.282445
   80       -4.632112     -4.242776   1.028688   0.146684
   81       -4.586047     -4.227486   1.035390   0.105345
   82       -4.489395     -4.102187   0.979926  -0.035019
   83       -4.486247     -4.095307   0.975254  -0.035411
   84       -4.317825     -3.988702   0.420009  -0.016814
   85       -3.703170     -3.510676  -0.000035  -0.000000
   86       -3.646076     -3.491532  -0.000006  -0.000000
   87       -3.195115     -3.025032  -0.000000  -0.000000
   88       -2.936536     -2.788804  -0.000000  -0.000000
   89       -2.898292     -2.744155  -0.000000  -0.000000
   90       -2.477497     -2.321921  -0.000000  -0.000000
   91       -1.785916     -1.677130  -0.000000  -0.000000
   92       -1.687410     -1.579451  -0.000000  -0.000000
   93       -1.499518     -1.368430  -0.000000  -0.000000
   94       -1.291116     -1.160060  -0.000000  -0.000000
   95       -1.252598     -1.130934  -0.000000  -0.000000
   96       -0.779186     -0.664512  -0.000000  -0.000000
   97       -0.706141     -0.590389  -0.000000  -0.000000
   98       -0.692765     -0.566421  -0.000000  -0.000000
   99       -0.591602     -0.477514  -0.000000  -0.000000
  100       -0.585772     -0.455452  -0.000000  -0.000000
  101        0.049854      0.190538  -0.000000  -0.000000
  102        0.092584      0.214896  -0.000000  -0.000000
  103        0.246247      0.323626  -0.000000  -0.000000
  104        0.262002      0.390083  -0.000000  -0.000000
