       N       E                     dE             d eps       ncg     rms          rms(c)
DAV:   1     0.144546797981E+04    0.14455E+04   -0.27477E+04   416   0.738E+02
DAV:   2     0.733436888825E+03   -0.71203E+03   -0.64072E+03   784   0.898E+01
DAV:   3     0.128134648012E+03   -0.60530E+03   -0.56206E+03   680   0.848E+01
DAV:   4    -0.419484966290E+02   -0.17008E+03   -0.15459E+03   544   0.493E+01
DAV:   5    -0.640949139652E+02   -0.22146E+02   -0.17210E+02   552   0.172E+01    0.300E+01
DAV:   6    -0.519461219499E+02    0.12149E+02   -0.54496E+01   440   0.182E+01    0.178E+01
DAV:   7    -0.564762290099E+02   -0.45301E+01   -0.36232E+01   448   0.381E+01    0.297E+01
DAV:   8    -0.522245405450E+02    0.42517E+01   -0.23642E+01   456   0.268E+01    0.206E+01
DAV:   9    -0.483278161350E+02    0.38967E+01   -0.81660E+00   464   0.190E+01    0.113E+01
DAV:  10    -0.488960246672E+02   -0.56821E+00   -0.59052E+00   456   0.171E+01    0.107E+01
DAV:  11    -0.497926448823E+02   -0.89662E+00   -0.24485E+00   456   0.933E+00    0.530E+00
DAV:  12    -0.505072081448E+02   -0.71456E+00   -0.74050E-01   472   0.551E+00    0.368E+00
DAV:  13    -0.521368899907E+02   -0.16297E+01   -0.65334E-01   448   0.451E+00    0.369E+00
DAV:  14    -0.533539263851E+02   -0.12170E+01   -0.44044E-01   448   0.362E+00    0.217E+00
DAV:  15    -0.546243550474E+02   -0.12704E+01   -0.28471E-01   448   0.229E+00    0.189E+00
DAV:  16    -0.554904691485E+02   -0.86611E+00   -0.16665E-01   440   0.178E+00    0.158E+00
DAV:  17    -0.566975657577E+02   -0.12071E+01   -0.23530E-01   448   0.169E+00    0.148E+00
DAV:  18    -0.574234507404E+02   -0.72588E+00   -0.12774E-01   448   0.152E+00    0.116E+00
DAV:  19    -0.584608128954E+02   -0.10374E+01   -0.20504E-01   448   0.126E+00    0.921E-01
DAV:  20    -0.592181998229E+02   -0.75739E+00   -0.14128E-01   448   0.109E+00    0.107E+00
DAV:  21    -0.600298562580E+02   -0.81166E+00   -0.16050E-01   440   0.117E+00    0.660E-01
DAV:  22    -0.606180146556E+02   -0.58816E+00   -0.91894E-02   472   0.850E-01    0.569E-01
DAV:  23    -0.609223874583E+02   -0.30437E+00   -0.24001E-02   456   0.604E-01    0.428E-01
DAV:  24    -0.613472924771E+02   -0.42491E+00   -0.33645E-02   432   0.530E-01    0.297E-01
DAV:  25    -0.616924996501E+02   -0.34521E+00   -0.19225E-02   448   0.441E-01    0.336E-01
DAV:  26    -0.620049550555E+02   -0.31246E+00   -0.12040E-02   424   0.350E-01    0.175E-01
DAV:  27    -0.622257982628E+02   -0.22084E+00   -0.67277E-03   480   0.223E-01    0.156E-01
DAV:  28    -0.623180977018E+02   -0.92299E-01   -0.19039E-03   488   0.184E-01    0.146E-01
DAV:  29    -0.624340418219E+02   -0.11594E+00   -0.28019E-03   440   0.148E-01    0.862E-02
DAV:  30    -0.624787627083E+02   -0.44721E-01   -0.63301E-04   384   0.104E-01    0.754E-02
DAV:  31    -0.625201072706E+02   -0.41345E-01   -0.64167E-04   376   0.861E-02    0.483E-02
DAV:  32    -0.625353372353E+02   -0.15230E-01   -0.16243E-04   328   0.483E-02    0.361E-02
DAV:  33    -0.625442234062E+02   -0.88862E-02   -0.10786E-04   296   0.423E-02    0.272E-02
DAV:  34    -0.625521106736E+02   -0.78873E-02   -0.84576E-05   312   0.305E-02    0.170E-02
DAV:  35    -0.625551981632E+02   -0.30875E-02   -0.56838E-05   320   0.226E-02    0.144E-02
DAV:  36    -0.625577974903E+02   -0.25993E-02   -0.43813E-05   304   0.174E-02    0.978E-03
DAV:  37    -0.625594970363E+02   -0.16995E-02   -0.36257E-05   312   0.133E-02    0.881E-03
DAV:  38    -0.625604924214E+02   -0.99539E-03   -0.24046E-05   296   0.119E-02    0.609E-03
DAV:  39    -0.625614754313E+02   -0.98301E-03   -0.22746E-05   304   0.850E-03    0.405E-03
DAV:  40    -0.625621862658E+02   -0.71083E-03   -0.11161E-05   280   0.554E-03    0.302E-03
DAV:  41    -0.625627160034E+02   -0.52974E-03   -0.63221E-06   288   0.424E-03    0.170E-03
DAV:  42    -0.625630479751E+02   -0.33197E-03   -0.34091E-06   264   0.311E-03    0.123E-03
DAV:  43    -0.625632001087E+02   -0.15213E-03   -0.18346E-06   280   0.220E-03    0.833E-04
DAV:  44    -0.625632717039E+02   -0.71595E-04   -0.94665E-07   248   0.168E-03
   1 F= -.62563272E+02 E0= -.62548807E+02  d E =-.625633E+02  mag=     6.6585
       N       E                     dE             d eps       ncg     rms          rms(c)
DAV:   1    -0.627045845474E+02   -0.14138E+00   -0.14714E+02   416   0.316E+01    0.353E+00
DAV:   2    -0.630721373271E+02   -0.36755E+00   -0.29408E+00   440   0.686E+00    0.666E+00
DAV:   3    -0.629636371538E+02    0.10850E+00   -0.14045E+00   432   0.655E+00    0.448E+00
DAV:   4    -0.629358840275E+02    0.27753E-01   -0.54159E-01   448   0.424E+00    0.433E+00
DAV:   5    -0.628482425904E+02    0.87641E-01   -0.17958E-01   448   0.253E+00    0.140E+00
DAV:   6    -0.628411682800E+02    0.70743E-02   -0.85023E-02   448   0.172E+00    0.132E+00
DAV:   7    -0.628195949972E+02    0.21573E-01   -0.49393E-02   456   0.132E+00    0.665E-01
DAV:   8    -0.628147546834E+02    0.48403E-02   -0.10497E-02   432   0.734E-01    0.468E-01
DAV:   9    -0.628131165197E+02    0.16382E-02   -0.77039E-03   432   0.534E-01    0.492E-01
DAV:  10    -0.628119216909E+02    0.11948E-02   -0.29907E-03   456   0.368E-01    0.268E-01
DAV:  11    -0.628116350199E+02    0.28667E-03   -0.11144E-03   424   0.172E-01    0.172E-01
DAV:  12    -0.628119432969E+02   -0.30828E-03   -0.33177E-04   320   0.128E-01    0.124E-01
DAV:  13    -0.628127989099E+02   -0.85561E-03   -0.21353E-04   256   0.891E-02    0.846E-02
DAV:  14    -0.628151578460E+02   -0.23589E-02   -0.17101E-04   296   0.677E-02    0.764E-02
DAV:  15    -0.628193743858E+02   -0.42165E-02   -0.18631E-04   304   0.611E-02    0.666E-02
DAV:  16    -0.628250876501E+02   -0.57133E-02   -0.20239E-04   312   0.563E-02    0.396E-02
DAV:  17    -0.628303592584E+02   -0.52716E-02   -0.12451E-04   288   0.407E-02    0.417E-02
DAV:  18    -0.628363720848E+02   -0.60128E-02   -0.13457E-04   288   0.364E-02    0.394E-02
DAV:  19    -0.628463402011E+02   -0.99681E-02   -0.30544E-04   320   0.360E-02    0.368E-02
DAV:  20    -0.628524666467E+02   -0.61264E-02   -0.13789E-04   304   0.329E-02    0.241E-02
DAV:  21    -0.628579907000E+02   -0.55241E-02   -0.17721E-04   320   0.250E-02    0.125E-02
DAV:  22    -0.628611844976E+02   -0.31938E-02   -0.55100E-05   304   0.173E-02    0.136E-02
DAV:  23    -0.628647178310E+02   -0.35333E-02   -0.98418E-05   288   0.185E-02    0.110E-02
DAV:  24    -0.628670083958E+02   -0.22906E-02   -0.56856E-05   288   0.152E-02    0.748E-03
DAV:  25    -0.628680393399E+02   -0.10309E-02   -0.32308E-05   280   0.116E-02    0.538E-03
DAV:  26    -0.628690920682E+02   -0.10527E-02   -0.22062E-05   288   0.819E-03    0.373E-03
DAV:  27    -0.628698418918E+02   -0.74982E-03   -0.14628E-05   296   0.607E-03    0.232E-03
DAV:  28    -0.628702473634E+02   -0.40547E-03   -0.75747E-06   288   0.503E-03    0.207E-03
DAV:  29    -0.628706337007E+02   -0.38634E-03   -0.47483E-06   288   0.386E-03    0.121E-03
DAV:  30    -0.628707844442E+02   -0.15074E-03   -0.24091E-06   280   0.272E-03    0.877E-04
DAV:  31    -0.628708415153E+02   -0.57071E-04   -0.12492E-06   272   0.186E-03
   2 F= -.62870842E+02 E0= -.62852867E+02  d E =-.307570E+00  mag=     7.0772
       N       E                     dE             d eps       ncg     rms          rms(c)
DAV:   1    -0.628639766671E+02    0.68078E-02   -0.30747E+01   416   0.144E+01    0.152E+00
DAV:   2    -0.629461777222E+02   -0.82201E-01   -0.63046E-01   456   0.321E+00    0.328E+00
DAV:   3    -0.629113753777E+02    0.34802E-01   -0.26780E-01   440   0.297E+00    0.187E+00
DAV:   4    -0.629104742839E+02    0.90109E-03   -0.95106E-02   448   0.178E+00    0.189E+00
DAV:   5    -0.628924679115E+02    0.18006E-01   -0.32013E-02   448   0.107E+00    0.578E-01
DAV:   6    -0.628907283295E+02    0.17396E-02   -0.17410E-02   456   0.758E-01    0.650E-01
DAV:   7    -0.628842353122E+02    0.64930E-02   -0.99712E-03   456   0.606E-01    0.323E-01
DAV:   8    -0.628832249820E+02    0.10103E-02   -0.20667E-03   424   0.336E-01    0.253E-01
DAV:   9    -0.628827941277E+02    0.43085E-03   -0.11253E-03   424   0.225E-01    0.133E-01
DAV:  10    -0.628831137099E+02   -0.31958E-03   -0.31576E-04   320   0.117E-01    0.888E-02
DAV:  11    -0.628837709356E+02   -0.65723E-03   -0.20577E-04   264   0.803E-02    0.870E-02
DAV:  12    -0.628841810719E+02   -0.41014E-03   -0.12994E-04   288   0.693E-02    0.426E-02
DAV:  13    -0.628847759268E+02   -0.59485E-03   -0.57312E-05   272   0.368E-02    0.265E-02
DAV:  14    -0.628859078303E+02   -0.11319E-02   -0.46238E-05   264   0.271E-02    0.264E-02
DAV:  15    -0.628874108623E+02   -0.15030E-02   -0.52422E-05   280   0.254E-02    0.255E-02
DAV:  16    -0.628892611374E+02   -0.18503E-02   -0.51650E-05   296   0.212E-02    0.158E-02
DAV:  17    -0.628905006913E+02   -0.12396E-02   -0.30573E-05   264   0.151E-02    0.132E-02
DAV:  18    -0.628921542232E+02   -0.16535E-02   -0.41015E-05   288   0.139E-02    0.122E-02
DAV:  19    -0.628944400471E+02   -0.22858E-02   -0.65033E-05   288   0.136E-02    0.114E-02
DAV:  20    -0.628958159105E+02   -0.13759E-02   -0.39242E-05   288   0.136E-02    0.858E-03
DAV:  21    -0.628969869196E+02   -0.11710E-02   -0.44291E-05   288   0.114E-02    0.451E-03
DAV:  22    -0.628975993288E+02   -0.61241E-03   -0.18564E-05   296   0.814E-03    0.433E-03
DAV:  23    -0.628983872656E+02   -0.78794E-03   -0.19782E-05   280   0.736E-03    0.325E-03
DAV:  24    -0.628990853300E+02   -0.69806E-03   -0.17393E-05   304   0.646E-03    0.182E-03
DAV:  25    -0.628993364068E+02   -0.25108E-03   -0.90874E-06   288   0.477E-03    0.155E-03
DAV:  26    -0.628995056441E+02   -0.16924E-03   -0.52186E-06   280   0.368E-03    0.137E-03
DAV:  27    -0.628996801611E+02   -0.17452E-03   -0.32236E-06   288   0.279E-03    0.812E-04
DAV:  28    -0.628997947652E+02   -0.11460E-03   -0.18432E-06   288   0.215E-03    0.652E-04
DAV:  29    -0.628998536321E+02   -0.58867E-04   -0.10127E-06   280   0.162E-03
   3 F= -.62899854E+02 E0= -.62880202E+02  d E =-.336582E+00  mag=     7.2511
       N       E                     dE             d eps       ncg     rms          rms(c)
DAV:   1    -0.629062712246E+02   -0.64765E-02   -0.11251E+01   424   0.843E+00    0.714E-01
DAV:   2    -0.629292212118E+02   -0.22950E-01   -0.19374E-01   448   0.177E+00    0.150E+00
DAV:   3    -0.629208201473E+02    0.84011E-02   -0.47073E-02   432   0.136E+00    0.665E-01
DAV:   4    -0.629228600527E+02   -0.20399E-02   -0.18765E-02   440   0.829E-01    0.944E-01
DAV:   5    -0.629184510540E+02    0.44090E-02   -0.10190E-02   448   0.602E-01    0.285E-01
DAV:   6    -0.629190084523E+02   -0.55740E-03   -0.41798E-03   448   0.346E-01    0.382E-01
DAV:   7    -0.629182659897E+02    0.74246E-03   -0.30451E-03   448   0.331E-01    0.223E-01
DAV:   8    -0.629181840171E+02    0.81973E-04   -0.11926E-03   400   0.232E-01    0.141E-01
DAV:   9    -0.629181796078E+02    0.44093E-05   -0.37315E-04   288   0.127E-01
   4 F= -.62918180E+02 E0= -.62898222E+02  d E =-.183260E-01  mag=     7.2620
       N       E                     dE             d eps       ncg     rms          rms(c)
DAV:   1    -0.629130740529E+02    0.51100E-02   -0.36382E+00   424   0.479E+00    0.413E-01
DAV:   2    -0.629208064484E+02   -0.77324E-02   -0.66685E-02   432   0.106E+00    0.931E-01
DAV:   3    -0.629174838478E+02    0.33226E-02   -0.16911E-02   432   0.828E-01    0.365E-01
DAV:   4    -0.629182360976E+02   -0.75225E-03   -0.64963E-03   432   0.480E-01    0.561E-01
DAV:   5    -0.629167118986E+02    0.15242E-02   -0.33924E-03   432   0.343E-01    0.154E-01
DAV:   6    -0.629169353926E+02   -0.22349E-03   -0.12131E-03   432   0.191E-01    0.211E-01
DAV:   7    -0.629168239919E+02    0.11140E-03   -0.10719E-03   392   0.202E-01    0.160E-01
DAV:   8    -0.629167729046E+02    0.51087E-04   -0.45948E-04   288   0.145E-01
   5 F= -.62916773E+02 E0= -.62896605E+02  d E =-.169193E-01  mag=     7.2747
       N       E                     dE             d eps       ncg     rms          rms(c)
DAV:   1    -0.629169708420E+02   -0.14685E-03   -0.11999E+00   424   0.275E+00    0.225E-01
DAV:   2    -0.629199725563E+02   -0.30017E-02   -0.20885E-02   448   0.587E-01    0.522E-01
DAV:   3    -0.629188951103E+02    0.10774E-02   -0.52713E-03   424   0.450E-01    0.224E-01
DAV:   4    -0.629193508331E+02   -0.45572E-03   -0.21092E-03   424   0.261E-01    0.275E-01
DAV:   5    -0.629191292101E+02    0.22162E-03   -0.83544E-04   352   0.172E-01    0.832E-02
DAV:   6    -0.629195167451E+02   -0.38754E-03   -0.52085E-04   336   0.137E-01    0.163E-01
DAV:   7    -0.629196587317E+02   -0.14199E-03   -0.46542E-04   296   0.139E-01    0.839E-02
DAV:   8    -0.629197090862E+02   -0.50354E-04   -0.14326E-04   272   0.767E-02
   6 F= -.62919709E+02 E0= -.62899654E+02  d E =-.198555E-01  mag=     7.2784
       N       E                     dE             d eps       ncg     rms          rms(c)
DAV:   1    -0.629219382641E+02   -0.22795E-02   -0.17109E+00   416   0.339E+00    0.251E-01
DAV:   2    -0.629267947567E+02   -0.48565E-02   -0.37859E-02   440   0.832E-01    0.775E-01
DAV:   3    -0.629239337318E+02    0.28610E-02   -0.12637E-02   432   0.639E-01    0.239E-01
DAV:   4    -0.629243231201E+02   -0.38939E-03   -0.19990E-03   424   0.260E-01    0.240E-01
DAV:   5    -0.629240915804E+02    0.23154E-03   -0.56493E-04   336   0.159E-01    0.801E-02
DAV:   6    -0.629241290401E+02   -0.37460E-04   -0.22707E-04   296   0.100E-01
   7 F= -.62924129E+02 E0= -.62904212E+02  d E =-.441995E-02  mag=     7.2731
       N       E                     dE             d eps       ncg     rms          rms(c)
DAV:   1    -0.629127101807E+02    0.11381E-01   -0.15409E+01   432   0.102E+01    0.732E-01
DAV:   2    -0.629536098864E+02   -0.40900E-01   -0.32098E-01   440   0.241E+00    0.225E+00
DAV:   3    -0.629300646351E+02    0.23545E-01   -0.10939E-01   424   0.184E+00    0.630E-01
DAV:   4    -0.629322914660E+02   -0.22268E-02   -0.17582E-02   432   0.757E-01    0.796E-01
DAV:   5    -0.629287490658E+02    0.35424E-02   -0.59891E-03   432   0.509E-01    0.228E-01
DAV:   6    -0.629286724658E+02    0.76600E-04   -0.27423E-03   464   0.325E-01    0.345E-01
DAV:   7    -0.629278234728E+02    0.84899E-03   -0.27938E-03   456   0.342E-01    0.314E-01
DAV:   8    -0.629271784112E+02    0.64506E-03   -0.15315E-03   456   0.278E-01    0.181E-01
DAV:   9    -0.629272306620E+02   -0.52251E-04   -0.61666E-04   344   0.146E-01
   8 F= -.62927231E+02 E0= -.62907794E+02  d E =-.752158E-02  mag=     7.2436
       N       E                     dE             d eps       ncg     rms          rms(c)
DAV:   1    -0.629269712471E+02    0.20716E-03   -0.21870E+00   432   0.386E+00    0.273E-01
DAV:   2    -0.629306339191E+02   -0.36627E-02   -0.37879E-02   440   0.727E-01    0.452E-01
DAV:   3    -0.629302125100E+02    0.42141E-03   -0.73404E-03   424   0.500E-01    0.226E-01
DAV:   4    -0.629303590941E+02   -0.14658E-03   -0.15046E-03   424   0.213E-01    0.191E-01
DAV:   5    -0.629303743345E+02   -0.15240E-04   -0.81761E-04   288   0.174E-01
   9 F= -.62930374E+02 E0= -.62910979E+02  d E =-.314367E-02  mag=     7.2329
       N       E                     dE             d eps       ncg     rms          rms(c)
DAV:   1    -0.629307870766E+02   -0.42798E-03   -0.23707E-02   424   0.423E-01    0.130E-01
DAV:   2    -0.629325214996E+02   -0.17344E-02   -0.38523E-03   440   0.425E-01    0.547E-01
DAV:   3    -0.629310468128E+02    0.14747E-02   -0.27615E-03   440   0.371E-01    0.140E-01
DAV:   4    -0.629313090191E+02   -0.26221E-03   -0.47728E-04   304   0.119E-01    0.543E-02
DAV:   5    -0.629315533909E+02   -0.24437E-03   -0.14031E-04   280   0.735E-02    0.702E-02
DAV:   6    -0.629319762860E+02   -0.42290E-03   -0.95814E-05   272   0.618E-02    0.446E-02
DAV:   7    -0.629321929954E+02   -0.21671E-03   -0.38051E-05   280   0.415E-02    0.201E-02
DAV:   8    -0.629324557198E+02   -0.26272E-03   -0.19265E-05   264   0.207E-02    0.159E-02
DAV:   9    -0.629325647311E+02   -0.10901E-03   -0.70057E-06   272   0.138E-02    0.917E-03
DAV:  10    -0.629326728217E+02   -0.10809E-03   -0.31169E-06   248   0.797E-03    0.706E-03
DAV:  11    -0.629327996747E+02   -0.12685E-03   -0.21993E-06   256   0.560E-03    0.436E-03
DAV:  12    -0.629329649180E+02   -0.16524E-03   -0.20117E-06   256   0.416E-03    0.327E-03
DAV:  13    -0.629332509359E+02   -0.28602E-03   -0.39898E-06   280   0.394E-03    0.290E-03
DAV:  14    -0.629334271831E+02   -0.17625E-03   -0.24271E-06   256   0.348E-03    0.220E-03
DAV:  15    -0.629336346919E+02   -0.20751E-03   -0.33734E-06   280   0.286E-03    0.169E-03
DAV:  16    -0.629338018508E+02   -0.16716E-03   -0.30222E-06   280   0.262E-03    0.150E-03
DAV:  17    -0.629340364492E+02   -0.23460E-03   -0.48878E-06   288   0.314E-03    0.108E-03
DAV:  18    -0.629341663674E+02   -0.12992E-03   -0.39170E-06   280   0.255E-03    0.947E-04
DAV:  19    -0.629342611365E+02   -0.94769E-04   -0.35573E-06   296   0.244E-03
  10 F= -.62934261E+02 E0= -.62915191E+02  d E =-.703047E-02  mag=     7.2093
       N       E                     dE             d eps       ncg     rms          rms(c)
DAV:   1    -0.629339119749E+02    0.25439E-03   -0.16160E+00   432   0.330E+00    0.201E-01
DAV:   2    -0.629373788281E+02   -0.34669E-02   -0.30111E-02   432   0.713E-01    0.569E-01
DAV:   3    -0.629356728588E+02    0.17060E-02   -0.66594E-03   448   0.499E-01    0.999E-02
DAV:   4    -0.629358427949E+02   -0.16994E-03   -0.70079E-04   432   0.130E-01    0.138E-01
DAV:   5    -0.629357305642E+02    0.11223E-03   -0.29505E-04   264   0.102E-01    0.763E-02
DAV:   6    -0.629356582335E+02    0.72331E-04   -0.12434E-04   272   0.715E-02
  11 F= -.62935658E+02 E0= -.62916516E+02  d E =-.139710E-02  mag=     7.2024
       N       E                     dE             d eps       ncg     rms          rms(c)
DAV:   1    -0.629298140446E+02    0.59165E-02   -0.51821E+00   432   0.591E+00    0.347E-01
DAV:   2    -0.629397393419E+02   -0.99253E-02   -0.91411E-02   424   0.120E+00    0.910E-01
DAV:   3    -0.629355296491E+02    0.42097E-02   -0.18896E-02   424   0.835E-01    0.262E-01
DAV:   4    -0.629360061082E+02   -0.47646E-03   -0.35788E-03   432   0.340E-01    0.395E-01
DAV:   5    -0.629350189044E+02    0.98720E-03   -0.17832E-03   416   0.262E-01    0.129E-01
DAV:   6    -0.629348833369E+02    0.13557E-03   -0.66789E-04   408   0.156E-01    0.191E-01
DAV:   7    -0.629342174599E+02    0.66588E-03   -0.84507E-04   424   0.177E-01    0.143E-01
DAV:   8    -0.629338610050E+02    0.35645E-03   -0.41153E-04   296   0.130E-01    0.817E-02
DAV:   9    -0.629337727505E+02    0.88255E-04   -0.15286E-04   272   0.738E-02
  12 F= -.62933773E+02 E0= -.62915008E+02  d E =0.488386E-03  mag=     7.1796
