 vasp.6.1.2 22Jul20 (build Aug  2 2021 21:04:21) gamma-only                      
 executed on             LinuxPGI date 2021.12.15  02:03:22
 running on   16 total cores
 distrk:  each k-point on   16 cores,    1 groups
 distr:  one band on NCORE=   8 cores,    2 groups


--------------------------------------------------------------------------------------------------------


 INCAR:
 POTCAR:    PAW_PBE Pd 04Jan2005                  
 -----------------------------------------------------------------------------
|                                                                             |
|           W    W    AA    RRRRR   N    N  II  N    N   GGGG   !!!           |
|           W    W   A  A   R    R  NN   N  II  NN   N  G    G  !!!           |
|           W    W  A    A  R    R  N N  N  II  N N  N  G       !!!           |
|           W WW W  AAAAAA  RRRRR   N  N N  II  N  N N  G  GGG   !            |
|           WW  WW  A    A  R   R   N   NN  II  N   NN  G    G                |
|           W    W  A    A  R    R  N    N  II  N    N   GGGG   !!!           |
|                                                                             |
|     You use a magnetic or noncollinear calculation, but did not specify     |
|     the initial magnetic moment with the MAGMOM tag. Note that a            |
|     default of 1 will be used for all atoms. This ferromagnetic setup       |
|     may break the symmetry of the crystal, in particular it may rule        |
|     out finding an antiferromagnetic solution. Thence, we recommend         |
|     setting the initial magnetic moment manually or verifying carefully     |
|     that this magnetic setup is desired.                                    |
|                                                                             |
 -----------------------------------------------------------------------------

 POTCAR:    PAW_PBE Pd 04Jan2005                  
   SHA256 =  dd6f6f02930356371984e2b707ff5e456046761dc76b07c1eba30abd15eb3c39 Pd/POTCAR             
   COPYR  = (c) Copyright 04Jan2005 Georg Kresse                                                    
   COPYR  = This file is part of the software VASP. Any use, copying, and all other rights are regul
   COPYR  = If you do not have a valid VASP license, you may not use, copy or distribute this file. 
   VRHFIN =Pd : s1 d9                                                                               
   LEXCH  = PE                                                                                      
   EATOM  =   809.7530 eV,   59.5152 Ry                                                             
                                                                                                    
   TITEL  = PAW_PBE Pd 04Jan2005                                                                    
   LULTRA =        F    use ultrasoft PP ?                                                          
   IUNSCR =        1    unscreen: 0-lin 1-nonlin 2-no                                               
   RPACOR =    2.000    partial core radius                                                         
   POMASS =  106.420; ZVAL   =   10.000    mass and valenz                                          
   RCORE  =    2.600    outmost cutoff radius                                                       
   RWIGS  =    2.710; RWIGS  =    1.434    wigner-seitz radius (au A)                               
   ENMAX  =  250.925; ENMIN  =  188.194 eV                                                          
   ICORE  =        3    local potential                                                             
   LCOR   =        T    correct aug charges                                                         
   LPAW   =        T    paw PP                                                                      
   EAUG   =  416.230                                                                                
   DEXC   =    0.000                                                                                
   RMAX   =    2.653    core radius for proj-oper                                                   
   RAUG   =    1.300    factor for augmentation sphere                                              
   RDEP   =    2.734    radius for radial grids                                                     
   RDEPT  =    2.103    core radius for aug-charge                                                  
                                                                                                    
   Atomic configuration                                                                             
   12 entries                                                                                       
     n  l   j            E        occ.                                                              
     1  0  0.50    -24164.6631   2.0000                                                             
     2  0  0.50     -3530.9218   2.0000                                                             
     2  1  1.50     -3165.6822   6.0000                                                             
     3  0  0.50      -639.4577   2.0000                                                             
     3  1  1.50      -519.4532   6.0000                                                             
     3  2  2.50      -328.9757  10.0000                                                             
     4  0  0.50       -88.7014   2.0000                                                             
     4  1  1.50       -54.4540   6.0000                                                             
     4  2  2.50        -6.6878   9.0000                                                             
     5  0  0.50        -4.3543   1.0000                                                             
     5  1  0.50        -1.3606   0.0000                                                             
     4  3  2.50        -1.3606   0.0000                                                             
   Description                                                                                      
     l       E           TYP  RCUT    TYP  RCUT                                                     
     2     -6.6878251     23  2.400                                                                 
     2     -8.0484077     23  2.400                                                                 
     0     -4.3542939     23  2.400                                                                 
     0      4.3406793     23  2.400                                                                 
     1     -4.0817478     23  2.600                                                                 
     1     15.8380318     23  2.600                                                                 
     3     -4.0817478     23  2.400                                                                 
  local pseudopotential read in
  partial core-charges read in
  partial kinetic energy density read in
  atomic valenz-charges read in
  non local Contribution for L=            2  read in
    real space projection operators read in
  non local Contribution for L=            2  read in
    real space projection operators read in
  non local Contribution for L=            0  read in
    real space projection operators read in
  non local Contribution for L=            0  read in
    real space projection operators read in
  non local Contribution for L=            1  read in
    real space projection operators read in
  non local Contribution for L=            1  read in
    real space projection operators read in
    PAW grid and wavefunctions read in
 
   number of l-projection  operators is LMAX  =            6
   number of lm-projection operators is LMMAX =           18
 
  PAW_PBE Pd 04Jan2005                  :
 energy of atom  1       EATOM= -809.7530
 kinetic energy error for atom=    0.0091 (will be added to EATOM!!)
 
 
 POSCAR: Pd
  positions in cartesian coordinates
  No initial velocities read in
 exchange correlation table for  LEXCH =        8
   RHO(1)=    0.500       N(1)  =     2000
   RHO(2)=  100.500       N(2)  =     4000
 


--------------------------------------------------------------------------------------------------------


 ion  position               nearest neighbor table
   1  0.507  0.467  0.533-   2 2.57   7 2.58   8 2.59   3 2.60  15 2.60  10 2.60  14 2.60   9 2.60
                            11 2.61  12 2.61   6 2.62   4 2.63
   2  0.521  0.435  0.432-   1 2.57  16 2.60  11 2.70  14 2.71   4 2.75  10 2.79   3 2.81
   3  0.413  0.458  0.476-  16 2.59   1 2.60   5 2.63  14 2.69   9 2.70  15 2.77   2 2.81   4 3.16

   4  0.512  0.543  0.457-  16 2.59  13 2.60   5 2.61   1 2.63  10 2.64   7 2.71   2 2.75  15 3.15
                             3 3.16
   5  0.401  0.562  0.454-  16 2.60  13 2.60   4 2.61   3 2.63  15 2.65
   6  0.518  0.391  0.609-   1 2.62   9 2.64  11 2.66  12 2.67   8 2.67  14 2.68
   7  0.545  0.560  0.563-   1 2.58  13 2.62   4 2.71   8 2.72  12 2.72  10 2.80  15 2.83
   8  0.494  0.493  0.637-   1 2.59  12 2.66   6 2.67   9 2.69  15 2.69   7 2.72
   9  0.416  0.431  0.585-   1 2.60   6 2.64  15 2.68   8 2.69  14 2.69   3 2.70
  10  0.605  0.493  0.490-   1 2.60  11 2.63  12 2.64   4 2.64   2 2.79   7 2.80
  11  0.583  0.392  0.517-   1 2.61  10 2.63  14 2.66   6 2.66   2 2.70  12 2.72
  12  0.597  0.468  0.597-   1 2.61  10 2.64   8 2.66   6 2.67   7 2.72  11 2.72
  13  0.468  0.622  0.515-  15 2.57   5 2.60   4 2.60   7 2.62
  14  0.471  0.370  0.509-   1 2.60  11 2.66   6 2.68   9 2.69   3 2.69   2 2.71
  15  0.427  0.536  0.558-  13 2.57   1 2.60   5 2.65   9 2.68   8 2.69   3 2.77   7 2.83   4 3.15

  16  0.448  0.497  0.382-   3 2.59   4 2.59   5 2.60   2 2.60
 

IMPORTANT INFORMATION: All symmetrisations will be switched off!
NOSYMM: (Re-)initialisation of all symmetry stuff for point group C_1.


----------------------------------------------------------------------------------------

                                     Primitive cell                                     

  volume of cell :   13880.9506

  direct lattice vectors                    reciprocal lattice vectors
    23.324096182  0.000000000  0.000000000     0.042874116  0.000000000  0.000000000
     0.000000000 24.783453576  0.000000000     0.000000000  0.040349502  0.000000000
     0.000000000  0.000000000 24.013339402     0.000000000  0.000000000  0.041643521

  length of vectors
    23.324096182 24.783453576 24.013339402     0.042874116  0.040349502  0.041643521

  position of ions in fractional coordinates (direct lattice)
     0.506659625  0.466946681  0.533411125
     0.521499625  0.434900964  0.432443084
     0.412630268  0.458165117  0.476333504
     0.511632323  0.542881244  0.456794169
     0.401367146  0.561546368  0.454351959
     0.518495921  0.390854617  0.608572669
     0.544901568  0.560308125  0.563201858
     0.494446514  0.492526117  0.637329083
     0.416336856  0.430991252  0.585153477
     0.605211945  0.492511569  0.490380643
     0.582799652  0.391710666  0.516928942
     0.597248385  0.468080075  0.597063417
     0.468322032  0.621584095  0.514658006
     0.471267935  0.370215415  0.509247475
     0.426633876  0.535690599  0.558467960
     0.447696147  0.496874681  0.382244880

  ion indices of the primitive-cell ions
   primitive index   ion index
                 1           1
                 2           2
                 3           3
                 4           4
                 5           5
                 6           6
                 7           7
                 8           8
                 9           9
                10          10
                11          11
                12          12
                13          13
                14          14
                15          15
                16          16

----------------------------------------------------------------------------------------

 
 
 KPOINTS: KPOINTS created by Atomic Simulation Env

Automatic generation of k-mesh.
Space group operators:
 irot       det(A)        alpha          n_x          n_y          n_z        tau_x        tau_y        tau_z
    1     1.000000     0.000000     1.000000     0.000000     0.000000     0.000000     0.000000     0.000000
 
 Subroutine IBZKPT returns following result:
 ===========================================
 
 Found      1 irreducible k-points:
 
 Following reciprocal coordinates:
            Coordinates               Weight
  0.000000  0.000000  0.000000      1.000000
 
 Following cartesian coordinates:
            Coordinates               Weight
  0.000000  0.000000  0.000000      1.000000
 


--------------------------------------------------------------------------------------------------------




 Dimension of arrays:
   k-points           NKPTS =      1   k-points in BZ     NKDIM =      1   number of bands    NBANDS=    104
   number of dos      NEDOS =    301   number of ions     NIONS =     16
   non local maximal  LDIM  =      6   non local SUM 2l+1 LMDIM =     18
   total plane-waves  NPLWV = ******
   max r-space proj   IRMAX =      1   max aug-charges    IRDMAX=   6539
   dimension x,y,z NGX =   120 NGY =  126 NGZ =  120
   dimension x,y,z NGXF=   240 NGYF=  252 NGZF=  240
   support grid    NGXF=   240 NGYF=  252 NGZF=  240
   ions per type =              16
   NGX,Y,Z   is equivalent  to a cutoff of   8.55,  8.45,  8.31 a.u.
   NGXF,Y,Z  is equivalent  to a cutoff of  17.11, 16.90, 16.62 a.u.

 SYSTEM =  unknown system                          
 POSCAR =  Pd                                      

 Startparameter for this run:
   NWRITE =      2    write-flag & timer
   PREC   = normal    normal or accurate (medium, high low for compatibility)
   ISTART =      0    job   : 0-new  1-cont  2-samecut
   ICHARG =      2    charge: 1-file 2-atom 10-const
   ISPIN  =      2    spin polarized calculation?
   LNONCOLLINEAR =      F non collinear calculations
   LSORBIT =      F    spin-orbit coupling
   INIWAV =      1    electr: 0-lowe 1-rand  2-diag
   LASPH  =      F    aspherical Exc in radial PAW
   METAGGA=      F    non-selfconsistent MetaGGA calc.

 Electronic Relaxation 1
   ENCUT  =  400.0 eV  29.40 Ry    5.42 a.u.  38.04 40.42 39.16*2*pi/ulx,y,z
   ENINI  =  400.0     initial cutoff
   ENAUG  =  416.2 eV  augmentation charge cutoff
   NELM   =     60;   NELMIN=  2; NELMDL=  0     # of ELM steps 
   EDIFF  = 0.1E-03   stopping-criterion for ELM
   LREAL  =      F    real-space projection
   NLSPLINE    = F    spline interpolate recip. space projectors
   LCOMPAT=      F    compatible to vasp.4.4
   GGA_COMPAT  = T    GGA compatible to vasp.4.4-vasp.4.6
   LMAXPAW     = -100 max onsite density
   LMAXMIX     =    2 max onsite mixed and CHGCAR
   VOSKOWN=      0    Vosko Wilk Nusair interpolation
   ROPT   =    0.00000
 Ionic relaxation
   EDIFFG = 0.1E-02   stopping-criterion for IOM
   NSW    =   1000    number of steps for IOM
   NBLOCK =      1;   KBLOCK =   1000    inner block; outer block 
   IBRION =      2    ionic relax: 0-MD 1-quasi-New 2-CG
   NFREE  =      1    steps in history (QN), initial steepest desc. (CG)
   ISIF   =      0    stress and relaxation
   IWAVPR =     11    prediction:  0-non 1-charg 2-wave 3-comb
   ISYM   =      0    0-nonsym 1-usesym 2-fastsym
   LCORR  =      T    Harris-Foulkes like correction to forces

   POTIM  = 0.5000    time-step for ionic-motion
   TEIN   =    0.0    initial temperature
   TEBEG  =    0.0;   TEEND  =   0.0 temperature during run
   SMASS  =  -3.00    Nose mass-parameter (am)
   estimated Nose-frequenzy (Omega)   =  0.10E-29 period in steps = 0.13E+47 mass=  -0.124E-25a.u.
   SCALEE = 1.0000    scale energy and forces
   NPACO  =    256;   APACO  = 16.0  distance and # of slots for P.C.
   PSTRESS=    0.0 pullay stress

  Mass of Ions in am
   POMASS = 106.42
  Ionic Valenz
   ZVAL   =  10.00
  Atomic Wigner-Seitz radii
   RWIGS  =  -1.00
  virtual crystal weights 
   VCA    =   1.00
   NELECT =     160.0000    total number of electrons
   NUPDOWN=      -1.0000    fix difference up-down

 DOS related values:
   EMIN   =  10.00;   EMAX   =-10.00  energy-range for DOS
   EFERMI =   0.00
   ISMEAR =     1;   SIGMA  =   0.20  broadening in eV -4-tet -1-fermi 0-gaus

 Electronic relaxation 2 (details)
   IALGO  =     38    algorithm
   LDIAG  =      T    sub-space diagonalisation (order eigenvalues)
   LSUBROT=      F    optimize rotation matrix (better conditioning)
   TURBO    =      0    0=normal 1=particle mesh
   IRESTART =      0    0=no restart 2=restart with 2 vectors
   NREBOOT  =      0    no. of reboots
   NMIN     =      0    reboot dimension
   EREF     =   0.00    reference energy to select bands
   IMIX   =      4    mixing-type and parameters
     AMIX     =   0.40;   BMIX     =  1.00
     AMIX_MAG =   1.60;   BMIX_MAG =  1.00
     AMIN     =   0.10
     WC   =   100.;   INIMIX=   1;  MIXPRE=   1;  MAXMIX= -45

 Intra band minimization:
   WEIMIN = 0.0010     energy-eigenvalue tresh-hold
   EBREAK =  0.24E-06  absolut break condition
   DEPER  =   0.30     relativ break condition  

   TIME   =   0.40     timestep for ELM

  volume/ion in A,a.u.               =     867.56      5854.58
  Fermi-wavevector in a.u.,A,eV,Ry     =   0.369807  0.698834  1.860695  0.136757
  Thomas-Fermi vector in A             =   1.296706
 
 Write flags
   LWAVE        =      F    write WAVECAR
   LDOWNSAMPLE  =      F    k-point downsampling of WAVECAR
   LCHARG       =      F    write CHGCAR
   LVTOT        =      F    write LOCPOT, total local potential
   LVHAR        =      F    write LOCPOT, Hartree potential only
   LELF         =      F    write electronic localiz. function (ELF)
   LORBIT       =      0    0 simple, 1 ext, 2 COOP (PROOUT), +10 PAW based schemes


 Dipole corrections
   LMONO  =      F    monopole corrections only (constant potential shift)
   LDIPOL =      F    correct potential (dipole corrections)
   IDIPOL =      0    1-x, 2-y, 3-z, 4-all directions 
   EPSILON=  1.0000000 bulk dielectric constant

 Exchange correlation treatment:
   GGA     =    PE    GGA type
   LEXCH   =     8    internal setting for exchange type
   VOSKOWN=      0    Vosko Wilk Nusair interpolation
   LHFCALC =     F    Hartree Fock is set to
   LHFONE  =     F    Hartree Fock one center treatment
   AEXX    =    0.0000 exact exchange contribution

 Linear response parameters
   LEPSILON=     F    determine dielectric tensor
   LRPA    =     F    only Hartree local field effects (RPA)
   LNABLA  =     F    use nabla operator in PAW spheres
   LVEL    =     F    velocity operator in full k-point grid
   LINTERFAST=   F  fast interpolation
   KINTER  =     0    interpolate to denser k-point grid
   CSHIFT  =0.1000    complex shift for real part using Kramers Kronig
   OMEGAMAX=  -1.0    maximum frequency
   DEG_THRESHOLD= 0.2000000E-02 threshold for treating states as degnerate
   RTIME   =   -0.100 relaxation time in fs
  (WPLASMAI=    0.000 imaginary part of plasma frequency in eV, 0.658/RTIME)
   DFIELD  = 0.0000000 0.0000000 0.0000000 field for delta impulse in time
 
 Orbital magnetization related:
   ORBITALMAG=     F  switch on orbital magnetization
   LCHIMAG   =     F  perturbation theory with respect to B field
   DQ        =  0.001000  dq finite difference perturbation B field
   LLRAUG    =     F  two centre corrections for induced B field



--------------------------------------------------------------------------------------------------------


 conjugate gradient relaxation of ions
 charge density and potential will be updated during run
 spin polarized calculation
 Variant of blocked Davidson
 Davidson routine will perform the subspace rotation
 perform sub-space diagonalisation
    after iterative eigenvector-optimisation
 modified Broyden-mixing scheme, WC =      100.0
 initial mixing is a Kerker type mixing with AMIX =  0.4000 and BMIX =      1.0000
 Hartree-type preconditioning will be used
 using additional bands            24
 reciprocal scheme for non local part
 use partial core corrections
 calculate Harris-corrections to forces 
   (improved forces if not selfconsistent)
 use gradient corrections 
 use of overlap-Matrix (Vanderbilt PP)
 Methfessel and Paxton  Order N= 1 SIGMA  =   0.20


--------------------------------------------------------------------------------------------------------


  energy-cutoff  :      400.00
  volume of cell :    13880.95
      direct lattice vectors                 reciprocal lattice vectors
    23.324096182  0.000000000  0.000000000     0.042874116  0.000000000  0.000000000
     0.000000000 24.783453576  0.000000000     0.000000000  0.040349502  0.000000000
     0.000000000  0.000000000 24.013339402     0.000000000  0.000000000  0.041643521

  length of vectors
    23.324096182 24.783453576 24.013339402     0.042874116  0.040349502  0.041643521


 
 k-points in units of 2pi/SCALE and weight: KPOINTS created by Atomic Simulation Env
   0.00000000  0.00000000  0.00000000       1.000
 
 k-points in reciprocal lattice and weights: KPOINTS created by Atomic Simulation Env
   0.00000000  0.00000000  0.00000000       1.000
 
 position of ions in fractional coordinates (direct lattice) 
   0.50665963  0.46694668  0.53341112
   0.52149963  0.43490096  0.43244308
   0.41263027  0.45816512  0.47633350
   0.51163232  0.54288124  0.45679417
   0.40136715  0.56154637  0.45435196
   0.51849592  0.39085462  0.60857267
   0.54490157  0.56030812  0.56320186
   0.49444651  0.49252612  0.63732908
   0.41633686  0.43099125  0.58515348
   0.60521194  0.49251157  0.49038064
   0.58279965  0.39171067  0.51692894
   0.59724838  0.46808008  0.59706342
   0.46832203  0.62158409  0.51465801
   0.47126794  0.37021542  0.50924747
   0.42663388  0.53569060  0.55846796
   0.44769615  0.49687468  0.38224488
 
 position of ions in cartesian coordinates  (Angst):
  11.81737784 11.57255140 12.80898238
  12.16350742 10.77834785 10.38440255
   9.62422806 11.35491390 11.43835810
  11.93336151 13.45447211 10.96915341
   9.36152592 13.91705834 10.91050779
  12.09344872  9.68672726 14.61386206
  12.70933659 13.88637040 13.52435737
  11.53251804 12.20649815 15.30439958
   9.71068088 10.68145169 14.05148904
  14.11602161 12.20613761 11.77567682
  13.59327513  9.70794311 12.41319014
  13.93027877 11.60064081 14.33748647
  10.92318812 15.40500056 12.35865739
  10.99189865  9.17521655 12.22873245
   9.95084956 13.27626309 13.41068066
  10.44210800 12.31427060  9.17897605
 


--------------------------------------------------------------------------------------------------------


 use parallel FFT for orbitals z direction half grid
 k-point   1 :   0.0000 0.0000 0.0000  plane waves:  126066

 maximum and minimum number of plane-waves per node :     15767    15752

 maximum number of plane-waves:    126066
 maximum index in each direction: 
   IXMAX=   38   IYMAX=   40   IZMAX=   39
   IXMIN=  -38   IYMIN=  -40   IZMIN=    0


 parallel 3D FFT for wavefunctions:
    minimum data exchange during FFTs selected (reduces bandwidth)
 parallel 3D FFT for charge:
    minimum data exchange during FFTs selected (reduces bandwidth)


 total amount of memory used by VASP MPI-rank0   182129. kBytes
=======================================================================

   base      :      30000. kBytes
   nonl-proj :       6304. kBytes
   fftplans  :      35588. kBytes
   grid      :      83952. kBytes
   one-center:         31. kBytes
   wavefun   :      26254. kBytes
 
     INWAV:  cpu time    0.0000: real time    0.0000
 Broyden mixing: mesh for mixing (old mesh)
   NGX = 77   NGY = 81   NGZ = 79
  (NGX  =240   NGY  =252   NGZ  =240)
  gives a total of 492723 points

 initial charge density was supplied:
 charge density of overlapping atoms calculated
 number of electron     160.0000000 magnetization      16.0000000
 keeping initial charge density in first step


--------------------------------------------------------------------------------------------------------


 Maximum index for augmentation-charges           406 (set IRDMAX)


--------------------------------------------------------------------------------------------------------


 First call to EWALD:  gamma=   0.074
 Maximum number of real-space cells 3x 3x 3
 Maximum number of reciprocal cells 3x 3x 3

    FEWALD:  cpu time    0.0016: real time    0.0016


--------------------------------------- Iteration      1(   1)  ---------------------------------------


    POTLOK:  cpu time    2.9609: real time    3.0264
    SETDIJ:  cpu time    0.0346: real time    0.0346
     EDDAV:  cpu time   12.4894: real time   12.5026
       DOS:  cpu time    0.0038: real time    0.0038
    --------------------------------------------
      LOOP:  cpu time   15.4887: real time   15.5675

 eigenvalue-minimisations  :   416
 total energy-change (2. order) : 0.1445468E+04  (-0.2747676E+04)
 number of electron     160.0000000 magnetization      16.0000000
 augmentation part      160.0000000 magnetization      16.0000000

 Free energy of the ion-electron system (eV)
  ---------------------------------------------------
  alpha Z        PSCENC =        12.01996758
  Ewald energy   TEWEN  =     27628.71824136
  -Hartree energ DENC   =    -39916.53662188
  -exchange      EXHF   =         0.00000000
  -V(xc)+E(xc)   XCENC  =      -478.30948278
  PAW double counting   =     12906.36685261   -11910.91650437
  entropy T*S    EENTRO =        -0.02601458
  eigenvalues    EBANDS =       248.24926059
  atomic energy  EATOM  =     12955.90228127
  Solvation  Ediel_sol  =         0.00000000
  ---------------------------------------------------
  free energy    TOTEN  =      1445.46797981 eV

  energy without entropy =     1445.49399439  energy(sigma->0) =     1445.47665134


--------------------------------------------------------------------------------------------------------




--------------------------------------- Iteration      1(   2)  ---------------------------------------


     EDDAV:  cpu time   20.1630: real time   20.2337
       DOS:  cpu time    0.0012: real time    0.0012
    --------------------------------------------
      LOOP:  cpu time   20.1642: real time   20.2349

 eigenvalue-minimisations  :   784
 total energy-change (2. order) :-0.7120311E+03  (-0.6407250E+03)
 number of electron     160.0000000 magnetization      16.0000000
 augmentation part      160.0000000 magnetization      16.0000000

 Free energy of the ion-electron system (eV)
  ---------------------------------------------------
  alpha Z        PSCENC =        12.01996758
  Ewald energy   TEWEN  =     27628.71824136
  -Hartree energ DENC   =    -39916.53662188
  -exchange      EXHF   =         0.00000000
  -V(xc)+E(xc)   XCENC  =      -478.30948278
  PAW double counting   =     12906.36685261   -11910.91650437
  entropy T*S    EENTRO =        -0.02440805
  eigenvalues    EBANDS =      -463.78343692
  atomic energy  EATOM  =     12955.90228127
  Solvation  Ediel_sol  =         0.00000000
  ---------------------------------------------------
  free energy    TOTEN  =       733.43688883 eV

  energy without entropy =      733.46129688  energy(sigma->0) =      733.44502484


--------------------------------------------------------------------------------------------------------




--------------------------------------- Iteration      1(   3)  ---------------------------------------


     EDDAV:  cpu time   17.2060: real time   17.2183
       DOS:  cpu time    0.0012: real time    0.0012
    --------------------------------------------
      LOOP:  cpu time   17.2073: real time   17.2195

 eigenvalue-minimisations  :   680
 total energy-change (2. order) :-0.6053022E+03  (-0.5620603E+03)
 number of electron     160.0000000 magnetization      16.0000000
 augmentation part      160.0000000 magnetization      16.0000000

 Free energy of the ion-electron system (eV)
  ---------------------------------------------------
  alpha Z        PSCENC =        12.01996758
  Ewald energy   TEWEN  =     27628.71824136
  -Hartree energ DENC   =    -39916.53662188
  -exchange      EXHF   =         0.00000000
  -V(xc)+E(xc)   XCENC  =      -478.30948278
  PAW double counting   =     12906.36685261   -11910.91650437
  entropy T*S    EENTRO =        -0.04345772
  eigenvalues    EBANDS =     -1069.06662806
  atomic energy  EATOM  =     12955.90228127
  Solvation  Ediel_sol  =         0.00000000
  ---------------------------------------------------
  free energy    TOTEN  =       128.13464801 eV

  energy without entropy =      128.17810574  energy(sigma->0) =      128.14913392


--------------------------------------------------------------------------------------------------------




--------------------------------------- Iteration      1(   4)  ---------------------------------------


     EDDAV:  cpu time   14.6787: real time   14.6895
       DOS:  cpu time    0.0039: real time    0.0039
    --------------------------------------------
      LOOP:  cpu time   14.6826: real time   14.6934

 eigenvalue-minimisations  :   544
 total energy-change (2. order) :-0.1700831E+03  (-0.1545914E+03)
 number of electron     160.0000000 magnetization      16.0000000
 augmentation part      160.0000000 magnetization      16.0000000

 Free energy of the ion-electron system (eV)
  ---------------------------------------------------
  alpha Z        PSCENC =        12.01996758
  Ewald energy   TEWEN  =     27628.71824136
  -Hartree energ DENC   =    -39916.53662188
  -exchange      EXHF   =         0.00000000
  -V(xc)+E(xc)   XCENC  =      -478.30948278
  PAW double counting   =     12906.36685261   -11910.91650437
  entropy T*S    EENTRO =        -0.00429839
  eigenvalues    EBANDS =     -1239.18893204
  atomic energy  EATOM  =     12955.90228127
  Solvation  Ediel_sol  =         0.00000000
  ---------------------------------------------------
  free energy    TOTEN  =       -41.94849663 eV

  energy without entropy =      -41.94419824  energy(sigma->0) =      -41.94706383


--------------------------------------------------------------------------------------------------------




--------------------------------------- Iteration      1(   5)  ---------------------------------------


     EDDAV:  cpu time   15.1966: real time   15.2105
       DOS:  cpu time    0.0044: real time    0.0044
    CHARGE:  cpu time    1.1307: real time    1.1316
    MIXING:  cpu time    0.0649: real time    0.0649
    --------------------------------------------
      LOOP:  cpu time   16.3966: real time   16.4113

 eigenvalue-minimisations  :   552
 total energy-change (2. order) :-0.2214642E+02  (-0.1720969E+02)
 number of electron     160.0000009 magnetization      14.8507812
 augmentation part       67.4675611 magnetization      13.1411946

 Broyden mixing:
  rms(total) = 0.30000E+01    rms(broyden)= 0.29999E+01
  rms(prec ) = 0.30476E+01
  weight for this iteration     100.00

 Free energy of the ion-electron system (eV)
  ---------------------------------------------------
  alpha Z        PSCENC =        12.01996758
  Ewald energy   TEWEN  =     27628.71824136
  -Hartree energ DENC   =    -39916.53662188
  -exchange      EXHF   =         0.00000000
  -V(xc)+E(xc)   XCENC  =      -478.30948278
  PAW double counting   =     12906.36685261   -11910.91650437
  entropy T*S    EENTRO =         0.01931676
  eigenvalues    EBANDS =     -1261.35896452
  atomic energy  EATOM  =     12955.90228127
  Solvation  Ediel_sol  =         0.00000000
  ---------------------------------------------------
  free energy    TOTEN  =       -64.09491397 eV

  energy without entropy =      -64.11423073  energy(sigma->0) =      -64.10135289


--------------------------------------------------------------------------------------------------------




--------------------------------------- Iteration      1(   6)  ---------------------------------------


    POTLOK:  cpu time    3.1927: real time    3.1948
    SETDIJ:  cpu time    0.0369: real time    0.0370
     EDDAV:  cpu time   12.0566: real time   12.0656
       DOS:  cpu time    0.0054: real time    0.0054
    CHARGE:  cpu time    1.0242: real time    1.0249
    MIXING:  cpu time    0.0550: real time    0.0550
    --------------------------------------------
      LOOP:  cpu time   16.3709: real time   16.3826

 eigenvalue-minimisations  :   440
 total energy-change (2. order) : 0.1214879E+02  (-0.5449594E+01)
 number of electron     160.0000016 magnetization      14.3015932
 augmentation part       68.6805048 magnetization       8.7121638

 Broyden mixing:
  rms(total) = 0.17836E+01    rms(broyden)= 0.17834E+01
  rms(prec ) = 0.18735E+01
  weight for this iteration     100.00

 eigenvalues of (default mixing * dielectric matrix)
  average eigenvalue GAMMA=   0.7438
  0.7438

 Free energy of the ion-electron system (eV)
  ---------------------------------------------------
  alpha Z        PSCENC =        12.01996758
  Ewald energy   TEWEN  =     27628.71824136
  -Hartree energ DENC   =    -39980.11796325
  -exchange      EXHF   =         0.00000000
  -V(xc)+E(xc)   XCENC  =      -470.67547002
  PAW double counting   =     13899.27399171   -12915.71685267
  entropy T*S    EENTRO =         0.06185847
  eigenvalues    EBANDS =     -1181.41217641
  atomic energy  EATOM  =     12955.90228127
  Solvation  Ediel_sol  =         0.00000000
  ---------------------------------------------------
  free energy    TOTEN  =       -51.94612195 eV

  energy without entropy =      -52.00798042  energy(sigma->0) =      -51.96674144


--------------------------------------------------------------------------------------------------------




--------------------------------------- Iteration      1(   7)  ---------------------------------------


    POTLOK:  cpu time    3.0496: real time    3.0814
    SETDIJ:  cpu time    0.0262: real time    0.0262
     EDDAV:  cpu time   12.7428: real time   12.7523
       DOS:  cpu time    0.0039: real time    0.0039
    CHARGE:  cpu time    1.1213: real time    1.1222
    MIXING:  cpu time    0.0683: real time    0.0684
    --------------------------------------------
      LOOP:  cpu time   17.0122: real time   17.0543

 eigenvalue-minimisations  :   448
 total energy-change (2. order) :-0.4530107E+01  (-0.3623195E+01)
 number of electron     160.0000011 magnetization      13.6083499
 augmentation part       68.1460876 magnetization      10.7087507

 Broyden mixing:
  rms(total) = 0.29734E+01    rms(broyden)= 0.29732E+01
  rms(prec ) = 0.32386E+01
  weight for this iteration     100.00

 eigenvalues of (default mixing * dielectric matrix)
  average eigenvalue GAMMA=   0.7342
  1.1506  0.3178

 Free energy of the ion-electron system (eV)
  ---------------------------------------------------
  alpha Z        PSCENC =        12.01996758
  Ewald energy   TEWEN  =     27628.71824136
  -Hartree energ DENC   =    -40027.56030359
  -exchange      EXHF   =         0.00000000
  -V(xc)+E(xc)   XCENC  =      -468.51816698
  PAW double counting   =     14388.82062451   -13408.83138145
  entropy T*S    EENTRO =         0.03079665
  eigenvalues    EBANDS =     -1137.05828836
  atomic energy  EATOM  =     12955.90228127
  Solvation  Ediel_sol  =         0.00000000
  ---------------------------------------------------
  free energy    TOTEN  =       -56.47622901 eV

  energy without entropy =      -56.50702566  energy(sigma->0) =      -56.48649456


--------------------------------------------------------------------------------------------------------




--------------------------------------- Iteration      1(   8)  ---------------------------------------


    POTLOK:  cpu time    3.1937: real time    3.1995
    SETDIJ:  cpu time    0.0347: real time    0.0347
     EDDAV:  cpu time   13.1812: real time   13.1906
       DOS:  cpu time    0.0054: real time    0.0054
    CHARGE:  cpu time    1.1245: real time    1.1254
    MIXING:  cpu time    0.0711: real time    0.0711
    --------------------------------------------
      LOOP:  cpu time   17.6105: real time   17.6268

 eigenvalue-minimisations  :   456
 total energy-change (2. order) : 0.4251688E+01  (-0.2364233E+01)
 number of electron     160.0000016 magnetization      13.3152093
 augmentation part       68.0429872 magnetization       9.6770408

 Broyden mixing:
  rms(total) = 0.20597E+01    rms(broyden)= 0.20595E+01
  rms(prec ) = 0.22903E+01
  weight for this iteration     100.00

 eigenvalues of (default mixing * dielectric matrix)
  average eigenvalue GAMMA=   0.6302
  1.2748  0.3200  0.2959

 Free energy of the ion-electron system (eV)
  ---------------------------------------------------
  alpha Z        PSCENC =        12.01996758
  Ewald energy   TEWEN  =     27628.71824136
  -Hartree energ DENC   =    -40081.26095409
  -exchange      EXHF   =         0.00000000
  -V(xc)+E(xc)   XCENC  =      -466.61071624
  PAW double counting   =     14786.15041487   -13809.78791249
  entropy T*S    EENTRO =         0.02949769
  eigenvalues    EBANDS =     -1077.38536050
  atomic energy  EATOM  =     12955.90228127
  Solvation  Ediel_sol  =         0.00000000
  ---------------------------------------------------
  free energy    TOTEN  =       -52.22454054 eV

  energy without entropy =      -52.25403824  energy(sigma->0) =      -52.23437311


--------------------------------------------------------------------------------------------------------




--------------------------------------- Iteration      1(   9)  ---------------------------------------


    POTLOK:  cpu time    3.1578: real time    3.1615
    SETDIJ:  cpu time    0.0345: real time    0.0345
     EDDAV:  cpu time   12.3898: real time   12.3998
       DOS:  cpu time    0.0047: real time    0.0047
    CHARGE:  cpu time    1.0742: real time    1.0750
    MIXING:  cpu time    0.0695: real time    0.0695
    --------------------------------------------
      LOOP:  cpu time   16.7305: real time   16.7450

 eigenvalue-minimisations  :   464
 total energy-change (2. order) : 0.3896724E+01  (-0.8165971E+00)
 number of electron     160.0000017 magnetization      12.9750022
 augmentation part       68.3288229 magnetization       9.0675295

 Broyden mixing:
  rms(total) = 0.11289E+01    rms(broyden)= 0.11286E+01
  rms(prec ) = 0.12259E+01
  weight for this iteration     100.00

 eigenvalues of (default mixing * dielectric matrix)
  average eigenvalue GAMMA=   0.6276
  1.4606  0.4209  0.4209  0.2081

 Free energy of the ion-electron system (eV)
  ---------------------------------------------------
  alpha Z        PSCENC =        12.01996758
  Ewald energy   TEWEN  =     27628.71824136
  -Hartree energ DENC   =    -40096.14992084
  -exchange      EXHF   =         0.00000000
  -V(xc)+E(xc)   XCENC  =      -466.54514716
  PAW double counting   =     14903.34751471   -13928.12438533
  entropy T*S    EENTRO =         0.02560392
  eigenvalues    EBANDS =     -1057.52197166
  atomic energy  EATOM  =     12955.90228127
  Solvation  Ediel_sol  =         0.00000000
  ---------------------------------------------------
  free energy    TOTEN  =       -48.32781614 eV

  energy without entropy =      -48.35342006  energy(sigma->0) =      -48.33635078


--------------------------------------------------------------------------------------------------------




--------------------------------------- Iteration      1(  10)  ---------------------------------------


    POTLOK:  cpu time    3.1246: real time    3.1307
    SETDIJ:  cpu time    0.0395: real time    0.0396
     EDDAV:  cpu time   13.1452: real time   13.1559
       DOS:  cpu time    0.0053: real time    0.0053
    CHARGE:  cpu time    1.1320: real time    1.1329
    MIXING:  cpu time    0.0821: real time    0.0821
    --------------------------------------------
      LOOP:  cpu time   17.5287: real time   17.5465

 eigenvalue-minimisations  :   456
 total energy-change (2. order) :-0.5682085E+00  (-0.5905169E+00)
 number of electron     160.0000007 magnetization      12.6216508
 augmentation part       68.2127987 magnetization       8.5887580

 Broyden mixing:
  rms(total) = 0.10676E+01    rms(broyden)= 0.10674E+01
  rms(prec ) = 0.11718E+01
  weight for this iteration     100.00

 eigenvalues of (default mixing * dielectric matrix)
  average eigenvalue GAMMA=   0.6081
  1.5221  0.5372  0.5372  0.2441  0.1997

 Free energy of the ion-electron system (eV)
  ---------------------------------------------------
  alpha Z        PSCENC =        12.01996758
  Ewald energy   TEWEN  =     27628.71824136
  -Hartree energ DENC   =    -40111.39711717
  -exchange      EXHF   =         0.00000000
  -V(xc)+E(xc)   XCENC  =      -467.06133629
  PAW double counting   =     14994.28021228   -14019.51613638
  entropy T*S    EENTRO =        -0.02500053
  eigenvalues    EBANDS =     -1041.81713679
  atomic energy  EATOM  =     12955.90228127
  Solvation  Ediel_sol  =         0.00000000
  ---------------------------------------------------
  free energy    TOTEN  =       -48.89602467 eV

  energy without entropy =      -48.87102413  energy(sigma->0) =      -48.88769116


--------------------------------------------------------------------------------------------------------




--------------------------------------- Iteration      1(  11)  ---------------------------------------


    POTLOK:  cpu time    3.1693: real time    3.2077
    SETDIJ:  cpu time    0.0328: real time    0.0328
     EDDAV:  cpu time   12.7715: real time   12.7822
       DOS:  cpu time    0.0026: real time    0.0026
    CHARGE:  cpu time    1.0716: real time    1.0725
    MIXING:  cpu time    0.0594: real time    0.0595
    --------------------------------------------
      LOOP:  cpu time   17.1071: real time   17.1573

 eigenvalue-minimisations  :   456
 total energy-change (2. order) :-0.8966202E+00  (-0.2448453E+00)
 number of electron     160.0000014 magnetization      12.4514322
 augmentation part       68.1809605 magnetization       8.1738923

 Broyden mixing:
  rms(total) = 0.53039E+00    rms(broyden)= 0.53024E+00
  rms(prec ) = 0.57250E+00
  weight for this iteration     100.00

 eigenvalues of (default mixing * dielectric matrix)
  average eigenvalue GAMMA=   0.5669
  1.5479  0.5182  0.5182  0.3177  0.3177  0.1818

 Free energy of the ion-electron system (eV)
  ---------------------------------------------------
  alpha Z        PSCENC =        12.01996758
  Ewald energy   TEWEN  =     27628.71824136
  -Hartree energ DENC   =    -40124.57432282
  -exchange      EXHF   =         0.00000000
  -V(xc)+E(xc)   XCENC  =      -468.16341139
  PAW double counting   =     15048.12317419   -14073.57008166
  entropy T*S    EENTRO =         0.00026996
  eigenvalues    EBANDS =     -1028.24876337
  atomic energy  EATOM  =     12955.90228127
  Solvation  Ediel_sol  =         0.00000000
  ---------------------------------------------------
  free energy    TOTEN  =       -49.79264488 eV

  energy without entropy =      -49.79291484  energy(sigma->0) =      -49.79273487


--------------------------------------------------------------------------------------------------------




--------------------------------------- Iteration      1(  12)  ---------------------------------------


    POTLOK:  cpu time    2.8890: real time    2.8955
    SETDIJ:  cpu time    0.0335: real time    0.0335
     EDDAV:  cpu time   13.0369: real time   13.0478
       DOS:  cpu time    0.0049: real time    0.0050
    CHARGE:  cpu time    1.0848: real time    1.0856
    MIXING:  cpu time    0.0955: real time    0.0956
    --------------------------------------------
      LOOP:  cpu time   17.1446: real time   17.1629

 eigenvalue-minimisations  :   472
 total energy-change (2. order) :-0.7145633E+00  (-0.7404963E-01)
 number of electron     160.0000010 magnetization      12.0386917
 augmentation part       68.1874757 magnetization       7.8735251

 Broyden mixing:
  rms(total) = 0.36752E+00    rms(broyden)= 0.36747E+00
  rms(prec ) = 0.39996E+00
  weight for this iteration     100.00

 eigenvalues of (default mixing * dielectric matrix)
  average eigenvalue GAMMA=   0.6095
  1.6602  0.7035  0.7035  0.4826  0.3129  0.2020  0.2020

 Free energy of the ion-electron system (eV)
  ---------------------------------------------------
  alpha Z        PSCENC =        12.01996758
  Ewald energy   TEWEN  =     27628.71824136
  -Hartree energ DENC   =    -40128.61360134
  -exchange      EXHF   =         0.00000000
  -V(xc)+E(xc)   XCENC  =      -468.78052802
  PAW double counting   =     15063.90460656   -14089.57217078
  entropy T*S    EENTRO =        -0.00787309
  eigenvalues    EBANDS =     -1024.07813169
  atomic energy  EATOM  =     12955.90228127
  Solvation  Ediel_sol  =         0.00000000
  ---------------------------------------------------
  free energy    TOTEN  =       -50.50720814 eV

  energy without entropy =      -50.49933506  energy(sigma->0) =      -50.50458378


--------------------------------------------------------------------------------------------------------




--------------------------------------- Iteration      1(  13)  ---------------------------------------


    POTLOK:  cpu time    3.2001: real time    3.2020
    SETDIJ:  cpu time    0.0375: real time    0.0375
     EDDAV:  cpu time   13.0124: real time   13.0223
       DOS:  cpu time    0.0078: real time    0.0078
    CHARGE:  cpu time    1.1076: real time    1.1085
    MIXING:  cpu time    0.0948: real time    0.0949
    --------------------------------------------
      LOOP:  cpu time   17.4601: real time   17.4730

 eigenvalue-minimisations  :   448
 total energy-change (2. order) :-0.1629682E+01  (-0.6533371E-01)
 number of electron     160.0000014 magnetization      11.6546862
 augmentation part       68.1958965 magnetization       7.7104151

 Broyden mixing:
  rms(total) = 0.36938E+00    rms(broyden)= 0.36933E+00
  rms(prec ) = 0.40496E+00
  weight for this iteration     100.00

 eigenvalues of (default mixing * dielectric matrix)
  average eigenvalue GAMMA=   0.6122
  1.7709  0.9464  0.7055  0.4044  0.4044  0.2708  0.2183  0.1771

 Free energy of the ion-electron system (eV)
  ---------------------------------------------------
  alpha Z        PSCENC =        12.01996758
  Ewald energy   TEWEN  =     27628.71824136
  -Hartree energ DENC   =    -40136.85806415
  -exchange      EXHF   =         0.00000000
  -V(xc)+E(xc)   XCENC  =      -469.99489315
  PAW double counting   =     15087.94609022   -14114.01971525
  entropy T*S    EENTRO =        -0.01168853
  eigenvalues    EBANDS =     -1015.83910934
  atomic energy  EATOM  =     12955.90228127
  Solvation  Ediel_sol  =         0.00000000
  ---------------------------------------------------
  free energy    TOTEN  =       -52.13688999 eV

  energy without entropy =      -52.12520146  energy(sigma->0) =      -52.13299381


--------------------------------------------------------------------------------------------------------




--------------------------------------- Iteration      1(  14)  ---------------------------------------


    POTLOK:  cpu time    3.1999: real time    3.2019
    SETDIJ:  cpu time    0.0361: real time    0.0361
     EDDAV:  cpu time   11.9909: real time   11.9999
       DOS:  cpu time    0.0055: real time    0.0055
    CHARGE:  cpu time    1.0613: real time    1.0621
    MIXING:  cpu time    0.0918: real time    0.0918
    --------------------------------------------
      LOOP:  cpu time   16.3855: real time   16.3974

 eigenvalue-minimisations  :   448
 total energy-change (2. order) :-0.1217036E+01  (-0.4404434E-01)
 number of electron     160.0000011 magnetization      11.2369203
 augmentation part       68.1655627 magnetization       7.3688813

 Broyden mixing:
  rms(total) = 0.21719E+00    rms(broyden)= 0.21714E+00
  rms(prec ) = 0.23286E+00
  weight for this iteration     100.00

 eigenvalues of (default mixing * dielectric matrix)
  average eigenvalue GAMMA=   0.6152
  1.8151  1.1390  0.5407  0.5407  0.5213  0.3565  0.2541  0.1935  0.1759

 Free energy of the ion-electron system (eV)
  ---------------------------------------------------
  alpha Z        PSCENC =        12.01996758
  Ewald energy   TEWEN  =     27628.71824136
  -Hartree energ DENC   =    -40144.77655749
  -exchange      EXHF   =         0.00000000
  -V(xc)+E(xc)   XCENC  =      -470.96893468
  PAW double counting   =     15098.89819038   -14125.22343438
  entropy T*S    EENTRO =        -0.03474699
  eigenvalues    EBANDS =     -1007.88893344
  atomic energy  EATOM  =     12955.90228127
  Solvation  Ediel_sol  =         0.00000000
  ---------------------------------------------------
  free energy    TOTEN  =       -53.35392639 eV

  energy without entropy =      -53.31917939  energy(sigma->0) =      -53.34234405


--------------------------------------------------------------------------------------------------------




--------------------------------------- Iteration      1(  15)  ---------------------------------------


    POTLOK:  cpu time    3.0526: real time    3.0593
    SETDIJ:  cpu time    0.0355: real time    0.0356
     EDDAV:  cpu time   12.9916: real time   13.0331
       DOS:  cpu time    0.0033: real time    0.0033
    CHARGE:  cpu time    1.1137: real time    1.1145
    MIXING:  cpu time    0.1125: real time    0.1126
    --------------------------------------------
      LOOP:  cpu time   17.3091: real time   17.3583

 eigenvalue-minimisations  :   448
 total energy-change (2. order) :-0.1270429E+01  (-0.2847144E-01)
 number of electron     160.0000012 magnetization      10.9310835
 augmentation part       68.1166813 magnetization       7.1473134

 Broyden mixing:
  rms(total) = 0.18923E+00    rms(broyden)= 0.18920E+00
  rms(prec ) = 0.20113E+00
  weight for this iteration     100.00

 eigenvalues of (default mixing * dielectric matrix)
  average eigenvalue GAMMA=   0.6087
  1.8364  1.1687  0.6967  0.6967  0.4051  0.4051  0.2546  0.2546  0.1847  0.1847

 Free energy of the ion-electron system (eV)
  ---------------------------------------------------
  alpha Z        PSCENC =        12.01996758
  Ewald energy   TEWEN  =     27628.71824136
  -Hartree energ DENC   =    -40152.42593168
  -exchange      EXHF   =         0.00000000
  -V(xc)+E(xc)   XCENC  =      -471.96459645
  PAW double counting   =     15098.06080104   -14124.61837928
  entropy T*S    EENTRO =        -0.04661026
  eigenvalues    EBANDS =     -1000.27012863
  atomic energy  EATOM  =     12955.90228127
  Solvation  Ediel_sol  =         0.00000000
  ---------------------------------------------------
  free energy    TOTEN  =       -54.62435505 eV

  energy without entropy =      -54.57774479  energy(sigma->0) =      -54.60881830


--------------------------------------------------------------------------------------------------------




--------------------------------------- Iteration      1(  16)  ---------------------------------------


    POTLOK:  cpu time    3.1850: real time    3.2277
    SETDIJ:  cpu time    0.0345: real time    0.0345
     EDDAV:  cpu time   12.5014: real time   12.5105
       DOS:  cpu time    0.0097: real time    0.0097
    CHARGE:  cpu time    1.0672: real time    1.0679
    MIXING:  cpu time    0.1147: real time    0.1147
    --------------------------------------------
      LOOP:  cpu time   16.9124: real time   16.9650

 eigenvalue-minimisations  :   440
 total energy-change (2. order) :-0.8661141E+00  (-0.1666483E-01)
 number of electron     160.0000011 magnetization      10.4299506
 augmentation part       68.1085105 magnetization       6.8098721

 Broyden mixing:
  rms(total) = 0.15796E+00    rms(broyden)= 0.15794E+00
  rms(prec ) = 0.16931E+00
  weight for this iteration     100.00

 eigenvalues of (default mixing * dielectric matrix)
  average eigenvalue GAMMA=   0.6610
  2.0618  1.0848  1.0848  0.8836  0.4885  0.4885  0.2890  0.2890  0.2311  0.1927
  0.1775

 Free energy of the ion-electron system (eV)
  ---------------------------------------------------
  alpha Z        PSCENC =        12.01996758
  Ewald energy   TEWEN  =     27628.71824136
  -Hartree energ DENC   =    -40155.81639361
  -exchange      EXHF   =         0.00000000
  -V(xc)+E(xc)   XCENC  =      -472.64246499
  PAW double counting   =     15091.37533264   -14118.14101670
  entropy T*S    EENTRO =        -0.06450151
  eigenvalues    EBANDS =      -996.84191518
  atomic energy  EATOM  =     12955.90228127
  Solvation  Ediel_sol  =         0.00000000
  ---------------------------------------------------
  free energy    TOTEN  =       -55.49046915 eV

  energy without entropy =      -55.42596764  energy(sigma->0) =      -55.46896864


--------------------------------------------------------------------------------------------------------




--------------------------------------- Iteration      1(  17)  ---------------------------------------


    POTLOK:  cpu time    2.8791: real time    2.8808
    SETDIJ:  cpu time    0.0376: real time    0.0377
     EDDAV:  cpu time   12.4588: real time   12.4685
       DOS:  cpu time    0.0101: real time    0.0101
    CHARGE:  cpu time    1.1228: real time    1.1237
    MIXING:  cpu time    0.1256: real time    0.1256
    --------------------------------------------
      LOOP:  cpu time   16.6341: real time   16.6463

 eigenvalue-minimisations  :   448
 total energy-change (2. order) :-0.1207097E+01  (-0.2353005E-01)
 number of electron     160.0000011 magnetization      10.1048039
 augmentation part       68.0939569 magnetization       6.6671494

 Broyden mixing:
  rms(total) = 0.14828E+00    rms(broyden)= 0.14827E+00
  rms(prec ) = 0.16035E+00
  weight for this iteration     100.00

 eigenvalues of (default mixing * dielectric matrix)
  average eigenvalue GAMMA=   0.6627
  2.1573  1.3349  0.9868  0.9868  0.5003  0.5003  0.3562  0.2790  0.2790  0.1786
  0.1914  0.2019

 Free energy of the ion-electron system (eV)
  ---------------------------------------------------
  alpha Z        PSCENC =        12.01996758
  Ewald energy   TEWEN  =     27628.71824136
  -Hartree energ DENC   =    -40160.79201045
  -exchange      EXHF   =         0.00000000
  -V(xc)+E(xc)   XCENC  =      -473.59792324
  PAW double counting   =     15082.37726649   -14109.53653494
  entropy T*S    EENTRO =        -0.05711271
  eigenvalues    EBANDS =      -991.73174113
  atomic energy  EATOM  =     12955.90228127
  Solvation  Ediel_sol  =         0.00000000
  ---------------------------------------------------
  free energy    TOTEN  =       -56.69756576 eV

  energy without entropy =      -56.64045305  energy(sigma->0) =      -56.67852819


--------------------------------------------------------------------------------------------------------




--------------------------------------- Iteration      1(  18)  ---------------------------------------


    POTLOK:  cpu time    3.2010: real time    3.2032
    SETDIJ:  cpu time    0.0338: real time    0.0338
     EDDAV:  cpu time   13.0254: real time   13.0401
       DOS:  cpu time    0.0098: real time    0.0098
    CHARGE:  cpu time    1.1306: real time    1.1316
    MIXING:  cpu time    0.1274: real time    0.1275
    --------------------------------------------
      LOOP:  cpu time   17.5281: real time   17.5461

 eigenvalue-minimisations  :   448
 total energy-change (2. order) :-0.7258850E+00  (-0.1277352E-01)
 number of electron     160.0000011 magnetization       9.5913826
 augmentation part       68.0827897 magnetization       6.2879483

 Broyden mixing:
  rms(total) = 0.11590E+00    rms(broyden)= 0.11588E+00
  rms(prec ) = 0.12308E+00
  weight for this iteration     100.00

 eigenvalues of (default mixing * dielectric matrix)
  average eigenvalue GAMMA=   0.7166
  2.5660  1.8363  0.9384  0.9384  0.6705  0.4895  0.4895  0.3179  0.2559  0.2559
  0.1943  0.1799  0.1830

 Free energy of the ion-electron system (eV)
  ---------------------------------------------------
  alpha Z        PSCENC =        12.01996758
  Ewald energy   TEWEN  =     27628.71824136
  -Hartree energ DENC   =    -40162.63017356
  -exchange      EXHF   =         0.00000000
  -V(xc)+E(xc)   XCENC  =      -474.17402058
  PAW double counting   =     15068.88573554   -14096.24080582
  entropy T*S    EENTRO =        -0.05939564
  eigenvalues    EBANDS =      -989.84528089
  atomic energy  EATOM  =     12955.90228127
  Solvation  Ediel_sol  =         0.00000000
  ---------------------------------------------------
  free energy    TOTEN  =       -57.42345074 eV

  energy without entropy =      -57.36405510  energy(sigma->0) =      -57.40365219


--------------------------------------------------------------------------------------------------------




--------------------------------------- Iteration      1(  19)  ---------------------------------------


    POTLOK:  cpu time    3.1982: real time    3.2004
    SETDIJ:  cpu time    0.0353: real time    0.0353
     EDDAV:  cpu time   12.1345: real time   12.1441
       DOS:  cpu time    0.0080: real time    0.0080
    CHARGE:  cpu time    1.0861: real time    1.0870
    MIXING:  cpu time    0.1382: real time    0.1383
    --------------------------------------------
      LOOP:  cpu time   16.6003: real time   16.6132

 eigenvalue-minimisations  :   448
 total energy-change (2. order) :-0.1037362E+01  (-0.2050419E-01)
 number of electron     160.0000011 magnetization       9.1644238
 augmentation part       68.0592092 magnetization       5.9766370

 Broyden mixing:
  rms(total) = 0.92092E-01    rms(broyden)= 0.92077E-01
  rms(prec ) = 0.96242E-01
  weight for this iteration     100.00

 eigenvalues of (default mixing * dielectric matrix)
  average eigenvalue GAMMA=   0.7584
  2.8999  1.9257  1.1040  1.1040  0.6600  0.6600  0.4501  0.4501  0.2880  0.2880
  0.2366  0.1929  0.1788  0.1788

 Free energy of the ion-electron system (eV)
  ---------------------------------------------------
  alpha Z        PSCENC =        12.01996758
  Ewald energy   TEWEN  =     27628.71824136
  -Hartree energ DENC   =    -40165.30546556
  -exchange      EXHF   =         0.00000000
  -V(xc)+E(xc)   XCENC  =      -475.01456865
  PAW double counting   =     15046.88671278   -14074.50636326
  entropy T*S    EENTRO =        -0.05941269
  eigenvalues    EBANDS =      -987.10220573
  atomic energy  EATOM  =     12955.90228127
  Solvation  Ediel_sol  =         0.00000000
  ---------------------------------------------------
  free energy    TOTEN  =       -58.46081290 eV

  energy without entropy =      -58.40140021  energy(sigma->0) =      -58.44100867


--------------------------------------------------------------------------------------------------------




--------------------------------------- Iteration      1(  20)  ---------------------------------------


    POTLOK:  cpu time    3.1111: real time    3.1407
    SETDIJ:  cpu time    0.0347: real time    0.0347
     EDDAV:  cpu time   13.2657: real time   13.2760
       DOS:  cpu time    0.0096: real time    0.0096
    CHARGE:  cpu time    1.1362: real time    1.1370
    MIXING:  cpu time    0.1500: real time    0.1501
    --------------------------------------------
      LOOP:  cpu time   17.7073: real time   17.7482

 eigenvalue-minimisations  :   448
 total energy-change (2. order) :-0.7573869E+00  (-0.1412811E-01)
 number of electron     160.0000011 magnetization       8.6225686
 augmentation part       68.0484462 magnetization       5.5093521

 Broyden mixing:
  rms(total) = 0.10724E+00    rms(broyden)= 0.10723E+00
  rms(prec ) = 0.11376E+00
  weight for this iteration     100.00

 eigenvalues of (default mixing * dielectric matrix)
  average eigenvalue GAMMA=   0.7821
  3.3596  1.9951  1.1861  1.1861  0.7354  0.7354  0.4554  0.4554  0.2995  0.2995
  0.2360  0.2360  0.1916  0.1799  0.1799

 Free energy of the ion-electron system (eV)
  ---------------------------------------------------
  alpha Z        PSCENC =        12.01996758
  Ewald energy   TEWEN  =     27628.71824136
  -Hartree energ DENC   =    -40164.72835693
  -exchange      EXHF   =         0.00000000
  -V(xc)+E(xc)   XCENC  =      -475.67434145
  PAW double counting   =     15029.64548740   -14057.52568281
  entropy T*S    EENTRO =        -0.05446505
  eigenvalues    EBANDS =      -987.52133119
  atomic energy  EATOM  =     12955.90228127
  Solvation  Ediel_sol  =         0.00000000
  ---------------------------------------------------
  free energy    TOTEN  =       -59.21819982 eV

  energy without entropy =      -59.16373477  energy(sigma->0) =      -59.20004481


--------------------------------------------------------------------------------------------------------




--------------------------------------- Iteration      1(  21)  ---------------------------------------


    POTLOK:  cpu time    3.1925: real time    3.1989
    SETDIJ:  cpu time    0.0377: real time    0.0377
     EDDAV:  cpu time   12.6864: real time   12.6959
       DOS:  cpu time    0.0023: real time    0.0023
    CHARGE:  cpu time    1.1026: real time    1.1034
    MIXING:  cpu time    0.1433: real time    0.1434
    --------------------------------------------
      LOOP:  cpu time   17.1649: real time   17.1817

 eigenvalue-minimisations  :   440
 total energy-change (2. order) :-0.8116564E+00  (-0.1604951E-01)
 number of electron     160.0000011 magnetization       8.2278660
 augmentation part       68.0644825 magnetization       5.2413918

 Broyden mixing:
  rms(total) = 0.65979E-01    rms(broyden)= 0.65968E-01
  rms(prec ) = 0.70219E-01
  weight for this iteration     100.00

 eigenvalues of (default mixing * dielectric matrix)
  average eigenvalue GAMMA=   0.8441
  4.0068  1.9332  1.4217  1.4217  0.7841  0.7841  0.5924  0.4681  0.4681  0.2922
  0.2922  0.2510  0.2405  0.1921  0.1788  0.1788

 Free energy of the ion-electron system (eV)
  ---------------------------------------------------
  alpha Z        PSCENC =        12.01996758
  Ewald energy   TEWEN  =     27628.71824136
  -Hartree energ DENC   =    -40162.46009859
  -exchange      EXHF   =         0.00000000
  -V(xc)+E(xc)   XCENC  =      -476.42475951
  PAW double counting   =     15008.98438859   -14037.20959053
  entropy T*S    EENTRO =        -0.05542206
  eigenvalues    EBANDS =      -989.50486436
  atomic energy  EATOM  =     12955.90228127
  Solvation  Ediel_sol  =         0.00000000
  ---------------------------------------------------
  free energy    TOTEN  =       -60.02985626 eV

  energy without entropy =      -59.97443419  energy(sigma->0) =      -60.01138224


--------------------------------------------------------------------------------------------------------




--------------------------------------- Iteration      1(  22)  ---------------------------------------


    POTLOK:  cpu time    3.0840: real time    3.0861
    SETDIJ:  cpu time    0.0342: real time    0.0342
     EDDAV:  cpu time   12.5361: real time   12.5459
       DOS:  cpu time    0.0015: real time    0.0015
    CHARGE:  cpu time    1.0447: real time    1.0456
    MIXING:  cpu time    0.1579: real time    0.1580
    --------------------------------------------
      LOOP:  cpu time   16.8584: real time   16.8714

 eigenvalue-minimisations  :   472
 total energy-change (2. order) :-0.5881584E+00  (-0.9189426E-02)
 number of electron     160.0000011 magnetization       8.0430536
 augmentation part       68.0558360 magnetization       5.1444046

 Broyden mixing:
  rms(total) = 0.56946E-01    rms(broyden)= 0.56936E-01
  rms(prec ) = 0.60795E-01
  weight for this iteration     100.00

 eigenvalues of (default mixing * dielectric matrix)
  average eigenvalue GAMMA=   0.8654
  4.3175  1.8257  1.6904  1.6904  0.7962  0.7962  0.6286  0.4670  0.4670  0.4164
  0.2912  0.2912  0.2499  0.2344  0.1923  0.1789  0.1789

 Free energy of the ion-electron system (eV)
  ---------------------------------------------------
  alpha Z        PSCENC =        12.01996758
  Ewald energy   TEWEN  =     27628.71824136
  -Hartree energ DENC   =    -40160.90703206
  -exchange      EXHF   =         0.00000000
  -V(xc)+E(xc)   XCENC  =      -476.96619920
  PAW double counting   =     15001.47532914   -14029.85621247
  entropy T*S    EENTRO =        -0.04878503
  eigenvalues    EBANDS =      -990.95560524
  atomic energy  EATOM  =     12955.90228127
  Solvation  Ediel_sol  =         0.00000000
  ---------------------------------------------------
  free energy    TOTEN  =       -60.61801466 eV

  energy without entropy =      -60.56922962  energy(sigma->0) =      -60.60175298


--------------------------------------------------------------------------------------------------------




--------------------------------------- Iteration      1(  23)  ---------------------------------------


    POTLOK:  cpu time    2.6807: real time    2.6869
    SETDIJ:  cpu time    0.0207: real time    0.0207
     EDDAV:  cpu time   10.1420: real time   10.1496
       DOS:  cpu time    0.0017: real time    0.0017
    CHARGE:  cpu time    0.8358: real time    0.8401
    MIXING:  cpu time    0.1335: real time    0.1336
    --------------------------------------------
      LOOP:  cpu time   13.8144: real time   13.8326

 eigenvalue-minimisations  :   456
 total energy-change (2. order) :-0.3043728E+00  (-0.2400051E-02)
 number of electron     160.0000011 magnetization       7.7655701
 augmentation part       68.0496878 magnetization       4.8854777

 Broyden mixing:
  rms(total) = 0.42769E-01    rms(broyden)= 0.42763E-01
  rms(prec ) = 0.45401E-01
  weight for this iteration     100.00

 eigenvalues of (default mixing * dielectric matrix)
  average eigenvalue GAMMA=   0.8996
  4.7236  2.0829  2.0829  1.5869  0.7758  0.7758  0.6669  0.6669  0.4659  0.4659
  0.2964  0.2964  0.2765  0.2474  0.2334  0.1923  0.1789  0.1789

 Free energy of the ion-electron system (eV)
  ---------------------------------------------------
  alpha Z        PSCENC =        12.01996758
  Ewald energy   TEWEN  =     27628.71824136
  -Hartree energ DENC   =    -40159.61123432
  -exchange      EXHF   =         0.00000000
  -V(xc)+E(xc)   XCENC  =      -477.25700854
  PAW double counting   =     15000.30140445   -14028.71007300
  entropy T*S    EENTRO =        -0.04462875
  eigenvalues    EBANDS =      -992.24133751
  atomic energy  EATOM  =     12955.90228127
  Solvation  Ediel_sol  =         0.00000000
  ---------------------------------------------------
  free energy    TOTEN  =       -60.92238746 eV

  energy without entropy =      -60.87775871  energy(sigma->0) =      -60.90751121


--------------------------------------------------------------------------------------------------------




--------------------------------------- Iteration      1(  24)  ---------------------------------------


    POTLOK:  cpu time    2.6084: real time    2.6313
    SETDIJ:  cpu time    0.0214: real time    0.0214
     EDDAV:  cpu time   10.1396: real time   10.1546
       DOS:  cpu time    0.0018: real time    0.0018
    CHARGE:  cpu time    0.8340: real time    0.8345
    MIXING:  cpu time    0.1418: real time    0.1419
    --------------------------------------------
      LOOP:  cpu time   13.7469: real time   13.7855

 eigenvalue-minimisations  :   432
 total energy-change (2. order) :-0.4249050E+00  (-0.3364461E-02)
 number of electron     160.0000011 magnetization       7.5325198
 augmentation part       68.0474535 magnetization       4.6778937

 Broyden mixing:
  rms(total) = 0.29743E-01    rms(broyden)= 0.29738E-01
  rms(prec ) = 0.31426E-01
  weight for this iteration     100.00

 eigenvalues of (default mixing * dielectric matrix)
  average eigenvalue GAMMA=   0.9285
  5.2891  2.3478  2.1906  1.3396  0.7693  0.7693  0.8127  0.8127  0.4671  0.4671
  0.4965  0.2934  0.2934  0.1923  0.1789  0.1789  0.2660  0.2328  0.2437

 Free energy of the ion-electron system (eV)
  ---------------------------------------------------
  alpha Z        PSCENC =        12.01996758
  Ewald energy   TEWEN  =     27628.71824136
  -Hartree energ DENC   =    -40156.75088594
  -exchange      EXHF   =         0.00000000
  -V(xc)+E(xc)   XCENC  =      -477.69238907
  PAW double counting   =     14998.99161602   -14027.43120379
  entropy T*S    EENTRO =        -0.04736206
  eigenvalues    EBANDS =      -995.05755785
  atomic energy  EATOM  =     12955.90228127
  Solvation  Ediel_sol  =         0.00000000
  ---------------------------------------------------
  free energy    TOTEN  =       -61.34729248 eV

  energy without entropy =      -61.29993041  energy(sigma->0) =      -61.33150512


--------------------------------------------------------------------------------------------------------




--------------------------------------- Iteration      1(  25)  ---------------------------------------


    POTLOK:  cpu time    2.5969: real time    2.6070
    SETDIJ:  cpu time    0.0210: real time    0.0210
     EDDAV:  cpu time   10.2053: real time   10.2173
       DOS:  cpu time    0.0018: real time    0.0018
    CHARGE:  cpu time    0.8926: real time    0.8934
    MIXING:  cpu time    0.1760: real time    0.1762
    --------------------------------------------
      LOOP:  cpu time   13.8936: real time   13.9168

 eigenvalue-minimisations  :   448
 total energy-change (2. order) :-0.3452072E+00  (-0.1922512E-02)
 number of electron     160.0000011 magnetization       7.3362255
 augmentation part       68.0506566 magnetization       4.4961938

 Broyden mixing:
  rms(total) = 0.33598E-01    rms(broyden)= 0.33594E-01
  rms(prec ) = 0.36298E-01
  weight for this iteration     100.00

 eigenvalues of (default mixing * dielectric matrix)
  average eigenvalue GAMMA=   0.9624
  5.8513  2.8660  2.1132  1.2496  1.2496  0.7483  0.7483  0.6566  0.6566  0.4691
  0.4691  0.3202  0.2888  0.2888  0.1789  0.1789  0.1923  0.2460  0.2460  0.2302

 Free energy of the ion-electron system (eV)
  ---------------------------------------------------
  alpha Z        PSCENC =        12.01996758
  Ewald energy   TEWEN  =     27628.71824136
  -Hartree energ DENC   =    -40154.23062887
  -exchange      EXHF   =         0.00000000
  -V(xc)+E(xc)   XCENC  =      -478.06261473
  PAW double counting   =     14997.81059736   -14026.28016435
  entropy T*S    EENTRO =        -0.04635972
  eigenvalues    EBANDS =      -997.52381954
  atomic energy  EATOM  =     12955.90228127
  Solvation  Ediel_sol  =         0.00000000
  ---------------------------------------------------
  free energy    TOTEN  =       -61.69249965 eV

  energy without entropy =      -61.64613993  energy(sigma->0) =      -61.67704641


--------------------------------------------------------------------------------------------------------




--------------------------------------- Iteration      1(  26)  ---------------------------------------


    POTLOK:  cpu time    2.8271: real time    2.8297
    SETDIJ:  cpu time    0.0298: real time    0.0298
     EDDAV:  cpu time   10.6233: real time   10.6321
       DOS:  cpu time    0.0028: real time    0.0028
    CHARGE:  cpu time    0.8849: real time    0.8856
    MIXING:  cpu time    0.1795: real time    0.1797
    --------------------------------------------
      LOOP:  cpu time   14.5474: real time   14.5596

 eigenvalue-minimisations  :   424
 total energy-change (2. order) :-0.3124554E+00  (-0.1203955E-02)
 number of electron     160.0000011 magnetization       7.1655850
 augmentation part       68.0527593 magnetization       4.3437719

 Broyden mixing:
  rms(total) = 0.17526E-01    rms(broyden)= 0.17522E-01
  rms(prec ) = 0.18719E-01
  weight for this iteration     100.00

 eigenvalues of (default mixing * dielectric matrix)
  average eigenvalue GAMMA=   0.9903
  6.1309  3.0514  2.1640  1.4312  1.4312  0.7490  0.7490  0.6994  0.6994  0.6192
  0.4677  0.4677  0.2938  0.2938  0.2849  0.1789  0.1789  0.1923  0.2435  0.2435
  0.2266

 Free energy of the ion-electron system (eV)
  ---------------------------------------------------
  alpha Z        PSCENC =        12.01996758
  Ewald energy   TEWEN  =     27628.71824136
  -Hartree energ DENC   =    -40152.15361365
  -exchange      EXHF   =         0.00000000
  -V(xc)+E(xc)   XCENC  =      -478.39860978
  PAW double counting   =     14998.34954415   -14026.83040811
  entropy T*S    EENTRO =        -0.04553473
  eigenvalues    EBANDS =      -999.56682315
  atomic energy  EATOM  =     12955.90228127
  Solvation  Ediel_sol  =         0.00000000
  ---------------------------------------------------
  free energy    TOTEN  =       -62.00495506 eV

  energy without entropy =      -61.95942032  energy(sigma->0) =      -61.98977681


--------------------------------------------------------------------------------------------------------




--------------------------------------- Iteration      1(  27)  ---------------------------------------


    POTLOK:  cpu time    3.0238: real time    3.0297
    SETDIJ:  cpu time    0.0280: real time    0.0280
     EDDAV:  cpu time   11.2860: real time   11.2952
       DOS:  cpu time    0.0030: real time    0.0030
    CHARGE:  cpu time    0.9001: real time    0.9008
    MIXING:  cpu time    0.1808: real time    0.1809
    --------------------------------------------
      LOOP:  cpu time   15.4216: real time   15.4376

 eigenvalue-minimisations  :   480
 total energy-change (2. order) :-0.2208432E+00  (-0.6727701E-03)
 number of electron     160.0000011 magnetization       7.0741383
 augmentation part       68.0535788 magnetization       4.2650496

 Broyden mixing:
  rms(total) = 0.15634E-01    rms(broyden)= 0.15632E-01
  rms(prec ) = 0.16837E-01
  weight for this iteration     100.00

 eigenvalues of (default mixing * dielectric matrix)
  average eigenvalue GAMMA=   0.9921
  6.3311  3.1255  2.2834  1.4931  1.4931  0.7513  0.7513  0.7628  0.7628  0.5960
  0.4686  0.4686  0.4058  0.2951  0.2951  0.1789  0.1789  0.1923  0.2805  0.2428
  0.2428  0.2264

 Free energy of the ion-electron system (eV)
  ---------------------------------------------------
  alpha Z        PSCENC =        12.01996758
  Ewald energy   TEWEN  =     27628.71824136
  -Hartree energ DENC   =    -40150.49458643
  -exchange      EXHF   =         0.00000000
  -V(xc)+E(xc)   XCENC  =      -478.63519073
  PAW double counting   =     15000.56475701   -14029.02929576
  entropy T*S    EENTRO =        -0.04453475
  eigenvalues    EBANDS =     -1001.22743782
  atomic energy  EATOM  =     12955.90228127
  Solvation  Ediel_sol  =         0.00000000
  ---------------------------------------------------
  free energy    TOTEN  =       -62.22579826 eV

  energy without entropy =      -62.18126351  energy(sigma->0) =      -62.21095335


--------------------------------------------------------------------------------------------------------




--------------------------------------- Iteration      1(  28)  ---------------------------------------


    POTLOK:  cpu time    2.8133: real time    2.8150
    SETDIJ:  cpu time    0.0255: real time    0.0255
     EDDAV:  cpu time   11.4402: real time   11.4503
       DOS:  cpu time    0.0022: real time    0.0022
    CHARGE:  cpu time    0.9214: real time    0.9223
    MIXING:  cpu time    0.1951: real time    0.1953
    --------------------------------------------
      LOOP:  cpu time   15.3977: real time   15.4105

 eigenvalue-minimisations  :   488
 total energy-change (2. order) :-0.9229944E-01  (-0.1903934E-03)
 number of electron     160.0000011 magnetization       6.9282880
 augmentation part       68.0529987 magnetization       4.1252788

 Broyden mixing:
  rms(total) = 0.14588E-01    rms(broyden)= 0.14586E-01
  rms(prec ) = 0.15804E-01
  weight for this iteration     100.00

 eigenvalues of (default mixing * dielectric matrix)
  average eigenvalue GAMMA=   1.0300
  6.9773  2.9580  2.7225  1.6675  1.3501  0.9791  0.9791  0.7199  0.7199  0.6410
  0.6410  0.4683  0.4683  0.2956  0.2956  0.1789  0.1789  0.1923  0.2816  0.2647
  0.2421  0.2421  0.2264

 Free energy of the ion-electron system (eV)
  ---------------------------------------------------
  alpha Z        PSCENC =        12.01996758
  Ewald energy   TEWEN  =     27628.71824136
  -Hartree energ DENC   =    -40149.61999664
  -exchange      EXHF   =         0.00000000
  -V(xc)+E(xc)   XCENC  =      -478.73447301
  PAW double counting   =     15002.29245623   -14030.73937972
  entropy T*S    EENTRO =        -0.04392575
  eigenvalues    EBANDS =     -1002.11326903
  atomic energy  EATOM  =     12955.90228127
  Solvation  Ediel_sol  =         0.00000000
  ---------------------------------------------------
  free energy    TOTEN  =       -62.31809770 eV

  energy without entropy =      -62.27417195  energy(sigma->0) =      -62.30345578


--------------------------------------------------------------------------------------------------------




--------------------------------------- Iteration      1(  29)  ---------------------------------------


    POTLOK:  cpu time    2.7748: real time    2.7775
    SETDIJ:  cpu time    0.0251: real time    0.0251
     EDDAV:  cpu time   10.5580: real time   10.5703
       DOS:  cpu time    0.0013: real time    0.0013
    CHARGE:  cpu time    0.9057: real time    0.9065
    MIXING:  cpu time    0.2154: real time    0.2155
    --------------------------------------------
      LOOP:  cpu time   14.4803: real time   14.4962

 eigenvalue-minimisations  :   440
 total energy-change (2. order) :-0.1159441E+00  (-0.2801930E-03)
 number of electron     160.0000011 magnetization       6.8623002
 augmentation part       68.0534206 magnetization       4.0603924

 Broyden mixing:
  rms(total) = 0.86177E-02    rms(broyden)= 0.86161E-02
  rms(prec ) = 0.93717E-02
  weight for this iteration     100.00

 eigenvalues of (default mixing * dielectric matrix)
  average eigenvalue GAMMA=   1.0465
  7.2576  3.0626  2.9518  1.8690  1.2077  1.2077  0.7255  0.7255  0.7746  0.7746
  0.6882  0.5452  0.4683  0.4683  0.2945  0.2945  0.2874  0.1789  0.1789  0.1923
  0.2556  0.2408  0.2408  0.2251

 Free energy of the ion-electron system (eV)
  ---------------------------------------------------
  alpha Z        PSCENC =        12.01996758
  Ewald energy   TEWEN  =     27628.71824136
  -Hartree energ DENC   =    -40148.08075741
  -exchange      EXHF   =         0.00000000
  -V(xc)+E(xc)   XCENC  =      -478.86418139
  PAW double counting   =     15003.71256489   -14032.13001163
  entropy T*S    EENTRO =        -0.04386107
  eigenvalues    EBANDS =     -1003.66828541
  atomic energy  EATOM  =     12955.90228127
  Solvation  Ediel_sol  =         0.00000000
  ---------------------------------------------------
  free energy    TOTEN  =       -62.43404182 eV

  energy without entropy =      -62.39018075  energy(sigma->0) =      -62.41942146


--------------------------------------------------------------------------------------------------------




--------------------------------------- Iteration      1(  30)  ---------------------------------------


    POTLOK:  cpu time    2.8032: real time    2.8090
    SETDIJ:  cpu time    0.0239: real time    0.0239
     EDDAV:  cpu time    9.6408: real time    9.6523
       DOS:  cpu time    0.0016: real time    0.0016
    CHARGE:  cpu time    0.8881: real time    0.8889
    MIXING:  cpu time    0.2250: real time    0.2251
    --------------------------------------------
      LOOP:  cpu time   13.5826: real time   13.6009

 eigenvalue-minimisations  :   384
 total energy-change (2. order) :-0.4472089E-01  (-0.6330080E-04)
 number of electron     160.0000011 magnetization       6.7871182
 augmentation part       68.0514705 magnetization       3.9836923

 Broyden mixing:
  rms(total) = 0.75434E-02    rms(broyden)= 0.75426E-02
  rms(prec ) = 0.82535E-02
  weight for this iteration     100.00

 eigenvalues of (default mixing * dielectric matrix)
  average eigenvalue GAMMA=   1.0951
  8.0149  3.2460  3.2460  2.0897  1.3572  1.3572  0.8724  0.8724  0.7180  0.7180
[...]
     69      -4.8694      1.00054
     70      -4.7937      1.00287
     71      -4.7677      1.00471
     72      -4.7253      1.00959
     73      -4.7236      1.00984
     74      -4.7133      1.01147
     75      -4.7064      1.01267
     76      -4.6933      1.01512
     77      -4.6713      1.01976
     78      -4.6621      1.02186
     79      -4.6340      1.02828
     80      -4.6321      1.02869
     81      -4.5860      1.03539
     82      -4.4894      0.97993
     83      -4.4862      0.97525
     84      -4.3178      0.42001
     85      -3.7032     -0.00004
     86      -3.6461     -0.00001
     87      -3.1951     -0.00000
     88      -2.9365     -0.00000
     89      -2.8983     -0.00000
     90      -2.4775     -0.00000
     91      -1.7859     -0.00000
     92      -1.6874     -0.00000
     93      -1.4995     -0.00000
     94      -1.2911     -0.00000
     95      -1.2526     -0.00000
     96      -0.7792     -0.00000
     97      -0.7061     -0.00000
     98      -0.6928     -0.00000
     99      -0.5916     -0.00000
    100      -0.5858     -0.00000
    101       0.0499     -0.00000
    102       0.0926     -0.00000
    103       0.2462     -0.00000
    104       0.2620     -0.00000

 spin component 2

 k-point     1 :       0.0000    0.0000    0.0000
  band No.  band energies     occupation 
      1      -9.2667      1.00000
      2      -8.5446      1.00000
      3      -8.5367      1.00000
      4      -8.5017      1.00000
      5      -8.4844      1.00000
      6      -8.4196      1.00000
      7      -8.0412      1.00000
      8      -7.8647      1.00000
      9      -7.7703      1.00000
     10      -7.6490      1.00000
     11      -7.5813      1.00000
     12      -7.4162      1.00000
     13      -7.3857      1.00000
     14      -7.3581      1.00000
     15      -7.2851      1.00000
     16      -7.2240      1.00000
     17      -7.1812      1.00000
     18      -7.0989      1.00000
     19      -7.0952      1.00000
     20      -7.0478      1.00000
     21      -6.9523      1.00000
     22      -6.9361      1.00000
     23      -6.9052      1.00000
     24      -6.8525      1.00000
     25      -6.7428      1.00000
     26      -6.7008      1.00000
     27      -6.6641      1.00000
     28      -6.6157      1.00000
     29      -6.5519      1.00000
     30      -6.5028      1.00000
     31      -6.3918      1.00000
     32      -6.3736      1.00000
     33      -6.2824      1.00000
     34      -6.1828      1.00000
     35      -6.1659      1.00000
     36      -6.1286      1.00000
     37      -5.9973      1.00000
     38      -5.9741      1.00000
     39      -5.8264      1.00000
     40      -5.8059      1.00000
     41      -5.7534      1.00000
     42      -5.7229      1.00000
     43      -5.7033      1.00000
     44      -5.5576      1.00000
     45      -5.4727      1.00000
     46      -5.4325      1.00000
     47      -5.4119      1.00000
     48      -5.3544      1.00000
     49      -5.2572      1.00000
     50      -5.2191      1.00000
     51      -5.2170      1.00000
     52      -5.1685      1.00000
     53      -5.0884      1.00000
     54      -5.0845      1.00000
     55      -5.0406      1.00000
     56      -5.0091      1.00001
     57      -4.9553      1.00006
     58      -4.9467      1.00007
     59      -4.9319      1.00011
     60      -4.9210      1.00014
     61      -4.9097      1.00020
     62      -4.8733      1.00049
     63      -4.8650      1.00060
     64      -4.7755      1.00408
     65      -4.7164      1.01096
     66      -4.6480      1.02512
     67      -4.6298      1.02919
     68      -4.5746      1.03525
     69      -4.5680      1.03465
     70      -4.4890      0.97935
     71      -4.4489      0.90155
     72      -4.4313      0.85466
     73      -4.4224      0.82794
     74      -4.4074      0.77892
     75      -4.3866      0.70359
     76      -4.3757      0.66096
     77      -4.3530      0.56808
     78      -4.3511      0.56010
     79      -4.2833      0.28244
     80      -4.2428      0.14668
     81      -4.2275      0.10535
     82      -4.1022     -0.03502
     83      -4.0953     -0.03541
     84      -3.9887     -0.01681
     85      -3.5107     -0.00000
     86      -3.4915     -0.00000
     87      -3.0250     -0.00000
     88      -2.7888     -0.00000
     89      -2.7442     -0.00000
     90      -2.3219     -0.00000
     91      -1.6771     -0.00000
     92      -1.5795     -0.00000
     93      -1.3684     -0.00000
     94      -1.1601     -0.00000
     95      -1.1309     -0.00000
     96      -0.6645     -0.00000
     97      -0.5904     -0.00000
     98      -0.5664     -0.00000
     99      -0.4775     -0.00000
    100      -0.4555     -0.00000
    101       0.1905     -0.00000
    102       0.2149     -0.00000
    103       0.3236     -0.00000
    104       0.3901     -0.00000


--------------------------------------------------------------------------------------------------------


 soft charge-density along one line, spin component            1
         0         1         2         3         4         5         6         7         8         9
 total charge-density along one line
 
 soft charge-density along one line, spin component            2
         0         1         2         3         4         5         6         7         8         9
 total charge-density along one line
 
 pseudopotential strength for first ion, spin component:            1
 -9.239   0.003  -0.016  -0.002   0.027  -9.174   0.003  -0.015
  0.003  -9.254  -0.003  -0.008   0.006   0.003  -9.189  -0.003
 -0.016  -0.003  -9.258   0.010  -0.008  -0.015  -0.003  -9.193
 -0.002  -0.008   0.010  -9.225  -0.029  -0.002  -0.008   0.010
  0.027   0.006  -0.008  -0.029  -9.236   0.025   0.006  -0.008
 -9.174   0.003  -0.015  -0.002   0.025  -9.089   0.003  -0.015
  0.003  -9.189  -0.003  -0.008   0.006   0.003  -9.103  -0.003
 -0.015  -0.003  -9.193   0.010  -0.008  -0.015  -0.003  -9.107
 -0.002  -0.008   0.010  -9.161  -0.028  -0.002  -0.007   0.010
  0.025   0.006  -0.008  -0.028  -9.172   0.024   0.006  -0.007
 -0.002   0.003   0.003   0.004  -0.005  -0.001   0.003   0.003
 -0.003   0.005   0.005   0.006  -0.008  -0.002   0.005   0.004
  0.001   0.000   0.000  -0.000   0.000   0.000   0.000   0.000
 -0.000  -0.001  -0.000   0.000  -0.000  -0.000  -0.000  -0.000
 -0.000  -0.000   0.000   0.000  -0.001  -0.000  -0.000   0.000
  0.001   0.000   0.000  -0.000   0.001   0.001   0.000   0.000
 -0.000  -0.001  -0.000   0.001  -0.000  -0.000  -0.001  -0.000
 -0.001  -0.000   0.000   0.000  -0.001  -0.001  -0.000   0.000
 pseudopotential strength for first ion, spin component:            2
 -9.006  -0.010  -0.002  -0.005  -0.007  -8.951  -0.009  -0.002
 -0.010  -9.015   0.000   0.009  -0.001  -0.009  -8.960   0.000
 -0.002   0.000  -9.017  -0.009  -0.012  -0.002   0.000  -8.962
 -0.005   0.009  -0.009  -9.008  -0.003  -0.004   0.009  -0.008
 -0.007  -0.001  -0.012  -0.003  -9.008  -0.007  -0.001  -0.011
 -8.951  -0.009  -0.002  -0.004  -0.007  -8.876  -0.009  -0.002
 -0.009  -8.960   0.000   0.009  -0.001  -0.009  -8.884   0.000
 -0.002   0.000  -8.962  -0.008  -0.011  -0.002   0.000  -8.886
 -0.004   0.009  -0.008  -8.953  -0.003  -0.004   0.009  -0.008
 -0.007  -0.001  -0.011  -0.003  -8.954  -0.006  -0.001  -0.011
 -0.002   0.001   0.001   0.003  -0.003  -0.002   0.001   0.001
 -0.003   0.001   0.002   0.005  -0.005  -0.003   0.001   0.002
  0.001   0.000   0.001  -0.000   0.001   0.001   0.000   0.001
 -0.000  -0.001   0.001   0.001   0.000  -0.000  -0.001   0.001
 -0.001  -0.000   0.000   0.001  -0.000  -0.001  -0.000   0.000
  0.001   0.001   0.001  -0.001   0.002   0.001   0.001   0.001
 -0.001  -0.001   0.001   0.001   0.000  -0.000  -0.001   0.001
 -0.002  -0.001   0.000   0.001  -0.000  -0.002  -0.000   0.000
 total augmentation occupancy for first ion, spin component:            1
  4.018   0.054  -0.165   0.085   0.274  -2.655  -0.007   0.114  -0.123  -0.145  -0.011  -0.006   0.000   0.010   0.004   0.000
  0.054   4.094   0.013  -0.055  -0.011  -0.006  -2.716  -0.016   0.012   0.020  -0.101   0.019   0.005  -0.006   0.011  -0.001
 -0.165   0.013   3.793   0.104  -0.086   0.115  -0.016  -2.523  -0.040   0.068  -0.036   0.013   0.006   0.022  -0.007   0.000
  0.085  -0.055   0.104   4.171  -0.273  -0.123   0.013  -0.040  -2.746   0.148  -0.024   0.017   0.011   0.006  -0.001  -0.001
  0.274  -0.011  -0.086  -0.273   3.997  -0.145   0.019   0.068   0.149  -2.640   0.047  -0.022   0.016  -0.001   0.018  -0.001
 -2.655  -0.006   0.115  -0.123  -0.145   3.067  -0.029  -0.083   0.163   0.055   0.034  -0.008   0.010  -0.016  -0.009  -0.001
 -0.007  -2.716  -0.016   0.013   0.019  -0.029   3.114   0.017   0.015  -0.022   0.100  -0.014   0.000   0.000  -0.015  -0.001
  0.114  -0.016  -2.523  -0.040   0.068  -0.083   0.017   2.998  -0.007  -0.057   0.015  -0.001  -0.000  -0.015   0.010  -0.001
 -0.123   0.012  -0.040  -2.746   0.149   0.163   0.015  -0.007   3.113  -0.061  -0.013   0.006  -0.016   0.005   0.007   0.001
 -0.145   0.020   0.068   0.148  -2.640   0.055  -0.022  -0.057  -0.061   3.056  -0.004  -0.002  -0.006   0.002  -0.022  -0.001
 -0.011  -0.101  -0.036  -0.024   0.047   0.034   0.100   0.015  -0.013  -0.004   2.234  -0.347  -0.012   0.008   0.005   0.002
 -0.006   0.019   0.013   0.017  -0.022  -0.008  -0.014  -0.001   0.006  -0.002  -0.347   0.055   0.002  -0.001  -0.001  -0.000
  0.000   0.005   0.006   0.011   0.016   0.010   0.000  -0.000  -0.016  -0.006  -0.012   0.002   0.313   0.010   0.006  -0.017
  0.010  -0.006   0.022   0.006  -0.001  -0.016   0.000  -0.015   0.005   0.002   0.008  -0.001   0.010   0.316  -0.004  -0.000
  0.004   0.011  -0.007  -0.001   0.018  -0.009  -0.015   0.010   0.007  -0.022   0.005  -0.001   0.006  -0.004   0.317  -0.000
  0.000  -0.001   0.000  -0.001  -0.001  -0.001  -0.001  -0.001   0.001  -0.001   0.002  -0.000  -0.017  -0.000  -0.000   0.001
 -0.001   0.001  -0.001  -0.000   0.000   0.001   0.001  -0.001  -0.001  -0.000  -0.001   0.000  -0.000  -0.017   0.000   0.000
  0.000  -0.001   0.001  -0.000  -0.002   0.002   0.001  -0.000  -0.001   0.001  -0.001   0.000  -0.000   0.000  -0.017   0.000
 total augmentation occupancy for first ion, spin component:            2
  1.027  -0.135   0.161  -0.012  -0.377  -0.616   0.085  -0.105   0.008   0.241  -0.001  -0.001   0.003  -0.002  -0.008  -0.000
 -0.135   1.108   0.053   0.190  -0.102   0.085  -0.670  -0.035  -0.121   0.067  -0.020   0.008   0.004  -0.004  -0.008  -0.000
  0.161   0.053   1.137  -0.208  -0.029  -0.105  -0.035  -0.688   0.132   0.018  -0.009   0.005   0.016   0.016  -0.002  -0.000
 -0.012   0.190  -0.208   0.847   0.307   0.007  -0.122   0.132  -0.502  -0.197  -0.006   0.005   0.001   0.004   0.006  -0.000
 -0.377  -0.102  -0.029   0.307   0.971   0.241   0.069   0.018  -0.197  -0.582   0.012  -0.008   0.009   0.009   0.007  -0.000
 -0.616   0.085  -0.105   0.007   0.241   0.326  -0.052   0.066  -0.006  -0.150   0.001   0.001  -0.002   0.001   0.005   0.000
  0.085  -0.670  -0.035  -0.122   0.069  -0.052   0.361   0.023   0.076  -0.044   0.007  -0.002  -0.003   0.003   0.006   0.000
 -0.105  -0.035  -0.688   0.132   0.018   0.066   0.023   0.371  -0.081  -0.012   0.002  -0.001  -0.011  -0.010   0.001   0.000
  0.008  -0.121   0.132  -0.502  -0.197  -0.006   0.076  -0.081   0.254   0.123   0.001  -0.002  -0.001  -0.002  -0.003   0.000
  0.241   0.067   0.018  -0.197  -0.582  -0.150  -0.044  -0.012   0.123   0.306  -0.002   0.002  -0.005  -0.006  -0.004   0.000
 -0.001  -0.020  -0.009  -0.006   0.012   0.001   0.007   0.002   0.001  -0.002  -0.063   0.021  -0.001   0.001   0.001  -0.000
 -0.001   0.008   0.005   0.005  -0.008   0.001  -0.002  -0.001  -0.002   0.002   0.021  -0.005  -0.000   0.000   0.000   0.000
  0.003   0.004   0.016   0.001   0.009  -0.002  -0.003  -0.011  -0.001  -0.005  -0.001  -0.000  -0.005   0.000   0.002   0.001
 -0.002  -0.004   0.016   0.004   0.009   0.001   0.003  -0.010  -0.002  -0.006   0.001   0.000   0.000  -0.005  -0.002  -0.000
 -0.008  -0.008  -0.002   0.006   0.007   0.005   0.006   0.001  -0.003  -0.004   0.001   0.000   0.002  -0.002  -0.002  -0.000
 -0.000  -0.000  -0.000  -0.000  -0.000   0.000   0.000   0.000   0.000   0.000  -0.000   0.000   0.001  -0.000  -0.000  -0.000
 -0.000   0.000  -0.001  -0.000  -0.000   0.000  -0.000   0.001   0.000   0.000   0.000  -0.000  -0.000   0.001   0.000   0.000
  0.001  -0.000   0.000  -0.001  -0.001  -0.001   0.000  -0.000   0.000   0.001   0.000  -0.000   0.000  -0.000   0.001  -0.000


------------------------ aborting loop because EDIFF is reached ----------------------------------------


    CHARGE:  cpu time    1.0659: real time    1.0666
    FORLOC:  cpu time    0.1413: real time    0.1414
    FORNL :  cpu time    7.9132: real time    7.9170
    FORCOR:  cpu time    3.0790: real time    3.0812
    FORHAR:  cpu time    0.4364: real time    0.4367
    MIXING:  cpu time    0.0799: real time    0.0800
    OFIELD:  cpu time    0.0000: real time    0.0000

 VOLUME and BASIS-vectors are now :
 -----------------------------------------------------------------------------
  energy-cutoff  :      400.00
  volume of cell :    13880.95
      direct lattice vectors                 reciprocal lattice vectors
    23.324096182  0.000000000  0.000000000     0.042874116  0.000000000  0.000000000
     0.000000000 24.783453576  0.000000000     0.000000000  0.040349502  0.000000000
     0.000000000  0.000000000 24.013339402     0.000000000  0.000000000  0.041643521

  length of vectors
    23.324096182 24.783453576 24.013339402     0.042874116  0.040349502  0.041643521


 FORCES acting on ions
    electron-ion (+dipol)            ewald-force                    non-local-force                 convergence-correction
 -----------------------------------------------------------------------------------------------
   -.710E+02 0.106E+03 -.926E+02   0.711E+02 -.107E+03 0.929E+02   -.232E+00 0.405E+00 -.307E+00   0.292E-01 -.595E-01 -.409E-02
   -.314E+03 0.494E+03 0.921E+03   0.313E+03 -.492E+03 -.917E+03   0.136E+01 -.240E+01 -.364E+01   -.212E-01 -.616E-01 0.234E-01
   0.900E+03 0.352E+03 0.386E+03   -.897E+03 -.351E+03 -.385E+03   -.319E+01 -.123E+01 -.955E+00   0.272E-01 -.427E-01 -.275E-01
   -.329E+03 -.633E+03 0.671E+03   0.328E+03 0.632E+03 -.669E+03   0.125E+01 0.154E+01 -.172E+01   0.115E-01 -.168E-01 -.328E-01
   0.797E+03 -.590E+03 0.443E+03   -.792E+03 0.587E+03 -.441E+03   -.498E+01 0.298E+01 -.208E+01   0.281E-02 0.278E-01 -.588E-01
   -.133E+03 0.814E+03 -.777E+03   0.132E+03 -.809E+03 0.773E+03   0.945E+00 -.439E+01 0.417E+01   0.547E-01 -.363E-01 -.610E-02
   -.546E+03 -.839E+03 -.434E+03   0.543E+03 0.836E+03 0.432E+03   0.238E+01 0.326E+01 0.211E+01   -.100E-01 -.295E-01 0.249E-01
   0.898E+02 -.220E+03 -.111E+04   -.894E+02 0.219E+03 0.111E+04   -.404E+00 0.172E+01 0.568E+01   0.313E-01 -.394E-01 0.417E-01
   0.877E+03 0.439E+03 -.579E+03   -.872E+03 -.437E+03 0.576E+03   -.486E+01 -.205E+01 0.287E+01   0.432E-01 -.519E-01 0.156E-01
   -.104E+04 -.217E+03 0.393E+03   0.104E+04 0.216E+03 -.391E+03   0.499E+01 0.172E+01 -.249E+01   0.126E-01 -.663E-01 0.521E-02
   -.775E+03 0.821E+03 0.135E+03   0.771E+03 -.817E+03 -.134E+03   0.408E+01 -.449E+01 -.465E+00   0.125E-02 -.468E-01 0.279E-03
   -.914E+03 0.239E+02 -.672E+03   0.909E+03 -.235E+02 0.669E+03   0.477E+01 -.369E+00 0.374E+01   0.246E-01 -.533E-01 0.249E-01
   0.107E+03 -.108E+04 -.354E+02   -.106E+03 0.108E+04 0.350E+02   -.183E+00 0.716E+01 0.385E+00   -.329E-01 0.743E-01 -.294E-01
   0.316E+03 0.108E+04 0.204E+03   -.314E+03 -.107E+04 -.202E+03   -.164E+01 -.549E+01 -.168E+01   0.239E-01 -.408E-01 -.119E-02
   0.752E+03 -.516E+03 -.501E+03   -.749E+03 0.515E+03 0.499E+03   -.271E+01 0.141E+01 0.175E+01   0.409E-02 -.143E-01 0.479E-02
   0.285E+03 -.242E+02 0.105E+04   -.283E+03 0.243E+02 -.104E+04   -.141E+01 -.825E-01 -.703E+01   0.915E-02 0.643E-02 -.521E-01
 -----------------------------------------------------------------------------------------------
   -.377E+00 0.778E+00 -.266E+00   0.739E-12 0.504E-12 0.455E-12   0.166E+00 -.320E+00 0.334E+00   0.211E+00 -.451E+00 -.712E-01
 
 
 POSITION                                       TOTAL-FORCE (eV/Angst)
 -----------------------------------------------------------------------------------
     11.80988     11.56890     12.81011        -0.039385      0.121326     -0.047692
     12.23864     10.79273     10.33994         0.019339     -0.000588      0.031303
      9.58936     11.31245     11.43696         0.012394      0.003303      0.018122
     11.94866     13.45563     10.94875        -0.003481     -0.015586      0.020237
      9.31670     13.91923     10.92902         0.021335     -0.019515      0.018839
     12.07571      9.64160     14.66425        -0.016944     -0.006972      0.012148
     12.77899     13.91367     13.51750         0.000474     -0.063108     -0.009384
     11.49165     12.22799     15.35878         0.004299      0.013225     -0.025466
      9.57222     10.67566     14.06781        -0.017890      0.003356      0.002895
     14.20901     12.26680     11.70919         0.006176      0.013035     -0.000869
     13.63728      9.68331     12.38603         0.010361      0.001803     -0.005755
     13.97772     11.62261     14.35140        -0.005834      0.002213      0.000701
     10.95223     15.44596     12.38149        -0.002197     -0.020783      0.001049
     10.95152      9.13255     12.21713         0.002760      0.002712     -0.025563
      9.92289     13.28244     13.45082         0.027387     -0.028099     -0.007561
     10.42115     12.28233      9.13975        -0.018794     -0.006321      0.016997
 -----------------------------------------------------------------------------------
    total drift:                                0.000724      0.007641     -0.003347


--------------------------------------------------------------------------------------------------------



  FREE ENERGIE OF THE ION-ELECTRON SYSTEM (eV)
  ---------------------------------------------------
  free  energy   TOTEN  =       -62.93377275 eV

  energy  without entropy=      -62.87747703  energy(sigma->0) =      -62.91500751
 
 d Force = 0.1165764E-02[-0.967E-05, 0.234E-02]  d Energy =-0.1885483E-02 0.305E-02
 d Force = 0.8176919E+01[ 0.819E+01, 0.816E+01]  d Ewald  = 0.8176914E+01 0.496E-05


--------------------------------------------------------------------------------------------------------


    POTLOK:  cpu time    3.1895: real time    3.2279


--------------------------------------------------------------------------------------------------------




--------------------------------------------------------------------------------------------------------


  
 reached required accuracy - stopping structural energy minimisation
     LOOP+:  cpu time  158.3610: real time  158.7376
    4ORBIT:  cpu time    0.0000: real time    0.0000

 total amount of memory used by VASP MPI-rank0   182129. kBytes
=======================================================================

   base      :      30000. kBytes
   nonl-proj :       6304. kBytes
   fftplans  :      35588. kBytes
   grid      :      83952. kBytes
   one-center:         31. kBytes
   wavefun   :      26254. kBytes
 
  
  
 General timing and accounting informations for this job:
 ========================================================
  
                  Total CPU time used (sec):     2791.577
                            User time (sec):     2775.036
                          System time (sec):       16.541
                         Elapsed time (sec):     2803.367
  
                   Maximum memory used (kb):      377632.
                   Average memory used (kb):           0.
  
                          Minor page faults:      5519069
                          Major page faults:       103515
                 Voluntary context switches:         6668
