unknown system                          
            1
    23.324096    0.000000    0.000000
     0.000000   24.783454    0.000000
     0.000000    0.000000   24.013339
   Pd
    16
Direct configuration=     1
   0.50665963  0.46694668  0.53341112
   0.52149963  0.43490096  0.43244308
   0.41263027  0.45816512  0.47633350
   0.51163232  0.54288124  0.45679417
   0.40136715  0.56154637  0.45435196
   0.51849592  0.39085462  0.60857267
   0.54490157  0.56030812  0.56320186
   0.49444651  0.49252612  0.63732908
   0.41633686  0.43099125  0.58515348
   0.60521194  0.49251157  0.49038064
   0.58279965  0.39171067  0.51692894
   0.59724838  0.46808008  0.59706342
   0.46832203  0.62158409  0.51465801
   0.47126794  0.37021542  0.50924747
   0.42663388  0.53569060  0.55846796
   0.44769615  0.49687468  0.38224488
Direct configuration=     2
   0.50605580  0.46765192  0.53278609
   0.52216147  0.43458852  0.43139679
   0.41172311  0.45751359  0.47627608
   0.51238547  0.54312785  0.45628275
   0.40010787  0.56202116  0.45416551
   0.51876310  0.38917186  0.61022904
   0.54573075  0.56118601  0.56351672
   0.49391230  0.49325133  0.63895929
   0.41432416  0.43080825  0.58559163
   0.60664162  0.49338027  0.48931285
   0.58414974  0.39037917  0.51631404
   0.59889749  0.46842328  0.59811278
   0.46856507  0.62296238  0.51484815
   0.47036168  0.36882507  0.50866515
   0.42583016  0.53580908  0.55920777
   0.44754003  0.49668785  0.38091760
Direct configuration=     3
   0.50577899  0.46797522  0.53249956
   0.52246488  0.43444528  0.43091713
   0.41130723  0.45721491  0.47624976
   0.51273074  0.54324090  0.45604830
   0.39953057  0.56223883  0.45408003
   0.51888559  0.38840043  0.61098839
   0.54611088  0.56158846  0.56366107
   0.49366740  0.49358380  0.63970663
   0.41340146  0.43072435  0.58579249
   0.60729704  0.49377852  0.48882334
   0.58476867  0.38976876  0.51603214
   0.59965350  0.46858062  0.59859385
   0.46867649  0.62359424  0.51493531
   0.46994621  0.36818769  0.50839819
   0.42546171  0.53586340  0.55954692
   0.44746846  0.49660219  0.38030913
Direct configuration=     4
   0.50629436  0.46723541  0.53319752
   0.52289754  0.43435957  0.43071534
   0.41093590  0.45700095  0.47599251
   0.51260995  0.54352872  0.45572191
   0.39947419  0.56224342  0.45416506
   0.51890051  0.38852693  0.61087481
   0.54650131  0.56171545  0.56373853
   0.49357761  0.49355509  0.63980734
   0.41285829  0.43063012  0.58591608
   0.60785177  0.49395434  0.48857474
   0.58465335  0.38985848  0.51600895
   0.59950588  0.46863141  0.59848944
   0.46872188  0.62372574  0.51498259
   0.46986684  0.36811405  0.50846308
   0.42517617  0.53616181  0.55976367
   0.44732427  0.49654610  0.38017066
Direct configuration=     5
   0.50658770  0.46681433  0.53359479
   0.52314380  0.43431079  0.43060049
   0.41072455  0.45687917  0.47584609
   0.51254120  0.54369254  0.45553614
   0.39944209  0.56224603  0.45421346
   0.51890901  0.38859893  0.61081016
   0.54672353  0.56178772  0.56378263
   0.49352650  0.49353875  0.63986466
   0.41254913  0.43057648  0.58598642
   0.60816751  0.49405441  0.48843325
   0.58458771  0.38990956  0.51599576
   0.59942186  0.46866032  0.59843001
   0.46874771  0.62380059  0.51500950
   0.46982166  0.36807213  0.50850002
   0.42501365  0.53633166  0.55988704
   0.44724219  0.49651418  0.38009184
Direct configuration=     6
   0.50641948  0.46705580  0.53336698
   0.52300259  0.43433876  0.43066635
   0.41084575  0.45694900  0.47593005
   0.51258062  0.54359860  0.45564267
   0.39946050  0.56224453  0.45418570
   0.51890414  0.38855764  0.61084724
   0.54659610  0.56174628  0.56375734
   0.49355581  0.49354812  0.63983179
   0.41272642  0.43060724  0.58594608
   0.60798645  0.49399703  0.48851439
   0.58462535  0.38988027  0.51600332
   0.59947004  0.46864374  0.59846409
   0.46873290  0.62375766  0.51499407
   0.46984757  0.36809617  0.50847884
   0.42510685  0.53623426  0.55981629
   0.44728926  0.49653249  0.38013704
Direct configuration=     7
   0.50640311  0.46701521  0.53341458
   0.52323392  0.43449043  0.43075636
   0.41097488  0.45689611  0.47593774
   0.51245322  0.54348673  0.45572673
   0.39952911  0.56216262  0.45431544
   0.51884516  0.38862451  0.61080414
   0.54672784  0.56163319  0.56362972
   0.49344176  0.49352326  0.63979167
   0.41240446  0.43062697  0.58592698
   0.60816249  0.49412983  0.48836718
   0.58456801  0.38996998  0.51594953
   0.59939290  0.46871418  0.59836448
   0.46880057  0.62370127  0.51504775
   0.46978525  0.36816750  0.50853670
   0.42522530  0.53619870  0.55981236
   0.44720183  0.49644709  0.38020090
Direct configuration=     8
   0.50635398  0.46689345  0.53355741
   0.52392794  0.43494544  0.43102638
   0.41136226  0.45673745  0.47596082
   0.51207099  0.54315113  0.45597891
   0.39973496  0.56191687  0.45470464
   0.51866824  0.38882511  0.61067484
   0.54712308  0.56129391  0.56324684
   0.49309960  0.49344868  0.63967131
   0.41143859  0.43068615  0.58586967
   0.60869062  0.49452822  0.48792555
   0.58439598  0.39023912  0.51578814
   0.59916146  0.46892551  0.59806563
   0.46900359  0.62353210  0.51520880
   0.46959832  0.36838150  0.50871027
   0.42558066  0.53609203  0.55980058
   0.44693955  0.49619092  0.38039247
Direct configuration=     9
   0.50627966  0.46705940  0.53343692
   0.52413295  0.43513169  0.43091927
   0.41136107  0.45663519  0.47609409
   0.51223017  0.54297505  0.45607880
   0.39957015  0.56188667  0.45478897
   0.51845917  0.38880455  0.61075776
   0.54728979  0.56128727  0.56311465
   0.49295964  0.49344980  0.63966514
   0.41115410  0.43073834  0.58583707
   0.60874581  0.49466228  0.48783214
   0.58453519  0.39030305  0.51575564
   0.59923568  0.46897147  0.59797798
   0.46916493  0.62354440  0.51533005
   0.46951338  0.36835676  0.50872069
   0.42561315  0.53596337  0.55991069
   0.44690498  0.49601828  0.38036238
Direct configuration=    10
   0.50627206  0.46707636  0.53342460
   0.52415391  0.43515073  0.43090832
   0.41136095  0.45662474  0.47610771
   0.51224644  0.54295705  0.45608901
   0.39955330  0.56188358  0.45479759
   0.51843780  0.38880245  0.61076624
   0.54730683  0.56128660  0.56310114
   0.49294533  0.49344991  0.63966451
   0.41112501  0.43074367  0.58583374
   0.60875145  0.49467599  0.48782259
   0.58454942  0.39030959  0.51575232
   0.59924327  0.46897616  0.59796902
   0.46918142  0.62354566  0.51534245
   0.46950469  0.36835424  0.50872176
   0.42561647  0.53595022  0.55992194
   0.44690144  0.49600063  0.38035930
Direct configuration=    11
   0.50629572  0.46697707  0.53343660
   0.52435710  0.43526923  0.43079470
   0.41128005  0.45656270  0.47616770
   0.51226144  0.54294667  0.45603715
   0.39951465  0.56179411  0.45491418
   0.51818601  0.38888541  0.61073206
   0.54751509  0.56133064  0.56303482
   0.49285541  0.49342964  0.63963916
   0.41086537  0.43074869  0.58583349
   0.60891180  0.49477752  0.48774712
   0.58459847  0.39045548  0.51576863
   0.59925725  0.46897277  0.59785215
   0.46931965  0.62343500  0.51543793
   0.46951612  0.36840420  0.50873696
   0.42555145  0.53594653  0.55999998
   0.44686424  0.49585192  0.38044960
Direct configuration=    12
   0.50633807  0.46679934  0.53345807
   0.52472081  0.43548135  0.43059131
   0.41113523  0.45645166  0.47627510
   0.51228831  0.54292807  0.45594433
   0.39944546  0.56163396  0.45512288
   0.51773528  0.38903390  0.61067088
   0.54788788  0.56140949  0.56291611
   0.49269444  0.49339335  0.63959378
   0.41040059  0.43075767  0.58583304
   0.60919884  0.49495927  0.48761201
   0.58468626  0.39071663  0.51579784
   0.59928228  0.46896670  0.59764294
   0.46956708  0.62323691  0.51560886
   0.46953658  0.36849364  0.50876418
   0.42543507  0.53593991  0.56013967
   0.44679764  0.49558572  0.38061124
