  10  10   0   0
  0.1338806E+04  0.2252320E-08  0.2474615E-08  0.2402038E-08  0.5000000E-15
   1.0000000000000000E-004
  CAR 
 unknown system                          
      1.72730781    -11.88815954  301     -4.13775092      1.00000000
    -11.888  0.0000E+00  0.0000E+00  0.0000E+00  0.0000E+00
    -11.843  0.0000E+00  0.0000E+00  0.0000E+00  0.0000E+00
    -11.797  0.0000E+00  0.0000E+00  0.0000E+00  0.0000E+00
    -11.752  0.0000E+00  0.0000E+00  0.0000E+00  0.0000E+00
    -11.707  0.0000E+00  0.0000E+00  0.0000E+00  0.0000E+00
    -11.661  0.0000E+00  0.0000E+00  0.0000E+00  0.0000E+00
    -11.616  0.0000E+00  0.0000E+00  0.0000E+00  0.0000E+00
    -11.570  0.0000E+00  0.0000E+00  0.0000E+00  0.0000E+00
    -11.525 -0.4112E-30  0.0000E+00 -0.1866E-31  0.0000E+00
    -11.480 -0.1517E-28  0.0000E+00 -0.7073E-30  0.0000E+00
    -11.434 -0.5169E-27 -0.9045E-30 -0.2417E-28 -0.4105E-31
    -11.389 -0.1586E-25 -0.3262E-28 -0.7441E-27 -0.1522E-29
    -11.344 -0.4387E-24 -0.1087E-26 -0.2065E-25 -0.5084E-28
    -11.298 -0.1093E-22 -0.3261E-25 -0.5166E-24 -0.1531E-26
    -11.253 -0.2452E-21 -0.8819E-24 -0.1165E-22 -0.4155E-25
    -11.207 -0.4956E-20 -0.2148E-22 -0.2366E-21 -0.1017E-23
    -11.162 -0.9020E-19 -0.4714E-21 -0.4330E-20 -0.2241E-22
    -11.117 -0.1478E-17 -0.9315E-20 -0.7142E-19 -0.4452E-21
    -11.071 -0.2058E-16 -0.1658E-18 -0.1006E-17 -0.7969E-20
    -11.026 -0.2810E-15 -0.2656E-17 -0.1376E-16 -0.1285E-18
    -10.980 -0.3344E-14 -0.3709E-16 -0.1655E-15 -0.1812E-17
    -10.935 -0.3584E-13 -0.4814E-15 -0.1792E-14 -0.2366E-16
    -10.890 -0.3452E-12 -0.5612E-14 -0.1746E-13 -0.2784E-15
    -10.844 -0.2988E-11 -0.5878E-13 -0.1531E-12 -0.2946E-14
    -10.799 -0.2322E-10 -0.5533E-12 -0.1207E-11 -0.2806E-13
    -10.754 -0.1620E-09 -0.4680E-11 -0.8560E-11 -0.2405E-12
    -10.708 -0.1014E-08 -0.3555E-10 -0.5457E-10 -0.1854E-11
    -10.663 -0.5683E-08 -0.2423E-09 -0.3125E-09 -0.1285E-10
    -10.617 -0.2851E-07 -0.1481E-08 -0.1607E-08 -0.8005E-10
    -10.572 -0.1278E-06 -0.8107E-08 -0.7409E-08 -0.4480E-09
    -10.527 -0.5114E-06 -0.3971E-07 -0.3062E-07 -0.2250E-08
    -10.481 -0.1820E-05 -0.1738E-06 -0.1132E-06 -0.1014E-07
    -10.436 -0.5744E-05 -0.6781E-06 -0.3739E-06 -0.4091E-07
    -10.390 -0.1599E-04 -0.2353E-05 -0.1100E-05 -0.1477E-06
    -10.345 -0.3901E-04 -0.7232E-05 -0.2870E-05 -0.4759E-06
    -10.300 -0.8232E-04 -0.1959E-04 -0.6607E-05 -0.1365E-05
    -10.254 -0.1470E-03 -0.4637E-04 -0.1328E-04 -0.3470E-05
    -10.209 -0.2118E-03 -0.9464E-04 -0.2289E-04 -0.7765E-05
    -10.164 -0.2136E-03 -0.1623E-03 -0.3258E-04 -0.1513E-04
    -10.118 -0.4234E-04 -0.2206E-03 -0.3451E-04 -0.2514E-04
    -10.073  0.4257E-03 -0.1959E-03 -0.1518E-04 -0.3403E-04
    -10.027  0.1249E-02  0.2939E-04  0.4150E-04 -0.3270E-04
     -9.982  0.2331E-02  0.5728E-03  0.1473E-03 -0.6702E-05
     -9.937  0.3398E-02  0.1466E-02  0.3015E-03  0.5983E-04
     -9.891  0.4088E-02  0.2573E-02  0.4870E-03  0.1766E-03
     -9.846  0.4135E-02  0.3589E-02  0.6747E-03  0.3395E-03
     -9.800  0.3521E-02  0.4157E-02  0.8345E-03  0.5282E-03
     -9.755  0.2484E-02  0.4054E-02  0.9472E-03  0.7122E-03
     -9.710  0.1384E-02  0.3322E-02  0.1010E-02  0.8630E-03
     -9.664  0.5164E-03  0.2241E-02  0.1033E-02  0.9647E-03
     -9.619  0.1147E-05  0.1172E-02  0.1034E-02  0.1018E-02
     -9.574 -0.2034E-03  0.3756E-03  0.1024E-02  0.1035E-02
     -9.528 -0.2177E-03 -0.6531E-04  0.1014E-02  0.1032E-02
     -9.483 -0.1566E-03 -0.2181E-03  0.1007E-02  0.1022E-02
     -9.437 -0.8996E-04 -0.2078E-03  0.1003E-02  0.1013E-02
     -9.392 -0.4354E-04 -0.1414E-03  0.1001E-02  0.1006E-02
     -9.347 -0.1820E-04 -0.7803E-04  0.1000E-02  0.1003E-02
     -9.301 -0.6724E-05 -0.3653E-04  0.1000E-02  0.1001E-02
     -9.256 -0.2470E-05 -0.1482E-04  0.1000E-02  0.1000E-02
     -9.210 -0.1829E-05 -0.5267E-05  0.9999E-03  0.1000E-02
     -9.165 -0.4157E-05 -0.1653E-05  0.9997E-03  0.1000E-02
     -9.120 -0.1166E-04 -0.4606E-06  0.9992E-03  0.1000E-02
     -9.074 -0.2968E-04 -0.1172E-06  0.9979E-03  0.1000E-02
     -9.029 -0.6590E-04 -0.4225E-07  0.9949E-03  0.1000E-02
     -8.984 -0.1253E-03 -0.8433E-07  0.9892E-03  0.1000E-02
     -8.938 -0.1972E-03 -0.3304E-06  0.9802E-03  0.1000E-02
     -8.893 -0.2368E-03 -0.1219E-05  0.9695E-03  0.9999E-03
     -8.847 -0.1534E-03 -0.4002E-05  0.9625E-03  0.9997E-03
     -8.802  0.1714E-03 -0.1162E-04  0.9703E-03  0.9992E-03
     -8.757  0.8229E-03 -0.2962E-04  0.1008E-02  0.9979E-03
     -8.711  0.1773E-02 -0.6566E-04  0.1088E-02  0.9949E-03
     -8.666  0.2846E-02 -0.1243E-03  0.1217E-02  0.9893E-03
     -8.620  0.3783E-02 -0.1940E-03  0.1389E-02  0.9804E-03
     -8.575  0.4389E-02 -0.2275E-03  0.1588E-02  0.9701E-03
     -8.530  0.4645E-02 -0.1305E-03  0.1799E-02  0.9642E-03
     -8.484  0.4679E-02  0.2196E-03  0.2011E-02  0.9742E-03
     -8.439  0.4617E-02  0.9068E-03  0.2221E-02  0.1015E-02
     -8.394  0.4450E-02  0.1885E-02  0.2423E-02  0.1101E-02
     -8.348  0.4070E-02  0.2932E-02  0.2608E-02  0.1234E-02
     -8.303  0.3434E-02  0.3717E-02  0.2763E-02  0.1403E-02
     -8.257  0.2697E-02  0.3979E-02  0.2886E-02  0.1583E-02
     -8.212  0.2175E-02  0.3718E-02  0.2984E-02  0.1752E-02
     -8.167  0.2147E-02  0.3221E-02  0.3082E-02  0.1898E-02
     -8.121  0.2681E-02  0.2896E-02  0.3204E-02  0.2030E-02
     -8.076  0.3622E-02  0.2992E-02  0.3368E-02  0.2165E-02
     -8.030  0.4728E-02  0.3422E-02  0.3583E-02  0.2321E-02
     -7.985  0.5819E-02  0.3823E-02  0.3847E-02  0.2494E-02
     -7.940  0.6802E-02  0.3803E-02  0.4155E-02  0.2667E-02
     -7.894  0.7597E-02  0.3212E-02  0.4500E-02  0.2813E-02
     -7.849  0.8097E-02  0.2233E-02  0.4868E-02  0.2914E-02
     -7.804  0.8242E-02  0.1279E-02  0.5242E-02  0.2972E-02
     -7.758  0.8122E-02  0.7655E-03  0.5610E-02  0.3007E-02
     -7.713  0.7963E-02  0.9075E-03  0.5972E-02  0.3048E-02
     -7.667  0.7949E-02  0.1621E-02  0.6333E-02  0.3122E-02
     -7.622  0.8055E-02  0.2572E-02  0.6698E-02  0.3238E-02
     -7.577  0.8053E-02  0.3350E-02  0.7064E-02  0.3390E-02
     -7.531  0.7728E-02  0.3722E-02  0.7414E-02  0.3559E-02
     -7.486  0.7096E-02  0.3791E-02  0.7736E-02  0.3731E-02
     -7.440  0.6437E-02  0.3955E-02  0.8028E-02  0.3911E-02
     -7.395  0.6148E-02  0.4609E-02  0.8308E-02  0.4120E-02
     -7.350  0.6535E-02  0.5799E-02  0.8604E-02  0.4383E-02
     -7.304  0.7709E-02  0.7086E-02  0.8954E-02  0.4705E-02
     -7.259  0.9585E-02  0.7785E-02  0.9389E-02  0.5058E-02
     -7.214  0.1193E-01  0.7423E-02  0.9930E-02  0.5395E-02
     -7.168  0.1439E-01  0.6103E-02  0.1058E-01  0.5672E-02
     -7.123  0.1660E-01  0.4482E-02  0.1134E-01  0.5875E-02
     -7.077  0.1827E-01  0.3395E-02  0.1217E-01  0.6029E-02
     -7.032  0.1922E-01  0.3374E-02  0.1304E-01  0.6183E-02
     -6.987  0.1934E-01  0.4392E-02  0.1392E-01  0.6382E-02
     -6.941  0.1854E-01  0.5955E-02  0.1476E-01  0.6652E-02
     -6.896  0.1675E-01  0.7453E-02  0.1552E-01  0.6990E-02
     -6.850  0.1408E-01  0.8504E-02  0.1616E-01  0.7376E-02
     -6.805  0.1099E-01  0.9098E-02  0.1665E-01  0.7789E-02
     -6.760  0.8187E-02  0.9484E-02  0.1703E-01  0.8220E-02
     -6.714  0.6346E-02  0.9949E-02  0.1731E-01  0.8671E-02
     -6.669  0.5798E-02  0.1066E-01  0.1758E-01  0.9155E-02
     -6.624  0.6396E-02  0.1162E-01  0.1787E-01  0.9682E-02
     -6.578  0.7630E-02  0.1276E-01  0.1821E-01  0.1026E-01
     -6.533  0.8863E-02  0.1392E-01  0.1862E-01  0.1089E-01
     -6.487  0.9559E-02  0.1493E-01  0.1905E-01  0.1157E-01
     -6.442  0.9455E-02  0.1558E-01  0.1948E-01  0.1228E-01
     -6.397  0.8609E-02  0.1573E-01  0.1987E-01  0.1299E-01
     -6.351  0.7364E-02  0.1540E-01  0.2020E-01  0.1369E-01
     -6.306  0.6221E-02  0.1468E-01  0.2049E-01  0.1436E-01
     -6.260  0.5694E-02  0.1375E-01  0.2074E-01  0.1498E-01
     -6.215  0.6161E-02  0.1277E-01  0.2102E-01  0.1556E-01
     -6.170  0.7738E-02  0.1197E-01  0.2138E-01  0.1610E-01
     -6.124  0.1020E-01  0.1156E-01  0.2184E-01  0.1663E-01
     -6.079  0.1303E-01  0.1162E-01  0.2243E-01  0.1716E-01
     -6.034  0.1559E-01  0.1199E-01  0.2314E-01  0.1770E-01
     -5.988  0.1740E-01  0.1223E-01  0.2393E-01  0.1826E-01
     -5.943  0.1829E-01  0.1195E-01  0.2476E-01  0.1880E-01
     -5.897  0.1846E-01  0.1111E-01  0.2560E-01  0.1930E-01
     -5.852  0.1826E-01  0.1019E-01  0.2642E-01  0.1976E-01
     -5.807  0.1799E-01  0.9845E-02  0.2724E-01  0.2021E-01
     -5.761  0.1777E-01  0.1046E-01  0.2805E-01  0.2069E-01
     -5.716  0.1757E-01  0.1180E-01  0.2884E-01  0.2122E-01
     -5.670  0.1744E-01  0.1318E-01  0.2964E-01  0.2182E-01
     -5.625  0.1765E-01  0.1389E-01  0.3044E-01  0.2245E-01
     -5.580  0.1862E-01  0.1360E-01  0.3128E-01  0.2307E-01
     -5.534  0.2057E-01  0.1253E-01  0.3222E-01  0.2364E-01
     -5.489  0.2320E-01  0.1119E-01  0.3327E-01  0.2414E-01
     -5.444  0.2577E-01  0.1015E-01  0.3444E-01  0.2460E-01
     -5.398  0.2743E-01  0.9801E-02  0.3568E-01  0.2505E-01
     -5.353  0.2781E-01  0.1024E-01  0.3694E-01  0.2551E-01
     -5.307  0.2724E-01  0.1132E-01  0.3818E-01  0.2603E-01
     -5.262  0.2647E-01  0.1274E-01  0.3938E-01  0.2661E-01
     -5.217  0.2620E-01  0.1422E-01  0.4057E-01  0.2725E-01
     -5.171  0.2662E-01  0.1569E-01  0.4178E-01  0.2796E-01
     -5.126  0.2735E-01  0.1720E-01  0.4302E-01  0.2874E-01
     -5.080  0.2781E-01  0.1883E-01  0.4428E-01  0.2960E-01
     -5.035  0.2755E-01  0.2042E-01  0.4553E-01  0.3052E-01
     -4.990  0.2650E-01  0.2153E-01  0.4674E-01  0.3150E-01
     -4.944  0.2484E-01  0.2168E-01  0.4786E-01  0.3249E-01
     -4.899  0.2280E-01  0.2070E-01  0.4890E-01  0.3343E-01
     -4.854  0.2053E-01  0.1891E-01  0.4983E-01  0.3428E-01
     -4.808  0.1811E-01  0.1697E-01  0.5065E-01  0.3505E-01
     -4.763  0.1553E-01  0.1555E-01  0.5136E-01  0.3576E-01
     -4.717  0.1282E-01  0.1504E-01  0.5194E-01  0.3644E-01
     -4.672  0.9979E-02  0.1548E-01  0.5239E-01  0.3714E-01
     -4.627  0.7102E-02  0.1661E-01  0.5271E-01  0.3790E-01
     -4.581  0.4410E-02  0.1805E-01  0.5291E-01  0.3872E-01
     -4.536  0.2234E-02  0.1938E-01  0.5302E-01  0.3960E-01
     -4.490  0.8967E-03  0.2016E-01  0.5306E-01  0.4051E-01
     -4.445  0.5621E-03  0.2004E-01  0.5308E-01  0.4142E-01
     -4.400  0.1127E-02  0.1889E-01  0.5313E-01  0.4228E-01
     -4.354  0.2223E-02  0.1700E-01  0.5323E-01  0.4305E-01
     -4.309  0.3327E-02  0.1498E-01  0.5338E-01  0.4373E-01
     -4.263  0.3957E-02  0.1347E-01  0.5356E-01  0.4434E-01
     -4.218  0.3866E-02  0.1292E-01  0.5374E-01  0.4493E-01
     -4.173  0.3129E-02  0.1338E-01  0.5388E-01  0.4554E-01
     -4.127  0.2060E-02  0.1466E-01  0.5398E-01  0.4620E-01
     -4.082  0.1030E-02  0.1640E-01  0.5402E-01  0.4694E-01
     -4.037  0.2867E-03  0.1820E-01  0.5404E-01  0.4777E-01
     -3.991 -0.1107E-03  0.1960E-01  0.5403E-01  0.4866E-01
     -3.946 -0.2457E-03  0.2019E-01  0.5402E-01  0.4958E-01
     -3.900 -0.2510E-03  0.1979E-01  0.5401E-01  0.5048E-01
     -3.855 -0.2336E-03  0.1849E-01  0.5400E-01  0.5131E-01
     -3.810 -0.2417E-03  0.1658E-01  0.5399E-01  0.5207E-01
     -3.764 -0.2565E-03  0.1425E-01  0.5397E-01  0.5271E-01
     -3.719 -0.1945E-03  0.1161E-01  0.5397E-01  0.5324E-01
     -3.673  0.7274E-04  0.8712E-02  0.5397E-01  0.5364E-01
     -3.628  0.6634E-03  0.5759E-02  0.5400E-01  0.5390E-01
     -3.583  0.1595E-02  0.3091E-02  0.5407E-01  0.5404E-01
     -3.537  0.2711E-02  0.1040E-02  0.5419E-01  0.5408E-01
     -3.492  0.3690E-02 -0.2307E-03  0.5436E-01  0.5407E-01
     -3.447  0.4182E-02 -0.7641E-03  0.5455E-01  0.5404E-01
     -3.401  0.3992E-02 -0.7031E-03  0.5473E-01  0.5401E-01
     -3.356  0.3195E-02 -0.1737E-03  0.5488E-01  0.5400E-01
     -3.310  0.2086E-02  0.7376E-03  0.5497E-01  0.5403E-01
     -3.265  0.1016E-02  0.1906E-02  0.5502E-01  0.5412E-01
     -3.220  0.2186E-03  0.3087E-02  0.5503E-01  0.5426E-01
     -3.174 -0.2465E-03  0.3942E-02  0.5502E-01  0.5444E-01
     -3.129 -0.4375E-03  0.4181E-02  0.5500E-01  0.5463E-01
     -3.083 -0.4178E-03  0.3725E-02  0.5498E-01  0.5480E-01
     -3.038 -0.1819E-03  0.2759E-02  0.5497E-01  0.5492E-01
     -2.993  0.3327E-03  0.1627E-02  0.5499E-01  0.5500E-01
     -2.947  0.1155E-02  0.6499E-03  0.5504E-01  0.5503E-01
     -2.902  0.2178E-02 -0.1071E-04  0.5514E-01  0.5503E-01
     -2.857  0.3136E-02 -0.3563E-03  0.5528E-01  0.5501E-01
     -2.811  0.3726E-02 -0.4615E-03  0.5545E-01  0.5499E-01
     -2.766  0.3808E-02 -0.3688E-03  0.5562E-01  0.5497E-01
     -2.720  0.3561E-02 -0.4563E-04  0.5578E-01  0.5497E-01
     -2.675  0.3423E-02  0.5725E-03  0.5594E-01  0.5500E-01
     -2.630  0.3825E-02  0.1485E-02  0.5611E-01  0.5506E-01
     -2.584  0.4882E-02  0.2557E-02  0.5633E-01  0.5518E-01
     -2.539  0.6258E-02  0.3547E-02  0.5662E-01  0.5534E-01
     -2.493  0.7322E-02  0.4239E-02  0.5695E-01  0.5553E-01
     -2.448  0.7496E-02  0.4580E-02  0.5729E-01  0.5574E-01
     -2.403  0.6584E-02  0.4709E-02  0.5759E-01  0.5595E-01
     -2.357  0.4869E-02  0.4842E-02  0.5781E-01  0.5617E-01
     -2.312  0.2961E-02  0.5113E-02  0.5794E-01  0.5641E-01
     -2.267  0.1505E-02  0.5491E-02  0.5801E-01  0.5666E-01
     -2.221  0.9124E-03  0.5814E-02  0.5805E-01  0.5692E-01
     -2.176  0.1237E-02  0.5877E-02  0.5811E-01  0.5719E-01
     -2.130  0.2184E-02  0.5524E-02  0.5821E-01  0.5744E-01
     -2.085  0.3245E-02  0.4715E-02  0.5836E-01  0.5765E-01
     -2.040  0.3905E-02  0.3580E-02  0.5853E-01  0.5781E-01
     -1.994  0.3857E-02  0.2423E-02  0.5871E-01  0.5792E-01
     -1.949  0.3116E-02  0.1626E-02  0.5885E-01  0.5800E-01
     -1.903  0.1983E-02  0.1473E-02  0.5894E-01  0.5806E-01
     -1.858  0.8845E-03  0.1981E-02  0.5898E-01  0.5815E-01
     -1.813  0.1988E-03  0.2854E-02  0.5899E-01  0.5828E-01
     -1.767  0.1523E-03  0.3609E-02  0.5900E-01  0.5845E-01
     -1.722  0.7932E-03  0.3828E-02  0.5903E-01  0.5862E-01
     -1.677  0.2005E-02  0.3380E-02  0.5912E-01  0.5877E-01
     -1.631  0.3534E-02  0.2493E-02  0.5928E-01  0.5889E-01
     -1.586  0.5041E-02  0.1627E-02  0.5951E-01  0.5896E-01
     -1.540  0.6183E-02  0.1229E-02  0.5979E-01  0.5902E-01
     -1.495  0.6699E-02  0.1511E-02  0.6010E-01  0.5909E-01
     -1.450  0.6477E-02  0.2375E-02  0.6039E-01  0.5919E-01
     -1.404  0.5577E-02  0.3505E-02  0.6064E-01  0.5935E-01
     -1.359  0.4214E-02  0.4551E-02  0.6083E-01  0.5956E-01
     -1.313  0.2697E-02  0.5284E-02  0.6096E-01  0.5980E-01
     -1.268  0.1326E-02  0.5625E-02  0.6102E-01  0.6005E-01
     -1.223  0.3048E-03  0.5571E-02  0.6103E-01  0.6031E-01
     -1.177 -0.3003E-03  0.5119E-02  0.6102E-01  0.6054E-01
     -1.132 -0.5102E-03  0.4271E-02  0.6099E-01  0.6073E-01
     -1.087 -0.3574E-03  0.3113E-02  0.6098E-01  0.6087E-01
     -1.041  0.1533E-03  0.1856E-02  0.6099E-01  0.6096E-01
     -0.996  0.1010E-02  0.7948E-03  0.6103E-01  0.6099E-01
     -0.950  0.2123E-02  0.2053E-03  0.6113E-01  0.6100E-01
     -0.905  0.3296E-02  0.2412E-03  0.6128E-01  0.6101E-01
     -0.860  0.4289E-02  0.8772E-03  0.6147E-01  0.6105E-01
     -0.814  0.4931E-02  0.1901E-02  0.6170E-01  0.6114E-01
     -0.769  0.5184E-02  0.2970E-02  0.6193E-01  0.6128E-01
     -0.723  0.5134E-02  0.3747E-02  0.6216E-01  0.6145E-01
     -0.678  0.4939E-02  0.4063E-02  0.6239E-01  0.6163E-01
     -0.633  0.4806E-02  0.4019E-02  0.6261E-01  0.6181E-01
     -0.587  0.4974E-02  0.3920E-02  0.6283E-01  0.6199E-01
     -0.542  0.5610E-02  0.4100E-02  0.6309E-01  0.6218E-01
     -0.497  0.6651E-02  0.4753E-02  0.6339E-01  0.6239E-01
     -0.451  0.7711E-02  0.5863E-02  0.6374E-01  0.6266E-01
     -0.406  0.8215E-02  0.7226E-02  0.6411E-01  0.6299E-01
     -0.360  0.7730E-02  0.8489E-02  0.6446E-01  0.6337E-01
     -0.315  0.6250E-02  0.9216E-02  0.6475E-01  0.6379E-01
     -0.270  0.4204E-02  0.9033E-02  0.6494E-01  0.6420E-01
     -0.224  0.2202E-02  0.7822E-02  0.6504E-01  0.6455E-01
     -0.179  0.7086E-03  0.5832E-02  0.6507E-01  0.6482E-01
     -0.133 -0.1260E-03  0.3593E-02  0.6506E-01  0.6498E-01
     -0.088 -0.4205E-03  0.1655E-02  0.6504E-01  0.6506E-01
     -0.043 -0.4045E-03  0.3498E-03  0.6503E-01  0.6507E-01
      0.003 -0.2784E-03 -0.2947E-03  0.6501E-01  0.6506E-01
      0.048 -0.1557E-03 -0.4613E-03  0.6501E-01  0.6504E-01
      0.093 -0.7395E-04 -0.3861E-03  0.6500E-01  0.6502E-01
      0.139 -0.3048E-04 -0.2467E-03  0.6500E-01  0.6501E-01
      0.184 -0.1102E-04 -0.1307E-03  0.6500E-01  0.6500E-01
      0.230 -0.3525E-05 -0.5938E-04  0.6500E-01  0.6500E-01
      0.275 -0.1001E-05 -0.2350E-04  0.6500E-01  0.6500E-01
      0.320 -0.2533E-06 -0.8188E-05  0.6500E-01  0.6500E-01
      0.366 -0.5727E-07 -0.2525E-05  0.6500E-01  0.6500E-01
      0.411 -0.1159E-07 -0.6925E-06  0.6500E-01  0.6500E-01
      0.457 -0.2100E-08 -0.1693E-06  0.6500E-01  0.6500E-01
      0.502 -0.3415E-09 -0.3700E-07  0.6500E-01  0.6500E-01
      0.547 -0.4985E-10 -0.7238E-08  0.6500E-01  0.6500E-01
      0.593 -0.6538E-11 -0.1269E-08  0.6500E-01  0.6500E-01
      0.638 -0.7708E-12 -0.1996E-09  0.6500E-01  0.6500E-01
      0.683 -0.8171E-13 -0.2818E-10  0.6500E-01  0.6500E-01
      0.729 -0.7794E-14 -0.3575E-11  0.6500E-01  0.6500E-01
      0.774 -0.6654E-15 -0.4078E-12  0.6500E-01  0.6500E-01
      0.820 -0.5382E-16 -0.4183E-13  0.6500E-01  0.6500E-01
      0.865 -0.4892E-17 -0.3860E-14  0.6500E-01  0.6500E-01
      0.910  0.0000E+00 -0.3180E-15  0.6500E-01  0.6500E-01
      0.956  0.0000E+00 -0.2935E-16  0.6500E-01  0.6500E-01
      1.001  0.0000E+00  0.0000E+00  0.6500E-01  0.6500E-01
      1.047  0.0000E+00  0.0000E+00  0.6500E-01  0.6500E-01
      1.092  0.0000E+00  0.0000E+00  0.6500E-01  0.6500E-01
      1.137  0.0000E+00  0.0000E+00  0.6500E-01  0.6500E-01
      1.183  0.0000E+00  0.0000E+00  0.6500E-01  0.6500E-01
      1.228  0.0000E+00  0.0000E+00  0.6500E-01  0.6500E-01
      1.273  0.0000E+00  0.0000E+00  0.6500E-01  0.6500E-01
      1.319  0.0000E+00  0.0000E+00  0.6500E-01  0.6500E-01
      1.364  0.0000E+00  0.0000E+00  0.6500E-01  0.6500E-01
      1.410  0.0000E+00  0.0000E+00  0.6500E-01  0.6500E-01
      1.455  0.0000E+00  0.0000E+00  0.6500E-01  0.6500E-01
      1.500  0.0000E+00  0.0000E+00  0.6500E-01  0.6500E-01
      1.546  0.0000E+00  0.0000E+00  0.6500E-01  0.6500E-01
      1.591  0.0000E+00  0.0000E+00  0.6500E-01  0.6500E-01
      1.637  0.0000E+00  0.0000E+00  0.6500E-01  0.6500E-01
      1.682  0.0000E+00  0.0000E+00  0.6500E-01  0.6500E-01
      1.727  0.0000E+00  0.0000E+00  0.6500E-01  0.6500E-01
