   10   10 1000    2
  0.1338806E+04  0.2252320E-08  0.2474615E-08  0.2402038E-08  0.5000000E-15
   1.0000000000000000E-004
  CAR 
 unknown system                          
    100      1     65
 
  0.1262379E-14  0.1262379E-14  0.1262379E-14  0.1000000E+01
    1       -9.888160     -9.807122   1.000000   1.000000
    2       -8.602549     -8.284885   1.000000   1.000000
    3       -8.372775     -7.978401   1.000000   1.000000
    4       -8.051997     -7.560747   1.000000   1.000000
    5       -7.875559     -7.278011   1.000000   1.000000
    6       -7.798167     -7.254765   1.000000   1.000000
    7       -7.618137     -6.940242   1.000000   1.000000
    8       -7.549678     -6.860669   1.000000   1.000000
    9       -7.364793     -6.718791   1.000000   1.000000
   10       -7.235428     -6.647053   1.000000   1.000000
   11       -7.162233     -6.552930   1.000000   1.000000
   12       -7.103462     -6.471360   1.000000   1.000000
   13       -7.069225     -6.447764   1.000000   1.000000
   14       -7.021723     -6.363702   1.000000   1.000000
   15       -6.915236     -6.303222   1.000000   1.000000
   16       -6.900266     -6.210366   1.000000   1.000000
   17       -6.883001     -6.159601   1.000000   1.000000
   18       -6.662016     -6.001603   1.000000   1.000000
   19       -6.512833     -5.974396   1.000000   1.000000
   20       -6.473253     -5.929932   1.000000   1.000000
   21       -6.317641     -5.723058   1.000000   1.000000
   22       -6.125030     -5.704241   1.000000   1.000000
   23       -6.072988     -5.628387   1.000000   1.000000
   24       -6.004621     -5.565393   1.000000   1.000000
   25       -5.965129     -5.457881   1.000000   1.000000
   26       -5.916331     -5.348050   1.000000   1.000000
   27       -5.855310     -5.250608   1.000000   1.000000
   28       -5.772384     -5.208189   1.000000   1.000000
   29       -5.741180     -5.157427   1.000000   1.000000
   30       -5.685442     -5.064422   1.000000   1.000000
   31       -5.644745     -5.017603   1.000000   1.000000
   32       -5.563236     -4.979295   1.000000   1.000000
   33       -5.479909     -4.958694   1.000000   1.000000
   34       -5.464424     -4.914085   1.000000   1.000000
   35       -5.434768     -4.866945   1.000000   1.000002
   36       -5.422458     -4.756406   1.000000   1.000055
   37       -5.375439     -4.727385   1.000000   1.000124
   38       -5.350163     -4.629929   1.000000   1.001377
   39       -5.318971     -4.589029   1.000000   1.003206
   40       -5.237763     -4.549949   1.000000   1.006532
   41       -5.226124     -4.458583   1.000000   1.022874
   42       -5.160571     -4.437246   1.000000   1.027764
   43       -5.129366     -4.423106   1.000000   1.030753
   44       -5.107138     -4.355048   1.000000   1.031931
   45       -5.078538     -4.210045   1.000000   0.784872
   46       -5.050815     -4.194935   1.000000   0.731348
   47       -5.012977     -4.110026   1.000000   0.383926
   48       -4.941705     -4.012436   1.000000   0.068416
   49       -4.901961     -4.000468   1.000000   0.044959
   50       -4.890226     -3.943728   1.000001  -0.021741
   51       -4.829208     -3.930653   1.000006  -0.028429
   52       -4.737520     -3.850898   1.000094  -0.030455
   53       -4.673465     -3.738731   1.000503  -0.008122
   54       -4.276614     -3.736699   0.957873  -0.007860
   55       -3.458823     -3.159631  -0.000009  -0.000000
   56       -2.809232     -2.510467  -0.000000  -0.000000
   57       -2.524560     -2.288962  -0.000000  -0.000000
   58       -2.444382     -2.118266  -0.000000  -0.000000
   59       -2.046038     -1.752804  -0.000000  -0.000000
   60       -1.582073     -1.372760  -0.000000  -0.000000
   61       -1.436493     -1.181818  -0.000000  -0.000000
   62       -0.860021     -0.720512  -0.000000  -0.000000
   63       -0.664218     -0.475326  -0.000000  -0.000000
   64       -0.434022     -0.307101  -0.000000  -0.000000
   65       -0.395103     -0.272692  -0.000000  -0.000000
