       N       E                     dE             d eps       ncg     rms          rms(c)
DAV:   1     0.712563526596E+03    0.71256E+03   -0.15263E+04   268   0.686E+02
DAV:   2     0.269312452753E+03   -0.44325E+03   -0.40762E+03   472   0.108E+02
DAV:   3     0.354603572467E+02   -0.23385E+03   -0.21797E+03   360   0.122E+02
DAV:   4    -0.344439847466E+02   -0.69904E+02   -0.60700E+02   408   0.627E+01
DAV:   5    -0.434847705530E+02   -0.90408E+01   -0.85915E+01   343   0.291E+01    0.259E+01
DAV:   6    -0.580470570567E+02   -0.14562E+02   -0.10134E+02   302   0.162E+02    0.538E+01
DAV:   7    -0.394573765862E+02    0.18590E+02   -0.63504E+01   318   0.742E+01    0.291E+01
DAV:   8    -0.383950365138E+02    0.10623E+01   -0.23227E+01   318   0.744E+01    0.301E+01
DAV:   9    -0.405485325855E+02   -0.21535E+01   -0.25237E+01   343   0.703E+01    0.455E+01
DAV:  10    -0.374823676895E+02    0.30662E+01   -0.34046E+01   344   0.515E+01    0.307E+01
DAV:  11    -0.357032750376E+02    0.17791E+01   -0.10394E+01   359   0.360E+01    0.185E+01
DAV:  12    -0.357939169988E+02   -0.90642E-01   -0.66370E+00   343   0.351E+01    0.258E+01
DAV:  13    -0.352218965473E+02    0.57202E+00   -0.65791E+00   320   0.297E+01    0.218E+01
DAV:  14    -0.351694711004E+02    0.52425E-01   -0.37021E+00   375   0.180E+01    0.207E+01
DAV:  15    -0.348162033426E+02    0.35327E+00   -0.20012E+00   366   0.177E+01    0.122E+01
DAV:  16    -0.348935072383E+02   -0.77304E-01   -0.63519E-01   374   0.109E+01    0.856E+00
DAV:  17    -0.349812471714E+02   -0.87740E-01   -0.20189E-01   357   0.480E+00    0.598E+00
DAV:  18    -0.353802648347E+02   -0.39902E+00   -0.28175E-01   309   0.667E+00    0.487E+00
DAV:  19    -0.358117387254E+02   -0.43147E+00   -0.16359E-01   342   0.384E+00    0.407E+00
DAV:  20    -0.362344195675E+02   -0.42268E+00   -0.15873E-01   357   0.407E+00    0.171E+00
DAV:  21    -0.364763503744E+02   -0.24193E+00   -0.45117E-02   293   0.187E+00    0.161E+00
DAV:  22    -0.367124541828E+02   -0.23610E+00   -0.24715E-02   342   0.168E+00    0.120E+00
DAV:  23    -0.368577952947E+02   -0.14534E+00   -0.10266E-02   333   0.891E-01    0.819E-01
DAV:  24    -0.369919898094E+02   -0.13419E+00   -0.53660E-03   332   0.874E-01    0.526E-01
DAV:  25    -0.371027465164E+02   -0.11076E+00   -0.38187E-03   341   0.483E-01    0.322E-01
DAV:  26    -0.371788308070E+02   -0.76084E-01   -0.15737E-03   269   0.341E-01    0.200E-01
DAV:  27    -0.372457152812E+02   -0.66884E-01   -0.10338E-03   245   0.190E-01    0.160E-01
DAV:  28    -0.373088616062E+02   -0.63146E-01   -0.87564E-04   237   0.228E-01    0.965E-02
DAV:  29    -0.373522290678E+02   -0.43367E-01   -0.69736E-04   229   0.158E-01    0.104E-01
DAV:  30    -0.373819921126E+02   -0.29763E-01   -0.36354E-04   222   0.117E-01    0.667E-02
DAV:  31    -0.374104338812E+02   -0.28442E-01   -0.32409E-04   205   0.914E-02    0.523E-02
DAV:  32    -0.374313660780E+02   -0.20932E-01   -0.30891E-04   214   0.912E-02    0.418E-02
DAV:  33    -0.374475556754E+02   -0.16190E-01   -0.23802E-04   213   0.740E-02    0.363E-02
DAV:  34    -0.374597981648E+02   -0.12242E-01   -0.28102E-04   222   0.609E-02    0.499E-02
DAV:  35    -0.374657881016E+02   -0.59899E-02   -0.11390E-04   192   0.512E-02    0.268E-02
DAV:  36    -0.374688372597E+02   -0.30492E-02   -0.57137E-05   172   0.325E-02    0.182E-02
DAV:  37    -0.374706897766E+02   -0.18525E-02   -0.32705E-05   183   0.274E-02    0.133E-02
DAV:  38    -0.374724299724E+02   -0.17402E-02   -0.36140E-05   173   0.253E-02    0.104E-02
DAV:  39    -0.374736626615E+02   -0.12327E-02   -0.29522E-05   174   0.261E-02    0.105E-02
DAV:  40    -0.374745885261E+02   -0.92586E-03   -0.29730E-05   181   0.200E-02    0.874E-03
DAV:  41    -0.374750673961E+02   -0.47887E-03   -0.15932E-05   167   0.146E-02    0.515E-03
DAV:  42    -0.374754803573E+02   -0.41296E-03   -0.11003E-05   165   0.113E-02    0.467E-03
DAV:  43    -0.374757165899E+02   -0.23623E-03   -0.68709E-06   174   0.869E-03    0.375E-03
DAV:  44    -0.374759892521E+02   -0.27266E-03   -0.66532E-06   165   0.793E-03    0.477E-03
DAV:  45    -0.374761935950E+02   -0.20434E-03   -0.57955E-06   166   0.893E-03    0.321E-03
DAV:  46    -0.374763602116E+02   -0.16662E-03   -0.50343E-06   165   0.788E-03    0.248E-03
DAV:  47    -0.374764786254E+02   -0.11841E-03   -0.38916E-06   166   0.667E-03    0.250E-03
DAV:  48    -0.374765652033E+02   -0.86578E-04   -0.31478E-06   165   0.609E-03
   1 F= -.37476565E+02 E0= -.37482665E+02  d E =-.374766E+02  mag=     7.9366
       N       E                     dE             d eps       ncg     rms          rms(c)
DAV:   1    -0.375512472178E+02   -0.74769E-01   -0.57469E+01   260   0.280E+01    0.284E+00
DAV:   2    -0.381862813904E+02   -0.63503E+00   -0.32923E+00   374   0.241E+01    0.146E+01
DAV:   3    -0.375993403088E+02    0.58694E+00   -0.19059E+00   334   0.233E+01    0.482E+00
DAV:   4    -0.376548358162E+02   -0.55496E-01   -0.43951E-01   382   0.108E+01    0.423E+00
DAV:   5    -0.376564698590E+02   -0.16340E-02   -0.26089E-01   366   0.832E+00    0.315E+00
DAV:   6    -0.376345140920E+02    0.21956E-01   -0.87414E-02   358   0.455E+00    0.132E+00
DAV:   7    -0.376391714952E+02   -0.46574E-02   -0.38023E-02   342   0.288E+00    0.142E+00
DAV:   8    -0.376418052638E+02   -0.26338E-02   -0.23843E-02   374   0.219E+00    0.109E+00
DAV:   9    -0.376457373332E+02   -0.39321E-02   -0.30949E-02   334   0.292E+00    0.169E+00
DAV:  10    -0.376435786397E+02    0.21587E-02   -0.35103E-02   358   0.266E+00    0.146E+00
DAV:  11    -0.376430818090E+02    0.49683E-03   -0.23302E-02   366   0.198E+00    0.652E-01
DAV:  12    -0.376445958831E+02   -0.15141E-02   -0.32051E-03   349   0.814E-01    0.268E-01
DAV:  13    -0.376454175912E+02   -0.82171E-03   -0.97949E-04   245   0.456E-01    0.143E-01
DAV:  14    -0.376460856884E+02   -0.66810E-03   -0.26899E-04   174   0.232E-01    0.598E-02
DAV:  15    -0.376466170556E+02   -0.53137E-03   -0.97984E-05   166   0.713E-02    0.397E-02
DAV:  16    -0.376470211442E+02   -0.40409E-03   -0.38050E-05   174   0.507E-02    0.237E-02
DAV:  17    -0.376474425785E+02   -0.42143E-03   -0.22009E-05   166   0.329E-02    0.132E-02
DAV:  18    -0.376477872571E+02   -0.34468E-03   -0.13281E-05   174   0.343E-02    0.209E-02
DAV:  19    -0.376480280846E+02   -0.24083E-03   -0.10318E-05   166   0.322E-02    0.835E-03
DAV:  20    -0.376482701005E+02   -0.24202E-03   -0.79543E-06   174   0.163E-02    0.575E-03
DAV:  21    -0.376484333530E+02   -0.16325E-03   -0.43639E-06   167   0.126E-02    0.524E-03
DAV:  22    -0.376485480909E+02   -0.11474E-03   -0.25543E-06   166   0.874E-03    0.380E-03
DAV:  23    -0.376486910952E+02   -0.14300E-03   -0.20872E-06   166   0.686E-03    0.253E-03
DAV:  24    -0.376488051484E+02   -0.11405E-03   -0.15793E-06   166   0.568E-03    0.181E-03
DAV:  25    -0.376488995001E+02   -0.94352E-04   -0.11755E-06   166   0.474E-03
   2 F= -.37648900E+02 E0= -.37649970E+02  d E =-.172334E+00  mag=     7.9024
       N       E                     dE             d eps       ncg     rms          rms(c)
DAV:   1    -0.376200155380E+02    0.28790E-01   -0.42133E+01   260   0.239E+01    0.231E+00
DAV:   2    -0.380314642833E+02   -0.41145E+00   -0.22198E+00   382   0.194E+01    0.120E+01
DAV:   3    -0.376512526598E+02    0.38021E+00   -0.12233E+00   334   0.190E+01    0.363E+00
DAV:   4    -0.377063714043E+02   -0.55119E-01   -0.32655E-01   382   0.843E+00    0.392E+00
DAV:   5    -0.376964299477E+02    0.99415E-02   -0.22947E-01   342   0.700E+00    0.268E+00
DAV:   6    -0.376870378542E+02    0.93921E-02   -0.81156E-02   350   0.419E+00    0.182E+00
DAV:   7    -0.376840812965E+02    0.29566E-02   -0.31454E-02   350   0.256E+00    0.822E-01
DAV:   8    -0.376907344829E+02   -0.66532E-02   -0.14852E-02   374   0.180E+00    0.129E+00
DAV:   9    -0.376895084429E+02    0.12260E-02   -0.21933E-02   326   0.256E+00    0.125E+00
DAV:  10    -0.376880511973E+02    0.14572E-02   -0.15550E-02   382   0.182E+00    0.435E-01
DAV:  11    -0.376916969376E+02   -0.36457E-02   -0.96646E-03   350   0.164E+00    0.856E-01
DAV:  12    -0.376897496535E+02    0.19473E-02   -0.42267E-03   326   0.118E+00    0.265E-01
DAV:  13    -0.376909050971E+02   -0.11554E-02   -0.76064E-04   204   0.392E-01    0.961E-02
DAV:  14    -0.376914925734E+02   -0.58748E-03   -0.20012E-04   174   0.185E-01    0.378E-02
DAV:  15    -0.376918149677E+02   -0.32239E-03   -0.73181E-05   176   0.632E-02    0.270E-02
DAV:  16    -0.376920724729E+02   -0.25751E-03   -0.26368E-05   165   0.389E-02    0.230E-02
DAV:  17    -0.376923989118E+02   -0.32644E-03   -0.16172E-05   174   0.415E-02    0.147E-02
DAV:  18    -0.376926545015E+02   -0.25559E-03   -0.11771E-05   174   0.335E-02    0.116E-02
DAV:  19    -0.376928441253E+02   -0.18962E-03   -0.77294E-06   166   0.188E-02    0.617E-03
DAV:  20    -0.376929792478E+02   -0.13512E-03   -0.46907E-06   174   0.103E-02    0.363E-03
DAV:  21    -0.376930981218E+02   -0.11887E-03   -0.24085E-06   166   0.925E-03    0.417E-03
DAV:  22    -0.376931967344E+02   -0.98613E-04   -0.16816E-06   166   0.662E-03
   3 F= -.37693197E+02 E0= -.37689740E+02  d E =-.216632E+00  mag=     7.8776
       N       E                     dE             d eps       ncg     rms          rms(c)
DAV:   1    -0.377007989989E+02   -0.77009E-02   -0.17098E+01   260   0.151E+01    0.168E+00
DAV:   2    -0.380430571438E+02   -0.34226E+00   -0.12610E+00   366   0.167E+01    0.127E+01
DAV:   3    -0.376757520326E+02    0.36731E+00   -0.10904E+00   334   0.153E+01    0.258E+00
DAV:   4    -0.377388058058E+02   -0.63054E-01   -0.25052E-01   374   0.649E+00    0.339E+00
DAV:   5    -0.377238945407E+02    0.14911E-01   -0.10148E-01   358   0.476E+00    0.948E-01
DAV:   6    -0.377271479661E+02   -0.32534E-02   -0.19003E-02   366   0.225E+00    0.805E-01
DAV:   7    -0.377269673429E+02    0.18062E-03   -0.10789E-02   350   0.174E+00    0.562E-01
DAV:   8    -0.377277735581E+02   -0.80622E-03   -0.62807E-03   374   0.109E+00    0.584E-01
DAV:   9    -0.377284982753E+02   -0.72472E-03   -0.60899E-03   342   0.126E+00    0.681E-01
DAV:  10    -0.377273235008E+02    0.11748E-02   -0.35625E-03   326   0.937E-01    0.283E-01
DAV:  11    -0.377286767151E+02   -0.13532E-02   -0.29695E-03   342   0.793E-01    0.515E-01
DAV:  12    -0.377280828744E+02    0.59384E-03   -0.20599E-03   302   0.740E-01    0.218E-01
DAV:  13    -0.377283339292E+02   -0.25105E-03   -0.34205E-04   182   0.281E-01    0.594E-02
DAV:  14    -0.377285435385E+02   -0.20961E-03   -0.99283E-05   184   0.104E-01    0.257E-02
DAV:  15    -0.377286652303E+02   -0.12169E-03   -0.30217E-05   168   0.452E-02    0.222E-02
DAV:  16    -0.377287832309E+02   -0.11800E-03   -0.17438E-05   175   0.336E-02    0.192E-02
DAV:  17    -0.377288947381E+02   -0.11151E-03   -0.80811E-06   168   0.273E-02    0.145E-02
DAV:  18    -0.377289986323E+02   -0.10389E-03   -0.74126E-06   175   0.222E-02    0.951E-03
DAV:  19    -0.377290797085E+02   -0.81076E-04   -0.39149E-06   168   0.163E-02
   4 F= -.37729080E+02 E0= -.37727309E+02  d E =-.358830E-01  mag=     7.8872
       N       E                     dE             d eps       ncg     rms          rms(c)
DAV:   1    -0.377196742428E+02    0.93244E-02   -0.10820E+01   260   0.120E+01    0.130E+00
DAV:   2    -0.379171468632E+02   -0.19747E+00   -0.74881E-01   366   0.127E+01    0.978E+00
DAV:   3    -0.377012782085E+02    0.21587E+00   -0.59235E-01   334   0.118E+01    0.179E+00
DAV:   4    -0.377447093516E+02   -0.43431E-01   -0.14426E-01   374   0.506E+00    0.273E+00
DAV:   5    -0.377336446268E+02    0.11065E-01   -0.64805E-02   358   0.381E+00    0.748E-01
DAV:   6    -0.377361293419E+02   -0.24847E-02   -0.12501E-02   358   0.186E+00    0.682E-01
DAV:   7    -0.377356493829E+02    0.47996E-03   -0.63113E-03   335   0.138E+00    0.364E-01
DAV:   8    -0.377363067858E+02   -0.65740E-03   -0.25271E-03   342   0.727E-01    0.349E-01
DAV:   9    -0.377368578380E+02   -0.55105E-03   -0.37380E-03   326   0.842E-01    0.616E-01
DAV:  10    -0.377359288448E+02    0.92899E-03   -0.30422E-03   302   0.847E-01    0.233E-01
DAV:  11    -0.377365506470E+02   -0.62180E-03   -0.90902E-04   222   0.438E-01    0.214E-01
DAV:  12    -0.377365766279E+02   -0.25981E-04   -0.47038E-04   184   0.367E-01
   5 F= -.37736577E+02 E0= -.37736131E+02  d E =-.433799E-01  mag=     7.8971
       N       E                     dE             d eps       ncg     rms          rms(c)
DAV:   1    -0.377343808321E+02    0.21698E-02   -0.98982E+00   260   0.118E+01    0.108E+00
DAV:   2    -0.378160246898E+02   -0.81644E-01   -0.34772E-01   398   0.783E+00    0.650E+00
DAV:   3    -0.377338214951E+02    0.82203E-01   -0.31606E-01   310   0.834E+00    0.148E+00
DAV:   4    -0.377647964471E+02   -0.30975E-01   -0.99187E-02   374   0.457E+00    0.262E+00
DAV:   5    -0.377490498253E+02    0.15747E-01   -0.46762E-02   310   0.373E+00    0.746E-01
DAV:   6    -0.377512765458E+02   -0.22267E-02   -0.97731E-03   382   0.157E+00    0.517E-01
DAV:   7    -0.377519663312E+02   -0.68979E-03   -0.56289E-03   342   0.123E+00    0.425E-01
DAV:   8    -0.377529921748E+02   -0.10258E-02   -0.35634E-03   358   0.895E-01    0.588E-01
DAV:   9    -0.377529749324E+02    0.17242E-04   -0.41875E-03   334   0.968E-01    0.592E-01
DAV:  10    -0.377523421675E+02    0.63276E-03   -0.31240E-03   326   0.810E-01    0.166E-01
DAV:  11    -0.377529297964E+02   -0.58763E-03   -0.70180E-04   206   0.390E-01    0.249E-01
DAV:  12    -0.377527610528E+02    0.16874E-03   -0.49955E-04   175   0.386E-01    0.119E-01
DAV:  13    -0.377528678176E+02   -0.10676E-03   -0.15319E-04   182   0.183E-01    0.492E-02
DAV:  14    -0.377529572389E+02   -0.89421E-04   -0.47963E-05   167   0.888E-02
   6 F= -.37752957E+02 E0= -.37755663E+02  d E =-.163806E-01  mag=     7.9084
       N       E                     dE             d eps       ncg     rms          rms(c)
DAV:   1    -0.377496929792E+02    0.31748E-02   -0.31593E+00   260   0.664E+00    0.604E-01
DAV:   2    -0.377731356808E+02   -0.23443E-01   -0.11038E-01   390   0.433E+00    0.346E+00
DAV:   3    -0.377484418769E+02    0.24694E-01   -0.83881E-02   318   0.463E+00    0.738E-01
DAV:   4    -0.377584490957E+02   -0.10007E-01   -0.24960E-02   389   0.232E+00    0.130E+00
DAV:   5    -0.377540422862E+02    0.44068E-02   -0.12967E-02   326   0.194E+00    0.375E-01
DAV:   6    -0.377549243902E+02   -0.88210E-03   -0.27870E-03   342   0.818E-01    0.286E-01
DAV:   7    -0.377552292084E+02   -0.30482E-03   -0.18162E-03   302   0.682E-01    0.252E-01
DAV:   8    -0.377556769187E+02   -0.44771E-03   -0.11471E-03   285   0.521E-01    0.360E-01
DAV:   9    -0.377556191991E+02    0.57720E-04   -0.11711E-03   254   0.544E-01    0.320E-01
DAV:  10    -0.377555418886E+02    0.77310E-04   -0.85616E-04   197   0.450E-01
   7 F= -.37755542E+02 E0= -.37760048E+02  d E =-.189653E-01  mag=     7.9148
       N       E                     dE             d eps       ncg     rms          rms(c)
DAV:   1    -0.377544667651E+02    0.11524E-02   -0.46077E+00   260   0.764E+00    0.545E-01
DAV:   2    -0.377653316574E+02   -0.10865E-01   -0.99422E-02   390   0.310E+00    0.190E+00
DAV:   3    -0.377605571002E+02    0.47746E-02   -0.53618E-02   294   0.360E+00    0.105E+00
DAV:   4    -0.377632176046E+02   -0.26605E-02   -0.18919E-02   374   0.185E+00    0.785E-01
DAV:   5    -0.377620305059E+02    0.11871E-02   -0.92442E-03   342   0.149E+00    0.403E-01
DAV:   6    -0.377623111428E+02   -0.28064E-03   -0.28914E-03   349   0.840E-01    0.254E-01
DAV:   7    -0.377626060823E+02   -0.29494E-03   -0.17558E-03   278   0.656E-01    0.315E-01
DAV:   8    -0.377627300215E+02   -0.12394E-03   -0.10436E-03   262   0.555E-01    0.226E-01
DAV:   9    -0.377630398452E+02   -0.30982E-03   -0.95695E-04   254   0.572E-01    0.273E-01
DAV:  10    -0.377629728733E+02    0.66972E-04   -0.78894E-04   230   0.505E-01
   8 F= -.37762973E+02 E0= -.37768282E+02  d E =-.743098E-02  mag=     7.9195
       N       E                     dE             d eps       ncg     rms          rms(c)
DAV:   1    -0.377467145188E+02    0.16325E-01   -0.11198E+01   260   0.119E+01    0.858E-01
DAV:   2    -0.377730903458E+02   -0.26376E-01   -0.23373E-01   390   0.473E+00    0.272E+00
DAV:   3    -0.377651128415E+02    0.79775E-02   -0.13582E-01   302   0.590E+00    0.168E+00
DAV:   4    -0.377675025198E+02   -0.23897E-02   -0.41716E-02   358   0.281E+00    0.110E+00
DAV:   5    -0.377653208621E+02    0.21817E-02   -0.18425E-02   342   0.211E+00    0.657E-01
DAV:   6    -0.377656824570E+02   -0.36159E-03   -0.66943E-03   342   0.130E+00    0.375E-01
DAV:   7    -0.377663811731E+02   -0.69872E-03   -0.43895E-03   342   0.995E-01    0.484E-01
DAV:   8    -0.377664346820E+02   -0.53509E-04   -0.26498E-03   358   0.870E-01    0.315E-01
DAV:   9    -0.377670499408E+02   -0.61526E-03   -0.23864E-03   334   0.832E-01    0.414E-01
DAV:  10    -0.377667236268E+02    0.32631E-03   -0.21871E-03   318   0.822E-01    0.175E-01
DAV:  11    -0.377672525295E+02   -0.52890E-03   -0.10925E-03   246   0.531E-01    0.347E-01
DAV:  12    -0.377668976092E+02    0.35492E-03   -0.75273E-04   197   0.458E-01    0.117E-01
DAV:  13    -0.377670819813E+02   -0.18437E-03   -0.12341E-04   182   0.166E-01    0.293E-02
DAV:  14    -0.377671690229E+02   -0.87042E-04   -0.45461E-05   166   0.731E-02
   9 F= -.37767169E+02 E0= -.37773697E+02  d E =-.116271E-01  mag=     7.9234
       N       E                     dE             d eps       ncg     rms          rms(c)
DAV:   1    -0.377601388932E+02    0.69431E-02   -0.61377E+00   260   0.857E+00    0.565E-01
DAV:   2    -0.377758600934E+02   -0.15721E-01   -0.13665E-01   390   0.348E+00    0.212E+00
DAV:   3    -0.377678793534E+02    0.79807E-02   -0.64373E-02   294   0.401E+00    0.926E-01
DAV:   4    -0.377718983382E+02   -0.40190E-02   -0.18152E-02   374   0.185E+00    0.914E-01
DAV:   5    -0.377699202244E+02    0.19781E-02   -0.91137E-03   326   0.150E+00    0.275E-01
DAV:   6    -0.377706264146E+02   -0.70619E-03   -0.13869E-03   350   0.570E-01    0.208E-01
DAV:   7    -0.377709669275E+02   -0.34051E-03   -0.13751E-03   287   0.692E-01    0.349E-01
DAV:   8    -0.377710554259E+02   -0.88498E-04   -0.14827E-03   286   0.604E-01    0.305E-01
DAV:   9    -0.377710515981E+02    0.38278E-05   -0.10724E-03   264   0.579E-01    0.213E-01
DAV:  10    -0.377710800934E+02   -0.28495E-04   -0.61427E-04   200   0.403E-01
  10 F= -.37771080E+02 E0= -.37777745E+02  d E =-.391107E-02  mag=     7.9244
       N       E                     dE             d eps       ncg     rms          rms(c)
DAV:   1    -0.377692871761E+02    0.17644E-02   -0.12753E+00   260   0.391E+00    0.314E-01
DAV:   2    -0.377766184069E+02   -0.73312E-02   -0.42917E-02   390   0.258E+00    0.176E+00
DAV:   3    -0.377683458930E+02    0.82725E-02   -0.27232E-02   326   0.270E+00    0.335E-01
DAV:   4    -0.377717406204E+02   -0.33947E-02   -0.60578E-03   373   0.103E+00    0.532E-01
DAV:   5    -0.377710141781E+02    0.72644E-03   -0.31058E-03   310   0.876E-01    0.158E-01
DAV:   6    -0.377712868437E+02   -0.27267E-03   -0.61889E-04   198   0.375E-01    0.172E-01
DAV:   7    -0.377712934475E+02   -0.66038E-05   -0.44759E-04   175   0.352E-01
  11 F= -.37771293E+02 E0= -.37778401E+02  d E =-.412442E-02  mag=     7.9245
       N       E                     dE             d eps       ncg     rms          rms(c)
DAV:   1    -0.377619596210E+02    0.93272E-02   -0.68883E+00   260   0.918E+00    0.620E-01
DAV:   2    -0.377803895030E+02   -0.18430E-01   -0.15393E-01   390   0.350E+00    0.225E+00
DAV:   3    -0.377723368687E+02    0.80526E-02   -0.10161E-01   294   0.447E+00    0.121E+00
DAV:   4    -0.377743713838E+02   -0.20345E-02   -0.18487E-02   366   0.215E+00    0.669E-01
DAV:   5    -0.377733683326E+02    0.10031E-02   -0.75472E-03   310   0.156E+00    0.392E-01
DAV:   6    -0.377735503225E+02   -0.18199E-03   -0.26380E-03   358   0.792E-01    0.249E-01
DAV:   7    -0.377741220283E+02   -0.57171E-03   -0.23579E-03   310   0.743E-01    0.463E-01
DAV:   8    -0.377738440309E+02    0.27800E-03   -0.19397E-03   302   0.690E-01    0.232E-01
DAV:   9    -0.377741922066E+02   -0.34818E-03   -0.12119E-03   270   0.578E-01    0.283E-01
DAV:  10    -0.377740257434E+02    0.16646E-03   -0.78683E-04   246   0.530E-01    0.979E-02
DAV:  11    -0.377742299154E+02   -0.20417E-03   -0.14783E-04   158   0.160E-01    0.800E-02
DAV:  12    -0.377743030465E+02   -0.73131E-04   -0.10394E-04   175   0.154E-01
  12 F= -.37774303E+02 E0= -.37780422E+02  d E =-.300960E-02  mag=     7.9213
       N       E                     dE             d eps       ncg     rms          rms(c)
DAV:   1    -0.377735842882E+02    0.64563E-03   -0.42130E-01   260   0.227E+00    0.156E-01
DAV:   2    -0.377745569350E+02   -0.97265E-03   -0.96609E-03   390   0.909E-01    0.568E-01
DAV:   3    -0.377739254568E+02    0.63148E-03   -0.60336E-03   326   0.111E+00    0.279E-01
DAV:   4    -0.377744003352E+02   -0.47488E-03   -0.99035E-04   261   0.543E-01    0.219E-01
DAV:   5    -0.377742494664E+02    0.15087E-03   -0.43702E-04   174   0.404E-01    0.856E-02
DAV:   6    -0.377743686439E+02   -0.11918E-03   -0.11398E-04   157   0.178E-01    0.535E-02
DAV:   7    -0.377744542201E+02   -0.85576E-04   -0.12876E-04   163   0.187E-01
  13 F= -.37774454E+02 E0= -.37780396E+02  d E =-.316077E-02  mag=     7.9198
       N       E                     dE             d eps       ncg     rms          rms(c)
DAV:   1    -0.377690388580E+02    0.53298E-02   -0.40449E+00   260   0.708E+00    0.555E-01
DAV:   2    -0.377938823546E+02   -0.24843E-01   -0.13861E-01   390   0.451E+00    0.313E+00
DAV:   3    -0.377689527477E+02    0.24930E-01   -0.85059E-02   334   0.462E+00    0.405E-01
DAV:   4    -0.377757302474E+02   -0.67775E-02   -0.67908E-03   350   0.918E-01    0.430E-01
DAV:   5    -0.377754686434E+02    0.26160E-03   -0.28791E-03   287   0.863E-01    0.298E-01
DAV:   6    -0.377756508437E+02   -0.18220E-03   -0.13612E-03   303   0.570E-01    0.256E-01
DAV:   7    -0.377757965660E+02   -0.14572E-03   -0.10610E-03   262   0.574E-01    0.293E-01
DAV:   8    -0.377758677374E+02   -0.71171E-04   -0.89166E-04   230   0.450E-01
  14 F= -.37775868E+02 E0= -.37781479E+02  d E =-.141352E-02  mag=     7.9190
       N       E                     dE             d eps       ncg     rms          rms(c)
DAV:   1    -0.377758792413E+02   -0.82675E-04   -0.52372E-03   390   0.551E-01    0.188E-01
DAV:   2    -0.377825816314E+02   -0.67024E-02   -0.27246E-02   342   0.241E+00    0.175E+00
DAV:   3    -0.377739971453E+02    0.85845E-02   -0.20744E-02   333   0.217E+00    0.207E-01
DAV:   4    -0.377758216738E+02   -0.18245E-02   -0.95142E-04   261   0.427E-01    0.101E-01
DAV:   5    -0.377760759781E+02   -0.25430E-03   -0.21532E-04   165   0.227E-01    0.654E-02
DAV:   6    -0.377761606400E+02   -0.84662E-04   -0.10035E-04   165   0.163E-01
  15 F= -.37776161E+02 E0= -.37781342E+02  d E =-.170642E-02  mag=     7.9188
       N       E                     dE             d eps       ncg     rms          rms(c)
DAV:   1    -0.377752891394E+02    0.78684E-03   -0.86127E-01   260   0.335E+00    0.303E-01
DAV:   2    -0.377824836506E+02   -0.71945E-02   -0.34108E-02   390   0.252E+00    0.180E+00
DAV:   3    -0.377740975273E+02    0.83861E-02   -0.27235E-02   326   0.259E+00    0.243E-01
DAV:   4    -0.377769279600E+02   -0.28304E-02   -0.31104E-03   357   0.664E-01    0.409E-01
DAV:   5    -0.377765398460E+02    0.38811E-03   -0.15099E-03   261   0.608E-01    0.146E-01
DAV:   6    -0.377767385947E+02   -0.19875E-03   -0.43944E-04   173   0.336E-01    0.147E-01
DAV:   7    -0.377767922779E+02   -0.53683E-04   -0.28716E-04   159   0.313E-01
  16 F= -.37776792E+02 E0= -.37781867E+02  d E =-.631638E-03  mag=     7.9183
       N       E                     dE             d eps       ncg     rms          rms(c)
DAV:   1    -0.377769008954E+02   -0.16230E-03   -0.47335E-03   318   0.346E-01    0.167E-01
DAV:   2    -0.377817837168E+02   -0.48828E-02   -0.16848E-02   342   0.215E+00    0.146E+00
DAV:   3    -0.377752743902E+02    0.65093E-02   -0.11122E-02   349   0.192E+00    0.115E-01
DAV:   4    -0.377767914445E+02   -0.15171E-02   -0.54792E-04   229   0.324E-01    0.102E-01
DAV:   5    -0.377769831917E+02   -0.19175E-03   -0.16130E-04   164   0.184E-01    0.473E-02
DAV:   6    -0.377770645633E+02   -0.81372E-04   -0.69369E-05   165   0.122E-01
  17 F= -.37777065E+02 E0= -.37782112E+02  d E =-.903923E-03  mag=     7.9181
