 vasp.6.1.2 22Jul20 (build Jan 14 2022 17:24:41) gamma-only                      
 executed on             LinuxPGI date 2022.01.24  14:26:25
 running on   16 total cores
 distrk:  each k-point on   16 cores,    1 groups
 distr:  one band on NCORE=  16 cores,    1 groups


--------------------------------------------------------------------------------------------------------


 INCAR:
 POTCAR:    PAW_PBE Ni 02Aug2007                  
 POTCAR:    PAW_PBE Pd 04Jan2005                  
 -----------------------------------------------------------------------------
|                                                                             |
|           W    W    AA    RRRRR   N    N  II  N    N   GGGG   !!!           |
|           W    W   A  A   R    R  NN   N  II  NN   N  G    G  !!!           |
|           W    W  A    A  R    R  N N  N  II  N N  N  G       !!!           |
|           W WW W  AAAAAA  RRRRR   N  N N  II  N  N N  G  GGG   !            |
|           WW  WW  A    A  R   R   N   NN  II  N   NN  G    G                |
|           W    W  A    A  R    R  N    N  II  N    N   GGGG   !!!           |
|                                                                             |
|     You use a magnetic or noncollinear calculation, but did not specify     |
|     the initial magnetic moment with the MAGMOM tag. Note that a            |
|     default of 1 will be used for all atoms. This ferromagnetic setup       |
|     may break the symmetry of the crystal, in particular it may rule        |
|     out finding an antiferromagnetic solution. Thence, we recommend         |
|     setting the initial magnetic moment manually or verifying carefully     |
|     that this magnetic setup is desired.                                    |
|                                                                             |
 -----------------------------------------------------------------------------

 -----------------------------------------------------------------------------
|                                                                             |
|           W    W    AA    RRRRR   N    N  II  N    N   GGGG   !!!           |
|           W    W   A  A   R    R  NN   N  II  NN   N  G    G  !!!           |
|           W    W  A    A  R    R  N N  N  II  N N  N  G       !!!           |
|           W WW W  AAAAAA  RRRRR   N  N N  II  N  N N  G  GGG   !            |
|           WW  WW  A    A  R   R   N   NN  II  N   NN  G    G                |
|           W    W  A    A  R    R  N    N  II  N    N   GGGG   !!!           |
|                                                                             |
|     For optimal performance we recommend to set                             |
|       NCORE = 4 - approx SQRT(number of cores).                             |
|     NCORE specifies how many cores store one orbital (NPAR=cpu/NCORE).      |
|     This setting can greatly improve the performance of VASP for DFT.       |
|     The default, NCORE=1 might be grossly inefficient on modern             |
|     multi-core architectures or massively parallel machines. Do your        |
|     own testing!!!!                                                         |
|     Unfortunately you need to use the default for GW and RPA                |
|     calculations (for HF NCORE is supported but not extensively tested      |
|     yet).                                                                   |
|                                                                             |
 -----------------------------------------------------------------------------

 POTCAR:    PAW_PBE Ni 02Aug2007                  
   SHA256 =  0534bc51ca8003dfef23f56753fef9fdd3e22eac8d719fccacb59f3e6b7a69c7 Ni/POTCAR             
   COPYR  = (c) Copyright 02Aug2007 Georg Kresse                                                    
   COPYR  = This file is part of the software VASP. Any use, copying, and all other rights are regul
   COPYR  = If you do not have a valid VASP license, you may not use, copy or distribute this file. 
   VRHFIN =Ni:                                                                                      
   LEXCH  = PE                                                                                      
   EATOM  =  1077.6739 eV,   79.2068 Ry                                                             
                                                                                                    
   TITEL  = PAW_PBE Ni 02Aug2007                                                                    
   LULTRA =        F    use ultrasoft PP ?                                                          
   IUNSCR =        1    unscreen: 0-lin 1-nonlin 2-no                                               
   RPACOR =    2.000    partial core radius                                                         
   POMASS =   58.690; ZVAL   =   10.000    mass and valenz                                          
   RCORE  =    2.300    outmost cutoff radius                                                       
   RWIGS  =    2.430; RWIGS  =    1.286    wigner-seitz radius (au A)                               
   ENMAX  =  269.532; ENMIN  =  202.149 eV                                                          
   RCLOC  =    1.201    cutoff for local pot                                                        
   LCOR   =        T    correct aug charges                                                         
   LPAW   =        T    paw PP                                                                      
   EAUG   =  544.565                                                                                
   DEXC   =    0.000                                                                                
   RMAX   =    2.357    core radius for proj-oper                                                   
   RAUG   =    1.300    factor for augmentation sphere                                              
   RDEP   =    2.390    radius for radial grids                                                     
   RDEPT  =    1.838    core radius for aug-charge                                                  
                                                                                                    
   Atomic configuration                                                                             
    9 entries                                                                                       
     n  l   j            E        occ.                                                              
     1  0  0.50     -8206.4253   2.0000                                                             
     2  0  0.50      -976.1748   2.0000                                                             
     2  1  1.50      -839.0571   6.0000                                                             
     3  0  0.50      -105.9991   2.0000                                                             
     3  1  1.50       -66.4603   6.0000                                                             
     3  2  2.50        -4.6458   9.0000                                                             
     4  0  0.50        -4.4926   1.0000                                                             
     4  1  1.50        -4.0817   0.0000                                                             
     4  3  2.50        -1.3606   0.0000                                                             
   Description                                                                                      
     l       E           TYP  RCUT    TYP  RCUT                                                     
     2     -4.6457903     23  2.300                                                                 
     2     -6.0063729     23  2.300                                                                 
     0     -4.4925590     23  2.300                                                                 
     0      5.0102601     23  2.300                                                                 
     1     -2.7211652     23  2.300                                                                 
     1     16.5183231     23  2.300                                                                 
  local pseudopotential read in
  partial core-charges read in
  partial kinetic energy density read in
  atomic valenz-charges read in
  non local Contribution for L=            2  read in
    real space projection operators read in
  non local Contribution for L=            2  read in
    real space projection operators read in
  non local Contribution for L=            0  read in
    real space projection operators read in
  non local Contribution for L=            0  read in
    real space projection operators read in
  non local Contribution for L=            1  read in
    real space projection operators read in
  non local Contribution for L=            1  read in
    real space projection operators read in
    PAW grid and wavefunctions read in
 
   number of l-projection  operators is LMAX  =            6
   number of lm-projection operators is LMMAX =           18
 
 POTCAR:    PAW_PBE Pd 04Jan2005                  
   SHA256 =  dd6f6f02930356371984e2b707ff5e456046761dc76b07c1eba30abd15eb3c39 Pd/POTCAR             
   COPYR  = (c) Copyright 04Jan2005 Georg Kresse                                                    
   COPYR  = This file is part of the software VASP. Any use, copying, and all other rights are regul
   COPYR  = If you do not have a valid VASP license, you may not use, copy or distribute this file. 
   VRHFIN =Pd : s1 d9                                                                               
   LEXCH  = PE                                                                                      
   EATOM  =   809.7530 eV,   59.5152 Ry                                                             
                                                                                                    
   TITEL  = PAW_PBE Pd 04Jan2005                                                                    
   LULTRA =        F    use ultrasoft PP ?                                                          
   IUNSCR =        1    unscreen: 0-lin 1-nonlin 2-no                                               
   RPACOR =    2.000    partial core radius                                                         
   POMASS =  106.420; ZVAL   =   10.000    mass and valenz                                          
   RCORE  =    2.600    outmost cutoff radius                                                       
   RWIGS  =    2.710; RWIGS  =    1.434    wigner-seitz radius (au A)                               
   ENMAX  =  250.925; ENMIN  =  188.194 eV                                                          
   ICORE  =        3    local potential                                                             
   LCOR   =        T    correct aug charges                                                         
   LPAW   =        T    paw PP                                                                      
   EAUG   =  416.230                                                                                
   DEXC   =    0.000                                                                                
   RMAX   =    2.653    core radius for proj-oper                                                   
   RAUG   =    1.300    factor for augmentation sphere                                              
   RDEP   =    2.734    radius for radial grids                                                     
   RDEPT  =    2.103    core radius for aug-charge                                                  
                                                                                                    
   Atomic configuration                                                                             
   12 entries                                                                                       
     n  l   j            E        occ.                                                              
     1  0  0.50    -24164.6631   2.0000                                                             
     2  0  0.50     -3530.9218   2.0000                                                             
     2  1  1.50     -3165.6822   6.0000                                                             
     3  0  0.50      -639.4577   2.0000                                                             
     3  1  1.50      -519.4532   6.0000                                                             
     3  2  2.50      -328.9757  10.0000                                                             
     4  0  0.50       -88.7014   2.0000                                                             
     4  1  1.50       -54.4540   6.0000                                                             
     4  2  2.50        -6.6878   9.0000                                                             
     5  0  0.50        -4.3543   1.0000                                                             
     5  1  0.50        -1.3606   0.0000                                                             
     4  3  2.50        -1.3606   0.0000                                                             
   Description                                                                                      
     l       E           TYP  RCUT    TYP  RCUT                                                     
     2     -6.6878251     23  2.400                                                                 
     2     -8.0484077     23  2.400                                                                 
     0     -4.3542939     23  2.400                                                                 
     0      4.3406793     23  2.400                                                                 
     1     -4.0817478     23  2.600                                                                 
     1     15.8380318     23  2.600                                                                 
     3     -4.0817478     23  2.400                                                                 
  local pseudopotential read in
  partial core-charges read in
  partial kinetic energy density read in
  atomic valenz-charges read in
  non local Contribution for L=            2  read in
    real space projection operators read in
  non local Contribution for L=            2  read in
    real space projection operators read in
  non local Contribution for L=            0  read in
    real space projection operators read in
  non local Contribution for L=            0  read in
    real space projection operators read in
  non local Contribution for L=            1  read in
    real space projection operators read in
  non local Contribution for L=            1  read in
    real space projection operators read in
    PAW grid and wavefunctions read in
 
   number of l-projection  operators is LMAX  =            6
   number of lm-projection operators is LMMAX =           18
 
  PAW_PBE Ni 02Aug2007                  :
 energy of atom  1       EATOM=-1077.6739
 kinetic energy error for atom=    0.0101 (will be added to EATOM!!)
  PAW_PBE Pd 04Jan2005                  :
 energy of atom  2       EATOM= -809.7530
 kinetic energy error for atom=    0.0091 (will be added to EATOM!!)
 
 
 POSCAR: Ni Pd
  positions in cartesian coordinates
  No initial velocities read in
 exchange correlation table for  LEXCH =        8
   RHO(1)=    0.500       N(1)  =     2000
   RHO(2)=  100.500       N(2)  =     4000
 


--------------------------------------------------------------------------------------------------------


 ion  position               nearest neighbor table
   1  0.447  0.503  0.569-   9 2.46   3 2.47   4 2.48   2 2.48   8 2.50   7 2.50   5 2.55
   2  0.510  0.423  0.550-   9 2.44   5 2.46   1 2.48   4 2.48   8 2.50
   3  0.448  0.562  0.486-  10 2.45   6 2.46   5 2.47   1 2.47   7 2.52   4 2.52
   4  0.446  0.461  0.476-   6 2.45  10 2.46   9 2.46   1 2.48   2 2.48   5 2.49   3 2.52
   5  0.538  0.509  0.506-   6 2.45   2 2.46   3 2.47   4 2.49   8 2.50   7 2.50   1 2.55
   6  0.502  0.517  0.410-  10 2.42   5 2.45   4 2.45   3 2.46
   7  0.511  0.586  0.569-   5 2.50   1 2.50   3 2.52   8 2.52
   8  0.549  0.499  0.609-   2 2.50   5 2.50   1 2.50   7 2.52
   9  0.403  0.414  0.556-   2 2.44   1 2.46   4 2.46
  10  0.395  0.520  0.408-   6 2.42   3 2.45   4 2.46
 

IMPORTANT INFORMATION: All symmetrisations will be switched off!
NOSYMM: (Re-)initialisation of all symmetry stuff for point group C_1.


----------------------------------------------------------------------------------------

                                     Primitive cell                                     

  volume of cell :   13388.0567

  direct lattice vectors                    reciprocal lattice vectors
    22.523196134  0.000000000  0.000000000     0.044398672  0.000000000  0.000000000
     0.000000000 24.746152174  0.000000000     0.000000000  0.040410323  0.000000000
     0.000000000  0.000000000 24.020378429     0.000000000  0.000000000  0.041631317

  length of vectors
    22.523196134 24.746152174 24.020378429     0.044398672  0.040410323  0.041631317

  position of ions in fractional coordinates (direct lattice)
     0.446986826  0.503468729  0.568900454
     0.510001171  0.423256950  0.550193148
     0.447827978  0.562373575  0.485916561
     0.446134441  0.461080480  0.475505658
     0.537926833  0.508993766  0.505831279
     0.502015425  0.517474135  0.410061128
     0.511315396  0.585967824  0.568612230
     0.549457073  0.498506603  0.608657376
     0.402531492  0.413671814  0.555710991
     0.394752160  0.519756079  0.408428747

  ion indices of the primitive-cell ions
   primitive index   ion index
                 1           1
                 2           2
                 3           3
                 4           4
                 5           5
                 6           6
                 7           7
                 8           8
                 9           9
                10          10

----------------------------------------------------------------------------------------

 
 
 KPOINTS: KPOINTS created by Atomic Simulation Env

Automatic generation of k-mesh.
Space group operators:
 irot       det(A)        alpha          n_x          n_y          n_z        tau_x        tau_y        tau_z
    1     1.000000     0.000000     1.000000     0.000000     0.000000     0.000000     0.000000     0.000000
 
 Subroutine IBZKPT returns following result:
 ===========================================
 
 Found      1 irreducible k-points:
 
 Following reciprocal coordinates:
            Coordinates               Weight
  0.000000  0.000000  0.000000      1.000000
 
 Following cartesian coordinates:
            Coordinates               Weight
  0.000000  0.000000  0.000000      1.000000
 


--------------------------------------------------------------------------------------------------------




 Dimension of arrays:
   k-points           NKPTS =      1   k-points in BZ     NKDIM =      1   number of bands    NBANDS=     65
   number of dos      NEDOS =    301   number of ions     NIONS =     10
   non local maximal  LDIM  =      6   non local SUM 2l+1 LMDIM =     18
   total plane-waves  NPLWV = ******
   max r-space proj   IRMAX =      1   max aug-charges    IRDMAX=   6335
   dimension x,y,z NGX =   112 NGY =  126 NGZ =  120
   dimension x,y,z NGXF=   224 NGYF=  252 NGZF=  240
   support grid    NGXF=   224 NGYF=  252 NGZF=  240
   ions per type =               6   4
   NGX,Y,Z   is equivalent  to a cutoff of   8.27,  8.46,  8.31 a.u.
   NGXF,Y,Z  is equivalent  to a cutoff of  16.53, 16.93, 16.61 a.u.

 SYSTEM =  unknown system                          
 POSCAR =  Ni Pd                                   

 Startparameter for this run:
   NWRITE =      2    write-flag & timer
   PREC   = normal    normal or accurate (medium, high low for compatibility)
   ISTART =      0    job   : 0-new  1-cont  2-samecut
   ICHARG =      2    charge: 1-file 2-atom 10-const
   ISPIN  =      2    spin polarized calculation?
   LNONCOLLINEAR =      F non collinear calculations
   LSORBIT =      F    spin-orbit coupling
   INIWAV =      1    electr: 0-lowe 1-rand  2-diag
   LASPH  =      F    aspherical Exc in radial PAW
   METAGGA=      F    non-selfconsistent MetaGGA calc.

 Electronic Relaxation 1
   ENCUT  =  400.0 eV  29.40 Ry    5.42 a.u.  36.73 40.35 39.17*2*pi/ulx,y,z
   ENINI  =  400.0     initial cutoff
   ENAUG  =  544.6 eV  augmentation charge cutoff
   NELM   =     60;   NELMIN=  2; NELMDL=  0     # of ELM steps 
   EDIFF  = 0.1E-03   stopping-criterion for ELM
   LREAL  =      F    real-space projection
   NLSPLINE    = F    spline interpolate recip. space projectors
   LCOMPAT=      F    compatible to vasp.4.4
   GGA_COMPAT  = T    GGA compatible to vasp.4.4-vasp.4.6
   LMAXPAW     = -100 max onsite density
   LMAXMIX     =    2 max onsite mixed and CHGCAR
   VOSKOWN=      0    Vosko Wilk Nusair interpolation
   ROPT   =    0.00000   0.00000
 Ionic relaxation
   EDIFFG = 0.1E-02   stopping-criterion for IOM
   NSW    =   1000    number of steps for IOM
   NBLOCK =      1;   KBLOCK =   1000    inner block; outer block 
   IBRION =      2    ionic relax: 0-MD 1-quasi-New 2-CG
   NFREE  =      1    steps in history (QN), initial steepest desc. (CG)
   ISIF   =      0    stress and relaxation
   IWAVPR =     11    prediction:  0-non 1-charg 2-wave 3-comb
   ISYM   =      0    0-nonsym 1-usesym 2-fastsym
   LCORR  =      T    Harris-Foulkes like correction to forces

   POTIM  = 0.5000    time-step for ionic-motion
   TEIN   =    0.0    initial temperature
   TEBEG  =    0.0;   TEEND  =   0.0 temperature during run
   SMASS  =  -3.00    Nose mass-parameter (am)
   estimated Nose-frequenzy (Omega)   =  0.10E-29 period in steps = 0.13E+47 mass=  -0.116E-25a.u.
   SCALEE = 1.0000    scale energy and forces
   NPACO  =    256;   APACO  = 16.0  distance and # of slots for P.C.
   PSTRESS=    0.0 pullay stress

  Mass of Ions in am
   POMASS =  58.69106.42
  Ionic Valenz
   ZVAL   =  10.00 10.00
  Atomic Wigner-Seitz radii
   RWIGS  =  -1.00 -1.00
  virtual crystal weights 
   VCA    =   1.00  1.00
   NELECT =     100.0000    total number of electrons
   NUPDOWN=      -1.0000    fix difference up-down

 DOS related values:
   EMIN   =  10.00;   EMAX   =-10.00  energy-range for DOS
   EFERMI =   0.00
   ISMEAR =     1;   SIGMA  =   0.20  broadening in eV -4-tet -1-fermi 0-gaus

 Electronic relaxation 2 (details)
   IALGO  =     38    algorithm
   LDIAG  =      T    sub-space diagonalisation (order eigenvalues)
   LSUBROT=      F    optimize rotation matrix (better conditioning)
   TURBO    =      0    0=normal 1=particle mesh
   IRESTART =      0    0=no restart 2=restart with 2 vectors
   NREBOOT  =      0    no. of reboots
   NMIN     =      0    reboot dimension
   EREF     =   0.00    reference energy to select bands
   IMIX   =      4    mixing-type and parameters
     AMIX     =   0.40;   BMIX     =  1.00
     AMIX_MAG =   1.60;   BMIX_MAG =  1.00
     AMIN     =   0.10
     WC   =   100.;   INIMIX=   1;  MIXPRE=   1;  MAXMIX= -45

 Intra band minimization:
   WEIMIN = 0.0010     energy-eigenvalue tresh-hold
   EBREAK =  0.38E-06  absolut break condition
   DEPER  =   0.30     relativ break condition  

   TIME   =   0.40     timestep for ELM

  volume/ion in A,a.u.               =    1338.81      9034.71
  Fermi-wavevector in a.u.,A,eV,Ry     =   0.320014  0.604739  1.393359  0.102409
  Thomas-Fermi vector in A             =   1.206253
 
 Write flags
   LWAVE        =      F    write WAVECAR
   LDOWNSAMPLE  =      F    k-point downsampling of WAVECAR
   LCHARG       =      F    write CHGCAR
   LVTOT        =      F    write LOCPOT, total local potential
   LVHAR        =      F    write LOCPOT, Hartree potential only
   LELF         =      F    write electronic localiz. function (ELF)
   LORBIT       =      0    0 simple, 1 ext, 2 COOP (PROOUT), +10 PAW based schemes


 Dipole corrections
   LMONO  =      F    monopole corrections only (constant potential shift)
   LDIPOL =      F    correct potential (dipole corrections)
   IDIPOL =      0    1-x, 2-y, 3-z, 4-all directions 
   EPSILON=  1.0000000 bulk dielectric constant

 Exchange correlation treatment:
   GGA     =    PE    GGA type
   LEXCH   =     8    internal setting for exchange type
   VOSKOWN=      0    Vosko Wilk Nusair interpolation
   LHFCALC =     F    Hartree Fock is set to
   LHFONE  =     F    Hartree Fock one center treatment
   AEXX    =    0.0000 exact exchange contribution

 Linear response parameters
   LEPSILON=     F    determine dielectric tensor
   LRPA    =     F    only Hartree local field effects (RPA)
   LNABLA  =     F    use nabla operator in PAW spheres
   LVEL    =     F    velocity operator in full k-point grid
   LINTERFAST=   F  fast interpolation
   KINTER  =     0    interpolate to denser k-point grid
   CSHIFT  =0.1000    complex shift for real part using Kramers Kronig
   OMEGAMAX=  -1.0    maximum frequency
   DEG_THRESHOLD= 0.2000000E-02 threshold for treating states as degnerate
   RTIME   =   -0.100 relaxation time in fs
  (WPLASMAI=    0.000 imaginary part of plasma frequency in eV, 0.658/RTIME)
   DFIELD  = 0.0000000 0.0000000 0.0000000 field for delta impulse in time
 
 Orbital magnetization related:
   ORBITALMAG=     F  switch on orbital magnetization
   LCHIMAG   =     F  perturbation theory with respect to B field
   DQ        =  0.001000  dq finite difference perturbation B field
   LLRAUG    =     F  two centre corrections for induced B field



--------------------------------------------------------------------------------------------------------


 conjugate gradient relaxation of ions
 charge density and potential will be updated during run
 spin polarized calculation
 Variant of blocked Davidson
 Davidson routine will perform the subspace rotation
 perform sub-space diagonalisation
    after iterative eigenvector-optimisation
 modified Broyden-mixing scheme, WC =      100.0
 initial mixing is a Kerker type mixing with AMIX =  0.4000 and BMIX =      1.0000
 Hartree-type preconditioning will be used
 using additional bands            15
 reciprocal scheme for non local part
 use partial core corrections
 calculate Harris-corrections to forces 
   (improved forces if not selfconsistent)
 use gradient corrections 
 use of overlap-Matrix (Vanderbilt PP)
 Methfessel and Paxton  Order N= 1 SIGMA  =   0.20


--------------------------------------------------------------------------------------------------------


  energy-cutoff  :      400.00
  volume of cell :    13388.06
      direct lattice vectors                 reciprocal lattice vectors
    22.523196134  0.000000000  0.000000000     0.044398672  0.000000000  0.000000000
     0.000000000 24.746152174  0.000000000     0.000000000  0.040410323  0.000000000
     0.000000000  0.000000000 24.020378429     0.000000000  0.000000000  0.041631317

  length of vectors
    22.523196134 24.746152174 24.020378429     0.044398672  0.040410323  0.041631317


 
 k-points in units of 2pi/SCALE and weight: KPOINTS created by Atomic Simulation Env
   0.00000000  0.00000000  0.00000000       1.000
 
 k-points in reciprocal lattice and weights: KPOINTS created by Atomic Simulation Env
   0.00000000  0.00000000  0.00000000       1.000
 
 position of ions in fractional coordinates (direct lattice) 
   0.44698683  0.50346873  0.56890045
   0.51000117  0.42325695  0.55019315
   0.44782798  0.56237357  0.48591656
   0.44613444  0.46108048  0.47550566
   0.53792683  0.50899377  0.50583128
   0.50201542  0.51747414  0.41006113
   0.51131540  0.58596782  0.56861223
   0.54945707  0.49850660  0.60865738
   0.40253149  0.41367181  0.55571099
   0.39475216  0.51975608  0.40842875
 
 position of ions in cartesian coordinates  (Angst):
  10.06757195 12.45891377 13.66520421
  11.48685640 10.47398089 13.21584763
  10.08651739 13.91658206 11.67189968
  10.04837351 11.40996771 11.42182584
  12.11583156 12.59563720 12.15025875
  11.30699188 12.80549370  9.84982348
  11.51645696 14.50044895 13.65828094
  12.37552943 12.33612025 14.62018050
   9.06629575 10.23678565 13.34838829
   8.89108031 12.86196302  9.81061307
 


--------------------------------------------------------------------------------------------------------


 use parallel FFT for orbitals z direction half grid
 k-point   1 :   0.0000 0.0000 0.0000  plane waves:  121674

 maximum and minimum number of plane-waves per node :      7614     7595

 maximum number of plane-waves:    121674
 maximum index in each direction: 
   IXMAX=   36   IYMAX=   40   IZMAX=   39
   IXMIN=  -36   IYMIN=  -40   IZMIN=    0


 parallel 3D FFT for wavefunctions:
    minimum data exchange during FFTs selected (reduces bandwidth)
 parallel 3D FFT for charge:
    minimum data exchange during FFTs selected (reduces bandwidth)


 total amount of memory used by VASP MPI-rank0   156809. kBytes
=======================================================================

   base      :      30000. kBytes
   nonl-proj :       3403. kBytes
   fftplans  :      30880. kBytes
   grid      :      76691. kBytes
   one-center:         15. kBytes
   wavefun   :      15820. kBytes
 
     INWAV:  cpu time    0.0000: real time    0.0000
 Broyden mixing: mesh for mixing (old mesh)
   NGX = 73   NGY = 81   NGZ = 79
  (NGX  =224   NGY  =252   NGZ  =240)
  gives a total of 467127 points

 initial charge density was supplied:
 charge density of overlapping atoms calculated
 number of electron     100.0000000 magnetization      10.0000000
 keeping initial charge density in first step


--------------------------------------------------------------------------------------------------------


 Maximum index for augmentation-charges           394 (set IRDMAX)


--------------------------------------------------------------------------------------------------------


 First call to EWALD:  gamma=   0.075
 Maximum number of real-space cells 3x 3x 3
 Maximum number of reciprocal cells 3x 3x 3

    FEWALD:  cpu time    0.0013: real time    0.0013


--------------------------------------- Iteration      1(   1)  ---------------------------------------


    POTLOK:  cpu time    3.4118: real time    3.4266
    SETDIJ:  cpu time    0.0314: real time    0.0314
     EDDAV:  cpu time    6.4557: real time    6.4683
       DOS:  cpu time    0.0074: real time    0.0074
    --------------------------------------------
      LOOP:  cpu time    9.9063: real time    9.9338

 eigenvalue-minimisations  :   268
 total energy-change (2. order) : 0.7125635E+03  (-0.1526311E+04)
 number of electron     100.0000000 magnetization      10.0000000
 augmentation part      100.0000000 magnetization      10.0000000

 Free energy of the ion-electron system (eV)
  ---------------------------------------------------
  alpha Z        PSCENC =         4.23285708
  Ewald energy   TEWEN  =     12692.93352031
  -Hartree energ DENC   =    -21673.16905403
  -exchange      EXHF   =         0.00000000
  -V(xc)+E(xc)   XCENC  =        62.34521440
  PAW double counting   =      9003.59075477    -9155.75339974
  entropy T*S    EENTRO =         0.01568540
  eigenvalues    EBANDS =        73.40935531
  atomic energy  EATOM  =      9704.95859309
  Solvation  Ediel_sol  =         0.00000000
  ---------------------------------------------------
  free energy    TOTEN  =       712.56352660 eV

  energy without entropy =      712.54784120  energy(sigma->0) =      712.55829813


--------------------------------------------------------------------------------------------------------




--------------------------------------- Iteration      1(   2)  ---------------------------------------


     EDDAV:  cpu time    9.6315: real time    9.6514
       DOS:  cpu time    0.0046: real time    0.0046
    --------------------------------------------
      LOOP:  cpu time    9.6362: real time    9.6560

 eigenvalue-minimisations  :   472
 total energy-change (2. order) :-0.4432511E+03  (-0.4076224E+03)
 number of electron     100.0000000 magnetization      10.0000000
 augmentation part      100.0000000 magnetization      10.0000000

 Free energy of the ion-electron system (eV)
  ---------------------------------------------------
  alpha Z        PSCENC =         4.23285708
  Ewald energy   TEWEN  =     12692.93352031
  -Hartree energ DENC   =    -21673.16905403
  -exchange      EXHF   =         0.00000000
  -V(xc)+E(xc)   XCENC  =        62.34521440
  PAW double counting   =      9003.59075477    -9155.75339974
  entropy T*S    EENTRO =         0.08680046
  eigenvalues    EBANDS =      -369.91283359
  atomic energy  EATOM  =      9704.95859309
  Solvation  Ediel_sol  =         0.00000000
  ---------------------------------------------------
  free energy    TOTEN  =       269.31245275 eV

  energy without entropy =      269.22565230  energy(sigma->0) =      269.28351927


--------------------------------------------------------------------------------------------------------




--------------------------------------- Iteration      1(   3)  ---------------------------------------


     EDDAV:  cpu time    7.8245: real time    7.8347
       DOS:  cpu time    0.0050: real time    0.0050
    --------------------------------------------
      LOOP:  cpu time    7.8295: real time    7.8397

 eigenvalue-minimisations  :   360
 total energy-change (2. order) :-0.2338521E+03  (-0.2179717E+03)
 number of electron     100.0000000 magnetization      10.0000000
 augmentation part      100.0000000 magnetization      10.0000000

 Free energy of the ion-electron system (eV)
  ---------------------------------------------------
  alpha Z        PSCENC =         4.23285708
  Ewald energy   TEWEN  =     12692.93352031
  -Hartree energ DENC   =    -21673.16905403
  -exchange      EXHF   =         0.00000000
  -V(xc)+E(xc)   XCENC  =        62.34521440
  PAW double counting   =      9003.59075477    -9155.75339974
  entropy T*S    EENTRO =        -0.06103575
  eigenvalues    EBANDS =      -603.61709288
  atomic energy  EATOM  =      9704.95859309
  Solvation  Ediel_sol  =         0.00000000
  ---------------------------------------------------
  free energy    TOTEN  =        35.46035725 eV

  energy without entropy =       35.52139300  energy(sigma->0) =       35.48070250


--------------------------------------------------------------------------------------------------------




--------------------------------------- Iteration      1(   4)  ---------------------------------------


     EDDAV:  cpu time    8.4780: real time    8.4897
       DOS:  cpu time    0.0061: real time    0.0061
    --------------------------------------------
      LOOP:  cpu time    8.4840: real time    8.4957

 eigenvalue-minimisations  :   408
 total energy-change (2. order) :-0.6990434E+02  (-0.6070002E+02)
 number of electron     100.0000000 magnetization      10.0000000
 augmentation part      100.0000000 magnetization      10.0000000

 Free energy of the ion-electron system (eV)
  ---------------------------------------------------
  alpha Z        PSCENC =         4.23285708
  Ewald energy   TEWEN  =     12692.93352031
  -Hartree energ DENC   =    -21673.16905403
  -exchange      EXHF   =         0.00000000
  -V(xc)+E(xc)   XCENC  =        62.34521440
  PAW double counting   =      9003.59075477    -9155.75339974
  entropy T*S    EENTRO =        -0.00100717
  eigenvalues    EBANDS =      -673.58146347
  atomic energy  EATOM  =      9704.95859309
  Solvation  Ediel_sol  =         0.00000000
  ---------------------------------------------------
  free energy    TOTEN  =       -34.44398475 eV

  energy without entropy =      -34.44297758  energy(sigma->0) =      -34.44364902


--------------------------------------------------------------------------------------------------------




--------------------------------------- Iteration      1(   5)  ---------------------------------------


     EDDAV:  cpu time    7.7647: real time    7.7782
       DOS:  cpu time    0.0052: real time    0.0052
    CHARGE:  cpu time    0.9136: real time    0.9181
    MIXING:  cpu time    0.0563: real time    0.0563
    --------------------------------------------
      LOOP:  cpu time    8.7399: real time    8.7579

 eigenvalue-minimisations  :   343
 total energy-change (2. order) :-0.9040786E+01  (-0.8591548E+01)
 number of electron     100.0000036 magnetization       9.8026931
 augmentation part       52.0841031 magnetization       7.8775908

 Broyden mixing:
  rms(total) = 0.25923E+01    rms(broyden)= 0.25915E+01
  rms(prec ) = 0.27077E+01
  weight for this iteration     100.00

 Free energy of the ion-electron system (eV)
  ---------------------------------------------------
  alpha Z        PSCENC =         4.23285708
  Ewald energy   TEWEN  =     12692.93352031
  -Hartree energ DENC   =    -21673.16905403
  -exchange      EXHF   =         0.00000000
  -V(xc)+E(xc)   XCENC  =        62.34521440
  PAW double counting   =      9003.59075477    -9155.75339974
  entropy T*S    EENTRO =        -0.02363867
  eigenvalues    EBANDS =      -682.59961777
  atomic energy  EATOM  =      9704.95859309
  Solvation  Ediel_sol  =         0.00000000
  ---------------------------------------------------
  free energy    TOTEN  =       -43.48477055 eV

  energy without entropy =      -43.46113188  energy(sigma->0) =      -43.47689100


--------------------------------------------------------------------------------------------------------




--------------------------------------- Iteration      1(   6)  ---------------------------------------


    POTLOK:  cpu time    3.3000: real time    3.3046
    SETDIJ:  cpu time    0.0260: real time    0.0260
     EDDAV:  cpu time    6.8846: real time    6.8959
       DOS:  cpu time    0.0071: real time    0.0071
    CHARGE:  cpu time    0.8395: real time    0.8406
    MIXING:  cpu time    0.0499: real time    0.0499
    --------------------------------------------
      LOOP:  cpu time   11.1070: real time   11.1242

 eigenvalue-minimisations  :   302
 total energy-change (2. order) :-0.1456229E+02  (-0.1013351E+02)
 number of electron     100.0000110 magnetization       9.6027747
 augmentation part       56.6894894 magnetization       8.7955883

 Broyden mixing:
  rms(total) = 0.53758E+01    rms(broyden)= 0.53755E+01
  rms(prec ) = 0.57142E+01
  weight for this iteration     100.00

 eigenvalues of (default mixing * dielectric matrix)
  average eigenvalue GAMMA=   0.2864
  0.2864

 Free energy of the ion-electron system (eV)
  ---------------------------------------------------
  alpha Z        PSCENC =         4.23285708
  Ewald energy   TEWEN  =     12692.93352031
  -Hartree energ DENC   =    -21585.66379277
  -exchange      EXHF   =         0.00000000
  -V(xc)+E(xc)   XCENC  =        58.89932547
  PAW double counting   =      9412.47626031    -9538.21971667
  entropy T*S    EENTRO =        -0.01748032
  eigenvalues    EBANDS =      -807.64662357
  atomic energy  EATOM  =      9704.95859309
  Solvation  Ediel_sol  =         0.00000000
  ---------------------------------------------------
  free energy    TOTEN  =       -58.04705706 eV

  energy without entropy =      -58.02957674  energy(sigma->0) =      -58.04123028


--------------------------------------------------------------------------------------------------------




--------------------------------------- Iteration      1(   7)  ---------------------------------------


    POTLOK:  cpu time    3.1268: real time    3.1320
    SETDIJ:  cpu time    0.0258: real time    0.0258
     EDDAV:  cpu time    7.1378: real time    7.1490
       DOS:  cpu time    0.0061: real time    0.0062
    CHARGE:  cpu time    0.7709: real time    0.7726
    MIXING:  cpu time    0.0596: real time    0.0597
    --------------------------------------------
      LOOP:  cpu time   11.1271: real time   11.1452

 eigenvalue-minimisations  :   318
 total energy-change (2. order) : 0.1858968E+02  (-0.6350373E+01)
 number of electron     100.0000110 magnetization       9.5481243
 augmentation part       55.1935303 magnetization       7.4778118

 Broyden mixing:
  rms(total) = 0.29102E+01    rms(broyden)= 0.29098E+01
  rms(prec ) = 0.30855E+01
  weight for this iteration     100.00

 eigenvalues of (default mixing * dielectric matrix)
  average eigenvalue GAMMA=   0.2371
  0.2371  0.2371

 Free energy of the ion-electron system (eV)
  ---------------------------------------------------
  alpha Z        PSCENC =         4.23285708
  Ewald energy   TEWEN  =     12692.93352031
  -Hartree energ DENC   =    -21642.98581370
  -exchange      EXHF   =         0.00000000
  -V(xc)+E(xc)   XCENC  =        60.16285645
  PAW double counting   =      9548.10825939    -9696.34210559
  entropy T*S    EENTRO =         0.00112607
  eigenvalues    EBANDS =      -710.52666970
  atomic energy  EATOM  =      9704.95859309
  Solvation  Ediel_sol  =         0.00000000
  ---------------------------------------------------
  free energy    TOTEN  =       -39.45737659 eV

  energy without entropy =      -39.45850266  energy(sigma->0) =      -39.45775194


--------------------------------------------------------------------------------------------------------




--------------------------------------- Iteration      1(   8)  ---------------------------------------


    POTLOK:  cpu time    3.0513: real time    3.0591
    SETDIJ:  cpu time    0.0248: real time    0.0248
     EDDAV:  cpu time    7.2988: real time    7.3122
       DOS:  cpu time    0.0086: real time    0.0086
    CHARGE:  cpu time    0.8203: real time    0.8218
    MIXING:  cpu time    0.0582: real time    0.0583
    --------------------------------------------
      LOOP:  cpu time   11.2619: real time   11.2847

 eigenvalue-minimisations  :   318
 total energy-change (2. order) : 0.1062340E+01  (-0.2322722E+01)
 number of electron     100.0000054 magnetization       9.4562724
 augmentation part       55.2759415 magnetization       7.4766732

 Broyden mixing:
  rms(total) = 0.30120E+01    rms(broyden)= 0.30112E+01
  rms(prec ) = 0.31586E+01
  weight for this iteration     100.00

 eigenvalues of (default mixing * dielectric matrix)
  average eigenvalue GAMMA=   0.2546
  0.3200  0.2782  0.1656

 Free energy of the ion-electron system (eV)
  ---------------------------------------------------
  alpha Z        PSCENC =         4.23285708
  Ewald energy   TEWEN  =     12692.93352031
  -Hartree energ DENC   =    -21650.98701568
  -exchange      EXHF   =         0.00000000
  -V(xc)+E(xc)   XCENC  =        60.57761945
  PAW double counting   =      9608.43018795    -9757.83222669
  entropy T*S    EENTRO =        -0.04100366
  eigenvalues    EBANDS =      -700.66756836
  atomic energy  EATOM  =      9704.95859309
  Solvation  Ediel_sol  =         0.00000000
  ---------------------------------------------------
  free energy    TOTEN  =       -38.39503651 eV

  energy without entropy =      -38.35403285  energy(sigma->0) =      -38.38136863


--------------------------------------------------------------------------------------------------------




--------------------------------------- Iteration      1(   9)  ---------------------------------------


    POTLOK:  cpu time    3.1533: real time    3.1573
    SETDIJ:  cpu time    0.0257: real time    0.0257
     EDDAV:  cpu time    7.3580: real time    7.3697
       DOS:  cpu time    0.0058: real time    0.0058
    CHARGE:  cpu time    0.7983: real time    0.7997
    MIXING:  cpu time    0.0601: real time    0.0602
    --------------------------------------------
      LOOP:  cpu time   11.4013: real time   11.4185

 eigenvalue-minimisations  :   343
 total energy-change (2. order) :-0.2153496E+01  (-0.2523704E+01)
 number of electron     100.0000016 magnetization       9.2949143
 augmentation part       54.6133656 magnetization       7.7341253

 Broyden mixing:
  rms(total) = 0.45539E+01    rms(broyden)= 0.45534E+01
  rms(prec ) = 0.49189E+01
  weight for this iteration     100.00

 eigenvalues of (default mixing * dielectric matrix)
  average eigenvalue GAMMA=   0.3282
  0.7801  0.2585  0.1370  0.1370

 Free energy of the ion-electron system (eV)
  ---------------------------------------------------
  alpha Z        PSCENC =         4.23285708
  Ewald energy   TEWEN  =     12692.93352031
  -Hartree energ DENC   =    -21672.22917526
  -exchange      EXHF   =         0.00000000
  -V(xc)+E(xc)   XCENC  =        61.41844730
  PAW double counting   =      9706.21587155    -9859.56321168
  entropy T*S    EENTRO =        -0.04603311
  eigenvalues    EBANDS =      -678.46940188
  atomic energy  EATOM  =      9704.95859309
  Solvation  Ediel_sol  =         0.00000000
  ---------------------------------------------------
  free energy    TOTEN  =       -40.54853259 eV

  energy without entropy =      -40.50249947  energy(sigma->0) =      -40.53318821


--------------------------------------------------------------------------------------------------------




--------------------------------------- Iteration      1(  10)  ---------------------------------------


    POTLOK:  cpu time    3.1766: real time    3.1816
    SETDIJ:  cpu time    0.0265: real time    0.0265
     EDDAV:  cpu time    7.4394: real time    7.4505
       DOS:  cpu time    0.0098: real time    0.0098
    CHARGE:  cpu time    0.8031: real time    0.8040
    MIXING:  cpu time    0.0752: real time    0.0753
    --------------------------------------------
      LOOP:  cpu time   11.5305: real time   11.5476

 eigenvalue-minimisations  :   344
 total energy-change (2. order) : 0.3066165E+01  (-0.3404589E+01)
 number of electron     100.0000054 magnetization       9.2693863
 augmentation part       54.2300204 magnetization       6.6172902

 Broyden mixing:
  rms(total) = 0.30711E+01    rms(broyden)= 0.30704E+01
  rms(prec ) = 0.32702E+01
  weight for this iteration     100.00

 eigenvalues of (default mixing * dielectric matrix)
  average eigenvalue GAMMA=   0.2823
  0.7915  0.2796  0.1400  0.1400  0.0603

 Free energy of the ion-electron system (eV)
  ---------------------------------------------------
  alpha Z        PSCENC =         4.23285708
  Ewald energy   TEWEN  =     12692.93352031
  -Hartree energ DENC   =    -21696.68596197
  -exchange      EXHF   =         0.00000000
  -V(xc)+E(xc)   XCENC  =        62.34899755
  PAW double counting   =      9823.38638416    -9981.45638930
  entropy T*S    EENTRO =        -0.00397934
  eigenvalues    EBANDS =      -647.19638927
  atomic energy  EATOM  =      9704.95859309
  Solvation  Ediel_sol  =         0.00000000
  ---------------------------------------------------
  free energy    TOTEN  =       -37.48236769 eV

  energy without entropy =      -37.47838835  energy(sigma->0) =      -37.48104124


--------------------------------------------------------------------------------------------------------




--------------------------------------- Iteration      1(  11)  ---------------------------------------


    POTLOK:  cpu time    3.0868: real time    3.0924
    SETDIJ:  cpu time    0.0263: real time    0.0263
     EDDAV:  cpu time    7.8262: real time    7.8363
       DOS:  cpu time    0.0094: real time    0.0094
    CHARGE:  cpu time    0.8317: real time    0.8327
    MIXING:  cpu time    0.0791: real time    0.0792
    --------------------------------------------
      LOOP:  cpu time   11.8595: real time   11.8763

 eigenvalue-minimisations  :   359
 total energy-change (2. order) : 0.1779093E+01  (-0.1039401E+01)
 number of electron     100.0000076 magnetization       9.1560789
 augmentation part       54.6816848 magnetization       6.6451356

 Broyden mixing:
  rms(total) = 0.18533E+01    rms(broyden)= 0.18525E+01
  rms(prec ) = 0.19860E+01
  weight for this iteration     100.00

 eigenvalues of (default mixing * dielectric matrix)
  average eigenvalue GAMMA=   0.3104
  0.8325  0.4627  0.1901  0.1901  0.0935  0.0935

 Free energy of the ion-electron system (eV)
  ---------------------------------------------------
  alpha Z        PSCENC =         4.23285708
  Ewald energy   TEWEN  =     12692.93352031
  -Hartree energ DENC   =    -21695.71904061
  -exchange      EXHF   =         0.00000000
  -V(xc)+E(xc)   XCENC  =        62.18702290
  PAW double counting   =      9845.66601840   -10003.60425929
  entropy T*S    EENTRO =        -0.05661870
  eigenvalues    EBANDS =      -646.30136822
  atomic energy  EATOM  =      9704.95859309
  Solvation  Ediel_sol  =         0.00000000
  ---------------------------------------------------
  free energy    TOTEN  =       -35.70327504 eV

  energy without entropy =      -35.64665634  energy(sigma->0) =      -35.68440214


--------------------------------------------------------------------------------------------------------




--------------------------------------- Iteration      1(  12)  ---------------------------------------


    POTLOK:  cpu time    3.2434: real time    3.2499
    SETDIJ:  cpu time    0.0278: real time    0.0278
     EDDAV:  cpu time    7.7058: real time    7.7169
       DOS:  cpu time    0.0094: real time    0.0094
    CHARGE:  cpu time    0.8364: real time    0.8375
    MIXING:  cpu time    0.0914: real time    0.0914
    --------------------------------------------
      LOOP:  cpu time   11.9142: real time   11.9330

 eigenvalue-minimisations  :   343
 total energy-change (2. order) :-0.9064196E-01  (-0.6636969E+00)
 number of electron     100.0000089 magnetization       9.1061019
 augmentation part       54.3489793 magnetization       6.5644237

 Broyden mixing:
  rms(total) = 0.25791E+01    rms(broyden)= 0.25787E+01
  rms(prec ) = 0.27450E+01
  weight for this iteration     100.00

 eigenvalues of (default mixing * dielectric matrix)
  average eigenvalue GAMMA=   0.3054
  0.8868  0.5508  0.2023  0.2023  0.1093  0.1093  0.0772

 Free energy of the ion-electron system (eV)
  ---------------------------------------------------
  alpha Z        PSCENC =         4.23285708
  Ewald energy   TEWEN  =     12692.93352031
  -Hartree energ DENC   =    -21705.83746573
  -exchange      EXHF   =         0.00000000
  -V(xc)+E(xc)   XCENC  =        62.26626450
  PAW double counting   =      9922.07799121   -10082.49041691
  entropy T*S    EENTRO =        -0.01058745
  eigenvalues    EBANDS =      -633.92467311
  atomic energy  EATOM  =      9704.95859309
  Solvation  Ediel_sol  =         0.00000000
  ---------------------------------------------------
  free energy    TOTEN  =       -35.79391700 eV

  energy without entropy =      -35.78332955  energy(sigma->0) =      -35.79038785


--------------------------------------------------------------------------------------------------------




--------------------------------------- Iteration      1(  13)  ---------------------------------------


    POTLOK:  cpu time    3.2457: real time    3.2562
    SETDIJ:  cpu time    0.0275: real time    0.0275
     EDDAV:  cpu time    6.8721: real time    6.8814
       DOS:  cpu time    0.0064: real time    0.0064
    CHARGE:  cpu time    0.7551: real time    0.7564
    MIXING:  cpu time    0.0847: real time    0.0849
    --------------------------------------------
      LOOP:  cpu time   10.9915: real time   11.0128

 eigenvalue-minimisations  :   320
 total energy-change (2. order) : 0.5720205E+00  (-0.6579090E+00)
 number of electron     100.0000056 magnetization       9.0726320
 augmentation part       54.3496690 magnetization       6.5831643

 Broyden mixing:
  rms(total) = 0.21761E+01    rms(broyden)= 0.21755E+01
  rms(prec ) = 0.22972E+01
  weight for this iteration     100.00

 eigenvalues of (default mixing * dielectric matrix)
  average eigenvalue GAMMA=   0.2922
  0.9769  0.4815  0.2746  0.1749  0.1643  0.0971  0.0971  0.0711

 Free energy of the ion-electron system (eV)
  ---------------------------------------------------
  alpha Z        PSCENC =         4.23285708
  Ewald energy   TEWEN  =     12692.93352031
  -Hartree energ DENC   =    -21709.05666959
  -exchange      EXHF   =         0.00000000
  -V(xc)+E(xc)   XCENC  =        62.21778504
  PAW double counting   =      9950.87087876   -10111.85722090
  entropy T*S    EENTRO =        -0.02016895
  eigenvalues    EBANDS =      -629.50147139
  atomic energy  EATOM  =      9704.95859309
  Solvation  Ediel_sol  =         0.00000000
  ---------------------------------------------------
  free energy    TOTEN  =       -35.22189655 eV

  energy without entropy =      -35.20172759  energy(sigma->0) =      -35.21517356


--------------------------------------------------------------------------------------------------------




--------------------------------------- Iteration      1(  14)  ---------------------------------------


    POTLOK:  cpu time    3.1772: real time    3.1892
    SETDIJ:  cpu time    0.0278: real time    0.0278
     EDDAV:  cpu time    7.7180: real time    7.7273
       DOS:  cpu time    0.0090: real time    0.0090
    CHARGE:  cpu time    0.7835: real time    0.7848
    MIXING:  cpu time    0.1036: real time    0.1037
    --------------------------------------------
      LOOP:  cpu time   11.8191: real time   11.8418

 eigenvalue-minimisations  :   375
 total energy-change (2. order) : 0.5242545E-01  (-0.3702074E+00)
 number of electron     100.0000058 magnetization       8.9761535
 augmentation part       54.2920939 magnetization       6.5479721

 Broyden mixing:
  rms(total) = 0.20667E+01    rms(broyden)= 0.20663E+01
  rms(prec ) = 0.21828E+01
  weight for this iteration     100.00

 eigenvalues of (default mixing * dielectric matrix)
  average eigenvalue GAMMA=   0.3357
  1.2131  0.5550  0.5550  0.1869  0.1869  0.0904  0.0904  0.0797  0.0635

 Free energy of the ion-electron system (eV)
  ---------------------------------------------------
  alpha Z        PSCENC =         4.23285708
  Ewald energy   TEWEN  =     12692.93352031
  -Hartree energ DENC   =    -21711.48168216
  -exchange      EXHF   =         0.00000000
  -V(xc)+E(xc)   XCENC  =        62.17067991
  PAW double counting   =      9967.18289945   -10128.75198661
  entropy T*S    EENTRO =        -0.01495660
  eigenvalues    EBANDS =      -626.39939558
  atomic energy  EATOM  =      9704.95859309
  Solvation  Ediel_sol  =         0.00000000
  ---------------------------------------------------
  free energy    TOTEN  =       -35.16947110 eV

  energy without entropy =      -35.15451450  energy(sigma->0) =      -35.16448557


--------------------------------------------------------------------------------------------------------




--------------------------------------- Iteration      1(  15)  ---------------------------------------


    POTLOK:  cpu time    3.2580: real time    3.2656
    SETDIJ:  cpu time    0.0282: real time    0.0282
     EDDAV:  cpu time    7.9540: real time    7.9703
       DOS:  cpu time    0.0084: real time    0.0084
    CHARGE:  cpu time    0.8211: real time    0.8221
    MIXING:  cpu time    0.1092: real time    0.1094
    --------------------------------------------
      LOOP:  cpu time   12.1788: real time   12.2038

 eigenvalue-minimisations  :   366
 total energy-change (2. order) : 0.3532678E+00  (-0.2001232E+00)
 number of electron     100.0000074 magnetization       8.9191711
 augmentation part       54.4555588 magnetization       6.5404958

 Broyden mixing:
  rms(total) = 0.12209E+01    rms(broyden)= 0.12204E+01
  rms(prec ) = 0.12980E+01
  weight for this iteration     100.00

 eigenvalues of (default mixing * dielectric matrix)
  average eigenvalue GAMMA=   0.3500
  1.2363  0.6312  0.6312  0.2922  0.1913  0.1913  0.0969  0.0969  0.0664  0.0664

 Free energy of the ion-electron system (eV)
  ---------------------------------------------------
  alpha Z        PSCENC =         4.23285708
  Ewald energy   TEWEN  =     12692.93352031
  -Hartree energ DENC   =    -21715.45863287
  -exchange      EXHF   =         0.00000000
  -V(xc)+E(xc)   XCENC  =        61.96209890
  PAW double counting   =     10007.01785331   -10169.51005066
  entropy T*S    EENTRO =        -0.03853596
  eigenvalues    EBANDS =      -620.91390654
  atomic energy  EATOM  =      9704.95859309
  Solvation  Ediel_sol  =         0.00000000
  ---------------------------------------------------
  free energy    TOTEN  =       -34.81620334 eV

  energy without entropy =      -34.77766738  energy(sigma->0) =      -34.80335802


--------------------------------------------------------------------------------------------------------




--------------------------------------- Iteration      1(  16)  ---------------------------------------


    POTLOK:  cpu time    3.4017: real time    3.4068
    SETDIJ:  cpu time    0.0257: real time    0.0257
     EDDAV:  cpu time    8.0501: real time    8.0594
       DOS:  cpu time    0.0084: real time    0.0111
    CHARGE:  cpu time    0.8384: real time    0.8394
    MIXING:  cpu time    0.1180: real time    0.1181
    --------------------------------------------
      LOOP:  cpu time   12.4422: real time   12.4604

 eigenvalue-minimisations  :   374
 total energy-change (2. order) :-0.7730390E-01  (-0.6351893E-01)
 number of electron     100.0000056 magnetization       8.9164278
 augmentation part       54.4270381 magnetization       6.6284614

 Broyden mixing:
  rms(total) = 0.85610E+00    rms(broyden)= 0.85567E+00
  rms(prec ) = 0.90016E+00
  weight for this iteration     100.00

 eigenvalues of (default mixing * dielectric matrix)
  average eigenvalue GAMMA=   0.3530
  1.2155  0.5941  0.5941  0.3921  0.3921  0.1843  0.1843  0.0960  0.0960  0.0670
  0.0670

 Free energy of the ion-electron system (eV)
  ---------------------------------------------------
  alpha Z        PSCENC =         4.23285708
  Ewald energy   TEWEN  =     12692.93352031
  -Hartree energ DENC   =    -21719.60411770
  -exchange      EXHF   =         0.00000000
  -V(xc)+E(xc)   XCENC  =        61.78578984
  PAW double counting   =     10020.35871942   -10183.38953422
  entropy T*S    EENTRO =        -0.03165015
  eigenvalues    EBANDS =      -616.13768492
  atomic energy  EATOM  =      9704.95859309
  Solvation  Ediel_sol  =         0.00000000
  ---------------------------------------------------
  free energy    TOTEN  =       -34.89350724 eV

  energy without entropy =      -34.86185709  energy(sigma->0) =      -34.88295719


--------------------------------------------------------------------------------------------------------




--------------------------------------- Iteration      1(  17)  ---------------------------------------


    POTLOK:  cpu time    3.1303: real time    3.1341
    SETDIJ:  cpu time    0.0263: real time    0.0264
     EDDAV:  cpu time    7.6193: real time    7.6279
       DOS:  cpu time    0.0077: real time    0.0077
    CHARGE:  cpu time    0.8228: real time    0.8238
    MIXING:  cpu time    0.1198: real time    0.1200
    --------------------------------------------
      LOOP:  cpu time   11.7263: real time   11.7398

 eigenvalue-minimisations  :   357
 total energy-change (2. order) :-0.8773993E-01  (-0.2018866E-01)
 number of electron     100.0000053 magnetization       8.8514761
 augmentation part       54.3406722 magnetization       6.5755150

 Broyden mixing:
  rms(total) = 0.59762E+00    rms(broyden)= 0.59743E+00
  rms(prec ) = 0.62525E+00
  weight for this iteration     100.00

 eigenvalues of (default mixing * dielectric matrix)
  average eigenvalue GAMMA=   0.4365
  1.4191  0.8570  0.8570  0.5162  0.5162  0.3728  0.1867  0.1867  0.0961  0.0961
  0.0669  0.0669

 Free energy of the ion-electron system (eV)
  ---------------------------------------------------
  alpha Z        PSCENC =         4.23285708
  Ewald energy   TEWEN  =     12692.93352031
  -Hartree energ DENC   =    -21720.58066923
  -exchange      EXHF   =         0.00000000
  -V(xc)+E(xc)   XCENC  =        61.70923564
  PAW double counting   =     10016.64078710   -10179.79614814
  entropy T*S    EENTRO =        -0.01902426
  eigenvalues    EBANDS =      -615.06039877
  atomic energy  EATOM  =      9704.95859309
  Solvation  Ediel_sol  =         0.00000000
  ---------------------------------------------------
  free energy    TOTEN  =       -34.98124717 eV

  energy without entropy =      -34.96222291  energy(sigma->0) =      -34.97490575


--------------------------------------------------------------------------------------------------------




--------------------------------------- Iteration      1(  18)  ---------------------------------------


    POTLOK:  cpu time    3.0593: real time    3.0692
    SETDIJ:  cpu time    0.0258: real time    0.0258
     EDDAV:  cpu time    6.9779: real time    6.9859
       DOS:  cpu time    0.0081: real time    0.0081
    CHARGE:  cpu time    0.8260: real time    0.8270
    MIXING:  cpu time    0.1358: real time    0.1360
    --------------------------------------------
      LOOP:  cpu time   11.0328: real time   11.0519

 eigenvalue-minimisations  :   309
 total energy-change (2. order) :-0.3990177E+00  (-0.2817503E-01)
 number of electron     100.0000058 magnetization       8.7531772
 augmentation part       54.4333925 magnetization       6.5315147

 Broyden mixing:
  rms(total) = 0.48726E+00    rms(broyden)= 0.48698E+00
  rms(prec ) = 0.51597E+00
  weight for this iteration     100.00

 eigenvalues of (default mixing * dielectric matrix)
  average eigenvalue GAMMA=   0.4778
  1.5042  1.0054  1.0054  0.5302  0.5302  0.4684  0.4684  0.1863  0.1863  0.0961
  0.0961  0.0669  0.0669

 Free energy of the ion-electron system (eV)
  ---------------------------------------------------
  alpha Z        PSCENC =         4.23285708
  Ewald energy   TEWEN  =     12692.93352031
  -Hartree energ DENC   =    -21721.06919372
  -exchange      EXHF   =         0.00000000
  -V(xc)+E(xc)   XCENC  =        61.35868881
  PAW double counting   =     10027.52082458   -10190.30058382
  entropy T*S    EENTRO =        -0.00568757
  eigenvalues    EBANDS =      -615.00928359
  atomic energy  EATOM  =      9704.95859309
  Solvation  Ediel_sol  =         0.00000000
  ---------------------------------------------------
  free energy    TOTEN  =       -35.38026483 eV

  energy without entropy =      -35.37457726  energy(sigma->0) =      -35.37836898


--------------------------------------------------------------------------------------------------------




--------------------------------------- Iteration      1(  19)  ---------------------------------------


    POTLOK:  cpu time    3.2470: real time    3.2566
    SETDIJ:  cpu time    0.0287: real time    0.0287
     EDDAV:  cpu time    7.6628: real time    7.6718
       DOS:  cpu time    0.0090: real time    0.0090
    CHARGE:  cpu time    0.8315: real time    0.8325
    MIXING:  cpu time    0.1514: real time    0.1516
    --------------------------------------------
      LOOP:  cpu time   11.9304: real time   11.9502

 eigenvalue-minimisations  :   342
 total energy-change (2. order) :-0.4314739E+00  (-0.1635899E-01)
 number of electron     100.0000060 magnetization       8.6349602
 augmentation part       54.5330602 magnetization       6.4832151

 Broyden mixing:
  rms(total) = 0.40690E+00    rms(broyden)= 0.40673E+00
  rms(prec ) = 0.43193E+00
  weight for this iteration     100.00

 eigenvalues of (default mixing * dielectric matrix)
  average eigenvalue GAMMA=   0.5110
  1.3663  1.3663  0.8379  0.8379  0.5385  0.5385  0.5724  0.3977  0.1864  0.1864
  0.0961  0.0961  0.0669  0.0669

 Free energy of the ion-electron system (eV)
  ---------------------------------------------------
  alpha Z        PSCENC =         4.23285708
  Ewald energy   TEWEN  =     12692.93352031
  -Hartree energ DENC   =    -21724.39158393
  -exchange      EXHF   =         0.00000000
  -V(xc)+E(xc)   XCENC  =        61.00728389
  PAW double counting   =     10035.17410377   -10197.77257242
  entropy T*S    EENTRO =         0.00565039
  eigenvalues    EBANDS =      -611.95959092
  atomic energy  EATOM  =      9704.95859309
  Solvation  Ediel_sol  =         0.00000000
  ---------------------------------------------------
  free energy    TOTEN  =       -35.81173873 eV

  energy without entropy =      -35.81738911  energy(sigma->0) =      -35.81362219


--------------------------------------------------------------------------------------------------------




--------------------------------------- Iteration      1(  20)  ---------------------------------------


    POTLOK:  cpu time    3.2646: real time    3.2789
    SETDIJ:  cpu time    0.0264: real time    0.0264
     EDDAV:  cpu time    7.3690: real time    7.3767
       DOS:  cpu time    0.0075: real time    0.0075
    CHARGE:  cpu time    0.8182: real time    0.8219
    MIXING:  cpu time    0.1932: real time    0.1935
    --------------------------------------------
      LOOP:  cpu time   11.6790: real time   11.7049

 eigenvalue-minimisations  :   357
 total energy-change (2. order) :-0.4226808E+00  (-0.1587318E-01)
 number of electron     100.0000052 magnetization       8.5727773
 augmentation part       54.4830703 magnetization       6.4613800

 Broyden mixing:
  rms(total) = 0.17056E+00    rms(broyden)= 0.16986E+00
  rms(prec ) = 0.17645E+00
  weight for this iteration     100.00

 eigenvalues of (default mixing * dielectric matrix)
  average eigenvalue GAMMA=   0.5360
  1.2692  1.2692  1.1401  0.8278  0.8278  0.5610  0.5610  0.4430  0.4430  0.1864
  0.1864  0.0961  0.0961  0.0669  0.0669

 Free energy of the ion-electron system (eV)
  ---------------------------------------------------
  alpha Z        PSCENC =         4.23285708
  Ewald energy   TEWEN  =     12692.93352031
  -Hartree energ DENC   =    -21731.03837622
  -exchange      EXHF   =         0.00000000
  -V(xc)+E(xc)   XCENC  =        60.75531024
  PAW double counting   =     10037.39126613   -10200.26536388
  entropy T*S    EENTRO =         0.01708506
  eigenvalues    EBANDS =      -605.21931139
  atomic energy  EATOM  =      9704.95859309
  Solvation  Ediel_sol  =         0.00000000
  ---------------------------------------------------
  free energy    TOTEN  =       -36.23441957 eV

  energy without entropy =      -36.25150462  energy(sigma->0) =      -36.24011459


--------------------------------------------------------------------------------------------------------




--------------------------------------- Iteration      1(  21)  ---------------------------------------


    POTLOK:  cpu time    3.2352: real time    3.2430
    SETDIJ:  cpu time    0.0261: real time    0.0261
     EDDAV:  cpu time    6.3109: real time    6.3178
       DOS:  cpu time    0.0109: real time    0.0109
    CHARGE:  cpu time    0.8165: real time    0.8174
    MIXING:  cpu time    0.1777: real time    0.1779
    --------------------------------------------
      LOOP:  cpu time   10.5773: real time   10.5931

 eigenvalue-minimisations  :   293
 total energy-change (2. order) :-0.2419308E+00  (-0.4511692E-02)
 number of electron     100.0000051 magnetization       8.5003065
 augmentation part       54.5080140 magnetization       6.4199073

 Broyden mixing:
  rms(total) = 0.16086E+00    rms(broyden)= 0.16063E+00
  rms(prec ) = 0.16838E+00
  weight for this iteration     100.00

 eigenvalues of (default mixing * dielectric matrix)
  average eigenvalue GAMMA=   0.5954
  1.7117  1.7117  0.8047  0.8047  0.8937  0.8937  0.5614  0.5614  0.4659  0.4190
  0.1864  0.1864  0.0961  0.0961  0.0669  0.0669

 Free energy of the ion-electron system (eV)
  ---------------------------------------------------
  alpha Z        PSCENC =         4.23285708
  Ewald energy   TEWEN  =     12692.93352031
  -Hartree energ DENC   =    -21733.17256822
  -exchange      EXHF   =         0.00000000
  -V(xc)+E(xc)   XCENC  =        60.55939859
  PAW double counting   =     10039.13735044   -10202.08505932
  entropy T*S    EENTRO =         0.01623821
  eigenvalues    EBANDS =      -603.05668058
  atomic energy  EATOM  =      9704.95859309
  Solvation  Ediel_sol  =         0.00000000
  ---------------------------------------------------
  free energy    TOTEN  =       -36.47635037 eV

  energy without entropy =      -36.49258859  energy(sigma->0) =      -36.48176311


--------------------------------------------------------------------------------------------------------




--------------------------------------- Iteration      1(  22)  ---------------------------------------


    POTLOK:  cpu time    3.2625: real time    3.2669
    SETDIJ:  cpu time    0.0272: real time    0.0272
     EDDAV:  cpu time    7.4178: real time    7.4295
       DOS:  cpu time    0.0064: real time    0.0064
    CHARGE:  cpu time    0.8213: real time    0.8223
    MIXING:  cpu time    0.1775: real time    0.1777
    --------------------------------------------
      LOOP:  cpu time   11.7127: real time   11.7300

 eigenvalue-minimisations  :   342
 total energy-change (2. order) :-0.2361038E+00  (-0.2471538E-02)
 number of electron     100.0000050 magnetization       8.4492302
 augmentation part       54.4861403 magnetization       6.3819954

 Broyden mixing:
  rms(total) = 0.11994E+00    rms(broyden)= 0.11988E+00
  rms(prec ) = 0.12561E+00
  weight for this iteration     100.00

 eigenvalues of (default mixing * dielectric matrix)
  average eigenvalue GAMMA=   0.6124
  1.7401  1.7401  1.0027  1.0027  0.7689  0.7689  0.7108  0.5553  0.5553  0.4334
  0.4334  0.1864  0.1864  0.0961  0.0961  0.0669  0.0669

 Free energy of the ion-electron system (eV)
  ---------------------------------------------------
  alpha Z        PSCENC =         4.23285708
  Ewald energy   TEWEN  =     12692.93352031
  -Hartree energ DENC   =    -21736.29100994
  -exchange      EXHF   =         0.00000000
  -V(xc)+E(xc)   XCENC  =        60.38504317
  PAW double counting   =     10038.60989250   -10201.68447542
  entropy T*S    EENTRO =         0.01700425
  eigenvalues    EBANDS =      -599.87387923
  atomic energy  EATOM  =      9704.95859309
  Solvation  Ediel_sol  =         0.00000000
  ---------------------------------------------------
  free energy    TOTEN  =       -36.71245418 eV

  energy without entropy =      -36.72945843  energy(sigma->0) =      -36.71812227


--------------------------------------------------------------------------------------------------------




--------------------------------------- Iteration      1(  23)  ---------------------------------------


    POTLOK:  cpu time    3.1317: real time    3.1376
    SETDIJ:  cpu time    0.0254: real time    0.0254
     EDDAV:  cpu time    7.1496: real time    7.1604
       DOS:  cpu time    0.0064: real time    0.0065
    CHARGE:  cpu time    0.8102: real time    0.8110
    MIXING:  cpu time    0.1929: real time    0.1958
    --------------------------------------------
      LOOP:  cpu time   11.3162: real time   11.3368

 eigenvalue-minimisations  :   333
 total energy-change (2. order) :-0.1453411E+00  (-0.1026601E-02)
 number of electron     100.0000050 magnetization       8.3920857
 augmentation part       54.4810174 magnetization       6.3280219

 Broyden mixing:
  rms(total) = 0.81919E-01    rms(broyden)= 0.81872E-01
  rms(prec ) = 0.86020E-01
  weight for this iteration     100.00

 eigenvalues of (default mixing * dielectric matrix)
  average eigenvalue GAMMA=   0.6604
  2.3080  1.4939  1.2013  1.2013  0.7452  0.7452  0.7560  0.7560  0.5566  0.5566
  0.4341  0.4341  0.1864  0.1864  0.0961  0.0961  0.0669  0.0669

 Free energy of the ion-electron system (eV)
  ---------------------------------------------------
  alpha Z        PSCENC =         4.23285708
  Ewald energy   TEWEN  =     12692.93352031
  -Hartree energ DENC   =    -21738.19796305
  -exchange      EXHF   =         0.00000000
  -V(xc)+E(xc)   XCENC  =        60.25959313
  PAW double counting   =     10038.67780278   -10201.83664985
  entropy T*S    EENTRO =         0.01631398
  eigenvalues    EBANDS =      -597.90186276
  atomic energy  EATOM  =      9704.95859309
  Solvation  Ediel_sol  =         0.00000000
  ---------------------------------------------------
  free energy    TOTEN  =       -36.85779529 eV

  energy without entropy =      -36.87410927  energy(sigma->0) =      -36.86323329


--------------------------------------------------------------------------------------------------------




--------------------------------------- Iteration      1(  24)  ---------------------------------------


    POTLOK:  cpu time    3.1007: real time    3.1125
    SETDIJ:  cpu time    0.0290: real time    0.0290
     EDDAV:  cpu time    7.1136: real time    7.1296
       DOS:  cpu time    0.0066: real time    0.0066
    CHARGE:  cpu time    0.7369: real time    0.7403
    MIXING:  cpu time    0.1877: real time    0.1879
    --------------------------------------------
      LOOP:  cpu time   11.1745: real time   11.2059

 eigenvalue-minimisations  :   332
 total energy-change (2. order) :-0.1341945E+00  (-0.5365970E-03)
 number of electron     100.0000049 magnetization       8.3397137
 augmentation part       54.4794414 magnetization       6.2755164

 Broyden mixing:
  rms(total) = 0.52575E-01    rms(broyden)= 0.52546E-01
  rms(prec ) = 0.55974E-01
  weight for this iteration     100.00

 eigenvalues of (default mixing * dielectric matrix)
  average eigenvalue GAMMA=   0.6882
  2.5187  1.6560  1.2427  1.2427  0.7564  0.7564  0.8116  0.8116  0.5566  0.5566
  0.5972  0.4355  0.4355  0.1864  0.1864  0.0961  0.0961  0.0669  0.0669

 Free energy of the ion-electron system (eV)
  ---------------------------------------------------
  alpha Z        PSCENC =         4.23285708
  Ewald energy   TEWEN  =     12692.93352031
  -Hartree energ DENC   =    -21740.21138964
  -exchange      EXHF   =         0.00000000
  -V(xc)+E(xc)   XCENC  =        60.14546522
  PAW double counting   =     10037.93339102   -10201.17211073
  entropy T*S    EENTRO =         0.01833332
  eigenvalues    EBANDS =      -595.83064948
  atomic energy  EATOM  =      9704.95859309
  Solvation  Ediel_sol  =         0.00000000
  ---------------------------------------------------
  free energy    TOTEN  =       -36.99198981 eV

  energy without entropy =      -37.01032313  energy(sigma->0) =      -36.99810092


--------------------------------------------------------------------------------------------------------




--------------------------------------- Iteration      1(  25)  ---------------------------------------


    POTLOK:  cpu time    3.1668: real time    3.1779
    SETDIJ:  cpu time    0.0279: real time    0.0279
     EDDAV:  cpu time    7.5055: real time    7.5167
       DOS:  cpu time    0.0067: real time    0.0067
    CHARGE:  cpu time    0.8303: real time    0.8339
    MIXING:  cpu time    0.2354: real time    0.2357
    --------------------------------------------
      LOOP:  cpu time   11.7726: real time   11.7990

 eigenvalue-minimisations  :   341
 total energy-change (2. order) :-0.1107567E+00  (-0.3818716E-03)
 number of electron     100.0000049 magnetization       8.2989280
 augmentation part       54.4800224 magnetization       6.2352844

 Broyden mixing:
  rms(total) = 0.32151E-01    rms(broyden)= 0.32110E-01
  rms(prec ) = 0.34245E-01
  weight for this iteration     100.00

 eigenvalues of (default mixing * dielectric matrix)
  average eigenvalue GAMMA=   0.7111
  2.6414  1.6380  1.2943  1.2943  0.9760  0.9760  0.7344  0.7344  0.5521  0.5521
  0.6310  0.6310  0.4346  0.4346  0.1864  0.1864  0.0961  0.0961  0.0669  0.0669

 Free energy of the ion-electron system (eV)
  ---------------------------------------------------
  alpha Z        PSCENC =         4.23285708
  Ewald energy   TEWEN  =     12692.93352031
  -Hartree energ DENC   =    -21741.79889264
  -exchange      EXHF   =         0.00000000
  -V(xc)+E(xc)   XCENC  =        60.05043166
  PAW double counting   =     10036.24474654   -10199.50717456
  entropy T*S    EENTRO =         0.01980829
  eigenvalues    EBANDS =      -594.23663630
  atomic energy  EATOM  =      9704.95859309
  Solvation  Ediel_sol  =         0.00000000
  ---------------------------------------------------
  free energy    TOTEN  =       -37.10274652 eV

  energy without entropy =      -37.12255481  energy(sigma->0) =      -37.10934928


--------------------------------------------------------------------------------------------------------




--------------------------------------- Iteration      1(  26)  ---------------------------------------


    POTLOK:  cpu time    3.3780: real time    3.3847
    SETDIJ:  cpu time    0.0266: real time    0.0267
     EDDAV:  cpu time    6.3023: real time    6.3125
       DOS:  cpu time    0.0046: real time    0.0046
    CHARGE:  cpu time    0.8401: real time    0.8412
    MIXING:  cpu time    0.2332: real time    0.2335
    --------------------------------------------
      LOOP:  cpu time   10.7848: real time   10.8031

 eigenvalue-minimisations  :   269
 total energy-change (2. order) :-0.7608429E-01  (-0.1573703E-03)
 number of electron     100.0000049 magnetization       8.2560527
 augmentation part       54.4760219 magnetization       6.1944039

 Broyden mixing:
  rms(total) = 0.20017E-01    rms(broyden)= 0.19985E-01
  rms(prec ) = 0.21558E-01
  weight for this iteration     100.00

 eigenvalues of (default mixing * dielectric matrix)
  average eigenvalue GAMMA=   0.7282
  2.6796  1.7582  1.3001  1.3001  1.0143  1.0143  0.7349  0.7349  0.7382  0.7382
  0.5547  0.5547  0.6029  0.4346  0.4346  0.1864  0.1864  0.0961  0.0961  0.0669
  0.0669

 Free energy of the ion-electron system (eV)
  ---------------------------------------------------
  alpha Z        PSCENC =         4.23285708
  Ewald energy   TEWEN  =     12692.93352031
  -Hartree energ DENC   =    -21742.89655757
  -exchange      EXHF   =         0.00000000
  -V(xc)+E(xc)   XCENC  =        59.98260562
  PAW double counting   =     10034.62078312   -10197.88089914
  entropy T*S    EENTRO =         0.01952855
  eigenvalues    EBANDS =      -593.14926187
  atomic energy  EATOM  =      9704.95859309
  Solvation  Ediel_sol  =         0.00000000
  ---------------------------------------------------
  free energy    TOTEN  =       -37.17883081 eV

  energy without entropy =      -37.19835936  energy(sigma->0) =      -37.18534032


--------------------------------------------------------------------------------------------------------




--------------------------------------- Iteration      1(  27)  ---------------------------------------


    POTLOK:  cpu time    3.2229: real time    3.2364
    SETDIJ:  cpu time    0.0273: real time    0.0273
     EDDAV:  cpu time    5.6253: real time    5.6339
       DOS:  cpu time    0.0058: real time    0.0058
    CHARGE:  cpu time    0.7416: real time    0.7423
    MIXING:  cpu time    0.2277: real time    0.2280
    --------------------------------------------
      LOOP:  cpu time    9.8505: real time    9.8737

 eigenvalue-minimisations  :   245
 total energy-change (2. order) :-0.6688447E-01  (-0.1033780E-03)
 number of electron     100.0000049 magnetization       8.2074485
 augmentation part       54.4714286 magnetization       6.1497141

 Broyden mixing:
  rms(total) = 0.16035E-01    rms(broyden)= 0.16018E-01
  rms(prec ) = 0.17410E-01
  weight for this iteration     100.00

 eigenvalues of (default mixing * dielectric matrix)
  average eigenvalue GAMMA=   0.7544
  2.7448  1.9735  1.2494  1.2494  1.2620  0.9147  0.9147  0.7379  0.7379  0.8222
  0.5538  0.5538  0.6961  0.6183  0.4346  0.4346  0.1864  0.1864  0.0961  0.0961
  0.0669  0.0669

 Free energy of the ion-electron system (eV)
  ---------------------------------------------------
  alpha Z        PSCENC =         4.23285708
[...]

 eigenvalue-minimisations  :   165
 total energy-change (2. order) :-0.8137159E-04  (-0.6936851E-05)
 number of electron     100.0000144 magnetization       7.9180915
 augmentation part       54.3835669 magnetization       5.9639735

 Free energy of the ion-electron system (eV)
  ---------------------------------------------------
  alpha Z        PSCENC =         4.23285708
  Ewald energy   TEWEN  =     13028.38722295
  -Hartree energ DENC   =    -22073.12504013
  -exchange      EXHF   =         0.00000000
  -V(xc)+E(xc)   XCENC  =        60.17121129
  PAW double counting   =     10149.31222343   -10313.98341364
  entropy T*S    EENTRO =         0.01514216
  eigenvalues    EBANDS =      -597.74586080
  atomic energy  EATOM  =      9704.95859309
  Solvation  Ediel_sol  =         0.00000000
  ---------------------------------------------------
  free energy    TOTEN  =       -37.77706456 eV

  energy without entropy =      -37.79220672  energy(sigma->0) =      -37.78211195


--------------------------------------------------------------------------------------------------------




 average (electrostatic) potential at core
  the test charge radii are     0.9791  1.1199
  (the norm of the test charge is              1.0000)
       1 -95.3548       2 -95.3470       3 -95.4180       4 -95.3801       5 -95.3937
       6 -95.2085       7 -83.6833       8 -83.5834       9 -83.6747      10 -83.6076
 
 
 
 E-fermi :  -4.1378     XC(G=0):  -0.2768     alpha+bet : -0.1538


 spin component 1

 k-point     1 :       0.0000    0.0000    0.0000
  band No.  band energies     occupation 
      1      -9.8882      1.00000
      2      -8.6025      1.00000
      3      -8.3728      1.00000
      4      -8.0520      1.00000
      5      -7.8756      1.00000
      6      -7.7982      1.00000
      7      -7.6181      1.00000
      8      -7.5497      1.00000
      9      -7.3648      1.00000
     10      -7.2354      1.00000
     11      -7.1622      1.00000
     12      -7.1035      1.00000
     13      -7.0692      1.00000
     14      -7.0217      1.00000
     15      -6.9152      1.00000
     16      -6.9003      1.00000
     17      -6.8830      1.00000
     18      -6.6620      1.00000
     19      -6.5128      1.00000
     20      -6.4733      1.00000
     21      -6.3176      1.00000
     22      -6.1250      1.00000
     23      -6.0730      1.00000
     24      -6.0046      1.00000
     25      -5.9651      1.00000
     26      -5.9163      1.00000
     27      -5.8553      1.00000
     28      -5.7724      1.00000
     29      -5.7412      1.00000
     30      -5.6854      1.00000
     31      -5.6447      1.00000
     32      -5.5632      1.00000
     33      -5.4799      1.00000
     34      -5.4644      1.00000
     35      -5.4348      1.00000
     36      -5.4225      1.00000
     37      -5.3754      1.00000
     38      -5.3502      1.00000
     39      -5.3190      1.00000
     40      -5.2378      1.00000
     41      -5.2261      1.00000
     42      -5.1606      1.00000
     43      -5.1294      1.00000
     44      -5.1071      1.00000
     45      -5.0785      1.00000
     46      -5.0508      1.00000
     47      -5.0130      1.00000
     48      -4.9417      1.00000
     49      -4.9020      1.00000
     50      -4.8902      1.00000
     51      -4.8292      1.00001
     52      -4.7375      1.00009
     53      -4.6735      1.00050
     54      -4.2766      0.95787
     55      -3.4588     -0.00001
     56      -2.8092     -0.00000
     57      -2.5246     -0.00000
     58      -2.4444     -0.00000
     59      -2.0460     -0.00000
     60      -1.5821     -0.00000
     61      -1.4365     -0.00000
     62      -0.8600     -0.00000
     63      -0.6642     -0.00000
     64      -0.4340     -0.00000
     65      -0.3951     -0.00000

 spin component 2

 k-point     1 :       0.0000    0.0000    0.0000
  band No.  band energies     occupation 
      1      -9.8071      1.00000
      2      -8.2849      1.00000
      3      -7.9784      1.00000
      4      -7.5607      1.00000
      5      -7.2780      1.00000
      6      -7.2548      1.00000
      7      -6.9402      1.00000
      8      -6.8607      1.00000
      9      -6.7188      1.00000
     10      -6.6471      1.00000
     11      -6.5529      1.00000
     12      -6.4714      1.00000
     13      -6.4478      1.00000
     14      -6.3637      1.00000
     15      -6.3032      1.00000
     16      -6.2104      1.00000
     17      -6.1596      1.00000
     18      -6.0016      1.00000
     19      -5.9744      1.00000
     20      -5.9299      1.00000
     21      -5.7231      1.00000
     22      -5.7042      1.00000
     23      -5.6284      1.00000
     24      -5.5654      1.00000
     25      -5.4579      1.00000
     26      -5.3481      1.00000
     27      -5.2506      1.00000
     28      -5.2082      1.00000
     29      -5.1574      1.00000
     30      -5.0644      1.00000
     31      -5.0176      1.00000
     32      -4.9793      1.00000
     33      -4.9587      1.00000
     34      -4.9141      1.00000
     35      -4.8669      1.00000
     36      -4.7564      1.00005
     37      -4.7274      1.00012
     38      -4.6299      1.00138
     39      -4.5890      1.00321
     40      -4.5499      1.00653
     41      -4.4586      1.02287
     42      -4.4372      1.02776
     43      -4.4231      1.03075
     44      -4.3550      1.03193
     45      -4.2100      0.78487
     46      -4.1949      0.73135
     47      -4.1100      0.38393
     48      -4.0124      0.06842
     49      -4.0005      0.04496
     50      -3.9437     -0.02174
     51      -3.9307     -0.02843
     52      -3.8509     -0.03045
     53      -3.7387     -0.00812
     54      -3.7367     -0.00786
     55      -3.1596     -0.00000
     56      -2.5105     -0.00000
     57      -2.2890     -0.00000
     58      -2.1183     -0.00000
     59      -1.7528     -0.00000
     60      -1.3728     -0.00000
     61      -1.1818     -0.00000
     62      -0.7205     -0.00000
     63      -0.4753     -0.00000
     64      -0.3071     -0.00000
     65      -0.2727     -0.00000


--------------------------------------------------------------------------------------------------------


 soft charge-density along one line, spin component            1
         0         1         2         3         4         5         6         7         8         9
 total charge-density along one line
 
 soft charge-density along one line, spin component            2
         0         1         2         3         4         5         6         7         8         9
 total charge-density along one line
 
 pseudopotential strength for first ion, spin component:            1
-10.468   0.029   0.073  -0.099  -0.001 -10.730   0.028   0.070
  0.029 -10.162   0.080   0.022   0.054   0.028 -10.437   0.077
  0.073   0.080 -10.318  -0.089  -0.142   0.070   0.077 -10.586
 -0.099   0.022  -0.089 -10.122  -0.061  -0.095   0.021  -0.085
 -0.001   0.054  -0.142  -0.061 -10.184  -0.001   0.051  -0.136
-10.730   0.028   0.070  -0.095  -0.001 -10.937   0.027   0.066
  0.028 -10.437   0.077   0.021   0.051   0.027 -10.657   0.073
  0.070   0.077 -10.586  -0.085  -0.136   0.066   0.073 -10.801
 -0.095   0.021  -0.085 -10.399  -0.058  -0.091   0.021  -0.081
 -0.001   0.051  -0.136  -0.058 -10.458  -0.001   0.049  -0.130
  0.012   0.012  -0.016   0.013  -0.024   0.012   0.011  -0.016
  0.022   0.020  -0.029   0.022  -0.042   0.021   0.020  -0.028
 -0.005   0.003   0.004   0.002   0.000  -0.005   0.003   0.004
  0.002   0.000   0.004  -0.008   0.001   0.002   0.000   0.004
 -0.005   0.002   0.003   0.005  -0.008  -0.005   0.002   0.003
 -0.004   0.001   0.005   0.003   0.002  -0.003   0.001   0.005
  0.003  -0.001   0.001  -0.007   0.001   0.003  -0.001   0.001
 -0.008   0.003   0.002   0.003  -0.007  -0.008   0.003   0.002
 pseudopotential strength for first ion, spin component:            2
 -9.336  -0.052  -0.012   0.010   0.008  -9.649  -0.050  -0.012
 -0.052  -9.486  -0.066  -0.030   0.017  -0.050  -9.794  -0.064
 -0.012  -0.066  -9.306   0.031  -0.017  -0.012  -0.064  -9.620
  0.010  -0.030   0.031  -9.357  -0.010   0.010  -0.029   0.030
  0.008   0.017  -0.017  -0.010  -9.486   0.008   0.016  -0.016
 -9.649  -0.050  -0.012   0.010   0.008  -9.906  -0.048  -0.011
 -0.050  -9.794  -0.064  -0.029   0.016  -0.048 -10.046  -0.062
 -0.012  -0.064  -9.620   0.030  -0.016  -0.011  -0.062  -9.879
  0.010  -0.029   0.030  -9.671  -0.009   0.010  -0.028   0.029
  0.008   0.016  -0.016  -0.009  -9.794   0.008   0.015  -0.015
  0.003   0.004  -0.006   0.006  -0.008   0.003   0.004  -0.006
  0.005   0.007  -0.010   0.010  -0.013   0.005   0.006  -0.009
 -0.012   0.010  -0.001  -0.001  -0.001  -0.011   0.009  -0.001
 -0.001   0.001   0.012  -0.011   0.000  -0.001   0.001   0.011
  0.002  -0.001   0.007   0.011  -0.011   0.002  -0.001   0.006
 -0.013   0.011  -0.002  -0.001  -0.001  -0.012   0.010  -0.001
 -0.001   0.001   0.012  -0.011   0.000  -0.001   0.001   0.011
  0.003  -0.001   0.008   0.012  -0.011   0.002  -0.001   0.007
 total augmentation occupancy for first ion, spin component:            1
  2.583   0.021   0.123  -0.076  -0.008  -1.162   0.063   0.025  -0.038   0.060  -0.192  -0.020  -0.147   0.029   0.041   0.004
  0.021   3.590   0.279   0.253   0.002   0.055  -1.519  -0.096  -0.174   0.041  -0.125   0.026   0.231   0.053   0.043  -0.008
  0.123   0.279   2.828  -0.267  -0.266   0.022  -0.102  -1.167   0.144   0.083   0.241   0.013  -0.036   0.163   0.119   0.001
 -0.076   0.253  -0.267   3.158  -0.200  -0.039  -0.172   0.147  -1.185   0.111  -0.013  -0.054   0.031  -0.137   0.101  -0.003
 -0.008   0.002  -0.266  -0.200   3.545   0.060   0.049   0.058   0.098  -1.563   0.229   0.009  -0.073  -0.051  -0.180   0.005
 -1.162   0.055   0.022  -0.039   0.060   1.300  -0.091  -0.102   0.084  -0.104   0.224  -0.004   0.190  -0.011  -0.095  -0.018
  0.063  -1.519  -0.102  -0.172   0.049  -0.091   1.333   0.020   0.129  -0.066   0.106  -0.023  -0.274  -0.050  -0.022   0.026
  0.025  -0.096  -1.167   0.147   0.058  -0.102   0.020   1.154  -0.101   0.033  -0.267   0.007   0.069  -0.224  -0.135  -0.006
 -0.038  -0.174   0.144  -1.185   0.098   0.084   0.129  -0.101   1.030  -0.061   0.011   0.041  -0.014   0.163  -0.125   0.002
  0.060   0.041   0.083   0.111  -1.563  -0.104  -0.066   0.033  -0.061   1.433  -0.257   0.006   0.077   0.064   0.212  -0.010
 -0.192  -0.125   0.241  -0.013   0.229   0.224   0.106  -0.267   0.011  -0.257   1.932  -0.212  -0.086  -0.213   0.201   0.013
 -0.020   0.026   0.013  -0.054   0.009  -0.004  -0.023   0.007   0.041   0.006  -0.212   0.032   0.014   0.040  -0.039  -0.002
 -0.147   0.231  -0.036   0.031  -0.073   0.190  -0.274   0.069  -0.014   0.077  -0.086   0.014   0.258   0.009   0.040  -0.023
  0.029   0.053   0.163  -0.137  -0.051  -0.011  -0.050  -0.224   0.163   0.064  -0.213   0.040   0.009   0.163   0.010  -0.001
  0.041   0.043   0.119   0.101  -0.180  -0.095  -0.022  -0.135  -0.125   0.212   0.201  -0.039   0.040   0.010   0.195  -0.002
  0.004  -0.008   0.001  -0.003   0.005  -0.018   0.026  -0.006   0.002  -0.010   0.013  -0.002  -0.023  -0.001  -0.002   0.002
 -0.004   0.001   0.003   0.000   0.006   0.003   0.005   0.020  -0.016  -0.007   0.039  -0.006  -0.001  -0.019   0.002   0.000
  0.006  -0.003  -0.005   0.002   0.001   0.004   0.002   0.014   0.014  -0.019  -0.038   0.005  -0.002   0.002  -0.020   0.000
 total augmentation occupancy for first ion, spin component:            2
  1.866  -0.178  -0.258   0.287   0.052  -0.895   0.068   0.122  -0.131  -0.035  -0.074  -0.032  -0.046  -0.034   0.053  -0.007
 -0.178   0.612  -0.360  -0.101  -0.105   0.077  -0.300   0.156   0.039   0.055   0.016   0.009   0.032  -0.010  -0.027   0.006
 -0.258  -0.360   1.338   0.344   0.395   0.128   0.163  -0.589  -0.170  -0.211   0.069   0.019  -0.022   0.017  -0.002  -0.002
  0.287  -0.101   0.344   0.759   0.156  -0.131   0.036  -0.170  -0.346  -0.083  -0.028  -0.012  -0.028   0.007   0.025  -0.001
  0.052  -0.105   0.395   0.156   0.708  -0.037   0.045  -0.177  -0.071  -0.356   0.059   0.017  -0.001   0.008  -0.019  -0.002
 -0.895   0.077   0.128  -0.131  -0.037   0.326  -0.024  -0.050   0.054   0.028   0.037   0.020   0.015   0.015  -0.017   0.004
  0.068  -0.300   0.163   0.036   0.045  -0.024   0.075  -0.062  -0.012  -0.022  -0.009  -0.002  -0.009   0.006   0.012  -0.004
  0.122   0.156  -0.589  -0.170  -0.177  -0.050  -0.062   0.166   0.080   0.082  -0.034  -0.012   0.002   0.008   0.006   0.001
 -0.131   0.039  -0.170  -0.346  -0.071   0.054  -0.012   0.080   0.085   0.034   0.016   0.006   0.012  -0.011  -0.008   0.000
 -0.035   0.055  -0.211  -0.083  -0.356   0.028  -0.022   0.082   0.034   0.103  -0.028  -0.011  -0.003  -0.006   0.005   0.001
 -0.074   0.016   0.069  -0.028   0.059   0.037  -0.009  -0.034   0.016  -0.028  -0.092   0.053   0.023   0.024  -0.031  -0.001
 -0.032   0.009   0.019  -0.012   0.017   0.020  -0.002  -0.012   0.006  -0.011   0.053  -0.007  -0.000  -0.004   0.002   0.000
 -0.046   0.032  -0.022  -0.028  -0.001   0.015  -0.009   0.002   0.012  -0.003   0.023  -0.000  -0.003   0.001  -0.008   0.003
 -0.034  -0.010   0.017   0.007   0.008   0.015   0.006   0.008  -0.011  -0.006   0.024  -0.004   0.001  -0.008  -0.002   0.000
  0.053  -0.027  -0.002   0.025  -0.019  -0.017   0.012   0.006  -0.008   0.005  -0.031   0.002  -0.008  -0.002  -0.000   0.001
 -0.007   0.006  -0.002  -0.001  -0.002   0.004  -0.004   0.001   0.000   0.001  -0.001   0.000   0.003   0.000   0.001  -0.000
 -0.002   0.001   0.008  -0.005   0.000   0.001  -0.001  -0.005   0.003   0.000  -0.002   0.001   0.000   0.002   0.000  -0.000
  0.005  -0.001   0.004   0.005  -0.004  -0.002  -0.000  -0.002  -0.003   0.003   0.003  -0.001   0.001   0.000   0.002  -0.000


------------------------ aborting loop because EDIFF is reached ----------------------------------------


    CHARGE:  cpu time    0.8289: real time    0.8299
    FORLOC:  cpu time    0.0980: real time    0.0981
    FORNL :  cpu time    3.1994: real time    3.2052
    FORCOR:  cpu time    3.1178: real time    3.1219
    FORHAR:  cpu time    0.4881: real time    0.4914
    MIXING:  cpu time    0.0761: real time    0.0762
    OFIELD:  cpu time    0.0001: real time    0.0000

 VOLUME and BASIS-vectors are now :
 -----------------------------------------------------------------------------
  energy-cutoff  :      400.00
  volume of cell :    13388.06
      direct lattice vectors                 reciprocal lattice vectors
    22.523196134  0.000000000  0.000000000     0.044398672  0.000000000  0.000000000
     0.000000000 24.746152174  0.000000000     0.000000000  0.040410323  0.000000000
     0.000000000  0.000000000 24.020378429     0.000000000  0.000000000  0.041631317

  length of vectors
    22.523196134 24.746152174 24.020378429     0.044398672  0.040410323  0.041631317


 FORCES acting on ions
    electron-ion (+dipol)            ewald-force                    non-local-force                 convergence-correction
 -----------------------------------------------------------------------------------------------
   0.536E+03 -.160E+03 -.758E+03   -.534E+03 0.159E+03 0.755E+03   -.212E+01 0.894E+00 0.235E+01   -.200E-01 -.215E-01 0.477E-01
   -.427E+03 0.914E+03 -.236E+03   0.424E+03 -.909E+03 0.235E+03   0.348E+01 -.468E+01 0.451E+00   -.959E-02 -.396E-01 0.384E-01
   0.428E+03 -.841E+03 0.160E+03   -.427E+03 0.838E+03 -.159E+03   -.157E+01 0.309E+01 -.188E+00   0.555E-02 0.357E-02 -.514E-01
   0.370E+03 0.611E+03 0.471E+03   -.371E+03 -.610E+03 -.469E+03   0.763E+00 -.159E+01 -.143E+01   0.179E-01 -.303E-02 -.327E-01
   -.906E+03 -.966E+02 0.207E+03   0.904E+03 0.964E+02 -.206E+03   0.214E+01 0.239E+00 -.124E+01   -.153E-01 -.138E-01 -.521E-01
   -.480E+03 -.107E+03 0.933E+03   0.475E+03 0.106E+03 -.927E+03   0.509E+01 0.643E+00 -.580E+01   0.272E-01 0.122E-01 -.104E+00
   -.197E+03 -.884E+03 -.425E+03   0.195E+03 0.877E+03 0.422E+03   0.185E+01 0.730E+01 0.301E+01   -.480E-02 0.196E-01 0.291E-01
   -.643E+03 0.321E+02 -.748E+03   0.638E+03 -.315E+02 0.742E+03   0.489E+01 -.565E+00 0.639E+01   -.125E-01 -.187E-01 0.421E-01
   0.669E+03 0.655E+03 -.297E+03   -.662E+03 -.650E+03 0.294E+03   -.694E+01 -.505E+01 0.245E+01   0.471E-02 -.786E-02 0.203E-01
   0.650E+03 -.124E+03 0.693E+03   -.643E+03 0.124E+03 -.687E+03   -.706E+01 0.552E+00 -.540E+01   0.498E-01 0.434E-02 -.346E-01
 -----------------------------------------------------------------------------------------------
   -.579E+00 -.785E+00 -.484E+00   0.114E-12 0.853E-13 -.114E-12   0.524E+00 0.846E+00 0.596E+00   0.430E-01 -.648E-01 -.973E-01
 
 
 POSITION                                       TOTAL-FORCE (eV/Angst)
 -----------------------------------------------------------------------------------
     10.11873     12.42290     13.72652        -0.010525      0.000077     -0.009343
     11.40325     10.57936     13.16751        -0.001403     -0.007789     -0.003293
     10.08145     13.80641     11.69269        -0.002545      0.012856     -0.007526
     10.02584     11.44393     11.43555         0.001330     -0.021790     -0.000424
     12.11970     12.60374     12.15651         0.001214     -0.001468     -0.016725
     11.33503     12.77398     10.01372         0.012617      0.013155      0.010713
     11.40123     14.54577     13.59166        -0.006855      0.006565      0.009617
     12.53293     12.28846     14.56113         0.011360     -0.010588     -0.003385
      9.01694     10.26964     13.29712         0.000298      0.010189      0.021530
      8.92640     12.86170      9.76990        -0.005492     -0.001206     -0.001164
 -----------------------------------------------------------------------------------
    total drift:                               -0.012077     -0.003509      0.014957


--------------------------------------------------------------------------------------------------------



  FREE ENERGIE OF THE ION-ELECTRON SYSTEM (eV)
  ---------------------------------------------------
  free  energy   TOTEN  =       -37.77706456 eV

  energy  without entropy=      -37.79220672  energy(sigma->0) =      -37.78211195
 
 d Force = 0.3151173E-06[-0.614E-05, 0.677E-05]  d Energy = 0.2722854E-03-0.272E-03
 d Force = 0.6869276E+00[ 0.687E+00, 0.687E+00]  d Ewald  = 0.6869276E+00 0.279E-08


--------------------------------------------------------------------------------------------------------


    POTLOK:  cpu time    3.3249: real time    3.3328


--------------------------------------------------------------------------------------------------------




--------------------------------------------------------------------------------------------------------


  
 reached required accuracy - stopping structural energy minimisation
     LOOP+:  cpu time   71.3650: real time   72.4358
    4ORBIT:  cpu time    0.0000: real time    0.0000

 total amount of memory used by VASP MPI-rank0   156809. kBytes
=======================================================================

   base      :      30000. kBytes
   nonl-proj :       3403. kBytes
   fftplans  :      30880. kBytes
   grid      :      76691. kBytes
   one-center:         15. kBytes
   wavefun   :      15820. kBytes
 
  
  
 General timing and accounting informations for this job:
 ========================================================
  
                  Total CPU time used (sec):     2687.620
                            User time (sec):     2661.573
                          System time (sec):       26.047
                         Elapsed time (sec):     2700.483
  
                   Maximum memory used (kb):      350300.
                   Average memory used (kb):           0.
  
                          Minor page faults:      6576549
                          Major page faults:        92236
                 Voluntary context switches:         4447
