unknown system                          
            1
    22.523196    0.000000    0.000000
     0.000000   24.746152    0.000000
     0.000000    0.000000   24.020378
   Ni   Pd
     6     4
Direct configuration=     1
   0.44698683  0.50346873  0.56890045
   0.51000117  0.42325695  0.55019315
   0.44782798  0.56237357  0.48591656
   0.44613444  0.46108048  0.47550566
   0.53792683  0.50899377  0.50583128
   0.50201542  0.51747414  0.41006113
   0.51131540  0.58596782  0.56861223
   0.54945707  0.49850660  0.60865738
   0.40253149  0.41367181  0.55571099
   0.39475216  0.51975608  0.40842875
Direct configuration=     2
   0.44731981  0.50323344  0.56819230
   0.50896392  0.42427268  0.54959937
   0.44871532  0.56108183  0.48581752
   0.44678656  0.46173746  0.47590937
   0.53698796  0.50871294  0.50543094
   0.50150094  0.51734978  0.41224302
   0.51020883  0.58712780  0.56756298
   0.55033251  0.49714923  0.60903401
   0.40318003  0.41410573  0.55536155
   0.39495291  0.51977905  0.40866650
Direct configuration=     3
   0.44760511  0.50303185  0.56758556
   0.50807521  0.42514295  0.54909063
   0.44947560  0.55997507  0.48573266
   0.44734529  0.46230035  0.47625527
   0.53618353  0.50847234  0.50508793
   0.50106013  0.51724324  0.41411247
   0.50926072  0.58812167  0.56666399
   0.55108258  0.49598624  0.60935671
   0.40373570  0.41447752  0.55506215
   0.39512491  0.51979874  0.40887020
Direct configuration=     4
   0.44818965  0.50325553  0.56803046
   0.50793508  0.42604384  0.54871062
   0.44973946  0.55988284  0.48592852
   0.44716210  0.46206594  0.47600242
   0.53673180  0.50850043  0.50553985
   0.50155571  0.51709550  0.41520685
   0.50847182  0.58808634  0.56593105
   0.55138156  0.49558017  0.60883618
   0.40317083  0.41431846  0.55480634
   0.39461080  0.51972091  0.40882527
Direct configuration=     5
   0.44865497  0.50343359  0.56838462
   0.50782353  0.42676098  0.54840812
   0.44994951  0.55980942  0.48608444
   0.44701627  0.46187933  0.47580115
   0.53716824  0.50852279  0.50589960
   0.50195021  0.51697790  0.41607803
   0.50784382  0.58805822  0.56534760
   0.55161955  0.49525692  0.60842182
   0.40272117  0.41419185  0.55460270
   0.39420154  0.51965895  0.40878950
Direct configuration=     6
   0.44858624  0.50308825  0.56896385
   0.50743581  0.42700593  0.54810061
   0.44935234  0.55971430  0.48579930
   0.44642274  0.46171041  0.47563432
   0.53819510  0.50864701  0.50611830
   0.50238824  0.51683338  0.41638395
   0.50760717  0.58822825  0.56527277
   0.55225634  0.49540815  0.60820885
   0.40235559  0.41431350  0.55431113
   0.39434924  0.51960076  0.40902448
Direct configuration=     7
   0.44854738  0.50289304  0.56929129
   0.50721663  0.42714441  0.54792678
   0.44901476  0.55966053  0.48563812
   0.44608722  0.46161492  0.47554001
   0.53877558  0.50871723  0.50624194
   0.50263585  0.51675169  0.41655689
   0.50747339  0.58832437  0.56523047
   0.55261631  0.49549364  0.60808846
   0.40214893  0.41438227  0.55414630
   0.39443274  0.51956786  0.40915732
Direct configuration=     8
   0.44862765  0.50266083  0.56938441
   0.50695965  0.42718073  0.54774311
   0.44877000  0.55930238  0.48591706
   0.44590945  0.46190646  0.47570719
   0.53890413  0.50895473  0.50616125
   0.50282495  0.51656307  0.41670239
   0.50731867  0.58812799  0.56519958
   0.55322441  0.49586650  0.60801555
   0.40174066  0.41445096  0.55397551
   0.39466923  0.51953630  0.40901151
Direct configuration=     9
   0.44875275  0.50229897  0.56952954
   0.50655919  0.42723733  0.54745689
   0.44838858  0.55874426  0.48635175
   0.44563241  0.46236079  0.47596773
   0.53910446  0.50932483  0.50603551
   0.50311964  0.51626914  0.41692913
   0.50707755  0.58782196  0.56515144
   0.55417203  0.49644754  0.60790192
   0.40110442  0.41455801  0.55370937
   0.39503778  0.51948712  0.40878429
Direct configuration=    10
   0.44898205  0.50209295  0.56998756
   0.50663508  0.42747493  0.54756474
   0.44812862  0.55848181  0.48654802
   0.44552152  0.46240286  0.47618244
   0.53904349  0.50940113  0.50618068
   0.50316478  0.51614073  0.41697252
   0.50696902  0.58766778  0.56532228
   0.55462613  0.49667973  0.60732336
   0.40059365  0.41463384  0.55353128
   0.39528446  0.51957418  0.40820471
Direct configuration=    11
   0.44908665  0.50199898  0.57019647
   0.50666970  0.42758331  0.54761393
   0.44801004  0.55836210  0.48663754
   0.44547094  0.46242205  0.47628037
   0.53901569  0.50943594  0.50624689
   0.50318536  0.51608216  0.41699231
   0.50691952  0.58759746  0.56540021
   0.55483325  0.49678564  0.60705946
   0.40036067  0.41466843  0.55345005
   0.39539698  0.51961389  0.40794034
Direct configuration=    12
   0.44908372  0.50180961  0.57091177
   0.50659908  0.42758366  0.54788882
   0.44773682  0.55815357  0.48659711
   0.44529914  0.46241101  0.47622143
   0.53878159  0.50942666  0.50603154
   0.50307448  0.51603383  0.41712113
   0.50674487  0.58780357  0.56567815
   0.55553089  0.49677509  0.60667191
   0.40023083  0.41485132  0.55334924
   0.39586738  0.51970164  0.40734649
Direct configuration=    13
   0.44908299  0.50176269  0.57108897
   0.50658158  0.42758375  0.54795691
   0.44766913  0.55810191  0.48658709
   0.44525658  0.46240827  0.47620683
   0.53872360  0.50942437  0.50597819
   0.50304701  0.51602186  0.41715303
   0.50670161  0.58785463  0.56574700
   0.55570372  0.49677247  0.60657590
   0.40019867  0.41489663  0.55332426
   0.39598391  0.51972338  0.40719937
Direct configuration=    14
   0.44917453  0.50193287  0.57149397
   0.50637473  0.42746487  0.54815141
   0.44765080  0.55804819  0.48683434
   0.44513022  0.46239668  0.47611715
   0.53830603  0.50941115  0.50594812
   0.50318035  0.51608869  0.41700795
   0.50633908  0.58780885  0.56577433
   0.55628297  0.49667933  0.60635067
   0.40030714  0.41498130  0.55340351
   0.39620294  0.51973804  0.40673611
Direct configuration=    15
   0.44917745  0.50193830  0.57150690
   0.50636812  0.42746107  0.54815762
   0.44765021  0.55804647  0.48684224
   0.44512619  0.46239631  0.47611429
   0.53829269  0.50941072  0.50594716
   0.50318461  0.51609083  0.41700332
   0.50632750  0.58780739  0.56577521
   0.55630147  0.49667635  0.60634348
   0.40031061  0.41498400  0.55340604
   0.39620994  0.51973851  0.40672132
Direct configuration=    16
   0.44926434  0.50201916  0.57144889
   0.50628304  0.42751952  0.54818276
   0.44759928  0.55791173  0.48677748
   0.44513483  0.46245717  0.47607419
   0.53808366  0.50931438  0.50610292
   0.50326625  0.51620904  0.41687518
   0.50618960  0.58779878  0.56584350
   0.55645673  0.49657326  0.60618783
   0.40034233  0.41500075  0.55358999
   0.39632873  0.51974616  0.40673484
Direct configuration=    17
   0.44925805  0.50201332  0.57145308
   0.50628920  0.42751530  0.54818094
   0.44760296  0.55792148  0.48678216
   0.44513420  0.46245277  0.47607709
   0.53809878  0.50932134  0.50609165
   0.50326035  0.51620049  0.41688445
   0.50619958  0.58779940  0.56583856
   0.55644550  0.49658071  0.60619909
   0.40034004  0.41499954  0.55357669
   0.39632014  0.51974561  0.40673386
