  10  10   0   0
  0.1094276E+04  0.2262984E-08  0.2238829E-08  0.2159854E-08  0.5000000E-15
   1.0000000000000000E-004
  CAR 
 unknown system                          
      2.01182149    -11.94605507  301     -4.19039043      1.00000000
    -11.946  0.0000E+00  0.0000E+00  0.0000E+00  0.0000E+00
    -11.900  0.0000E+00  0.0000E+00  0.0000E+00  0.0000E+00
    -11.853  0.0000E+00  0.0000E+00  0.0000E+00  0.0000E+00
    -11.806  0.0000E+00  0.0000E+00  0.0000E+00  0.0000E+00
    -11.760  0.0000E+00  0.0000E+00  0.0000E+00  0.0000E+00
    -11.713  0.0000E+00  0.0000E+00  0.0000E+00  0.0000E+00
    -11.667  0.0000E+00  0.0000E+00  0.0000E+00  0.0000E+00
    -11.620  0.0000E+00  0.0000E+00  0.0000E+00  0.0000E+00
    -11.574 -0.8404E-30  0.0000E+00 -0.3910E-31  0.0000E+00
    -11.527 -0.3328E-28  0.0000E+00 -0.1587E-29  0.0000E+00
    -11.481 -0.1208E-26 -0.5614E-29 -0.5778E-28 -0.2612E-30
    -11.434 -0.3929E-25 -0.2100E-27 -0.1886E-26 -0.1003E-28
    -11.388 -0.1145E-23 -0.7208E-26 -0.5517E-25 -0.3454E-27
    -11.341 -0.2992E-22 -0.2217E-24 -0.1447E-23 -0.1066E-25
    -11.295 -0.7002E-21 -0.6113E-23 -0.3402E-22 -0.2951E-24
    -11.248 -0.1468E-19 -0.1510E-21 -0.7171E-21 -0.7321E-23
    -11.202 -0.2757E-18 -0.3342E-20 -0.1355E-19 -0.1628E-21
    -11.155 -0.4637E-17 -0.6625E-19 -0.2293E-18 -0.3245E-20
    -11.109 -0.6745E-16 -0.1176E-17 -0.3367E-17 -0.5797E-19
    -11.062 -0.9115E-15 -0.1870E-16 -0.4578E-16 -0.9281E-18
    -11.016 -0.1096E-13 -0.2578E-15 -0.5558E-15 -0.1292E-16
    -10.969 -0.1179E-12 -0.3278E-14 -0.6042E-14 -0.1654E-15
    -10.922 -0.1134E-11 -0.3726E-13 -0.5880E-13 -0.1899E-14
    -10.876 -0.9740E-11 -0.3785E-12 -0.5120E-12 -0.1951E-13
    -10.829 -0.7471E-10 -0.3437E-11 -0.3988E-11 -0.1794E-12
    -10.783 -0.5113E-09 -0.2787E-10 -0.2778E-10 -0.1476E-11
    -10.736 -0.3119E-08 -0.2018E-09 -0.1729E-09 -0.1086E-10
    -10.690 -0.1694E-07 -0.1302E-08 -0.9611E-09 -0.7146E-10
    -10.643 -0.8181E-07 -0.7490E-08 -0.4768E-08 -0.4200E-09
    -10.597 -0.3506E-06 -0.3833E-07 -0.2108E-07 -0.2203E-08
    -10.550 -0.1330E-05 -0.1742E-06 -0.8298E-07 -0.1031E-07
    -10.504 -0.4453E-05 -0.7021E-06 -0.2902E-06 -0.4297E-07
    -10.457 -0.1309E-04 -0.2500E-05 -0.8992E-06 -0.1593E-06
    -10.411 -0.3353E-04 -0.7840E-05 -0.2459E-05 -0.5241E-06
    -10.364 -0.7400E-04 -0.2151E-04 -0.5902E-05 -0.1525E-05
    -10.318 -0.1377E-03 -0.5117E-04 -0.1231E-04 -0.3906E-05
    -10.271 -0.2062E-03 -0.1039E-03 -0.2190E-04 -0.8740E-05
    -10.225 -0.2179E-03 -0.1746E-03 -0.3204E-04 -0.1686E-04
    -10.178 -0.5837E-04 -0.2253E-03 -0.3475E-04 -0.2735E-04
    -10.132  0.4061E-03 -0.1668E-03 -0.1586E-04 -0.3511E-04
    -10.085  0.1243E-02  0.1329E-03  0.4197E-04 -0.2892E-04
    -10.038  0.2352E-02  0.7871E-03  0.1514E-03  0.7698E-05
     -9.992  0.3438E-02  0.1788E-02  0.3113E-03  0.9090E-04
     -9.945  0.4112E-02  0.2932E-02  0.5027E-03  0.2273E-03
     -9.899  0.4102E-02  0.3855E-02  0.6935E-03  0.4067E-03
     -9.852  0.3412E-02  0.4200E-02  0.8523E-03  0.6020E-03
     -9.806  0.2321E-02  0.3823E-02  0.9602E-03  0.7799E-03
     -9.759  0.1216E-02  0.2882E-02  0.1017E-02  0.9140E-03
     -9.713  0.3887E-03  0.1738E-02  0.1035E-02  0.9949E-03
     -9.666 -0.6614E-04  0.7493E-03  0.1032E-02  0.1030E-02
     -9.620 -0.2192E-03  0.1123E-03  0.1022E-02  0.1035E-02
     -9.573 -0.2047E-03 -0.1736E-03  0.1012E-02  0.1027E-02
     -9.527 -0.1357E-03 -0.2245E-03  0.1006E-02  0.1016E-02
     -9.480 -0.7259E-04 -0.1713E-03  0.1002E-02  0.1008E-02
     -9.434 -0.3275E-04 -0.1010E-03  0.1001E-02  0.1004E-02
     -9.387 -0.1274E-04 -0.4937E-04  0.1000E-02  0.1001E-02
     -9.341 -0.4318E-05 -0.2061E-04  0.1000E-02  0.1000E-02
     -9.294 -0.1286E-05 -0.7466E-05  0.1000E-02  0.1000E-02
     -9.248 -0.3388E-06 -0.2367E-05  0.1000E-02  0.1000E-02
     -9.201 -0.8511E-07 -0.6609E-06  0.1000E-02  0.1000E-02
     -9.154 -0.5025E-07 -0.1631E-06  0.1000E-02  0.1000E-02
     -9.108 -0.1593E-06 -0.3569E-07  0.1000E-02  0.1000E-02
     -9.061 -0.6372E-06 -0.6939E-08  0.1000E-02  0.1000E-02
     -9.015 -0.2295E-05 -0.1212E-08  0.9999E-03  0.1000E-02
     -8.968 -0.7294E-05 -0.2744E-09  0.9995E-03  0.1000E-02
     -8.922 -0.2034E-04 -0.6315E-09  0.9986E-03  0.1000E-02
     -8.875 -0.4941E-04 -0.3662E-08  0.9963E-03  0.1000E-02
     -8.829 -0.1033E-03 -0.1967E-07  0.9915E-03  0.1000E-02
     -8.782 -0.1817E-03 -0.9398E-07  0.9830E-03  0.1000E-02
     -8.736 -0.2564E-03 -0.3986E-06  0.9711E-03  0.1000E-02
     -8.689 -0.2508E-03 -0.1497E-05  0.9594E-03  0.9999E-03
     -8.643 -0.3957E-04 -0.4959E-05  0.9576E-03  0.9997E-03
     -8.596  0.5094E-03 -0.1443E-04  0.9813E-03  0.9990E-03
     -8.550  0.1455E-02 -0.3664E-04  0.1049E-02  0.9973E-03
     -8.503  0.2714E-02 -0.8028E-04  0.1175E-02  0.9936E-03
     -8.457  0.4057E-02 -0.1489E-03  0.1364E-02  0.9866E-03
     -8.410  0.5203E-02 -0.2245E-03  0.1606E-02  0.9762E-03
     -8.364  0.5941E-02 -0.2468E-03  0.1882E-02  0.9647E-03
     -8.317  0.6211E-02 -0.1060E-03  0.2171E-02  0.9598E-03
     -8.270  0.6098E-02  0.3271E-03  0.2455E-02  0.9750E-03
     -8.224  0.5759E-02  0.1127E-02  0.2723E-02  0.1027E-02
     -8.177  0.5331E-02  0.2236E-02  0.2971E-02  0.1131E-02
     -8.131  0.4887E-02  0.3456E-02  0.3198E-02  0.1292E-02
     -8.084  0.4464E-02  0.4526E-02  0.3406E-02  0.1503E-02
     -8.038  0.4176E-02  0.5251E-02  0.3600E-02  0.1747E-02
     -7.991  0.4281E-02  0.5556E-02  0.3800E-02  0.2006E-02
     -7.945  0.5079E-02  0.5462E-02  0.4036E-02  0.2260E-02
     -7.898  0.6646E-02  0.5041E-02  0.4345E-02  0.2494E-02
     -7.852  0.8645E-02  0.4419E-02  0.4747E-02  0.2700E-02
     -7.805  0.1045E-01  0.3816E-02  0.5234E-02  0.2877E-02
     -7.759  0.1158E-01  0.3474E-02  0.5773E-02  0.3039E-02
     -7.712  0.1207E-01  0.3500E-02  0.6334E-02  0.3202E-02
     -7.666  0.1242E-01  0.3738E-02  0.6912E-02  0.3376E-02
     -7.619  0.1316E-01  0.3826E-02  0.7524E-02  0.3554E-02
     -7.573  0.1436E-01  0.3457E-02  0.8192E-02  0.3715E-02
     -7.526  0.1556E-01  0.2622E-02  0.8916E-02  0.3837E-02
     -7.480  0.1609E-01  0.1672E-02  0.9665E-02  0.3914E-02
     -7.433  0.1555E-01  0.1143E-02  0.1039E-01  0.3968E-02
     -7.386  0.1404E-01  0.1468E-02  0.1104E-01  0.4036E-02
     -7.340  0.1197E-01  0.2753E-02  0.1160E-01  0.4164E-02
     -7.293  0.9830E-02  0.4714E-02  0.1206E-01  0.4383E-02
     -7.247  0.7938E-02  0.6795E-02  0.1243E-01  0.4700E-02
     -7.200  0.6455E-02  0.8404E-02  0.1273E-01  0.5091E-02
     -7.154  0.5417E-02  0.9166E-02  0.1298E-01  0.5517E-02
     -7.107  0.4790E-02  0.9055E-02  0.1320E-01  0.5938E-02
     -7.061  0.4503E-02  0.8384E-02  0.1341E-01  0.6328E-02
     -7.014  0.4517E-02  0.7651E-02  0.1362E-01  0.6684E-02
     -6.968  0.4882E-02  0.7340E-02  0.1385E-01  0.7026E-02
     -6.921  0.5705E-02  0.7730E-02  0.1411E-01  0.7386E-02
     -6.875  0.7023E-02  0.8790E-02  0.1444E-01  0.7795E-02
     -6.828  0.8669E-02  0.1020E-01  0.1484E-01  0.8269E-02
     -6.782  0.1027E-01  0.1149E-01  0.1532E-01  0.8804E-02
     -6.735  0.1137E-01  0.1225E-01  0.1585E-01  0.9374E-02
     -6.689  0.1168E-01  0.1230E-01  0.1639E-01  0.9946E-02
     -6.642  0.1126E-01  0.1173E-01  0.1692E-01  0.1049E-01
     -6.596  0.1054E-01  0.1086E-01  0.1741E-01  0.1100E-01
     -6.549  0.1018E-01  0.1010E-01  0.1788E-01  0.1147E-01
     -6.502  0.1067E-01  0.9786E-02  0.1838E-01  0.1192E-01
     -6.456  0.1200E-01  0.1002E-01  0.1894E-01  0.1239E-01
     -6.409  0.1364E-01  0.1062E-01  0.1957E-01  0.1288E-01
     -6.363  0.1492E-01  0.1125E-01  0.2027E-01  0.1341E-01
     -6.316  0.1557E-01  0.1162E-01  0.2099E-01  0.1395E-01
     -6.270  0.1589E-01  0.1170E-01  0.2173E-01  0.1449E-01
     -6.223  0.1645E-01  0.1173E-01  0.2249E-01  0.1504E-01
     -6.177  0.1758E-01  0.1194E-01  0.2331E-01  0.1559E-01
     -6.130  0.1893E-01  0.1233E-01  0.2419E-01  0.1617E-01
     -6.084  0.1973E-01  0.1264E-01  0.2511E-01  0.1675E-01
     -6.037  0.1929E-01  0.1256E-01  0.2601E-01  0.1734E-01
     -5.991  0.1758E-01  0.1198E-01  0.2683E-01  0.1790E-01
     -5.944  0.1526E-01  0.1116E-01  0.2754E-01  0.1841E-01
     -5.898  0.1323E-01  0.1059E-01  0.2815E-01  0.1891E-01
     -5.851  0.1202E-01  0.1070E-01  0.2871E-01  0.1941E-01
     -5.805  0.1158E-01  0.1163E-01  0.2925E-01  0.1995E-01
     -5.758  0.1150E-01  0.1310E-01  0.2978E-01  0.2056E-01
     -5.712  0.1154E-01  0.1470E-01  0.3032E-01  0.2124E-01
     -5.665  0.1183E-01  0.1609E-01  0.3087E-01  0.2199E-01
     -5.618  0.1278E-01  0.1711E-01  0.3147E-01  0.2278E-01
     -5.572  0.1464E-01  0.1765E-01  0.3215E-01  0.2361E-01
     -5.525  0.1722E-01  0.1755E-01  0.3295E-01  0.2442E-01
     -5.479  0.1998E-01  0.1665E-01  0.3388E-01  0.2520E-01
     -5.432  0.2231E-01  0.1499E-01  0.3492E-01  0.2589E-01
     -5.386  0.2387E-01  0.1299E-01  0.3603E-01  0.2650E-01
     -5.339  0.2472E-01  0.1139E-01  0.3718E-01  0.2703E-01
     -5.293  0.2513E-01  0.1082E-01  0.3835E-01  0.2753E-01
     -5.246  0.2537E-01  0.1154E-01  0.3953E-01  0.2807E-01
     -5.200  0.2549E-01  0.1323E-01  0.4071E-01  0.2868E-01
     -5.153  0.2545E-01  0.1521E-01  0.4190E-01  0.2939E-01
     -5.107  0.2524E-01  0.1680E-01  0.4307E-01  0.3017E-01
     -5.060  0.2494E-01  0.1756E-01  0.4423E-01  0.3099E-01
     -5.014  0.2459E-01  0.1741E-01  0.4538E-01  0.3180E-01
     -4.967  0.2410E-01  0.1655E-01  0.4650E-01  0.3257E-01
     -4.921  0.2321E-01  0.1542E-01  0.4758E-01  0.3329E-01
     -4.874  0.2173E-01  0.1450E-01  0.4859E-01  0.3396E-01
     -4.828  0.1971E-01  0.1414E-01  0.4950E-01  0.3462E-01
     -4.781  0.1746E-01  0.1440E-01  0.5032E-01  0.3529E-01
     -4.734  0.1529E-01  0.1503E-01  0.5103E-01  0.3599E-01
     -4.688  0.1326E-01  0.1565E-01  0.5165E-01  0.3672E-01
     -4.641  0.1126E-01  0.1603E-01  0.5217E-01  0.3746E-01
     -4.595  0.9251E-02  0.1628E-01  0.5260E-01  0.3822E-01
     -4.548  0.7371E-02  0.1678E-01  0.5294E-01  0.3900E-01
     -4.502  0.5876E-02  0.1782E-01  0.5322E-01  0.3983E-01
     -4.455  0.4867E-02  0.1931E-01  0.5344E-01  0.4073E-01
     -4.409  0.4172E-02  0.2071E-01  0.5364E-01  0.4169E-01
     -4.362  0.3487E-02  0.2136E-01  0.5380E-01  0.4269E-01
     -4.316  0.2628E-02  0.2090E-01  0.5392E-01  0.4366E-01
     -4.269  0.1650E-02  0.1957E-01  0.5400E-01  0.4457E-01
     -4.223  0.7586E-03  0.1803E-01  0.5403E-01  0.4541E-01
     -4.176  0.1360E-03  0.1695E-01  0.5404E-01  0.4620E-01
     -4.130 -0.1733E-03  0.1670E-01  0.5403E-01  0.4698E-01
     -4.083 -0.2456E-03  0.1726E-01  0.5402E-01  0.4778E-01
     -4.037 -0.1982E-03  0.1830E-01  0.5401E-01  0.4863E-01
     -3.990 -0.1225E-03  0.1935E-01  0.5400E-01  0.4953E-01
     -3.944 -0.6252E-04  0.1989E-01  0.5400E-01  0.5046E-01
     -3.897 -0.2719E-04  0.1944E-01  0.5400E-01  0.5136E-01
     -3.850 -0.1024E-04  0.1774E-01  0.5400E-01  0.5219E-01
     -3.804 -0.3373E-05  0.1490E-01  0.5400E-01  0.5288E-01
     -3.757 -0.9903E-06  0.1134E-01  0.5400E-01  0.5341E-01
     -3.711 -0.3194E-06  0.7682E-02  0.5400E-01  0.5376E-01
     -3.664 -0.3622E-06  0.4473E-02  0.5400E-01  0.5397E-01
     -3.618 -0.1200E-05  0.2055E-02  0.5400E-01  0.5407E-01
     -3.571 -0.4092E-05  0.5141E-03  0.5400E-01  0.5409E-01
     -3.525 -0.1243E-04 -0.2682E-03  0.5400E-01  0.5408E-01
     -3.478 -0.3314E-04 -0.5189E-03  0.5400E-01  0.5405E-01
     -3.432 -0.7700E-04 -0.4789E-03  0.5399E-01  0.5403E-01
     -3.385 -0.1538E-03 -0.3352E-03  0.5399E-01  0.5402E-01
     -3.339 -0.2570E-03 -0.1960E-03  0.5397E-01  0.5401E-01
     -3.292 -0.3382E-03 -0.1024E-03  0.5396E-01  0.5400E-01
     -3.246 -0.2824E-03 -0.5839E-04  0.5395E-01  0.5400E-01
     -3.199  0.8598E-04 -0.5747E-04  0.5395E-01  0.5400E-01
     -3.153  0.9376E-03 -0.9546E-04  0.5399E-01  0.5399E-01
     -3.106  0.2323E-02 -0.1673E-03  0.5410E-01  0.5399E-01
     -3.060  0.4070E-02 -0.2491E-03  0.5429E-01  0.5397E-01
     -3.013  0.5789E-02 -0.2749E-03  0.5456E-01  0.5396E-01
     -2.966  0.7023E-02 -0.1273E-03  0.5489E-01  0.5395E-01
     -2.920  0.7482E-02  0.3328E-03  0.5524E-01  0.5397E-01
     -2.873  0.7199E-02  0.1193E-02  0.5557E-01  0.5403E-01
     -2.827  0.6476E-02  0.2413E-02  0.5587E-01  0.5414E-01
     -2.780  0.5676E-02  0.3804E-02  0.5614E-01  0.5432E-01
     -2.734  0.5012E-02  0.5101E-02  0.5637E-01  0.5455E-01
     -2.687  0.4516E-02  0.6089E-02  0.5658E-01  0.5484E-01
     -2.641  0.4159E-02  0.6683E-02  0.5677E-01  0.5515E-01
     -2.594  0.3981E-02  0.6917E-02  0.5696E-01  0.5547E-01
     -2.548  0.4078E-02  0.6857E-02  0.5715E-01  0.5579E-01
     -2.501  0.4480E-02  0.6530E-02  0.5736E-01  0.5609E-01
     -2.455  0.5073E-02  0.5933E-02  0.5759E-01  0.5637E-01
     -2.408  0.5630E-02  0.5117E-02  0.5785E-01  0.5661E-01
     -2.362  0.5914E-02  0.4267E-02  0.5813E-01  0.5680E-01
     -2.315  0.5752E-02  0.3668E-02  0.5840E-01  0.5697E-01
     -2.269  0.5081E-02  0.3560E-02  0.5863E-01  0.5714E-01
     -2.222  0.3970E-02  0.3987E-02  0.5882E-01  0.5733E-01
     -2.176  0.2624E-02  0.4749E-02  0.5894E-01  0.5755E-01
     -2.129  0.1320E-02  0.5515E-02  0.5900E-01  0.5780E-01
     -2.082  0.3166E-03  0.5969E-02  0.5902E-01  0.5808E-01
     -2.036 -0.2178E-03  0.5913E-02  0.5901E-01  0.5836E-01
     -1.989 -0.2095E-03  0.5288E-02  0.5900E-01  0.5860E-01
     -1.943  0.3402E-03  0.4179E-02  0.5901E-01  0.5880E-01
     -1.896  0.1339E-02  0.2803E-02  0.5907E-01  0.5893E-01
     -1.850  0.2554E-02  0.1450E-02  0.5919E-01  0.5899E-01
     -1.803  0.3621E-02  0.4014E-03  0.5936E-01  0.5901E-01
     -1.757  0.4161E-02 -0.1508E-03  0.5956E-01  0.5901E-01
     -1.710  0.3971E-02 -0.1166E-03  0.5974E-01  0.5900E-01
     -1.664  0.3143E-02  0.4938E-03  0.5989E-01  0.5902E-01
     -1.617  0.2011E-02  0.1551E-02  0.5998E-01  0.5910E-01
     -1.571  0.9508E-03  0.2775E-02  0.6002E-01  0.5922E-01
     -1.524  0.2024E-03  0.3770E-02  0.6003E-01  0.5940E-01
     -1.478 -0.1995E-03  0.4172E-02  0.6002E-01  0.5959E-01
     -1.431 -0.3570E-03  0.3831E-02  0.6001E-01  0.5977E-01
     -1.385 -0.3910E-03  0.2892E-02  0.5999E-01  0.5991E-01
     -1.338 -0.3472E-03  0.1710E-02  0.5997E-01  0.5999E-01
     -1.292 -0.1681E-03  0.6466E-03  0.5997E-01  0.6002E-01
     -1.245  0.2634E-03 -0.7598E-04  0.5998E-01  0.6001E-01
     -1.198  0.1025E-02 -0.3916E-03  0.6003E-01  0.6000E-01
     -1.152  0.2047E-02 -0.3039E-03  0.6012E-01  0.5998E-01
     -1.105  0.3088E-02  0.1823E-03  0.6026E-01  0.5999E-01
     -1.059  0.3844E-02  0.1039E-02  0.6044E-01  0.6004E-01
     -1.012  0.4142E-02  0.2130E-02  0.6064E-01  0.6014E-01
     -0.966  0.4067E-02  0.3179E-02  0.6082E-01  0.6028E-01
     -0.919  0.3901E-02  0.3874E-02  0.6101E-01  0.6046E-01
     -0.873  0.3912E-02  0.4057E-02  0.6119E-01  0.6065E-01
     -0.826  0.4185E-02  0.3849E-02  0.6138E-01  0.6083E-01
     -0.780  0.4637E-02  0.3561E-02  0.6160E-01  0.6100E-01
     -0.733  0.5158E-02  0.3462E-02  0.6184E-01  0.6116E-01
     -0.687  0.5730E-02  0.3600E-02  0.6211E-01  0.6133E-01
     -0.640  0.6392E-02  0.3851E-02  0.6240E-01  0.6151E-01
     -0.594  0.7138E-02  0.4136E-02  0.6273E-01  0.6170E-01
     -0.547  0.7846E-02  0.4550E-02  0.6310E-01  0.6191E-01
     -0.501  0.8300E-02  0.5268E-02  0.6349E-01  0.6216E-01
     -0.454  0.8291E-02  0.6293E-02  0.6387E-01  0.6245E-01
     -0.408  0.7734E-02  0.7346E-02  0.6423E-01  0.6279E-01
     -0.361  0.6747E-02  0.8014E-02  0.6455E-01  0.6316E-01
     -0.314  0.5642E-02  0.8047E-02  0.6481E-01  0.6354E-01
     -0.268  0.4774E-02  0.7533E-02  0.6503E-01  0.6389E-01
     -0.221  0.4332E-02  0.6803E-02  0.6523E-01  0.6420E-01
     -0.175  0.4207E-02  0.6192E-02  0.6543E-01  0.6449E-01
     -0.128  0.4068E-02  0.5847E-02  0.6562E-01  0.6476E-01
     -0.082  0.3611E-02  0.5699E-02  0.6578E-01  0.6503E-01
     -0.035  0.2767E-02  0.5544E-02  0.6591E-01  0.6529E-01
      0.011  0.1728E-02  0.5154E-02  0.6599E-01  0.6553E-01
      0.058  0.7859E-03  0.4396E-02  0.6603E-01  0.6573E-01
      0.104  0.1430E-03  0.3307E-02  0.6604E-01  0.6589E-01
      0.151 -0.1665E-03  0.2090E-02  0.6603E-01  0.6598E-01
      0.197 -0.2348E-03  0.1008E-02  0.6602E-01  0.6603E-01
      0.244 -0.1868E-03  0.2505E-03  0.6601E-01  0.6604E-01
      0.290 -0.1137E-03 -0.1426E-03  0.6600E-01  0.6603E-01
      0.337 -0.5713E-04 -0.2565E-03  0.6600E-01  0.6602E-01
      0.383 -0.2447E-04 -0.2215E-03  0.6600E-01  0.6601E-01
      0.430 -0.9083E-05 -0.1429E-03  0.6600E-01  0.6601E-01
      0.476 -0.2948E-05 -0.7561E-04  0.6600E-01  0.6600E-01
      0.523 -0.8420E-06 -0.3397E-04  0.6600E-01  0.6600E-01
      0.570 -0.2125E-06 -0.1319E-04  0.6600E-01  0.6600E-01
      0.616 -0.4751E-07 -0.4475E-05  0.6600E-01  0.6600E-01
      0.663 -0.9434E-08 -0.1334E-05  0.6600E-01  0.6600E-01
      0.709 -0.1667E-08 -0.3513E-06  0.6600E-01  0.6600E-01
      0.756 -0.2623E-09 -0.8191E-07  0.6600E-01  0.6600E-01
      0.802 -0.3681E-10 -0.1695E-07  0.6600E-01  0.6600E-01
      0.849 -0.4610E-11 -0.3121E-08  0.6600E-01  0.6600E-01
      0.895 -0.5156E-12 -0.5114E-09  0.6600E-01  0.6600E-01
      0.942 -0.5153E-13 -0.7473E-10  0.6600E-01  0.6600E-01
      0.988 -0.4605E-14 -0.9742E-11  0.6600E-01  0.6600E-01
      1.035 -0.3675E-15 -0.1134E-11  0.6600E-01  0.6600E-01
      1.081 -0.2863E-16 -0.1179E-12  0.6600E-01  0.6600E-01
      1.128  0.0000E+00 -0.1096E-13  0.6600E-01  0.6600E-01
      1.174  0.0000E+00 -0.9115E-15  0.6600E-01  0.6600E-01
      1.221  0.0000E+00 -0.6681E-16  0.6600E-01  0.6600E-01
      1.267  0.0000E+00 -0.4772E-17  0.6600E-01  0.6600E-01
      1.314  0.0000E+00  0.0000E+00  0.6600E-01  0.6600E-01
      1.360  0.0000E+00  0.0000E+00  0.6600E-01  0.6600E-01
      1.407  0.0000E+00  0.0000E+00  0.6600E-01  0.6600E-01
      1.454  0.0000E+00  0.0000E+00  0.6600E-01  0.6600E-01
      1.500  0.0000E+00  0.0000E+00  0.6600E-01  0.6600E-01
      1.547  0.0000E+00  0.0000E+00  0.6600E-01  0.6600E-01
      1.593  0.0000E+00  0.0000E+00  0.6600E-01  0.6600E-01
      1.640  0.0000E+00  0.0000E+00  0.6600E-01  0.6600E-01
      1.686  0.0000E+00  0.0000E+00  0.6600E-01  0.6600E-01
      1.733  0.0000E+00  0.0000E+00  0.6600E-01  0.6600E-01
      1.779  0.0000E+00  0.0000E+00  0.6600E-01  0.6600E-01
      1.826  0.0000E+00  0.0000E+00  0.6600E-01  0.6600E-01
      1.872  0.0000E+00  0.0000E+00  0.6600E-01  0.6600E-01
      1.919  0.0000E+00  0.0000E+00  0.6600E-01  0.6600E-01
      1.965  0.0000E+00  0.0000E+00  0.6600E-01  0.6600E-01
      2.012  0.0000E+00  0.0000E+00  0.6600E-01  0.6600E-01
