   10   10 1000    2
  0.1094276E+04  0.2262984E-08  0.2238829E-08  0.2159854E-08  0.5000000E-15
   1.0000000000000000E-004
  CAR 
 unknown system                          
    100      1     66
 
  0.1262379E-14  0.1262379E-14  0.1262379E-14  0.1000000E+01
    1       -9.946055     -9.876689   1.000000   1.000000
    2       -8.430818     -8.089252   1.000000   1.000000
    3       -8.269135     -7.900146   1.000000   1.000000
    4       -8.074497     -7.627889   1.000000   1.000000
    5       -7.829728     -7.253557   1.000000   1.000000
    6       -7.802560     -7.170511   1.000000   1.000000
    7       -7.734026     -7.054299   1.000000   1.000000
    8       -7.580608     -6.895079   1.000000   1.000000
    9       -7.530215     -6.784974   1.000000   1.000000
   10       -7.517921     -6.746123   1.000000   1.000000
   11       -7.435257     -6.642534   1.000000   1.000000
   12       -7.356736     -6.560166   1.000000   1.000000
   13       -7.237763     -6.421358   1.000000   1.000000
   14       -7.044225     -6.352509   1.000000   1.000000
   15       -6.844994     -6.296475   1.000000   1.000000
   16       -6.770731     -6.143157   1.000000   1.000000
   17       -6.667211     -6.129836   1.000000   1.000000
   18       -6.630952     -6.005095   1.000000   1.000000
   19       -6.451012     -5.978564   1.000000   1.000000
   20       -6.401377     -5.813911   1.000000   1.000000
   21       -6.370355     -5.756358   1.000000   1.000000
   22       -6.308196     -5.704605   1.000000   1.000000
   23       -6.212162     -5.633346   1.000000   1.000000
   24       -6.136246     -5.565947   1.000000   1.000000
   25       -6.093576     -5.521744   1.000000   1.000000
   26       -6.066057     -5.451829   1.000000   1.000000
   27       -6.053805     -5.436150   1.000000   1.000000
   28       -5.970971     -5.274851   1.000000   1.000000
   29       -5.827903     -5.193502   1.000000   1.000000
   30       -5.796204     -5.141463   1.000000   1.000000
   31       -5.719734     -5.100639   1.000000   1.000000
   32       -5.605864     -5.017891   1.000000   1.000000
   33       -5.528321     -4.988621   1.000000   1.000000
   34       -5.479300     -4.925513   1.000000   1.000001
   35       -5.466367     -4.815553   1.000000   1.000045
   36       -5.409278     -4.772018   1.000000   1.000155
   37       -5.370297     -4.684023   1.000000   1.001333
   38       -5.335441     -4.648220   1.000000   1.002819
   39       -5.289591     -4.606710   1.000000   1.006088
   40       -5.225300     -4.497157   1.000000   1.026121
   41       -5.203175     -4.451729   1.000000   1.034534
   42       -5.188692     -4.405114   1.000000   1.031177
   43       -5.125984     -4.372455   1.000000   1.013144
   44       -5.096882     -4.337221   1.000000   0.971233
   45       -5.045903     -4.305721   1.000000   0.909262
   46       -5.012009     -4.207239   1.000000   0.571014
   47       -4.938379     -4.154274   1.000001   0.349908
   48       -4.923593     -4.088045   1.000001   0.123528
   49       -4.882762     -4.050307   1.000006   0.039981
   50       -4.867185     -3.970197   1.000009  -0.032681
   51       -4.753785     -3.933708   1.000250  -0.034969
   52       -4.679560     -3.879282   1.001470  -0.025123
   53       -4.638515     -3.869929   1.003407  -0.022959
   54       -4.419396     -3.752376   1.034369  -0.004126
   55       -3.008028     -2.744625  -0.000000  -0.000000
   56       -2.904451     -2.590973  -0.000000  -0.000000
   57       -2.703026     -2.435669  -0.000000  -0.000000
   58       -2.465051     -2.176336  -0.000000  -0.000000
   59       -2.293986     -2.009160  -0.000000  -0.000000
   60       -1.769727     -1.500043  -0.000000  -0.000000
   61       -1.054666     -0.919231  -0.000000  -0.000000
   62       -0.802838     -0.649361  -0.000000  -0.000000
   63       -0.618449     -0.417032  -0.000000  -0.000000
   64       -0.494468     -0.346568  -0.000000  -0.000000
   65       -0.382566     -0.167414  -0.000000  -0.000000
   66       -0.144220      0.011821  -0.000000  -0.000000
