       N       E                     dE             d eps       ncg     rms          rms(c)
DAV:   1     0.726864416220E+03    0.72686E+03   -0.16212E+04   264   0.695E+02
DAV:   2     0.240955404097E+03   -0.48591E+03   -0.45255E+03   478   0.128E+02
DAV:   3     0.215602386925E+02   -0.21940E+03   -0.20673E+03   376   0.127E+02
DAV:   4    -0.375440423794E+02   -0.59104E+02   -0.49469E+02   424   0.543E+01
DAV:   5    -0.442638442497E+02   -0.67198E+01   -0.65310E+01   352   0.261E+01    0.276E+01
DAV:   6    -0.627277034328E+02   -0.18464E+02   -0.10239E+02   284   0.190E+02    0.566E+01
DAV:   7    -0.385264717025E+02    0.24201E+02   -0.60817E+01   324   0.755E+01    0.254E+01
DAV:   8    -0.386939315865E+02   -0.16746E+00   -0.28064E+01   342   0.841E+01    0.319E+01
DAV:   9    -0.389746989946E+02   -0.28077E+00   -0.22832E+01   342   0.714E+01    0.371E+01
DAV:  10    -0.365020851737E+02    0.24726E+01   -0.14868E+01   352   0.564E+01    0.208E+01
DAV:  11    -0.363247775582E+02    0.17731E+00   -0.83981E+00   358   0.335E+01    0.194E+01
DAV:  12    -0.357381797950E+02    0.58660E+00   -0.41281E+00   350   0.310E+01    0.118E+01
DAV:  13    -0.359679793411E+02   -0.22980E+00   -0.20189E+00   368   0.218E+01    0.113E+01
DAV:  14    -0.359708411122E+02   -0.28618E-02   -0.12012E+00   364   0.154E+01    0.610E+00
DAV:  15    -0.361834641047E+02   -0.21262E+00   -0.84949E-01   356   0.131E+01    0.870E+00
DAV:  16    -0.361808737814E+02    0.25903E-02   -0.58319E-01   348   0.123E+01    0.339E+00
DAV:  17    -0.364450704112E+02   -0.26420E+00   -0.28565E-01   364   0.695E+00    0.382E+00
DAV:  18    -0.367082109355E+02   -0.26314E+00   -0.10225E-01   348   0.320E+00    0.329E+00
DAV:  19    -0.369556850690E+02   -0.24747E+00   -0.94288E-02   402   0.420E+00    0.103E+00
DAV:  20    -0.371145811031E+02   -0.15890E+00   -0.25368E-02   332   0.144E+00    0.665E-01
DAV:  21    -0.372609257769E+02   -0.14634E+00   -0.14113E-02   356   0.164E+00    0.874E-01
DAV:  22    -0.373718949094E+02   -0.11097E+00   -0.82273E-03   326   0.110E+00    0.346E-01
DAV:  23    -0.374819606606E+02   -0.11007E+00   -0.43009E-03   322   0.427E-01    0.233E-01
DAV:  24    -0.375685411937E+02   -0.86581E-01   -0.20620E-03   296   0.344E-01    0.111E-01
DAV:  25    -0.376545058687E+02   -0.85965E-01   -0.24936E-03   282   0.294E-01    0.145E-01
DAV:  26    -0.377217524260E+02   -0.67247E-01   -0.20572E-03   282   0.179E-01    0.130E-01
DAV:  27    -0.377529479938E+02   -0.31196E-01   -0.55764E-04   230   0.125E-01    0.832E-02
DAV:  28    -0.377757476069E+02   -0.22800E-01   -0.54279E-04   242   0.762E-02    0.737E-02
DAV:  29    -0.377901620342E+02   -0.14414E-01   -0.31982E-04   218   0.946E-02    0.351E-02
DAV:  30    -0.377999312706E+02   -0.97692E-02   -0.28806E-04   212   0.753E-02    0.219E-02
DAV:  31    -0.378042453301E+02   -0.43141E-02   -0.10107E-04   196   0.604E-02    0.238E-02
DAV:  32    -0.378071109288E+02   -0.28656E-02   -0.96152E-05   198   0.433E-02    0.158E-02
DAV:  33    -0.378085337786E+02   -0.14228E-02   -0.55685E-05   188   0.282E-02    0.989E-03
DAV:  34    -0.378090860157E+02   -0.55224E-03   -0.20327E-05   184   0.229E-02    0.727E-03
DAV:  35    -0.378097826627E+02   -0.69665E-03   -0.30221E-05   178   0.190E-02    0.605E-03
DAV:  36    -0.378100687022E+02   -0.28604E-03   -0.14762E-05   184   0.148E-02    0.540E-03
DAV:  37    -0.378103358028E+02   -0.26710E-03   -0.14125E-05   170   0.107E-02    0.371E-03
DAV:  38    -0.378105169355E+02   -0.18113E-03   -0.10188E-05   176   0.972E-03    0.400E-03
DAV:  39    -0.378106774839E+02   -0.16055E-03   -0.98257E-06   178   0.988E-03    0.338E-03
DAV:  40    -0.378107301988E+02   -0.52715E-04   -0.44287E-06   168   0.821E-03
   1 F= -.37810730E+02 E0= -.37823192E+02  d E =-.378107E+02  mag=     8.0801
       N       E                     dE             d eps       ncg     rms          rms(c)
DAV:   1    -0.378108723447E+02   -0.19486E-03   -0.70106E-02   264   0.967E-01    0.919E-02
DAV:   2    -0.378112332617E+02   -0.36092E-03   -0.29188E-03   398   0.640E-01    0.477E-01
DAV:   3    -0.378106308231E+02    0.60244E-03   -0.25421E-03   292   0.701E-01    0.154E-01
DAV:   4    -0.378109838744E+02   -0.35305E-03   -0.55278E-04   218   0.355E-01    0.145E-01
DAV:   5    -0.378109381748E+02    0.45700E-04   -0.25698E-04   158   0.275E-01
   2 F= -.37810938E+02 E0= -.37823427E+02  d E =-.207976E-03  mag=     8.0799
       N       E                     dE             d eps       ncg     rms          rms(c)
DAV:   1    -0.378108817195E+02    0.10215E-03   -0.96815E-02   264   0.115E+00    0.121E-01
DAV:   2    -0.378117842074E+02   -0.90249E-03   -0.56093E-03   388   0.902E-01    0.697E-01
DAV:   3    -0.378104274810E+02    0.13567E-02   -0.46241E-03   308   0.943E-01    0.166E-01
DAV:   4    -0.378110360268E+02   -0.60855E-03   -0.84675E-04   250   0.438E-01    0.180E-01
DAV:   5    -0.378109968338E+02    0.39193E-04   -0.46035E-04   184   0.364E-01
   3 F= -.37810997E+02 E0= -.37823593E+02  d E =-.266635E-03  mag=     8.0797
