 vasp.6.1.2 22Jul20 (build Aug  2 2021 21:04:21) gamma-only                      
 executed on             LinuxPGI date 2021.12.22  20:40:41
 running on   16 total cores
 distrk:  each k-point on   16 cores,    1 groups
 distr:  one band on NCORE=   8 cores,    2 groups


--------------------------------------------------------------------------------------------------------


 INCAR:
 POTCAR:    PAW_PBE Ni 02Aug2007                  
 POTCAR:    PAW_PBE Pd 04Jan2005                  
 -----------------------------------------------------------------------------
|                                                                             |
|           W    W    AA    RRRRR   N    N  II  N    N   GGGG   !!!           |
|           W    W   A  A   R    R  NN   N  II  NN   N  G    G  !!!           |
|           W    W  A    A  R    R  N N  N  II  N N  N  G       !!!           |
|           W WW W  AAAAAA  RRRRR   N  N N  II  N  N N  G  GGG   !            |
|           WW  WW  A    A  R   R   N   NN  II  N   NN  G    G                |
|           W    W  A    A  R    R  N    N  II  N    N   GGGG   !!!           |
|                                                                             |
|     You use a magnetic or noncollinear calculation, but did not specify     |
|     the initial magnetic moment with the MAGMOM tag. Note that a            |
|     default of 1 will be used for all atoms. This ferromagnetic setup       |
|     may break the symmetry of the crystal, in particular it may rule        |
|     out finding an antiferromagnetic solution. Thence, we recommend         |
|     setting the initial magnetic moment manually or verifying carefully     |
|     that this magnetic setup is desired.                                    |
|                                                                             |
 -----------------------------------------------------------------------------

 POTCAR:    PAW_PBE Ni 02Aug2007                  
   SHA256 =  0534bc51ca8003dfef23f56753fef9fdd3e22eac8d719fccacb59f3e6b7a69c7 Ni/POTCAR             
   COPYR  = (c) Copyright 02Aug2007 Georg Kresse                                                    
   COPYR  = This file is part of the software VASP. Any use, copying, and all other rights are regul
   COPYR  = If you do not have a valid VASP license, you may not use, copy or distribute this file. 
   VRHFIN =Ni:                                                                                      
   LEXCH  = PE                                                                                      
   EATOM  =  1077.6739 eV,   79.2068 Ry                                                             
                                                                                                    
   TITEL  = PAW_PBE Ni 02Aug2007                                                                    
   LULTRA =        F    use ultrasoft PP ?                                                          
   IUNSCR =        1    unscreen: 0-lin 1-nonlin 2-no                                               
   RPACOR =    2.000    partial core radius                                                         
   POMASS =   58.690; ZVAL   =   10.000    mass and valenz                                          
   RCORE  =    2.300    outmost cutoff radius                                                       
   RWIGS  =    2.430; RWIGS  =    1.286    wigner-seitz radius (au A)                               
   ENMAX  =  269.532; ENMIN  =  202.149 eV                                                          
   RCLOC  =    1.201    cutoff for local pot                                                        
   LCOR   =        T    correct aug charges                                                         
   LPAW   =        T    paw PP                                                                      
   EAUG   =  544.565                                                                                
   DEXC   =    0.000                                                                                
   RMAX   =    2.357    core radius for proj-oper                                                   
   RAUG   =    1.300    factor for augmentation sphere                                              
   RDEP   =    2.390    radius for radial grids                                                     
   RDEPT  =    1.838    core radius for aug-charge                                                  
                                                                                                    
   Atomic configuration                                                                             
    9 entries                                                                                       
     n  l   j            E        occ.                                                              
     1  0  0.50     -8206.4253   2.0000                                                             
     2  0  0.50      -976.1748   2.0000                                                             
     2  1  1.50      -839.0571   6.0000                                                             
     3  0  0.50      -105.9991   2.0000                                                             
     3  1  1.50       -66.4603   6.0000                                                             
     3  2  2.50        -4.6458   9.0000                                                             
     4  0  0.50        -4.4926   1.0000                                                             
     4  1  1.50        -4.0817   0.0000                                                             
     4  3  2.50        -1.3606   0.0000                                                             
   Description                                                                                      
     l       E           TYP  RCUT    TYP  RCUT                                                     
     2     -4.6457903     23  2.300                                                                 
     2     -6.0063729     23  2.300                                                                 
     0     -4.4925590     23  2.300                                                                 
     0      5.0102601     23  2.300                                                                 
     1     -2.7211652     23  2.300                                                                 
     1     16.5183231     23  2.300                                                                 
  local pseudopotential read in
  partial core-charges read in
  partial kinetic energy density read in
  atomic valenz-charges read in
  non local Contribution for L=            2  read in
    real space projection operators read in
  non local Contribution for L=            2  read in
    real space projection operators read in
  non local Contribution for L=            0  read in
    real space projection operators read in
  non local Contribution for L=            0  read in
    real space projection operators read in
  non local Contribution for L=            1  read in
    real space projection operators read in
  non local Contribution for L=            1  read in
    real space projection operators read in
    PAW grid and wavefunctions read in
 
   number of l-projection  operators is LMAX  =            6
   number of lm-projection operators is LMMAX =           18
 
 POTCAR:    PAW_PBE Pd 04Jan2005                  
   SHA256 =  dd6f6f02930356371984e2b707ff5e456046761dc76b07c1eba30abd15eb3c39 Pd/POTCAR             
   COPYR  = (c) Copyright 04Jan2005 Georg Kresse                                                    
   COPYR  = This file is part of the software VASP. Any use, copying, and all other rights are regul
   COPYR  = If you do not have a valid VASP license, you may not use, copy or distribute this file. 
   VRHFIN =Pd : s1 d9                                                                               
   LEXCH  = PE                                                                                      
   EATOM  =   809.7530 eV,   59.5152 Ry                                                             
                                                                                                    
   TITEL  = PAW_PBE Pd 04Jan2005                                                                    
   LULTRA =        F    use ultrasoft PP ?                                                          
   IUNSCR =        1    unscreen: 0-lin 1-nonlin 2-no                                               
   RPACOR =    2.000    partial core radius                                                         
   POMASS =  106.420; ZVAL   =   10.000    mass and valenz                                          
   RCORE  =    2.600    outmost cutoff radius                                                       
   RWIGS  =    2.710; RWIGS  =    1.434    wigner-seitz radius (au A)                               
   ENMAX  =  250.925; ENMIN  =  188.194 eV                                                          
   ICORE  =        3    local potential                                                             
   LCOR   =        T    correct aug charges                                                         
   LPAW   =        T    paw PP                                                                      
   EAUG   =  416.230                                                                                
   DEXC   =    0.000                                                                                
   RMAX   =    2.653    core radius for proj-oper                                                   
   RAUG   =    1.300    factor for augmentation sphere                                              
   RDEP   =    2.734    radius for radial grids                                                     
   RDEPT  =    2.103    core radius for aug-charge                                                  
                                                                                                    
   Atomic configuration                                                                             
   12 entries                                                                                       
     n  l   j            E        occ.                                                              
     1  0  0.50    -24164.6631   2.0000                                                             
     2  0  0.50     -3530.9218   2.0000                                                             
     2  1  1.50     -3165.6822   6.0000                                                             
     3  0  0.50      -639.4577   2.0000                                                             
     3  1  1.50      -519.4532   6.0000                                                             
     3  2  2.50      -328.9757  10.0000                                                             
     4  0  0.50       -88.7014   2.0000                                                             
     4  1  1.50       -54.4540   6.0000                                                             
     4  2  2.50        -6.6878   9.0000                                                             
     5  0  0.50        -4.3543   1.0000                                                             
     5  1  0.50        -1.3606   0.0000                                                             
     4  3  2.50        -1.3606   0.0000                                                             
   Description                                                                                      
     l       E           TYP  RCUT    TYP  RCUT                                                     
     2     -6.6878251     23  2.400                                                                 
     2     -8.0484077     23  2.400                                                                 
     0     -4.3542939     23  2.400                                                                 
     0      4.3406793     23  2.400                                                                 
     1     -4.0817478     23  2.600                                                                 
     1     15.8380318     23  2.600                                                                 
     3     -4.0817478     23  2.400                                                                 
  local pseudopotential read in
  partial core-charges read in
  partial kinetic energy density read in
  atomic valenz-charges read in
  non local Contribution for L=            2  read in
    real space projection operators read in
  non local Contribution for L=            2  read in
    real space projection operators read in
  non local Contribution for L=            0  read in
    real space projection operators read in
  non local Contribution for L=            0  read in
    real space projection operators read in
  non local Contribution for L=            1  read in
    real space projection operators read in
  non local Contribution for L=            1  read in
    real space projection operators read in
    PAW grid and wavefunctions read in
 
   number of l-projection  operators is LMAX  =            6
   number of lm-projection operators is LMMAX =           18
 
  PAW_PBE Ni 02Aug2007                  :
 energy of atom  1       EATOM=-1077.6739
 kinetic energy error for atom=    0.0101 (will be added to EATOM!!)
  PAW_PBE Pd 04Jan2005                  :
 energy of atom  2       EATOM= -809.7530
 kinetic energy error for atom=    0.0091 (will be added to EATOM!!)
 
 
 POSCAR: Ni Pd
  positions in cartesian coordinates
  No initial velocities read in
 exchange correlation table for  LEXCH =        8
   RHO(1)=    0.500       N(1)  =     2000
   RHO(2)=  100.500       N(2)  =     4000
 


--------------------------------------------------------------------------------------------------------


 ion  position               nearest neighbor table
   1  0.472  0.497  0.513-   5 2.35   4 2.38   6 2.46   9 2.47   8 2.48   7 2.49  10 2.50   2 2.77

   2  0.568  0.422  0.497-   4 2.27   5 2.29   3 2.32   7 2.47   8 2.47   1 2.77
   3  0.631  0.504  0.503-   2 2.32   6 2.32   4 2.37   5 2.39
   4  0.557  0.486  0.578-   2 2.27   6 2.32   3 2.37   1 2.38   7 2.47   5 3.08
   5  0.546  0.503  0.437-   2 2.29   6 2.30   1 2.35   3 2.39  10 2.43   8 2.59   4 3.08
   6  0.553  0.571  0.516-   5 2.30   4 2.32   3 2.32   9 2.40   1 2.46
   7  0.487  0.402  0.570-   2 2.47   4 2.47   1 2.49   8 2.85
   8  0.475  0.412  0.439-   2 2.47   1 2.48   5 2.59  10 2.79   7 2.85
   9  0.454  0.605  0.496-   6 2.40   1 2.47  10 2.60
  10  0.446  0.529  0.405-   5 2.43   1 2.50   9 2.60   8 2.79
 

IMPORTANT INFORMATION: All symmetrisations will be switched off!
NOSYMM: (Re-)initialisation of all symmetry stuff for point group C_1.


----------------------------------------------------------------------------------------

                                     Primitive cell                                     

  volume of cell :   10942.7633

  direct lattice vectors                    reciprocal lattice vectors
    22.629843944  0.000000000  0.000000000     0.044189434  0.000000000  0.000000000
     0.000000000 22.388292693  0.000000000     0.000000000  0.044666202  0.000000000
     0.000000000  0.000000000 21.598543813     0.000000000  0.000000000  0.046299418

  length of vectors
    22.629843944 22.388292693 21.598543813     0.044189434  0.044666202  0.046299418

  position of ions in fractional coordinates (direct lattice)
     0.472305336  0.497248766  0.512816418
     0.568497590  0.421869493  0.497283662
     0.630592373  0.504370055  0.502884201
     0.556631092  0.486028842  0.577986347
     0.546192754  0.502997814  0.436694447
     0.552718928  0.570869377  0.516112327
     0.486522649  0.401675827  0.569726077
     0.475124723  0.412375214  0.438795785
     0.454115594  0.605030935  0.496310131
     0.446419385  0.529307052  0.405235670

  ion indices of the primitive-cell ions
   primitive index   ion index
                 1           1
                 2           2
                 3           3
                 4           4
                 5           5
                 6           6
                 7           7
                 8           8
                 9           9
                10          10

----------------------------------------------------------------------------------------

 
 
 KPOINTS: KPOINTS created by Atomic Simulation Env

Automatic generation of k-mesh.
Space group operators:
 irot       det(A)        alpha          n_x          n_y          n_z        tau_x        tau_y        tau_z
    1     1.000000     0.000001     1.000000     0.000000     0.000000     0.000000     0.000000     0.000000
 
 Subroutine IBZKPT returns following result:
 ===========================================
 
 Found      1 irreducible k-points:
 
 Following reciprocal coordinates:
            Coordinates               Weight
  0.000000  0.000000  0.000000      1.000000
 
 Following cartesian coordinates:
            Coordinates               Weight
  0.000000  0.000000  0.000000      1.000000
 


--------------------------------------------------------------------------------------------------------




 Dimension of arrays:
   k-points           NKPTS =      1   k-points in BZ     NKDIM =      1   number of bands    NBANDS=     66
   number of dos      NEDOS =    301   number of ions     NIONS =     10
   non local maximal  LDIM  =      6   non local SUM 2l+1 LMDIM =     18
   total plane-waves  NPLWV = ******
   max r-space proj   IRMAX =      1   max aug-charges    IRDMAX=   6204
   dimension x,y,z NGX =   112 NGY =  112 NGZ =  108
   dimension x,y,z NGXF=   224 NGYF=  224 NGZF=  216
   support grid    NGXF=   224 NGYF=  224 NGZF=  216
   ions per type =               6   4
   NGX,Y,Z   is equivalent  to a cutoff of   8.23,  8.32,  8.31 a.u.
   NGXF,Y,Z  is equivalent  to a cutoff of  16.46, 16.63, 16.63 a.u.

 SYSTEM =  unknown system                          
 POSCAR =  Ni Pd                                   

 Startparameter for this run:
   NWRITE =      2    write-flag & timer
   PREC   = normal    normal or accurate (medium, high low for compatibility)
   ISTART =      0    job   : 0-new  1-cont  2-samecut
   ICHARG =      2    charge: 1-file 2-atom 10-const
   ISPIN  =      2    spin polarized calculation?
   LNONCOLLINEAR =      F non collinear calculations
   LSORBIT =      F    spin-orbit coupling
   INIWAV =      1    electr: 0-lowe 1-rand  2-diag
   LASPH  =      F    aspherical Exc in radial PAW
   METAGGA=      F    non-selfconsistent MetaGGA calc.

 Electronic Relaxation 1
   ENCUT  =  400.0 eV  29.40 Ry    5.42 a.u.  36.90 36.51 35.22*2*pi/ulx,y,z
   ENINI  =  400.0     initial cutoff
   ENAUG  =  544.6 eV  augmentation charge cutoff
   NELM   =     60;   NELMIN=  2; NELMDL=  0     # of ELM steps 
   EDIFF  = 0.1E-03   stopping-criterion for ELM
   LREAL  =      F    real-space projection
   NLSPLINE    = F    spline interpolate recip. space projectors
   LCOMPAT=      F    compatible to vasp.4.4
   GGA_COMPAT  = T    GGA compatible to vasp.4.4-vasp.4.6
   LMAXPAW     = -100 max onsite density
   LMAXMIX     =    2 max onsite mixed and CHGCAR
   VOSKOWN=      0    Vosko Wilk Nusair interpolation
   ROPT   =    0.00000   0.00000
 Ionic relaxation
   EDIFFG = 0.1E-02   stopping-criterion for IOM
   NSW    =   1000    number of steps for IOM
   NBLOCK =      1;   KBLOCK =   1000    inner block; outer block 
   IBRION =      2    ionic relax: 0-MD 1-quasi-New 2-CG
   NFREE  =      1    steps in history (QN), initial steepest desc. (CG)
   ISIF   =      0    stress and relaxation
   IWAVPR =     11    prediction:  0-non 1-charg 2-wave 3-comb
   ISYM   =      0    0-nonsym 1-usesym 2-fastsym
   LCORR  =      T    Harris-Foulkes like correction to forces

   POTIM  = 0.5000    time-step for ionic-motion
   TEIN   =    0.0    initial temperature
   TEBEG  =    0.0;   TEEND  =   0.0 temperature during run
   SMASS  =  -3.00    Nose mass-parameter (am)
   estimated Nose-frequenzy (Omega)   =  0.10E-29 period in steps = 0.13E+47 mass=  -0.117E-25a.u.
   SCALEE = 1.0000    scale energy and forces
   NPACO  =    256;   APACO  = 16.0  distance and # of slots for P.C.
   PSTRESS=    0.0 pullay stress

  Mass of Ions in am
   POMASS =  58.69106.42
  Ionic Valenz
   ZVAL   =  10.00 10.00
  Atomic Wigner-Seitz radii
   RWIGS  =  -1.00 -1.00
  virtual crystal weights 
   VCA    =   1.00  1.00
   NELECT =     100.0000    total number of electrons
   NUPDOWN=      -1.0000    fix difference up-down

 DOS related values:
   EMIN   =  10.00;   EMAX   =-10.00  energy-range for DOS
   EFERMI =   0.00
   ISMEAR =     1;   SIGMA  =   0.20  broadening in eV -4-tet -1-fermi 0-gaus

 Electronic relaxation 2 (details)
   IALGO  =     38    algorithm
   LDIAG  =      T    sub-space diagonalisation (order eigenvalues)
   LSUBROT=      F    optimize rotation matrix (better conditioning)
   TURBO    =      0    0=normal 1=particle mesh
   IRESTART =      0    0=no restart 2=restart with 2 vectors
   NREBOOT  =      0    no. of reboots
   NMIN     =      0    reboot dimension
   EREF     =   0.00    reference energy to select bands
   IMIX   =      4    mixing-type and parameters
     AMIX     =   0.40;   BMIX     =  1.00
     AMIX_MAG =   1.60;   BMIX_MAG =  1.00
     AMIN     =   0.10
     WC   =   100.;   INIMIX=   1;  MIXPRE=   1;  MAXMIX= -45

 Intra band minimization:
   WEIMIN = 0.0010     energy-eigenvalue tresh-hold
   EBREAK =  0.38E-06  absolut break condition
   DEPER  =   0.30     relativ break condition  

   TIME   =   0.40     timestep for ELM

  volume/ion in A,a.u.               =    1094.28      7384.54
  Fermi-wavevector in a.u.,A,eV,Ry     =   0.342268  0.646792  1.593883  0.117147
  Thomas-Fermi vector in A             =   1.247489
 
 Write flags
   LWAVE        =      F    write WAVECAR
   LDOWNSAMPLE  =      F    k-point downsampling of WAVECAR
   LCHARG       =      F    write CHGCAR
   LVTOT        =      F    write LOCPOT, total local potential
   LVHAR        =      F    write LOCPOT, Hartree potential only
   LELF         =      F    write electronic localiz. function (ELF)
   LORBIT       =      0    0 simple, 1 ext, 2 COOP (PROOUT), +10 PAW based schemes


 Dipole corrections
   LMONO  =      F    monopole corrections only (constant potential shift)
   LDIPOL =      F    correct potential (dipole corrections)
   IDIPOL =      0    1-x, 2-y, 3-z, 4-all directions 
   EPSILON=  1.0000000 bulk dielectric constant

 Exchange correlation treatment:
   GGA     =    PE    GGA type
   LEXCH   =     8    internal setting for exchange type
   VOSKOWN=      0    Vosko Wilk Nusair interpolation
   LHFCALC =     F    Hartree Fock is set to
   LHFONE  =     F    Hartree Fock one center treatment
   AEXX    =    0.0000 exact exchange contribution

 Linear response parameters
   LEPSILON=     F    determine dielectric tensor
   LRPA    =     F    only Hartree local field effects (RPA)
   LNABLA  =     F    use nabla operator in PAW spheres
   LVEL    =     F    velocity operator in full k-point grid
   LINTERFAST=   F  fast interpolation
   KINTER  =     0    interpolate to denser k-point grid
   CSHIFT  =0.1000    complex shift for real part using Kramers Kronig
   OMEGAMAX=  -1.0    maximum frequency
   DEG_THRESHOLD= 0.2000000E-02 threshold for treating states as degnerate
   RTIME   =   -0.100 relaxation time in fs
  (WPLASMAI=    0.000 imaginary part of plasma frequency in eV, 0.658/RTIME)
   DFIELD  = 0.0000000 0.0000000 0.0000000 field for delta impulse in time
 
 Orbital magnetization related:
   ORBITALMAG=     F  switch on orbital magnetization
   LCHIMAG   =     F  perturbation theory with respect to B field
   DQ        =  0.001000  dq finite difference perturbation B field
   LLRAUG    =     F  two centre corrections for induced B field



--------------------------------------------------------------------------------------------------------


 conjugate gradient relaxation of ions
 charge density and potential will be updated during run
 spin polarized calculation
 Variant of blocked Davidson
 Davidson routine will perform the subspace rotation
 perform sub-space diagonalisation
    after iterative eigenvector-optimisation
 modified Broyden-mixing scheme, WC =      100.0
 initial mixing is a Kerker type mixing with AMIX =  0.4000 and BMIX =      1.0000
 Hartree-type preconditioning will be used
 using additional bands            16
 reciprocal scheme for non local part
 use partial core corrections
 calculate Harris-corrections to forces 
   (improved forces if not selfconsistent)
 use gradient corrections 
 use of overlap-Matrix (Vanderbilt PP)
 Methfessel and Paxton  Order N= 1 SIGMA  =   0.20


--------------------------------------------------------------------------------------------------------


  energy-cutoff  :      400.00
  volume of cell :    10942.76
      direct lattice vectors                 reciprocal lattice vectors
    22.629843944  0.000000000  0.000000000     0.044189434  0.000000000  0.000000000
     0.000000000 22.388292693  0.000000000     0.000000000  0.044666202  0.000000000
     0.000000000  0.000000000 21.598543813     0.000000000  0.000000000  0.046299418

  length of vectors
    22.629843944 22.388292693 21.598543813     0.044189434  0.044666202  0.046299418


 
 k-points in units of 2pi/SCALE and weight: KPOINTS created by Atomic Simulation Env
   0.00000000  0.00000000  0.00000000       1.000
 
 k-points in reciprocal lattice and weights: KPOINTS created by Atomic Simulation Env
   0.00000000  0.00000000  0.00000000       1.000
 
 position of ions in fractional coordinates (direct lattice) 
   0.47230534  0.49724877  0.51281642
   0.56849759  0.42186949  0.49728366
   0.63059237  0.50437005  0.50288420
   0.55663109  0.48602884  0.57798635
   0.54619275  0.50299781  0.43669445
   0.55271893  0.57086938  0.51611233
   0.48652265  0.40167583  0.56972608
   0.47512472  0.41237521  0.43879578
   0.45411559  0.60503093  0.49631013
   0.44641939  0.52930705  0.40523567
 
 position of ions in cartesian coordinates  (Angst):
  10.68819604 11.13255093 11.07608788
  12.86501175  9.44493768 10.74060297
  14.27020699 11.29198442 10.86156644
  12.59647475 10.88135597 12.48366344
  12.36025679 11.26126229  9.43196414
  12.50794309 12.78079069 11.14727471
  11.00993163  8.99283597 12.30525363
  10.75199834  9.23237698  9.47734999
  10.27656503 13.54560965 10.71957612
  10.10240103 11.85028121  8.75250038
 


--------------------------------------------------------------------------------------------------------


 use parallel FFT for orbitals z direction half grid
 k-point   1 :   0.0000 0.0000 0.0000  plane waves:   99396

 maximum and minimum number of plane-waves per node :     12431    12421

 maximum number of plane-waves:     99396
 maximum index in each direction: 
   IXMAX=   36   IYMAX=   36   IZMAX=   35
   IXMIN=  -36   IYMIN=  -36   IZMIN=    0


 parallel 3D FFT for wavefunctions:
    minimum data exchange during FFTs selected (reduces bandwidth)
 parallel 3D FFT for charge:
    minimum data exchange during FFTs selected (reduces bandwidth)


 total amount of memory used by VASP MPI-rank0   143494. kBytes
=======================================================================

   base      :      30000. kBytes
   nonl-proj :       5567. kBytes
   fftplans  :      26565. kBytes
   grid      :      68189. kBytes
   one-center:         31. kBytes
   wavefun   :      13142. kBytes
 
     INWAV:  cpu time    0.0000: real time    0.0000
 Broyden mixing: mesh for mixing (old mesh)
   NGX = 73   NGY = 73   NGZ = 71
  (NGX  =224   NGY  =224   NGZ  =216)
  gives a total of 378359 points

 initial charge density was supplied:
 charge density of overlapping atoms calculated
 number of electron     100.0000000 magnetization      10.0000000
 keeping initial charge density in first step


--------------------------------------------------------------------------------------------------------


 Maximum index for augmentation-charges           364 (set IRDMAX)


--------------------------------------------------------------------------------------------------------


 First call to EWALD:  gamma=   0.080
 Maximum number of real-space cells 3x 3x 3
 Maximum number of reciprocal cells 3x 3x 3

    FEWALD:  cpu time    0.0012: real time    0.0012


--------------------------------------- Iteration      1(   1)  ---------------------------------------


    POTLOK:  cpu time    2.3536: real time    2.3668
    SETDIJ:  cpu time    0.0244: real time    0.0244
     EDDAV:  cpu time    6.3331: real time    6.3430
       DOS:  cpu time    0.0074: real time    0.0074
    --------------------------------------------
      LOOP:  cpu time    8.7185: real time    8.7416

 eigenvalue-minimisations  :   264
 total energy-change (2. order) : 0.7268644E+03  (-0.1621191E+04)
 number of electron     100.0000000 magnetization      10.0000000
 augmentation part      100.0000000 magnetization      10.0000000

 Free energy of the ion-electron system (eV)
  ---------------------------------------------------
  alpha Z        PSCENC =         5.17874040
  Ewald energy   TEWEN  =     12694.04117667
  -Hartree energ DENC   =    -21667.37657295
  -exchange      EXHF   =         0.00000000
  -V(xc)+E(xc)   XCENC  =        63.13017823
  PAW double counting   =      9003.59075477    -9155.75339974
  entropy T*S    EENTRO =        -0.00511941
  eigenvalues    EBANDS =        79.10006516
  atomic energy  EATOM  =      9704.95859309
  Solvation  Ediel_sol  =         0.00000000
  ---------------------------------------------------
  free energy    TOTEN  =       726.86441622 eV

  energy without entropy =      726.86953563  energy(sigma->0) =      726.86612269


--------------------------------------------------------------------------------------------------------




--------------------------------------- Iteration      1(   2)  ---------------------------------------


     EDDAV:  cpu time   10.0132: real time   10.0249
       DOS:  cpu time    0.0069: real time    0.0069
    --------------------------------------------
      LOOP:  cpu time   10.0201: real time   10.0318

 eigenvalue-minimisations  :   478
 total energy-change (2. order) :-0.4859090E+03  (-0.4525456E+03)
 number of electron     100.0000000 magnetization      10.0000000
 augmentation part      100.0000000 magnetization      10.0000000

 Free energy of the ion-electron system (eV)
  ---------------------------------------------------
  alpha Z        PSCENC =         5.17874040
  Ewald energy   TEWEN  =     12694.04117667
  -Hartree energ DENC   =    -21667.37657295
  -exchange      EXHF   =         0.00000000
  -V(xc)+E(xc)   XCENC  =        63.13017823
  PAW double counting   =      9003.59075477    -9155.75339974
  entropy T*S    EENTRO =        -0.01953248
  eigenvalues    EBANDS =      -406.79453390
  atomic energy  EATOM  =      9704.95859309
  Solvation  Ediel_sol  =         0.00000000
  ---------------------------------------------------
  free energy    TOTEN  =       240.95540410 eV

  energy without entropy =      240.97493657  energy(sigma->0) =      240.96191492


--------------------------------------------------------------------------------------------------------




--------------------------------------- Iteration      1(   3)  ---------------------------------------


     EDDAV:  cpu time    7.8956: real time    7.9032
       DOS:  cpu time    0.0070: real time    0.0070
    --------------------------------------------
      LOOP:  cpu time    7.9026: real time    7.9102

 eigenvalue-minimisations  :   376
 total energy-change (2. order) :-0.2193952E+03  (-0.2067264E+03)
 number of electron     100.0000000 magnetization      10.0000000
 augmentation part      100.0000000 magnetization      10.0000000

 Free energy of the ion-electron system (eV)
  ---------------------------------------------------
  alpha Z        PSCENC =         5.17874040
  Ewald energy   TEWEN  =     12694.04117667
  -Hartree energ DENC   =    -21667.37657295
  -exchange      EXHF   =         0.00000000
  -V(xc)+E(xc)   XCENC  =        63.13017823
  PAW double counting   =      9003.59075477    -9155.75339974
  entropy T*S    EENTRO =         0.01379074
  eigenvalues    EBANDS =      -626.22302252
  atomic energy  EATOM  =      9704.95859309
  Solvation  Ediel_sol  =         0.00000000
  ---------------------------------------------------
  free energy    TOTEN  =        21.56023869 eV

  energy without entropy =       21.54644795  energy(sigma->0) =       21.55564178


--------------------------------------------------------------------------------------------------------




--------------------------------------- Iteration      1(   4)  ---------------------------------------


     EDDAV:  cpu time    9.2523: real time    9.2624
       DOS:  cpu time    0.0078: real time    0.0078
    --------------------------------------------
      LOOP:  cpu time    9.2601: real time    9.2702

 eigenvalue-minimisations  :   424
 total energy-change (2. order) :-0.5910428E+02  (-0.4946878E+02)
 number of electron     100.0000000 magnetization      10.0000000
 augmentation part      100.0000000 magnetization      10.0000000

 Free energy of the ion-electron system (eV)
  ---------------------------------------------------
  alpha Z        PSCENC =         5.17874040
  Ewald energy   TEWEN  =     12694.04117667
  -Hartree energ DENC   =    -21667.37657295
  -exchange      EXHF   =         0.00000000
  -V(xc)+E(xc)   XCENC  =        63.13017823
  PAW double counting   =      9003.59075477    -9155.75339974
  entropy T*S    EENTRO =        -0.02531186
  eigenvalues    EBANDS =      -685.28820099
  atomic energy  EATOM  =      9704.95859309
  Solvation  Ediel_sol  =         0.00000000
  ---------------------------------------------------
  free energy    TOTEN  =       -37.54404238 eV

  energy without entropy =      -37.51873052  energy(sigma->0) =      -37.53560509


--------------------------------------------------------------------------------------------------------




--------------------------------------- Iteration      1(   5)  ---------------------------------------


     EDDAV:  cpu time    7.6651: real time    7.6726
       DOS:  cpu time    0.0072: real time    0.0072
    CHARGE:  cpu time    0.7010: real time    0.7017
    MIXING:  cpu time    0.0397: real time    0.0397
    --------------------------------------------
      LOOP:  cpu time    8.4130: real time    8.4212

 eigenvalue-minimisations  :   352
 total energy-change (2. order) :-0.6719802E+01  (-0.6530983E+01)
 number of electron     100.0000136 magnetization       9.7754783
 augmentation part       52.0337018 magnetization       7.9927264

 Broyden mixing:
  rms(total) = 0.27569E+01    rms(broyden)= 0.27561E+01
  rms(prec ) = 0.29176E+01
  weight for this iteration     100.00

 Free energy of the ion-electron system (eV)
  ---------------------------------------------------
  alpha Z        PSCENC =         5.17874040
  Ewald energy   TEWEN  =     12694.04117667
  -Hartree energ DENC   =    -21667.37657295
  -exchange      EXHF   =         0.00000000
  -V(xc)+E(xc)   XCENC  =        63.13017823
  PAW double counting   =      9003.59075477    -9155.75339974
  entropy T*S    EENTRO =        -0.04191111
  eigenvalues    EBANDS =      -691.99140362
  atomic energy  EATOM  =      9704.95859309
  Solvation  Ediel_sol  =         0.00000000
  ---------------------------------------------------
  free energy    TOTEN  =       -44.26384425 eV

  energy without entropy =      -44.22193314  energy(sigma->0) =      -44.24987388


--------------------------------------------------------------------------------------------------------




--------------------------------------- Iteration      1(   6)  ---------------------------------------


    POTLOK:  cpu time    2.3813: real time    2.3859
    SETDIJ:  cpu time    0.0240: real time    0.0241
     EDDAV:  cpu time    6.6983: real time    6.7044
       DOS:  cpu time    0.0031: real time    0.0031
    CHARGE:  cpu time    0.6643: real time    0.6649
    MIXING:  cpu time    0.0416: real time    0.0416
    --------------------------------------------
      LOOP:  cpu time    9.8126: real time    9.8240

 eigenvalue-minimisations  :   284
 total energy-change (2. order) :-0.1846386E+02  (-0.1023941E+02)
 number of electron     100.0000162 magnetization       9.5391777
 augmentation part       56.2578830 magnetization       8.8503993

 Broyden mixing:
  rms(total) = 0.56570E+01    rms(broyden)= 0.56565E+01
  rms(prec ) = 0.61008E+01
  weight for this iteration     100.00

 eigenvalues of (default mixing * dielectric matrix)
  average eigenvalue GAMMA=   0.2923
  0.2923

 Free energy of the ion-electron system (eV)
  ---------------------------------------------------
  alpha Z        PSCENC =         5.17874040
  Ewald energy   TEWEN  =     12694.04117667
  -Hartree energ DENC   =    -21580.79268139
  -exchange      EXHF   =         0.00000000
  -V(xc)+E(xc)   XCENC  =        60.80618454
  PAW double counting   =      9471.16298403    -9596.78662813
  entropy T*S    EENTRO =         0.01497260
  eigenvalues    EBANDS =      -821.31104524
  atomic energy  EATOM  =      9704.95859309
  Solvation  Ediel_sol  =         0.00000000
  ---------------------------------------------------
  free energy    TOTEN  =       -62.72770343 eV

  energy without entropy =      -62.74267603  energy(sigma->0) =      -62.73269430


--------------------------------------------------------------------------------------------------------




--------------------------------------- Iteration      1(   7)  ---------------------------------------


    POTLOK:  cpu time    2.3730: real time    2.3816
    SETDIJ:  cpu time    0.0292: real time    0.0292
     EDDAV:  cpu time    7.1285: real time    7.1348
       DOS:  cpu time    0.0034: real time    0.0034
    CHARGE:  cpu time    0.6843: real time    0.6849
    MIXING:  cpu time    0.0510: real time    0.0511
    --------------------------------------------
      LOOP:  cpu time   10.2694: real time   10.2850

 eigenvalue-minimisations  :   324
 total energy-change (2. order) : 0.2420123E+02  (-0.6081744E+01)
 number of electron     100.0000127 magnetization       9.4852985
 augmentation part       55.1697669 magnetization       7.2352329

 Broyden mixing:
  rms(total) = 0.25411E+01    rms(broyden)= 0.25400E+01
  rms(prec ) = 0.27001E+01
  weight for this iteration     100.00

 eigenvalues of (default mixing * dielectric matrix)
  average eigenvalue GAMMA=   0.2730
  0.2730  0.2730

 Free energy of the ion-electron system (eV)
  ---------------------------------------------------
  alpha Z        PSCENC =         5.17874040
  Ewald energy   TEWEN  =     12694.04117667
  -Hartree energ DENC   =    -21636.05246314
  -exchange      EXHF   =         0.00000000
  -V(xc)+E(xc)   XCENC  =        61.23799285
  PAW double counting   =      9619.38340326    -9767.86823224
  entropy T*S    EENTRO =        -0.04699697
  eigenvalues    EBANDS =      -719.35868562
  atomic energy  EATOM  =      9704.95859309
  Solvation  Ediel_sol  =         0.00000000
  ---------------------------------------------------
  free energy    TOTEN  =       -38.52647170 eV

  energy without entropy =      -38.47947474  energy(sigma->0) =      -38.51080605


--------------------------------------------------------------------------------------------------------




--------------------------------------- Iteration      1(   8)  ---------------------------------------


    POTLOK:  cpu time    2.4152: real time    2.4197
    SETDIJ:  cpu time    0.0244: real time    0.0244
     EDDAV:  cpu time    7.6727: real time    7.6827
       DOS:  cpu time    0.0060: real time    0.0060
    CHARGE:  cpu time    0.6860: real time    0.6866
    MIXING:  cpu time    0.0473: real time    0.0474
    --------------------------------------------
      LOOP:  cpu time   10.8516: real time   10.8668

 eigenvalue-minimisations  :   342
 total energy-change (2. order) :-0.1674599E+00  (-0.2806419E+01)
 number of electron     100.0000173 magnetization       9.3614071
 augmentation part       55.2289697 magnetization       7.3142430

 Broyden mixing:
  rms(total) = 0.31862E+01    rms(broyden)= 0.31854E+01
  rms(prec ) = 0.33744E+01
  weight for this iteration     100.00

 eigenvalues of (default mixing * dielectric matrix)
  average eigenvalue GAMMA=   0.3256
  0.5401  0.2350  0.2016

 Free energy of the ion-electron system (eV)
  ---------------------------------------------------
  alpha Z        PSCENC =         5.17874040
  Ewald energy   TEWEN  =     12694.04117667
  -Hartree energ DENC   =    -21647.41469768
  -exchange      EXHF   =         0.00000000
  -V(xc)+E(xc)   XCENC  =        61.41284733
  PAW double counting   =      9712.98385801    -9862.99577969
  entropy T*S    EENTRO =         0.00737736
  eigenvalues    EBANDS =      -706.86604708
  atomic energy  EATOM  =      9704.95859309
  Solvation  Ediel_sol  =         0.00000000
  ---------------------------------------------------
  free energy    TOTEN  =       -38.69393159 eV

  energy without entropy =      -38.70130895  energy(sigma->0) =      -38.69639071


--------------------------------------------------------------------------------------------------------




--------------------------------------- Iteration      1(   9)  ---------------------------------------


    POTLOK:  cpu time    2.3497: real time    2.3530
    SETDIJ:  cpu time    0.0246: real time    0.0246
     EDDAV:  cpu time    7.7264: real time    7.7353
       DOS:  cpu time    0.0061: real time    0.0061
    CHARGE:  cpu time    0.6850: real time    0.6875
    MIXING:  cpu time    0.0486: real time    0.0486
    --------------------------------------------
      LOOP:  cpu time   10.8404: real time   10.8551

 eigenvalue-minimisations  :   342
 total energy-change (2. order) :-0.2807674E+00  (-0.2283171E+01)
 number of electron     100.0000142 magnetization       9.2513842
 augmentation part       54.4978546 magnetization       7.1021826

 Broyden mixing:
  rms(total) = 0.37108E+01    rms(broyden)= 0.37103E+01
  rms(prec ) = 0.39563E+01
  weight for this iteration     100.00

 eigenvalues of (default mixing * dielectric matrix)
  average eigenvalue GAMMA=   0.3651
  0.8927  0.2439  0.1619  0.1619

 Free energy of the ion-electron system (eV)
  ---------------------------------------------------
  alpha Z        PSCENC =         5.17874040
  Ewald energy   TEWEN  =     12694.04117667
  -Hartree energ DENC   =    -21679.31555073
  -exchange      EXHF   =         0.00000000
  -V(xc)+E(xc)   XCENC  =        62.29605168
  PAW double counting   =      9862.24011213   -10019.18820670
  entropy T*S    EENTRO =        -0.00797561
  eigenvalues    EBANDS =      -669.17763993
  atomic energy  EATOM  =      9704.95859309
  Solvation  Ediel_sol  =         0.00000000
  ---------------------------------------------------
  free energy    TOTEN  =       -38.97469899 eV

  energy without entropy =      -38.96672339  energy(sigma->0) =      -38.97204046


--------------------------------------------------------------------------------------------------------




--------------------------------------- Iteration      1(  10)  ---------------------------------------


    POTLOK:  cpu time    2.3738: real time    2.3783
    SETDIJ:  cpu time    0.0240: real time    0.0240
     EDDAV:  cpu time    7.7915: real time    7.8009
       DOS:  cpu time    0.0060: real time    0.0060
    CHARGE:  cpu time    0.6937: real time    0.6943
    MIXING:  cpu time    0.0574: real time    0.0574
    --------------------------------------------
      LOOP:  cpu time   10.9463: real time   10.9609

 eigenvalue-minimisations  :   352
 total energy-change (2. order) : 0.2472614E+01  (-0.1486782E+01)
 number of electron     100.0000154 magnetization       9.2178944
 augmentation part       54.1802759 magnetization       6.8876479

 Broyden mixing:
  rms(total) = 0.20847E+01    rms(broyden)= 0.20842E+01
  rms(prec ) = 0.22352E+01
  weight for this iteration     100.00

 eigenvalues of (default mixing * dielectric matrix)
  average eigenvalue GAMMA=   0.3206
  0.9010  0.2669  0.1646  0.1646  0.1059

 Free energy of the ion-electron system (eV)
  ---------------------------------------------------
  alpha Z        PSCENC =         5.17874040
  Ewald energy   TEWEN  =     12694.04117667
  -Hartree energ DENC   =    -21699.51010049
  -exchange      EXHF   =         0.00000000
  -V(xc)+E(xc)   XCENC  =        62.60565233
  PAW double counting   =      9975.46251697   -10136.79162540
  entropy T*S    EENTRO =        -0.01407179
  eigenvalues    EBANDS =      -642.43296695
  atomic energy  EATOM  =      9704.95859309
  Solvation  Ediel_sol  =         0.00000000
  ---------------------------------------------------
  free energy    TOTEN  =       -36.50208517 eV

  energy without entropy =      -36.48801339  energy(sigma->0) =      -36.49739458


--------------------------------------------------------------------------------------------------------




--------------------------------------- Iteration      1(  11)  ---------------------------------------


    POTLOK:  cpu time    2.3916: real time    2.3974
    SETDIJ:  cpu time    0.0243: real time    0.0243
     EDDAV:  cpu time    7.9117: real time    7.9199
       DOS:  cpu time    0.0069: real time    0.0069
    CHARGE:  cpu time    0.6723: real time    0.6729
    MIXING:  cpu time    0.0617: real time    0.0625
    --------------------------------------------
      LOOP:  cpu time   11.0685: real time   11.0839

 eigenvalue-minimisations  :   358
 total energy-change (2. order) : 0.1773076E+00  (-0.8398141E+00)
 number of electron     100.0000136 magnetization       9.1586685
 augmentation part       54.2452764 magnetization       6.8301182

 Broyden mixing:
  rms(total) = 0.19365E+01    rms(broyden)= 0.19358E+01
  rms(prec ) = 0.20520E+01
  weight for this iteration     100.00

 eigenvalues of (default mixing * dielectric matrix)
  average eigenvalue GAMMA=   0.3305
  0.9725  0.3603  0.2678  0.1319  0.1319  0.1185

 Free energy of the ion-electron system (eV)
  ---------------------------------------------------
  alpha Z        PSCENC =         5.17874040
  Ewald energy   TEWEN  =     12694.04117667
  -Hartree energ DENC   =    -21699.04506413
  -exchange      EXHF   =         0.00000000
  -V(xc)+E(xc)   XCENC  =        62.33391644
  PAW double counting   =     10006.02916655   -10167.30480753
  entropy T*S    EENTRO =        -0.00821825
  eigenvalues    EBANDS =      -642.50828079
  atomic energy  EATOM  =      9704.95859309
  Solvation  Ediel_sol  =         0.00000000
  ---------------------------------------------------
  free energy    TOTEN  =       -36.32477756 eV

  energy without entropy =      -36.31655931  energy(sigma->0) =      -36.32203814


--------------------------------------------------------------------------------------------------------




--------------------------------------- Iteration      1(  12)  ---------------------------------------


    POTLOK:  cpu time    2.3808: real time    2.3852
    SETDIJ:  cpu time    0.0271: real time    0.0279
     EDDAV:  cpu time    7.7383: real time    7.7468
       DOS:  cpu time    0.0059: real time    0.0059
    CHARGE:  cpu time    0.7111: real time    0.7117
    MIXING:  cpu time    0.0639: real time    0.0639
    --------------------------------------------
      LOOP:  cpu time   10.9270: real time   10.9414

 eigenvalue-minimisations  :   350
 total energy-change (2. order) : 0.5865978E+00  (-0.4128061E+00)
 number of electron     100.0000150 magnetization       9.1065036
 augmentation part       54.2603723 magnetization       6.8673443

 Broyden mixing:
  rms(total) = 0.11787E+01    rms(broyden)= 0.11778E+01
  rms(prec ) = 0.12536E+01
  weight for this iteration     100.00

 eigenvalues of (default mixing * dielectric matrix)
  average eigenvalue GAMMA=   0.3408
  1.0263  0.3792  0.3792  0.2002  0.1583  0.1583  0.0844

 Free energy of the ion-electron system (eV)
  ---------------------------------------------------
  alpha Z        PSCENC =         5.17874040
  Ewald energy   TEWEN  =     12694.04117667
  -Hartree energ DENC   =    -21701.70231610
  -exchange      EXHF   =         0.00000000
  -V(xc)+E(xc)   XCENC  =        62.11580641
  PAW double counting   =     10053.26033172   -10215.49298692
  entropy T*S    EENTRO =        -0.01505076
  eigenvalues    EBANDS =      -638.08247429
  atomic energy  EATOM  =      9704.95859309
  Solvation  Ediel_sol  =         0.00000000
  ---------------------------------------------------
  free energy    TOTEN  =       -35.73817979 eV

  energy without entropy =      -35.72312903  energy(sigma->0) =      -35.73316287


--------------------------------------------------------------------------------------------------------




--------------------------------------- Iteration      1(  13)  ---------------------------------------


    POTLOK:  cpu time    2.3920: real time    2.3970
    SETDIJ:  cpu time    0.0245: real time    0.0245
     EDDAV:  cpu time    7.9207: real time    7.9289
       DOS:  cpu time    0.0033: real time    0.0033
    CHARGE:  cpu time    0.6872: real time    0.6879
    MIXING:  cpu time    0.0702: real time    0.0703
    --------------------------------------------
      LOOP:  cpu time   11.0980: real time   11.1119

 eigenvalue-minimisations  :   368
 total energy-change (2. order) :-0.2297995E+00  (-0.2018945E+00)
 number of electron     100.0000151 magnetization       9.0418274
 augmentation part       54.2699609 magnetization       6.8540508

 Broyden mixing:
  rms(total) = 0.11283E+01    rms(broyden)= 0.11276E+01
  rms(prec ) = 0.11862E+01
  weight for this iteration     100.00

 eigenvalues of (default mixing * dielectric matrix)
  average eigenvalue GAMMA=   0.3619
  1.1299  0.5208  0.5208  0.2220  0.1467  0.1467  0.1191  0.0889

 Free energy of the ion-electron system (eV)
  ---------------------------------------------------
  alpha Z        PSCENC =         5.17874040
  Ewald energy   TEWEN  =     12694.04117667
  -Hartree energ DENC   =    -21703.36205282
  -exchange      EXHF   =         0.00000000
  -V(xc)+E(xc)   XCENC  =        61.92614485
  PAW double counting   =     10082.93149557   -10245.67197501
  entropy T*S    EENTRO =        -0.02212910
  eigenvalues    EBANDS =      -635.94797300
  atomic energy  EATOM  =      9704.95859309
  Solvation  Ediel_sol  =         0.00000000
  ---------------------------------------------------
  free energy    TOTEN  =       -35.96797934 eV

  energy without entropy =      -35.94585024  energy(sigma->0) =      -35.96060298


--------------------------------------------------------------------------------------------------------




--------------------------------------- Iteration      1(  14)  ---------------------------------------


    POTLOK:  cpu time    2.3367: real time    2.3400
    SETDIJ:  cpu time    0.0251: real time    0.0251
     EDDAV:  cpu time    8.0446: real time    8.0534
       DOS:  cpu time    0.0067: real time    0.0067
    CHARGE:  cpu time    0.6901: real time    0.6908
    MIXING:  cpu time    0.0772: real time    0.0772
    --------------------------------------------
      LOOP:  cpu time   11.1803: real time   11.1933

 eigenvalue-minimisations  :   364
 total energy-change (2. order) :-0.2861771E-02  (-0.1201228E+00)
 number of electron     100.0000151 magnetization       9.0019303
 augmentation part       54.2475601 magnetization       6.8926075

 Broyden mixing:
  rms(total) = 0.61033E+00    rms(broyden)= 0.60951E+00
  rms(prec ) = 0.63929E+00
  weight for this iteration     100.00

 eigenvalues of (default mixing * dielectric matrix)
  average eigenvalue GAMMA=   0.3565
  1.1647  0.5555  0.5555  0.2211  0.2211  0.1481  0.1481  0.1100  0.0846

 Free energy of the ion-electron system (eV)
  ---------------------------------------------------
  alpha Z        PSCENC =         5.17874040
  Ewald energy   TEWEN  =     12694.04117667
  -Hartree energ DENC   =    -21706.11722686
  -exchange      EXHF   =         0.00000000
  -V(xc)+E(xc)   XCENC  =        61.73740438
  PAW double counting   =     10111.68972913   -10275.21154590
  entropy T*S    EENTRO =         0.03139831
  eigenvalues    EBANDS =      -632.27911033
  atomic energy  EATOM  =      9704.95859309
  Solvation  Ediel_sol  =         0.00000000
  ---------------------------------------------------
  free energy    TOTEN  =       -35.97084111 eV

  energy without entropy =      -36.00223942  energy(sigma->0) =      -35.98130721


--------------------------------------------------------------------------------------------------------




--------------------------------------- Iteration      1(  15)  ---------------------------------------


    POTLOK:  cpu time    2.3878: real time    2.3921
    SETDIJ:  cpu time    0.0248: real time    0.0248
     EDDAV:  cpu time    7.7947: real time    7.8022
       DOS:  cpu time    0.0100: real time    0.0100
    CHARGE:  cpu time    0.6849: real time    0.6864
    MIXING:  cpu time    0.0863: real time    0.0864
    --------------------------------------------
      LOOP:  cpu time   10.9885: real time   11.0020

 eigenvalue-minimisations  :   356
 total energy-change (2. order) :-0.2126230E+00  (-0.8494921E-01)
 number of electron     100.0000154 magnetization       8.9163425
 augmentation part       54.2975438 magnetization       6.8168778

 Broyden mixing:
  rms(total) = 0.87042E+00    rms(broyden)= 0.87009E+00
  rms(prec ) = 0.92129E+00
  weight for this iteration     100.00

 eigenvalues of (default mixing * dielectric matrix)
  average eigenvalue GAMMA=   0.4053
  1.3931  0.7351  0.7351  0.2938  0.2938  0.1487  0.1487  0.1094  0.1094  0.0857

 Free energy of the ion-electron system (eV)
  ---------------------------------------------------
  alpha Z        PSCENC =         5.17874040
  Ewald energy   TEWEN  =     12694.04117667
  -Hartree energ DENC   =    -21706.56741678
  -exchange      EXHF   =         0.00000000
  -V(xc)+E(xc)   XCENC  =        61.61476818
  PAW double counting   =     10123.01014893   -10286.48055249
  entropy T*S    EENTRO =        -0.00140534
  eigenvalues    EBANDS =      -631.93751678
  atomic energy  EATOM  =      9704.95859309
  Solvation  Ediel_sol  =         0.00000000
  ---------------------------------------------------
  free energy    TOTEN  =       -36.18346410 eV

  energy without entropy =      -36.18205876  energy(sigma->0) =      -36.18299566


--------------------------------------------------------------------------------------------------------




--------------------------------------- Iteration      1(  16)  ---------------------------------------


    POTLOK:  cpu time    2.4024: real time    2.4080
    SETDIJ:  cpu time    0.0248: real time    0.0248
     EDDAV:  cpu time    7.7222: real time    7.7299
       DOS:  cpu time    0.0009: real time    0.0009
    CHARGE:  cpu time    0.6757: real time    0.6763
    MIXING:  cpu time    0.0935: real time    0.0936
    --------------------------------------------
      LOOP:  cpu time   10.9196: real time   10.9335

 eigenvalue-minimisations  :   348
 total energy-change (2. order) : 0.2590323E-02  (-0.5831887E-01)
 number of electron     100.0000153 magnetization       8.7855069
 augmentation part       54.3159631 magnetization       6.7162271

 Broyden mixing:
  rms(total) = 0.33949E+00    rms(broyden)= 0.33892E+00
  rms(prec ) = 0.35816E+00
  weight for this iteration     100.00

 eigenvalues of (default mixing * dielectric matrix)
  average eigenvalue GAMMA=   0.4748
  1.7363  0.8965  0.8965  0.4245  0.4245  0.2482  0.1485  0.1485  0.1129  0.0857
  0.1008

 Free energy of the ion-electron system (eV)
  ---------------------------------------------------
  alpha Z        PSCENC =         5.17874040
  Ewald energy   TEWEN  =     12694.04117667
  -Hartree energ DENC   =    -21710.82647803
  -exchange      EXHF   =         0.00000000
  -V(xc)+E(xc)   XCENC  =        61.51580571
  PAW double counting   =     10147.09408165   -10311.11376461
  entropy T*S    EENTRO =         0.02649396
  eigenvalues    EBANDS =      -627.05552262
  atomic energy  EATOM  =      9704.95859309
  Solvation  Ediel_sol  =         0.00000000
  ---------------------------------------------------
  free energy    TOTEN  =       -36.18087378 eV

  energy without entropy =      -36.20736774  energy(sigma->0) =      -36.18970510


--------------------------------------------------------------------------------------------------------




--------------------------------------- Iteration      1(  17)  ---------------------------------------


    POTLOK:  cpu time    2.3716: real time    2.3776
    SETDIJ:  cpu time    0.0231: real time    0.0231
     EDDAV:  cpu time    7.9238: real time    7.9334
       DOS:  cpu time    0.0008: real time    0.0008
    CHARGE:  cpu time    0.6908: real time    0.6915
    MIXING:  cpu time    0.1051: real time    0.1052
    --------------------------------------------
      LOOP:  cpu time   11.1153: real time   11.1316

 eigenvalue-minimisations  :   364
 total energy-change (2. order) :-0.2641966E+00  (-0.2856487E-01)
 number of electron     100.0000150 magnetization       8.6958161
 augmentation part       54.4196355 magnetization       6.6095828

 Broyden mixing:
  rms(total) = 0.38212E+00    rms(broyden)= 0.38172E+00
  rms(prec ) = 0.40297E+00
  weight for this iteration     100.00

 eigenvalues of (default mixing * dielectric matrix)
  average eigenvalue GAMMA=   0.4819
  1.9726  0.7354  0.7354  0.6102  0.4409  0.4409  0.2511  0.1482  0.1482  0.1130
  0.0857  0.1010

 Free energy of the ion-electron system (eV)
  ---------------------------------------------------
  alpha Z        PSCENC =         5.17874040
  Ewald energy   TEWEN  =     12694.04117667
  -Hartree energ DENC   =    -21715.27579862
  -exchange      EXHF   =         0.00000000
  -V(xc)+E(xc)   XCENC  =        61.27714104
  PAW double counting   =     10168.02712844   -10332.15070902
  entropy T*S    EENTRO =         0.01786408
  eigenvalues    EBANDS =      -622.51920649
  atomic energy  EATOM  =      9704.95859309
  Solvation  Ediel_sol  =         0.00000000
  ---------------------------------------------------
  free energy    TOTEN  =       -36.44507041 eV

  energy without entropy =      -36.46293449  energy(sigma->0) =      -36.45102510


--------------------------------------------------------------------------------------------------------




--------------------------------------- Iteration      1(  18)  ---------------------------------------


    POTLOK:  cpu time    2.3821: real time    2.3861
    SETDIJ:  cpu time    0.0235: real time    0.0236
     EDDAV:  cpu time    7.6868: real time    7.6945
       DOS:  cpu time    0.0009: real time    0.0009
    CHARGE:  cpu time    0.6935: real time    0.6941
    MIXING:  cpu time    0.1059: real time    0.1060
    --------------------------------------------
      LOOP:  cpu time   10.8927: real time   10.9051

 eigenvalue-minimisations  :   348
 total energy-change (2. order) :-0.2631405E+00  (-0.1022458E-01)
 number of electron     100.0000150 magnetization       8.6055867
 augmentation part       54.4521869 magnetization       6.5206800

 Broyden mixing:
  rms(total) = 0.32899E+00    rms(broyden)= 0.32890E+00
  rms(prec ) = 0.35037E+00
  weight for this iteration     100.00

 eigenvalues of (default mixing * dielectric matrix)
  average eigenvalue GAMMA=   0.5536
  2.2527  1.3024  0.7002  0.7002  0.4966  0.4966  0.4017  0.2505  0.1483  0.1483
  0.1130  0.0857  0.1010

 Free energy of the ion-electron system (eV)
  ---------------------------------------------------
  alpha Z        PSCENC =         5.17874040
  Ewald energy   TEWEN  =     12694.04117667
  -Hartree energ DENC   =    -21719.08466616
  -exchange      EXHF   =         0.00000000
  -V(xc)+E(xc)   XCENC  =        61.08332345
  PAW double counting   =     10173.84966668   -10338.17864287
  entropy T*S    EENTRO =         0.02340786
  eigenvalues    EBANDS =      -618.57981006
  atomic energy  EATOM  =      9704.95859309
  Solvation  Ediel_sol  =         0.00000000
  ---------------------------------------------------
  free energy    TOTEN  =       -36.70821094 eV

  energy without entropy =      -36.73161879  energy(sigma->0) =      -36.71601355


--------------------------------------------------------------------------------------------------------




--------------------------------------- Iteration      1(  19)  ---------------------------------------


    POTLOK:  cpu time    2.3845: real time    2.3896
    SETDIJ:  cpu time    0.0227: real time    0.0227
     EDDAV:  cpu time    8.6681: real time    8.6757
       DOS:  cpu time    0.0009: real time    0.0010
    CHARGE:  cpu time    0.6838: real time    0.6845
    MIXING:  cpu time    0.1191: real time    0.1191
    --------------------------------------------
      LOOP:  cpu time   11.8790: real time   11.8925

 eigenvalue-minimisations  :   402
 total energy-change (2. order) :-0.2474741E+00  (-0.9428804E-02)
 number of electron     100.0000152 magnetization       8.5542589
 augmentation part       54.4016119 magnetization       6.5312054

 Broyden mixing:
  rms(total) = 0.10271E+00    rms(broyden)= 0.10219E+00
  rms(prec ) = 0.10854E+00
  weight for this iteration     100.00

 eigenvalues of (default mixing * dielectric matrix)
  average eigenvalue GAMMA=   0.5810
  2.3074  1.4693  0.7289  0.7289  0.7004  0.4910  0.4910  0.3701  0.2507  0.1483
  0.1483  0.1130  0.0857  0.1010

 Free energy of the ion-electron system (eV)
  ---------------------------------------------------
  alpha Z        PSCENC =         5.17874040
  Ewald energy   TEWEN  =     12694.04117667
  -Hartree energ DENC   =    -21723.53975649
  -exchange      EXHF   =         0.00000000
  -V(xc)+E(xc)   XCENC  =        60.92912272
  PAW double counting   =     10169.74253595   -10334.40907522
  entropy T*S    EENTRO =         0.03146371
  eigenvalues    EBANDS =      -613.88848589
  atomic energy  EATOM  =      9704.95859309
  Solvation  Ediel_sol  =         0.00000000
  ---------------------------------------------------
  free energy    TOTEN  =       -36.95568507 eV

  energy without entropy =      -36.98714878  energy(sigma->0) =      -36.96617297


--------------------------------------------------------------------------------------------------------




--------------------------------------- Iteration      1(  20)  ---------------------------------------


    POTLOK:  cpu time    2.3447: real time    2.3519
    SETDIJ:  cpu time    0.0240: real time    0.0240
     EDDAV:  cpu time    7.4048: real time    7.4132
       DOS:  cpu time    0.0008: real time    0.0008
    CHARGE:  cpu time    0.7013: real time    0.7021
    MIXING:  cpu time    0.1345: real time    0.1347
    --------------------------------------------
      LOOP:  cpu time   10.6100: real time   10.6267

 eigenvalue-minimisations  :   332
 total energy-change (2. order) :-0.1588960E+00  (-0.2536767E-02)
 number of electron     100.0000152 magnetization       8.4987935
 augmentation part       54.3924227 magnetization       6.4836119

 Broyden mixing:
  rms(total) = 0.66515E-01    rms(broyden)= 0.66306E-01
  rms(prec ) = 0.72023E-01
  weight for this iteration     100.00

 eigenvalues of (default mixing * dielectric matrix)
  average eigenvalue GAMMA=   0.6145
  2.3381  1.6477  0.7293  0.7293  0.7984  0.7984  0.4771  0.4771  0.3745  0.2506
  0.1483  0.1483  0.1130  0.0857  0.1010

 Free energy of the ion-electron system (eV)
  ---------------------------------------------------
  alpha Z        PSCENC =         5.17874040
  Ewald energy   TEWEN  =     12694.04117667
  -Hartree energ DENC   =    -21725.53518347
  -exchange      EXHF   =         0.00000000
  -V(xc)+E(xc)   XCENC  =        60.80670653
  PAW double counting   =     10161.48313062   -10326.17209230
  entropy T*S    EENTRO =         0.03312748
  eigenvalues    EBANDS =      -611.90878013
  atomic energy  EATOM  =      9704.95859309
  Solvation  Ediel_sol  =         0.00000000
  ---------------------------------------------------
  free energy    TOTEN  =       -37.11458110 eV

  energy without entropy =      -37.14770859  energy(sigma->0) =      -37.12562360


--------------------------------------------------------------------------------------------------------




--------------------------------------- Iteration      1(  21)  ---------------------------------------


    POTLOK:  cpu time    2.3773: real time    2.3804
    SETDIJ:  cpu time    0.0240: real time    0.0240
     EDDAV:  cpu time    7.7586: real time    7.7659
       DOS:  cpu time    0.0039: real time    0.0039
    CHARGE:  cpu time    0.7130: real time    0.7136
    MIXING:  cpu time    0.1334: real time    0.1335
    --------------------------------------------
      LOOP:  cpu time   11.0101: real time   11.0213

 eigenvalue-minimisations  :   356
 total energy-change (2. order) :-0.1463447E+00  (-0.1411326E-02)
 number of electron     100.0000152 magnetization       8.4493130
 augmentation part       54.3971716 magnetization       6.4321252

 Broyden mixing:
  rms(total) = 0.87416E-01    rms(broyden)= 0.87358E-01
  rms(prec ) = 0.93154E-01
  weight for this iteration     100.00

 eigenvalues of (default mixing * dielectric matrix)
  average eigenvalue GAMMA=   0.6299
  2.6214  1.7077  0.8347  0.8347  0.7166  0.7166  0.4881  0.4881  0.4433  0.3805
  0.2507  0.1483  0.1483  0.1130  0.0857  0.1010

 Free energy of the ion-electron system (eV)
  ---------------------------------------------------
  alpha Z        PSCENC =         5.17874040
  Ewald energy   TEWEN  =     12694.04117667
  -Hartree energ DENC   =    -21727.48013281
  -exchange      EXHF   =         0.00000000
  -V(xc)+E(xc)   XCENC  =        60.68529802
  PAW double counting   =     10155.26809756   -10319.91375462
  entropy T*S    EENTRO =         0.03426190
  eigenvalues    EBANDS =      -610.03320599
  atomic energy  EATOM  =      9704.95859309
  Solvation  Ediel_sol  =         0.00000000
  ---------------------------------------------------
  free energy    TOTEN  =       -37.26092578 eV

  energy without entropy =      -37.29518767  energy(sigma->0) =      -37.27234641


--------------------------------------------------------------------------------------------------------




--------------------------------------- Iteration      1(  22)  ---------------------------------------


    POTLOK:  cpu time    2.3743: real time    2.3794
    SETDIJ:  cpu time    0.0237: real time    0.0237
     EDDAV:  cpu time    7.4315: real time    7.4381
       DOS:  cpu time    0.0041: real time    0.0041
    CHARGE:  cpu time    0.7010: real time    0.7016
    MIXING:  cpu time    0.1581: real time    0.1582
    --------------------------------------------
      LOOP:  cpu time   10.6927: real time   10.7053

 eigenvalue-minimisations  :   326
 total energy-change (2. order) :-0.1109691E+00  (-0.8227258E-03)
 number of electron     100.0000152 magnetization       8.4007902
 augmentation part       54.3911855 magnetization       6.3951645

 Broyden mixing:
  rms(total) = 0.34624E-01    rms(broyden)= 0.34594E-01
  rms(prec ) = 0.37553E-01
  weight for this iteration     100.00

 eigenvalues of (default mixing * dielectric matrix)
  average eigenvalue GAMMA=   0.6665
  2.6222  2.0090  1.0146  1.0146  0.6975  0.6975  0.5696  0.5696  0.4575  0.4575
  0.3748  0.2506  0.1483  0.1483  0.1130  0.0857  0.1010

 Free energy of the ion-electron system (eV)
  ---------------------------------------------------
  alpha Z        PSCENC =         5.17874040
  Ewald energy   TEWEN  =     12694.04117667
  -Hartree energ DENC   =    -21729.27201257
  -exchange      EXHF   =         0.00000000
  -V(xc)+E(xc)   XCENC  =        60.60425479
  PAW double counting   =     10151.97690619   -10316.65741106
  entropy T*S    EENTRO =         0.03623504
  eigenvalues    EBANDS =      -608.23837745
  atomic energy  EATOM  =      9704.95859309
  Solvation  Ediel_sol  =         0.00000000
  ---------------------------------------------------
  free energy    TOTEN  =       -37.37189491 eV

  energy without entropy =      -37.40812995  energy(sigma->0) =      -37.38397326


--------------------------------------------------------------------------------------------------------




--------------------------------------- Iteration      1(  23)  ---------------------------------------


    POTLOK:  cpu time    2.3855: real time    2.3896
    SETDIJ:  cpu time    0.0253: real time    0.0254
     EDDAV:  cpu time    7.0922: real time    7.0984
       DOS:  cpu time    0.0035: real time    0.0035
    CHARGE:  cpu time    0.6957: real time    0.6971
    MIXING:  cpu time    0.1589: real time    0.1591
    --------------------------------------------
      LOOP:  cpu time   10.3612: real time   10.3731

 eigenvalue-minimisations  :   322
 total energy-change (2. order) :-0.1100658E+00  (-0.4300891E-03)
 number of electron     100.0000152 magnetization       8.3539865
 augmentation part       54.3839121 magnetization       6.3597341

 Broyden mixing:
  rms(total) = 0.23349E-01    rms(broyden)= 0.23330E-01
  rms(prec ) = 0.25712E-01
  weight for this iteration     100.00

 eigenvalues of (default mixing * dielectric matrix)
  average eigenvalue GAMMA=   0.6757
  2.5146  2.1944  0.9603  0.9603  0.7075  0.7075  0.8311  0.5894  0.5894  0.4458
  0.4458  0.3703  0.2507  0.1483  0.1483  0.1130  0.0857  0.1010

 Free energy of the ion-electron system (eV)
  ---------------------------------------------------
  alpha Z        PSCENC =         5.17874040
  Ewald energy   TEWEN  =     12694.04117667
  -Hartree energ DENC   =    -21730.81585763
  -exchange      EXHF   =         0.00000000
  -V(xc)+E(xc)   XCENC  =        60.51133388
  PAW double counting   =     10147.43924694   -10312.10182398
  entropy T*S    EENTRO =         0.03602867
  eigenvalues    EBANDS =      -606.72939870
  atomic energy  EATOM  =      9704.95859309
  Solvation  Ediel_sol  =         0.00000000
  ---------------------------------------------------
  free energy    TOTEN  =       -37.48196066 eV

  energy without entropy =      -37.51798933  energy(sigma->0) =      -37.49397022


--------------------------------------------------------------------------------------------------------




--------------------------------------- Iteration      1(  24)  ---------------------------------------


    POTLOK:  cpu time    2.3861: real time    2.3915
    SETDIJ:  cpu time    0.0239: real time    0.0239
     EDDAV:  cpu time    6.9636: real time    6.9715
       DOS:  cpu time    0.0055: real time    0.0056
    CHARGE:  cpu time    0.6674: real time    0.6680
    MIXING:  cpu time    0.1683: real time    0.1685
    --------------------------------------------
      LOOP:  cpu time   10.2149: real time   10.2289

 eigenvalue-minimisations  :   296
 total energy-change (2. order) :-0.8658053E-01  (-0.2062012E-03)
 number of electron     100.0000152 magnetization       8.2946719
 augmentation part       54.3847679 magnetization       6.3029693

 Broyden mixing:
  rms(total) = 0.11131E-01    rms(broyden)= 0.11111E-01
  rms(prec ) = 0.13122E-01
  weight for this iteration     100.00

 eigenvalues of (default mixing * dielectric matrix)
  average eigenvalue GAMMA=   0.7040
  2.7041  2.2793  0.9266  0.9266  0.7101  0.7101  0.8839  0.7295  0.7295  0.6349
  0.4615  0.4615  0.3717  0.2507  0.1483  0.1483  0.1130  0.0857  0.1010

 Free energy of the ion-electron system (eV)
  ---------------------------------------------------
  alpha Z        PSCENC =         5.17874040
  Ewald energy   TEWEN  =     12694.04117667
  -Hartree energ DENC   =    -21732.12749177
  -exchange      EXHF   =         0.00000000
  -V(xc)+E(xc)   XCENC  =        60.43392619
  PAW double counting   =     10144.75539017   -10309.39115179
  entropy T*S    EENTRO =         0.03613208
  eigenvalues    EBANDS =      -605.45385623
  atomic energy  EATOM  =      9704.95859309
  Solvation  Ediel_sol  =         0.00000000
  ---------------------------------------------------
  free energy    TOTEN  =       -37.56854119 eV

  energy without entropy =      -37.60467327  energy(sigma->0) =      -37.58058522


--------------------------------------------------------------------------------------------------------




--------------------------------------- Iteration      1(  25)  ---------------------------------------


    POTLOK:  cpu time    2.3766: real time    2.3804
    SETDIJ:  cpu time    0.0246: real time    0.0247
     EDDAV:  cpu time    6.4487: real time    6.4543
       DOS:  cpu time    0.0039: real time    0.0039
    CHARGE:  cpu time    0.6694: real time    0.6700
    MIXING:  cpu time    0.1816: real time    0.1817
    --------------------------------------------
      LOOP:  cpu time    9.7048: real time    9.7151

 eigenvalue-minimisations  :   282
 total energy-change (2. order) :-0.8596468E-01  (-0.2493622E-03)
 number of electron     100.0000152 magnetization       8.2326164
 augmentation part       54.3853055 magnetization       6.2453408

 Broyden mixing:
  rms(total) = 0.14505E-01    rms(broyden)= 0.14493E-01
  rms(prec ) = 0.16004E-01
  weight for this iteration     100.00

 eigenvalues of (default mixing * dielectric matrix)
  average eigenvalue GAMMA=   0.7483
  3.1408  2.2686  1.2886  1.2886  0.8514  0.8514  0.7039  0.7039  0.5944  0.5944
  0.5499  0.4556  0.4556  0.3720  0.2507  0.1483  0.1483  0.1130  0.0857  0.1010

 Free energy of the ion-electron system (eV)
  ---------------------------------------------------
  alpha Z        PSCENC =         5.17874040
  Ewald energy   TEWEN  =     12694.04117667
  -Hartree energ DENC   =    -21733.73162130
  -exchange      EXHF   =         0.00000000
  -V(xc)+E(xc)   XCENC  =        60.36185412
  PAW double counting   =     10142.04693887   -10306.67178468
  entropy T*S    EENTRO =         0.03686153
  eigenvalues    EBANDS =      -603.87526458
  atomic energy  EATOM  =      9704.95859309
  Solvation  Ediel_sol  =         0.00000000
  ---------------------------------------------------
  free energy    TOTEN  =       -37.65450587 eV

  energy without entropy =      -37.69136740  energy(sigma->0) =      -37.66679305


--------------------------------------------------------------------------------------------------------




--------------------------------------- Iteration      1(  26)  ---------------------------------------


    POTLOK:  cpu time    2.3822: real time    2.3857
    SETDIJ:  cpu time    0.0240: real time    0.0240
     EDDAV:  cpu time    6.6022: real time    6.6082
       DOS:  cpu time    0.0070: real time    0.0070
    CHARGE:  cpu time    0.6917: real time    0.6923
    MIXING:  cpu time    0.1847: real time    0.1848
    --------------------------------------------
      LOOP:  cpu time    9.8917: real time    9.9021

 eigenvalue-minimisations  :   282
 total energy-change (2. order) :-0.6724656E-01  (-0.2057176E-03)
 number of electron     100.0000152 magnetization       8.1950617
 augmentation part       54.3824551 magnetization       6.2159081

 Broyden mixing:
  rms(total) = 0.12955E-01    rms(broyden)= 0.12947E-01
  rms(prec ) = 0.14060E-01
  weight for this iteration     100.00

 eigenvalues of (default mixing * dielectric matrix)
  average eigenvalue GAMMA=   0.7855
  3.3310  2.5603  1.6626  0.9803  0.9803  0.7129  0.7129  0.8320  0.8320  0.6149
  0.6149  0.5149  0.4632  0.4632  0.3721  0.2507  0.1483  0.1483  0.1130  0.0857
  0.1010

 Free energy of the ion-electron system (eV)
  ---------------------------------------------------
  alpha Z        PSCENC =         5.17874040
  Ewald energy   TEWEN  =     12694.04117667
  -Hartree energ DENC   =    -21735.32982953
  -exchange      EXHF   =         0.00000000
  -V(xc)+E(xc)   XCENC  =        60.30692192
  PAW double counting   =     10139.71312395   -10304.33566767
  entropy T*S    EENTRO =         0.03706622
  eigenvalues    EBANDS =      -602.29187748
  atomic energy  EATOM  =      9704.95859309
  Solvation  Ediel_sol  =         0.00000000
  ---------------------------------------------------
  free energy    TOTEN  =       -37.72175243 eV

  energy without entropy =      -37.75881865  energy(sigma->0) =      -37.73410783


--------------------------------------------------------------------------------------------------------




--------------------------------------- Iteration      1(  27)  ---------------------------------------


    POTLOK:  cpu time    2.3450: real time    2.3511
    SETDIJ:  cpu time    0.0269: real time    0.0269
     EDDAV:  cpu time    5.7457: real time    5.7510
       DOS:  cpu time    0.0008: real time    0.0008
    CHARGE:  cpu time    0.6707: real time    0.6713
    MIXING:  cpu time    0.2220: real time    0.2230
    --------------------------------------------
      LOOP:  cpu time    9.0112: real time    9.0241

 eigenvalue-minimisations  :   230
 total energy-change (2. order) :-0.3119557E-01  (-0.5576373E-04)
 number of electron     100.0000152 magnetization       8.1612108
 augmentation part       54.3837695 magnetization       6.1841302

 Broyden mixing:
  rms(total) = 0.83197E-02    rms(broyden)= 0.83167E-02
  rms(prec ) = 0.90280E-02
  weight for this iteration     100.00

 eigenvalues of (default mixing * dielectric matrix)
  average eigenvalue GAMMA=   0.8225
  3.9410  2.3594  2.0604  1.0607  1.0607  0.8339  0.8339  0.7138  0.7138  0.6244
  0.6244  0.5641  0.5641  0.4605  0.4605  0.3721  0.2507  0.1483  0.1483  0.1130
  0.0857  0.1010

 Free energy of the ion-electron system (eV)
  ---------------------------------------------------
  alpha Z        PSCENC =         5.17874040
  Ewald energy   TEWEN  =     12694.04117667
  -Hartree energ DENC   =    -21736.12586028
  -exchange      EXHF   =         0.00000000
  -V(xc)+E(xc)   XCENC  =        60.27825013
  PAW double counting   =     10139.07619962   -10303.69051461
  entropy T*S    EENTRO =         0.03705396
  eigenvalues    EBANDS =      -601.50658698
  atomic energy  EATOM  =      9704.95859309
  Solvation  Ediel_sol  =         0.00000000
  ---------------------------------------------------
  free energy    TOTEN  =       -37.75294799 eV

  energy without entropy =      -37.79000195  energy(sigma->0) =      -37.76529931


--------------------------------------------------------------------------------------------------------




--------------------------------------- Iteration      1(  28)  ---------------------------------------


    POTLOK:  cpu time    2.3849: real time    2.3873
    SETDIJ:  cpu time    0.0228: real time    0.0236
     EDDAV:  cpu time    5.8409: real time    5.8462
       DOS:  cpu time    0.0072: real time    0.0072
    CHARGE:  cpu time    0.6707: real time    0.6727
    MIXING:  cpu time    0.2114: real time    0.2124
    --------------------------------------------
      LOOP:  cpu time    9.1379: real time    9.1494

 eigenvalue-minimisations  :   242
 total energy-change (2. order) :-0.2279961E-01  (-0.5427892E-04)
 number of electron     100.0000152 magnetization       8.1354154
 augmentation part       54.3827000 magnetization       6.1616952

 Broyden mixing:
  rms(total) = 0.73680E-02    rms(broyden)= 0.73659E-02
  rms(prec ) = 0.79252E-02
  weight for this iteration     100.00

 eigenvalues of (default mixing * dielectric matrix)
[...]
 total energy-change (2. order) : 0.3919294E-04  (-0.4603544E-04)
 number of electron     100.0000169 magnetization       8.0797045
 augmentation part       54.3852681 magnetization       6.1099040

 Free energy of the ion-electron system (eV)
  ---------------------------------------------------
  alpha Z        PSCENC =         5.17874040
  Ewald energy   TEWEN  =     12702.72214143
  -Hartree energ DENC   =    -21746.11113503
  -exchange      EXHF   =         0.00000000
  -V(xc)+E(xc)   XCENC  =        60.23999428
  PAW double counting   =     10141.18034329   -10305.84175894
  entropy T*S    EENTRO =         0.03778873
  eigenvalues    EBANDS =      -600.17570409
  atomic energy  EATOM  =      9704.95859309
  Solvation  Ediel_sol  =         0.00000000
  ---------------------------------------------------
  free energy    TOTEN  =       -37.81099683 eV

  energy without entropy =      -37.84878557  energy(sigma->0) =      -37.82359308


--------------------------------------------------------------------------------------------------------




 average (electrostatic) potential at core
  the test charge radii are     0.9791  1.1199
  (the norm of the test charge is              1.0000)
       1 -95.6240       2 -95.4578       3 -95.2469       4 -95.4059       5 -95.5508
       6 -95.3670       7 -83.5960       8 -83.5124       9 -83.5928      10 -83.5453
 
 
 
 E-fermi :  -4.1904     XC(G=0):  -0.3730     alpha+bet : -0.1882


 spin component 1

 k-point     1 :       0.0000    0.0000    0.0000
  band No.  band energies     occupation 
      1      -9.9461      1.00000
      2      -8.4308      1.00000
      3      -8.2691      1.00000
      4      -8.0745      1.00000
      5      -7.8297      1.00000
      6      -7.8026      1.00000
      7      -7.7340      1.00000
      8      -7.5806      1.00000
      9      -7.5302      1.00000
     10      -7.5179      1.00000
     11      -7.4353      1.00000
     12      -7.3567      1.00000
     13      -7.2378      1.00000
     14      -7.0442      1.00000
     15      -6.8450      1.00000
     16      -6.7707      1.00000
     17      -6.6672      1.00000
     18      -6.6310      1.00000
     19      -6.4510      1.00000
     20      -6.4014      1.00000
     21      -6.3704      1.00000
     22      -6.3082      1.00000
     23      -6.2122      1.00000
     24      -6.1362      1.00000
     25      -6.0936      1.00000
     26      -6.0661      1.00000
     27      -6.0538      1.00000
     28      -5.9710      1.00000
     29      -5.8279      1.00000
     30      -5.7962      1.00000
     31      -5.7197      1.00000
     32      -5.6059      1.00000
     33      -5.5283      1.00000
     34      -5.4793      1.00000
     35      -5.4664      1.00000
     36      -5.4093      1.00000
     37      -5.3703      1.00000
     38      -5.3354      1.00000
     39      -5.2896      1.00000
     40      -5.2253      1.00000
     41      -5.2032      1.00000
     42      -5.1887      1.00000
     43      -5.1260      1.00000
     44      -5.0969      1.00000
     45      -5.0459      1.00000
     46      -5.0120      1.00000
     47      -4.9384      1.00000
     48      -4.9236      1.00000
     49      -4.8828      1.00001
     50      -4.8672      1.00001
     51      -4.7538      1.00025
     52      -4.6796      1.00147
     53      -4.6385      1.00341
     54      -4.4194      1.03437
     55      -3.0080     -0.00000
     56      -2.9045     -0.00000
     57      -2.7030     -0.00000
     58      -2.4651     -0.00000
     59      -2.2940     -0.00000
     60      -1.7697     -0.00000
     61      -1.0547     -0.00000
     62      -0.8028     -0.00000
     63      -0.6184     -0.00000
     64      -0.4945     -0.00000
     65      -0.3826     -0.00000
     66      -0.1442     -0.00000

 spin component 2

 k-point     1 :       0.0000    0.0000    0.0000
  band No.  band energies     occupation 
      1      -9.8767      1.00000
      2      -8.0893      1.00000
      3      -7.9001      1.00000
      4      -7.6279      1.00000
      5      -7.2536      1.00000
      6      -7.1705      1.00000
      7      -7.0543      1.00000
      8      -6.8951      1.00000
      9      -6.7850      1.00000
     10      -6.7461      1.00000
     11      -6.6425      1.00000
     12      -6.5602      1.00000
     13      -6.4214      1.00000
     14      -6.3525      1.00000
     15      -6.2965      1.00000
     16      -6.1432      1.00000
     17      -6.1298      1.00000
     18      -6.0051      1.00000
     19      -5.9786      1.00000
     20      -5.8139      1.00000
     21      -5.7564      1.00000
     22      -5.7046      1.00000
     23      -5.6333      1.00000
     24      -5.5659      1.00000
     25      -5.5217      1.00000
     26      -5.4518      1.00000
     27      -5.4362      1.00000
     28      -5.2749      1.00000
     29      -5.1935      1.00000
     30      -5.1415      1.00000
     31      -5.1006      1.00000
     32      -5.0179      1.00000
     33      -4.9886      1.00000
     34      -4.9255      1.00000
     35      -4.8156      1.00005
     36      -4.7720      1.00015
     37      -4.6840      1.00133
     38      -4.6482      1.00282
     39      -4.6067      1.00609
     40      -4.4972      1.02612
     41      -4.4517      1.03453
     42      -4.4051      1.03118
     43      -4.3725      1.01314
     44      -4.3372      0.97123
     45      -4.3057      0.90926
     46      -4.2072      0.57101
     47      -4.1543      0.34991
     48      -4.0880      0.12353
     49      -4.0503      0.03998
     50      -3.9702     -0.03268
     51      -3.9337     -0.03497
     52      -3.8793     -0.02512
     53      -3.8699     -0.02296
     54      -3.7524     -0.00413
     55      -2.7446     -0.00000
     56      -2.5910     -0.00000
     57      -2.4357     -0.00000
     58      -2.1763     -0.00000
     59      -2.0092     -0.00000
     60      -1.5000     -0.00000
     61      -0.9192     -0.00000
     62      -0.6494     -0.00000
     63      -0.4170     -0.00000
     64      -0.3466     -0.00000
     65      -0.1674     -0.00000
     66       0.0118     -0.00000


--------------------------------------------------------------------------------------------------------


 soft charge-density along one line, spin component            1
         0         1         2         3         4         5         6         7         8         9
 total charge-density along one line
 
 soft charge-density along one line, spin component            2
         0         1         2         3         4         5         6         7         8         9
 total charge-density along one line
 
 pseudopotential strength for first ion, spin component:            1
-10.378  -0.042   0.005   0.022  -0.057 -10.643  -0.040   0.005
 -0.042 -10.524   0.070   0.008   0.033  -0.040 -10.782   0.067
  0.005   0.070 -10.375  -0.051  -0.156   0.005   0.067 -10.639
  0.022   0.008  -0.051 -10.637   0.018   0.021   0.007  -0.049
 -0.057   0.033  -0.156   0.018 -10.546  -0.054   0.031  -0.149
-10.643  -0.040   0.005   0.021  -0.054 -10.853  -0.038   0.005
 -0.040 -10.782   0.067   0.007   0.031  -0.038 -10.986   0.064
  0.005   0.067 -10.639  -0.049  -0.149   0.005   0.064 -10.850
  0.021   0.007  -0.049 -10.891   0.018   0.020   0.007  -0.047
 -0.054   0.031  -0.149   0.018 -10.803  -0.052   0.030  -0.142
 -0.001  -0.005   0.002   0.010  -0.020  -0.001  -0.005   0.002
 -0.002  -0.008   0.003   0.018  -0.035  -0.002  -0.008   0.004
 -0.002   0.006  -0.003  -0.000  -0.001  -0.002   0.006  -0.003
 -0.000  -0.000   0.008   0.004  -0.002  -0.000  -0.000   0.007
  0.004  -0.000   0.002   0.003   0.003   0.003  -0.000   0.002
 -0.001   0.006  -0.003   0.000  -0.001  -0.000   0.006  -0.003
  0.000  -0.000   0.008   0.007  -0.002   0.000  -0.000   0.007
  0.004   0.000   0.001   0.002   0.005   0.004   0.000   0.001
 pseudopotential strength for first ion, spin component:            2
 -9.612  -0.006  -0.001   0.003   0.023  -9.914  -0.006  -0.001
 -0.006  -9.605  -0.027  -0.005  -0.036  -0.006  -9.907  -0.026
 -0.001  -0.027  -9.629   0.010   0.019  -0.001  -0.026  -9.930
  0.003  -0.005   0.010  -9.441  -0.033   0.003  -0.005   0.010
  0.023  -0.036   0.019  -0.033  -9.534   0.022  -0.034   0.019
 -9.914  -0.006  -0.001   0.003   0.022 -10.160  -0.005  -0.001
 -0.006  -9.907  -0.026  -0.005  -0.034  -0.005 -10.152  -0.025
 -0.001  -0.026  -9.930   0.010   0.019  -0.001  -0.025 -10.175
  0.003  -0.005   0.010  -9.748  -0.032   0.003  -0.004   0.010
  0.022  -0.034   0.019  -0.032  -9.838   0.021  -0.033   0.019
  0.000  -0.003   0.001   0.004  -0.007   0.000  -0.003   0.001
  0.001  -0.004   0.001   0.007  -0.012   0.000  -0.004   0.001
 -0.005   0.009  -0.001  -0.000  -0.003  -0.004   0.008  -0.001
 -0.000   0.003   0.010  -0.006   0.001  -0.000   0.003   0.009
  0.003  -0.000   0.002   0.010  -0.005   0.003  -0.000   0.002
 -0.005   0.010  -0.001   0.000  -0.004  -0.004   0.009  -0.001
  0.000   0.005   0.011  -0.007   0.001  -0.000   0.004   0.010
  0.003   0.000   0.002   0.012  -0.005   0.003  -0.000   0.001
 total augmentation occupancy for first ion, spin component:            1
  3.803  -0.131   0.005  -0.013  -0.202  -1.713   0.036   0.007   0.068   0.056   0.055  -0.004  -0.196  -0.011  -0.006   0.015
 -0.131   3.465   0.237  -0.136   0.225   0.035  -1.652  -0.084   0.153  -0.170   0.225  -0.007   0.109   0.059   0.005  -0.005
  0.005   0.237   3.837  -0.260  -0.377   0.003  -0.083  -1.747   0.135   0.075  -0.052  -0.008   0.048   0.223   0.142  -0.000
 -0.013  -0.136  -0.260   2.691   0.052   0.063   0.153   0.137  -1.189  -0.009  -0.100  -0.033  -0.000  -0.174   0.046  -0.001
 -0.202   0.225  -0.377   0.052   3.173   0.056  -0.168   0.084  -0.011  -1.484   0.326   0.033  -0.023  -0.046  -0.158  -0.000
 -1.713   0.035   0.003   0.063   0.056   1.478   0.026  -0.013  -0.104   0.026  -0.062   0.009   0.200   0.008   0.033  -0.025
  0.036  -1.652  -0.083   0.153  -0.168   0.026   1.578  -0.001  -0.165   0.152  -0.233   0.019  -0.123  -0.079  -0.001   0.014
  0.007  -0.084  -1.747   0.137   0.084  -0.013  -0.001   1.526  -0.063   0.088   0.035   0.007  -0.061  -0.238  -0.134   0.002
  0.068   0.153   0.135  -1.189  -0.011  -0.104  -0.165  -0.063   1.255  -0.000   0.141   0.012   0.003   0.225  -0.078   0.001
  0.056  -0.170   0.075  -0.009  -1.484   0.026   0.152   0.088  -0.000   1.472  -0.340  -0.004   0.024   0.028   0.220  -0.001
  0.055   0.225  -0.052  -0.100   0.326  -0.062  -0.233   0.035   0.141  -0.340   2.006  -0.218   0.002  -0.139   0.210   0.001
 -0.004  -0.007  -0.008  -0.033   0.033   0.009   0.019   0.007   0.012  -0.004  -0.218   0.032   0.001   0.025  -0.044  -0.000
 -0.196   0.109   0.048  -0.000  -0.023   0.200  -0.123  -0.061   0.003   0.024   0.002   0.001   0.285  -0.026  -0.009  -0.025
 -0.011   0.059   0.223  -0.174  -0.046   0.008  -0.079  -0.238   0.225   0.028  -0.139   0.025  -0.026   0.240   0.029   0.002
 -0.006   0.005   0.142   0.046  -0.158   0.033  -0.001  -0.134  -0.078   0.220   0.210  -0.044  -0.009   0.029   0.187   0.001
  0.015  -0.005  -0.000  -0.001  -0.000  -0.025   0.014   0.002   0.001  -0.001   0.001  -0.000  -0.025   0.002   0.001   0.003
 -0.000   0.001  -0.009   0.007   0.006   0.000   0.002   0.021  -0.020  -0.005   0.025  -0.003   0.003  -0.022  -0.001  -0.000
 -0.003  -0.002  -0.009   0.003   0.005   0.000   0.001   0.015   0.007  -0.019  -0.038   0.006   0.001  -0.001  -0.021  -0.000
 total augmentation occupancy for first ion, spin component:            2
  0.829   0.141  -0.032  -0.072   0.208  -0.425  -0.076   0.016   0.036  -0.092   0.032   0.009  -0.004   0.009  -0.015  -0.003
  0.141   1.385  -0.323  -0.064  -0.224  -0.075  -0.728   0.170   0.041   0.124   0.027   0.015   0.017   0.045   0.002   0.003
 -0.032  -0.323   0.788   0.214   0.619   0.020   0.167  -0.414  -0.111  -0.327   0.014   0.006  -0.003   0.003  -0.036   0.001
 -0.072  -0.064   0.214   2.034  -0.059   0.043   0.040  -0.116  -1.007   0.006  -0.050  -0.027  -0.007  -0.054   0.040  -0.000
  0.208  -0.224   0.619  -0.059   1.526  -0.093   0.121  -0.338   0.007  -0.758   0.077   0.034  -0.005   0.037  -0.039  -0.001
 -0.425  -0.075   0.020   0.043  -0.093   0.137   0.033  -0.009  -0.018   0.032  -0.020  -0.005  -0.001  -0.006   0.003   0.003
 -0.076  -0.728   0.167   0.040   0.121   0.033   0.295  -0.081  -0.023  -0.067  -0.013  -0.011  -0.006  -0.025  -0.002  -0.003
  0.016   0.170  -0.414  -0.116  -0.338  -0.009  -0.081   0.140   0.054   0.166  -0.006  -0.003   0.004   0.002   0.023  -0.001
  0.036   0.041  -0.111  -1.007   0.007  -0.018  -0.023   0.054   0.397   0.008   0.020   0.016   0.003   0.018  -0.014   0.000
 -0.092   0.124  -0.327   0.006  -0.758   0.032  -0.067   0.166   0.008   0.277  -0.043  -0.022   0.001  -0.019   0.006   0.000
  0.032   0.027   0.014  -0.050   0.077  -0.020  -0.013  -0.006   0.020  -0.043  -0.141   0.058   0.001   0.025  -0.026   0.000
  0.009   0.015   0.006  -0.027   0.034  -0.005  -0.011  -0.003   0.016  -0.022   0.058  -0.009   0.000  -0.001   0.003   0.000
 -0.004   0.017  -0.003  -0.007  -0.005  -0.001  -0.006   0.004   0.003   0.001   0.001   0.000  -0.010   0.003  -0.000   0.003
  0.009   0.045   0.003  -0.054   0.037  -0.006  -0.025   0.002   0.018  -0.019   0.025  -0.001   0.003   0.001  -0.006  -0.000
 -0.015   0.002  -0.036   0.040  -0.039   0.003  -0.002   0.023  -0.014   0.006  -0.026   0.003  -0.000  -0.006  -0.009  -0.000
 -0.003   0.003   0.001  -0.000  -0.001   0.003  -0.003  -0.001   0.000   0.000   0.000   0.000   0.003  -0.000  -0.000  -0.000
 -0.001   0.001   0.005  -0.005   0.001   0.000  -0.000  -0.004   0.002  -0.000  -0.002   0.001  -0.000   0.002   0.001   0.000
 -0.000  -0.000   0.003   0.006  -0.004   0.000   0.000  -0.003  -0.003   0.003   0.003  -0.001  -0.000   0.000   0.002   0.000


------------------------ aborting loop because EDIFF is reached ----------------------------------------


    CHARGE:  cpu time    0.6800: real time    0.6828
    FORLOC:  cpu time    0.0781: real time    0.0782
    FORNL :  cpu time    2.5159: real time    2.5189
    FORCOR:  cpu time    2.2888: real time    2.2916
    FORHAR:  cpu time    0.3102: real time    0.3113
    MIXING:  cpu time    0.0519: real time    0.0520
    OFIELD:  cpu time    0.0000: real time    0.0000

 VOLUME and BASIS-vectors are now :
 -----------------------------------------------------------------------------
  energy-cutoff  :      400.00
  volume of cell :    10942.76
      direct lattice vectors                 reciprocal lattice vectors
    22.629843944  0.000000000  0.000000000     0.044189434  0.000000000  0.000000000
     0.000000000 22.388292693  0.000000000     0.000000000  0.044666202  0.000000000
     0.000000000  0.000000000 21.598543813     0.000000000  0.000000000  0.046299418

  length of vectors
    22.629843944 22.388292693 21.598543813     0.044189434  0.044666202  0.046299418


 FORCES acting on ions
    electron-ion (+dipol)            ewald-force                    non-local-force                 convergence-correction
 -----------------------------------------------------------------------------------------------
   0.762E+03 -.434E+02 -.338E+03   -.761E+03 0.434E+02 0.337E+03   -.658E+00 0.282E-01 0.121E+01   -.268E-01 -.283E-01 -.234E+00
   -.557E+03 0.873E+03 0.993E+02   0.554E+03 -.870E+03 -.988E+02   0.309E+01 -.245E+01 -.302E+00   -.143E-01 -.112E+00 -.154E+00
   -.110E+04 -.133E+03 0.214E+02   0.109E+04 0.132E+03 -.211E+02   0.803E+01 0.857E+00 -.260E+00   -.475E-01 -.324E-01 -.101E+00
   -.294E+03 -.135E+02 -.102E+04   0.293E+03 0.126E+02 0.102E+04   0.155E+01 0.103E+01 0.432E+01   0.201E-01 -.116E+00 0.652E-01
   -.366E+03 -.142E+03 0.893E+03   0.364E+03 0.141E+03 -.891E+03   0.162E+01 0.956E+00 -.166E+01   0.452E-02 -.491E-01 -.177E+00
   -.341E+03 -.935E+03 -.236E+03   0.339E+03 0.932E+03 0.235E+03   0.189E+01 0.348E+01 0.505E+00   0.628E-01 0.120E+00 -.148E+00
   0.384E+03 0.701E+03 -.609E+03   -.380E+03 -.695E+03 0.604E+03   -.402E+01 -.563E+01 0.451E+01   0.368E-01 -.170E+00 -.156E-02
   0.434E+03 0.731E+03 0.540E+03   -.431E+03 -.726E+03 -.536E+03   -.341E+01 -.508E+01 -.384E+01   0.497E-01 -.636E-01 -.999E-01
   0.498E+03 -.801E+03 -.892E+02   -.494E+03 0.795E+03 0.878E+02   -.404E+01 0.653E+01 0.150E+01   -.665E-02 0.122E+00 -.738E-01
   0.577E+03 -.237E+03 0.740E+03   -.572E+03 0.236E+03 -.734E+03   -.427E+01 0.103E+01 -.590E+01   0.392E-01 -.211E-01 -.149E+00
 -----------------------------------------------------------------------------------------------
   0.911E-01 -.414E+00 0.978E+00   -.341E-12 0.199E-12 -.114E-12   -.220E+00 0.756E+00 0.924E-01   0.118E+00 -.350E+00 -.107E+01
 
 
 POSITION                                       TOTAL-FORCE (eV/Angst)
 -----------------------------------------------------------------------------------
     10.68635     11.13341     11.07275        -0.017908     -0.001501      0.007468
     12.86462      9.44539     10.73899         0.007982     -0.001301     -0.001219
     14.26825     11.29272     10.86130         0.004609      0.001564      0.005602
     12.59382     10.87929     12.48561        -0.014080      0.008380     -0.006007
     12.35984     11.26125      9.43386         0.004477      0.002806     -0.005148
     12.50936     12.78119     11.14509         0.013382     -0.000935      0.004291
     11.01206      8.99410     12.30498         0.001804     -0.002738      0.000714
     10.75255      9.23290      9.47879        -0.004504     -0.012831     -0.001743
     10.27842     13.54518     10.72104         0.006209      0.006369      0.004005
     10.10371     11.84855      8.75344        -0.001970      0.000187     -0.007963
 -----------------------------------------------------------------------------------
    total drift:                               -0.011226     -0.007664     -0.003224


--------------------------------------------------------------------------------------------------------



  FREE ENERGIE OF THE ION-ELECTRON SYSTEM (eV)
  ---------------------------------------------------
  free  energy   TOTEN  =       -37.81099683 eV

  energy  without entropy=      -37.84878557  energy(sigma->0) =      -37.82359308
 
 d Force = 0.9399345E-04[-0.296E-05, 0.191E-03]  d Energy = 0.5865905E-04 0.353E-04
 d Force =-0.4689217E+01[-0.469E+01,-0.469E+01]  d Ewald  =-0.4689217E+01-0.745E-07


--------------------------------------------------------------------------------------------------------


    POTLOK:  cpu time    2.3851: real time    2.3890


--------------------------------------------------------------------------------------------------------




--------------------------------------------------------------------------------------------------------


  
 reached required accuracy - stopping structural energy minimisation
     LOOP+:  cpu time   55.7392: real time   55.8167
    4ORBIT:  cpu time    0.0000: real time    0.0000

 total amount of memory used by VASP MPI-rank0   143494. kBytes
=======================================================================

   base      :      30000. kBytes
   nonl-proj :       5567. kBytes
   fftplans  :      26565. kBytes
   grid      :      68189. kBytes
   one-center:         31. kBytes
   wavefun   :      13142. kBytes
 
  
  
 General timing and accounting informations for this job:
 ========================================================
  
                  Total CPU time used (sec):      514.296
                            User time (sec):      509.262
                          System time (sec):        5.034
                         Elapsed time (sec):      518.597
  
                   Maximum memory used (kb):      297176.
                   Average memory used (kb):           0.
  
                          Minor page faults:      1428526
                          Major page faults:        18959
                 Voluntary context switches:         4151
