<?xml version="1.0" encoding="ISO-8859-1"?>
<modeling>
 <generator>
  <i name="program" type="string">vasp </i>
  <i name="version" type="string">6.1.2  </i>
  <i name="subversion" type="string">22Jul20 (build Aug  2 2021 21:04:21) gamma-only                       parallel </i>
  <i name="platform" type="string">LinuxPGI </i>
  <i name="date" type="string">2021 12 22 </i>
  <i name="time" type="string">20:40:41 </i>
 </generator>
 <incar>
  <i type="int" name="ISPIN">     2</i>
  <i type="int" name="IBRION">     2</i>
  <i type="int" name="NSW">  1000</i>
  <i type="int" name="ISIF">     0</i>
  <i type="int" name="ISYM">     0</i>
  <i name="ENCUT">    400.00000000</i>
  <i type="logical" name="LREAL"> F  </i>
  <i type="int" name="ISMEAR">     1</i>
  <i name="SIGMA">      0.20000000</i>
  <i type="logical" name="LWAVE"> F  </i>
  <i type="logical" name="LCHARG"> F  </i>
  <i type="int" name="KPAR">     1</i>
  <i type="int" name="NCORE">     8</i>
  <i type="string" name="GGA"> PE</i>
  <i type="int" name="ISPIN">     2</i>
 </incar>
 <structure name="primitive_cell" >
  <crystal>
   <varray name="basis" >
    <v>      22.62984394       0.00000000       0.00000000 </v>
    <v>       0.00000000      22.38829269       0.00000000 </v>
    <v>       0.00000000       0.00000000      21.59854381 </v>
   </varray>
   <i name="volume">  10942.76334035 </i>
   <varray name="rec_basis" >
    <v>       0.04418943       0.00000000       0.00000000 </v>
    <v>       0.00000000       0.04466620       0.00000000 </v>
    <v>       0.00000000       0.00000000       0.04629942 </v>
   </varray>
  </crystal>
  <varray name="positions" >
   <v>       0.47230534       0.49724877       0.51281642 </v>
   <v>       0.56849759       0.42186949       0.49728366 </v>
   <v>       0.63059237       0.50437005       0.50288420 </v>
   <v>       0.55663109       0.48602884       0.57798635 </v>
   <v>       0.54619275       0.50299781       0.43669445 </v>
   <v>       0.55271893       0.57086938       0.51611233 </v>
   <v>       0.48652265       0.40167583       0.56972608 </v>
   <v>       0.47512472       0.41237521       0.43879578 </v>
   <v>       0.45411559       0.60503093       0.49631013 </v>
   <v>       0.44641939       0.52930705       0.40523567 </v>
  </varray>
 </structure>
 <varray name="primitive_index" >
  <v type="int" >        1 </v>
  <v type="int" >        2 </v>
  <v type="int" >        3 </v>
  <v type="int" >        4 </v>
  <v type="int" >        5 </v>
  <v type="int" >        6 </v>
  <v type="int" >        7 </v>
  <v type="int" >        8 </v>
  <v type="int" >        9 </v>
  <v type="int" >       10 </v>
 </varray>
 <kpoints>
  <generation param="Gamma">
   <v type="int" name="divisions">       1        1        1 </v>
   <v name="usershift">      0.00000000       0.00000000       0.00000000 </v>
   <v name="genvec1">      1.00000000       0.00000000       0.00000000 </v>
   <v name="genvec2">      0.00000000       1.00000000       0.00000000 </v>
   <v name="genvec3">      0.00000000       0.00000000       1.00000000 </v>
   <v name="shift">      0.00000000       0.00000000       0.00000000 </v>
  </generation>
  <varray name="kpointlist" >
   <v>       0.00000000       0.00000000       0.00000000 </v>
  </varray>
  <varray name="weights" >
   <v>       1.00000000 </v>
  </varray>
 </kpoints>
 <parameters>
  <separator name="general" >
   <i type="string" name="SYSTEM">unknown system</i>
   <i type="logical" name="LCOMPAT"> F  </i>
  </separator>
  <separator name="electronic" >
   <i type="string" name="PREC">normal</i>
   <i name="ENMAX">    400.00000000</i>
   <i name="ENAUG">    544.56500000</i>
   <i name="EDIFF">      0.00010000</i>
   <i type="int" name="IALGO">    38</i>
   <i type="int" name="IWAVPR">    11</i>
   <i type="int" name="NBANDS">    66</i>
   <i type="int" name="NBANDSLOW">    -1</i>
   <i type="int" name="NBANDSHIGH">    -1</i>
   <i name="NELECT">    100.00000000</i>
   <i type="int" name="TURBO">     0</i>
   <i type="int" name="IRESTART">     0</i>
   <i type="int" name="NREBOOT">     0</i>
   <i type="int" name="NMIN">     0</i>
   <i name="EREF">      0.00000000</i>
   <separator name="electronic smearing" >
    <i type="int" name="ISMEAR">     1</i>
    <i name="SIGMA">      0.20000000</i>
    <i name="KSPACING">      0.50000000</i>
    <i type="logical" name="KGAMMA"> T  </i>
    <i type="logical" name="KBLOWUP"> T  </i>
   </separator>
   <separator name="electronic projectors" >
    <i type="logical" name="LREAL"> F  </i>
    <v name="ROPT">      0.00000000      0.00000000</v>
    <i type="int" name="LMAXPAW">  -100</i>
    <i type="int" name="LMAXMIX">     2</i>
    <i type="logical" name="NLSPLINE"> F  </i>
   </separator>
   <separator name="electronic startup" >
    <i type="int" name="ISTART">     0</i>
    <i type="int" name="ICHARG">     2</i>
    <i type="int" name="INIWAV">     1</i>
   </separator>
   <separator name="electronic spin" >
    <i type="int" name="ISPIN">     2</i>
    <i type="logical" name="LNONCOLLINEAR"> F  </i>
    <v name="MAGMOM">      1.00000000      1.00000000      1.00000000      1.00000000      1.00000000      1.00000000      1.00000000      1.00000000      1.00000000      1.00000000</v>
    <i name="NUPDOWN">     -1.00000000</i>
    <i type="logical" name="LSORBIT"> F  </i>
    <v name="SAXIS">      0.00000000      0.00000000      1.00000000</v>
    <i type="logical" name="LSPIRAL"> F  </i>
    <v name="QSPIRAL">      0.00000000      0.00000000      0.00000000</v>
    <i type="logical" name="LZEROZ"> F  </i>
   </separator>
   <separator name="electronic exchange-correlation" >
    <i type="logical" name="LASPH"> F  </i>
    <i type="logical" name="LMETAGGA"> F  </i>
   </separator>
   <separator name="electronic convergence" >
    <i type="int" name="NELM">    60</i>
    <i type="int" name="NELMDL">     0</i>
    <i type="int" name="NELMIN">     2</i>
    <i name="ENINI">    400.00000000</i>
    <separator name="electronic convergence detail" >
     <i type="logical" name="LDIAG"> T  </i>
     <i type="logical" name="LSUBROT"> F  </i>
     <i name="WEIMIN">      0.00100000</i>
     <i name="EBREAK">      0.00000038</i>
     <i name="DEPER">      0.30000000</i>
     <i type="int" name="NRMM">     4</i>
     <i name="TIME">      0.40000000</i>
    </separator>
   </separator>
   <separator name="electronic mixer" >
    <i name="AMIX">      0.40000000</i>
    <i name="BMIX">      1.00000000</i>
    <i name="AMIN">      0.10000000</i>
    <i name="AMIX_MAG">      1.60000000</i>
    <i name="BMIX_MAG">      1.00000000</i>
    <separator name="electronic mixer details" >
     <i type="int" name="IMIX">     4</i>
     <i type="logical" name="MIXFIRST"> F  </i>
     <i type="int" name="MAXMIX">   -45</i>
     <i name="WC">    100.00000000</i>
     <i type="int" name="INIMIX">     1</i>
     <i type="int" name="MIXPRE">     1</i>
     <i type="int" name="MREMOVE">     5</i>
    </separator>
   </separator>
   <separator name="electronic dipolcorrection" >
    <i type="logical" name="LDIPOL"> F  </i>
    <i type="logical" name="LMONO"> F  </i>
    <i type="int" name="IDIPOL">     0</i>
    <i name="EPSILON">      1.00000000</i>
    <v name="DIPOL">   -100.00000000   -100.00000000   -100.00000000</v>
    <i name="EFIELD">      0.00000000</i>
   </separator>
  </separator>
  <separator name="grids" >
   <i type="int" name="NGX">   112</i>
   <i type="int" name="NGY">   112</i>
   <i type="int" name="NGZ">   108</i>
   <i type="int" name="NGXF">   224</i>
   <i type="int" name="NGYF">   224</i>
   <i type="int" name="NGZF">   216</i>
   <i type="logical" name="ADDGRID"> F  </i>
  </separator>
  <separator name="ionic" >
   <i type="int" name="NSW">  1000</i>
   <i type="int" name="IBRION">     2</i>
   <i type="int" name="MDALGO">     0</i>
   <i type="int" name="ISIF">     0</i>
   <i name="PSTRESS">      0.00000000</i>
   <i name="EDIFFG">      0.00100000</i>
   <i type="int" name="NFREE">     1</i>
   <i name="POTIM">      0.50000000</i>
   <i name="SMASS">     -3.00000000</i>
   <i name="SCALEE">      1.00000000</i>
  </separator>
  <separator name="ionic md" >
   <i name="TEBEG">      0.00010000</i>
   <i name="TEEND">      0.00010000</i>
   <i type="int" name="NBLOCK">     1</i>
   <i type="int" name="KBLOCK">  1000</i>
   <i type="int" name="NPACO">   256</i>
   <i name="APACO">     16.00000000</i>
  </separator>
  <separator name="symmetry" >
   <i type="int" name="ISYM">     0</i>
   <i name="SYMPREC">      0.00001000</i>
  </separator>
  <separator name="dos" >
   <i type="int" name="LORBIT">     0</i>
   <v name="RWIGS">     -1.00000000     -1.00000000</v>
   <i type="int" name="NEDOS">   301</i>
   <i name="EMIN">     10.00000000</i>
   <i name="EMAX">    -10.00000000</i>
   <i name="EFERMI">      0.00000000</i>
  </separator>
  <separator name="writing" >
   <i type="int" name="NWRITE">     2</i>
   <i type="logical" name="LWAVE"> F  </i>
   <i type="logical" name="LDOWNSAMPLE"> F  </i>
   <i type="logical" name="LCHARG"> F  </i>
   <i type="logical" name="LPARD"> F  </i>
   <i type="logical" name="LVTOT"> F  </i>
   <i type="logical" name="LVHAR"> F  </i>
   <i type="logical" name="LELF"> F  </i>
   <i type="logical" name="LOPTICS"> F  </i>
   <v name="STM">      0.00000000      0.00000000      0.00000000      0.00000000      0.00000000      0.00000000      0.00000000</v>
  </separator>
  <separator name="performance" >
   <i type="int" name="NPAR">     2</i>
   <i type="int" name="NSIM">     4</i>
   <i type="int" name="NBLK">    -1</i>
   <i type="logical" name="LPLANE"> T  </i>
   <i type="logical" name="LSCALAPACK"> T  </i>
   <i type="logical" name="LSCAAWARE"> F  </i>
   <i type="logical" name="LSCALU"> F  </i>
   <i type="logical" name="LASYNC"> F  </i>
   <i type="logical" name="LORBITALREAL"> F  </i>
  </separator>
  <separator name="miscellaneous" >
   <i type="int" name="IDIOT">     3</i>
   <i type="int" name="PHON_NSTRUCT">    -1</i>
   <i type="logical" name="LMUSIC"> F  </i>
   <v name="POMASS">     58.69000000    106.42000000</v>
   <v name="DARWINR">      0.00000000      0.00000000</v>
   <v name="DARWINV">      1.00000000      1.00000000</v>
   <i type="logical" name="LCORR"> T  </i>
  </separator>
  <i type="logical" name="GGA_COMPAT"> T  </i>
  <i type="logical" name="LBERRY"> F  </i>
  <i type="int" name="ICORELEVEL">     0</i>
  <i type="logical" name="LDAU"> F  </i>
  <i type="int" name="I_CONSTRAINED_M">     0</i>
  <separator name="electronic exchange-correlation" >
   <i type="string" name="GGA">PE</i>
   <i type="int" name="VOSKOWN">     0</i>
   <i type="logical" name="LHFCALC"> F  </i>
   <i type="string" name="PRECFOCK"></i>
   <i type="logical" name="LSYMGRAD"> F  </i>
   <i type="logical" name="LHFONE"> F  </i>
   <i type="logical" name="LRHFCALC"> F  </i>
   <i type="logical" name="LTHOMAS"> F  </i>
   <i type="logical" name="LMODELHF"> F  </i>
   <i type="logical" name="LFOCKACE"> F  </i>
   <i name="ENCUT4O">     -1.00000000</i>
   <i type="int" name="EXXOEP">     0</i>
   <i type="int" name="FOURORBIT">     0</i>
   <i name="AEXX">      0.00000000</i>
   <i name="HFALPHA">      0.00000000</i>
   <i name="MCALPHA">      0.00000000</i>
   <i name="ALDAX">      1.00000000</i>
   <i name="AGGAX">      1.00000000</i>
   <i name="ALDAC">      1.00000000</i>
   <i name="AGGAC">      1.00000000</i>
   <i type="int" name="NKREDX">     1</i>
   <i type="int" name="NKREDY">     1</i>
   <i type="int" name="NKREDZ">     1</i>
   <i type="logical" name="SHIFTRED"> F  </i>
   <i type="logical" name="ODDONLY"> F  </i>
   <i type="logical" name="EVENONLY"> F  </i>
   <i type="int" name="LMAXFOCK">     0</i>
   <i type="int" name="NMAXFOCKAE">     0</i>
   <i type="logical" name="LFOCKAEDFT"> F  </i>
   <i name="HFSCREEN">      0.00000000</i>
   <i name="HFSCREENC">      0.00000000</i>
   <i type="int" name="NBANDSGWLOW">     0</i>
  </separator>
  <separator name="vdW DFT" >
   <i type="logical" name="LUSE_VDW"> F  </i>
   <i name="Zab_VDW">     -0.84910000</i>
   <i name="PARAM1">      0.12340000</i>
   <i name="PARAM2">      1.00000000</i>
   <i name="PARAM3">      0.00000000</i>
  </separator>
  <separator name="model GW" >
   <i type="int" name="MODEL_GW">     0</i>
   <i name="MODEL_EPS0">    656.56580042</i>
   <i name="MODEL_ALPHA">      1.00000000</i>
  </separator>
  <separator name="linear response parameters" >
   <i type="logical" name="LEPSILON"> F  </i>
   <i type="logical" name="LRPA"> F  </i>
   <i type="logical" name="LNABLA"> F  </i>
   <i type="logical" name="LVEL"> F  </i>
   <i type="int" name="KINTER">     0</i>
   <i name="CSHIFT">      0.10000000</i>
   <i name="OMEGAMAX">     -1.00000000</i>
   <i name="DEG_THRESHOLD">      0.00200000</i>
   <i name="RTIME">     -0.10000000</i>
   <i name="WPLASMAI">      0.00000000</i>
   <v name="DFIELD">      0.00000000      0.00000000      0.00000000</v>
   <v name="WPLASMA">      0.00000000      0.00000000      0.00000000      0.00000000      0.00000000      0.00000000      0.00000000      0.00000000      0.00000000</v>
  </separator>
  <separator name="orbital magnetization" >
   <i type="logical" name="NUCIND"> F  </i>
   <v name="MAGPOS">      0.00000000      0.00000000      0.00000000</v>
   <i type="logical" name="LNICSALL"> T  </i>
   <i type="logical" name="ORBITALMAG"> F  </i>
   <i type="logical" name="LMAGBLOCH"> F  </i>
   <i type="logical" name="LCHIMAG"> F  </i>
   <i type="logical" name="LGAUGE"> T  </i>
   <i type="int" name="MAGATOM">     0</i>
   <v name="MAGDIPOL">      0.00000000      0.00000000      0.00000000</v>
   <v name="AVECCONST">      0.00000000      0.00000000      0.00000000</v>
  </separator>
  <separator name="response functions" >
   <i type="logical" name="LFINITE_TEMPERATURE"> F  </i>
   <i type="logical" name="LADDER"> F  </i>
   <i type="logical" name="LRPAFORCE"> F  </i>
   <i type="logical" name="LFXC"> F  </i>
   <i type="logical" name="LHARTREE"> T  </i>
   <i type="int" name="IBSE">     0</i>
   <v type="int" name="KPOINT">    -1     0     0     0</v>
   <i type="logical" name="LTCTC"> F  </i>
   <i type="logical" name="LTCTE"> F  </i>
   <i type="logical" name="LTETE"> F  </i>
   <i type="logical" name="LTRIPLET"> F  </i>
   <i type="logical" name="LFXCEPS"> F  </i>
   <i type="logical" name="LFXHEG"> F  </i>
   <i type="int" name="NATURALO">     2</i>
   <i type="logical" name="LHOLEGF"> F  </i>
   <i type="logical" name="L2ORDER"> F  </i>
   <i type="logical" name="LDMP1"> F  </i>
   <i type="logical" name="LMP2LT"> F  </i>
   <i type="logical" name="LSMP2LT"> F  </i>
   <i type="logical" name="LGWLF"> F  </i>
   <i name="ENCUTGW">     -2.00000000</i>
   <i name="ENCUTGWSOFT">     -2.00000000</i>
   <i name="ENCUTLF">     -1.00000000</i>
   <i type="logical" name="LESF_SPLINES"> F  </i>
   <i type="int" name="LMAXMP2">    -1</i>
   <i name="SCISSOR">      0.00000000</i>
   <i type="int" name="NOMEGA">     0</i>
   <i type="int" name="NOMEGAR">     0</i>
   <i type="int" name="NBANDSGW">    -1</i>
   <i type="int" name="NBANDSO">    -1</i>
   <i type="int" name="NBANDSV">    -1</i>
   <i type="int" name="NELM">     1</i>
   <i type="int" name="NELMHF">     1</i>
   <i type="int" name="DIM">     3</i>
   <i type="int" name="IESPILON">     4</i>
   <i type="int" name="ANTIRES">     0</i>
   <i name="OMEGAMAX">    -30.00000000</i>
   <i name="OMEGAMIN">    -30.00000000</i>
   <i name="OMEGATL">   -200.00000000</i>
   <i type="int" name="OMEGAGRID">     0</i>
   <i name="CSHIFT">     -0.10000000</i>
   <i type="logical" name="LSELFENERGY"> F  </i>
   <i type="logical" name="LSPECTRAL"> F  </i>
   <i type="logical" name="LSPECTRALGW"> F  </i>
   <i type="logical" name="LSINGLES"> F  </i>
   <i type="logical" name="LFERMIGW"> F  </i>
   <i type="logical" name="ODDONLYGW"> F  </i>
   <i type="logical" name="EVENONLYGW"> F  </i>
   <i type="int" name="NKREDLFX">     1</i>
   <i type="int" name="NKREDLFY">     1</i>
   <i type="int" name="NKREDLFZ">     1</i>
   <i type="int" name="MAXMEM">  2800</i>
   <i type="int" name="TELESCOPE">     0</i>
   <i type="int" name="NTAUPAR">    -1</i>
   <i type="int" name="NOMEGAPAR">    -1</i>
   <i name="LAMBDA">      1.00000000</i>
  </separator>
  <separator name="External order field" >
   <i name="OFIELD_KAPPA">      0.00000000</i>
   <v name="OFIELD_K">      0.00000000      0.00000000      0.00000000</v>
   <i name="OFIELD_Q6_NEAR">      0.00000000</i>
   <i name="OFIELD_Q6_FAR">      0.00000000</i>
   <i name="OFIELD_A">      0.00000000</i>
  </separator>
 </parameters>
 <atominfo>
  <atoms>      10 </atoms>
  <types>       2 </types>
  <array name="atoms" >
   <dimension dim="1">ion</dimension>
   <field type="string">element</field>
   <field type="int">atomtype</field>
   <set>
    <rc><c>Ni</c><c>   1</c></rc>
    <rc><c>Ni</c><c>   1</c></rc>
    <rc><c>Ni</c><c>   1</c></rc>
    <rc><c>Ni</c><c>   1</c></rc>
    <rc><c>Ni</c><c>   1</c></rc>
    <rc><c>Ni</c><c>   1</c></rc>
    <rc><c>Pd</c><c>   2</c></rc>
    <rc><c>Pd</c><c>   2</c></rc>
    <rc><c>Pd</c><c>   2</c></rc>
    <rc><c>Pd</c><c>   2</c></rc>
   </set>
  </array>
  <array name="atomtypes" >
   <dimension dim="1">type</dimension>
   <field type="int">atomspertype</field>
   <field type="string">element</field>
   <field>mass</field>
   <field>valence</field>
   <field type="string">pseudopotential</field>
   <set>
    <rc><c>   6</c><c>Ni</c><c>     58.69000000</c><c>     10.00000000</c><c>  PAW_PBE Ni 02Aug2007                  </c></rc>
    <rc><c>   4</c><c>Pd</c><c>    106.42000000</c><c>     10.00000000</c><c>  PAW_PBE Pd 04Jan2005                  </c></rc>
   </set>
  </array>
 </atominfo>
 <structure name="initialpos" >
  <crystal>
   <varray name="basis" >
    <v>      22.62984394       0.00000000       0.00000000 </v>
    <v>       0.00000000      22.38829269       0.00000000 </v>
    <v>       0.00000000       0.00000000      21.59854381 </v>
   </varray>
   <i name="volume">  10942.76334035 </i>
   <varray name="rec_basis" >
    <v>       0.04418943       0.00000000       0.00000000 </v>
    <v>       0.00000000       0.04466620       0.00000000 </v>
    <v>       0.00000000       0.00000000       0.04629942 </v>
   </varray>
  </crystal>
  <varray name="positions" >
   <v>       0.47230534       0.49724877       0.51281642 </v>
   <v>       0.56849759       0.42186949       0.49728366 </v>
   <v>       0.63059237       0.50437005       0.50288420 </v>
   <v>       0.55663109       0.48602884       0.57798635 </v>
   <v>       0.54619275       0.50299781       0.43669445 </v>
   <v>       0.55271893       0.57086938       0.51611233 </v>
   <v>       0.48652265       0.40167583       0.56972608 </v>
   <v>       0.47512472       0.41237521       0.43879578 </v>
   <v>       0.45411559       0.60503093       0.49631013 </v>
   <v>       0.44641939       0.52930705       0.40523567 </v>
  </varray>
 </structure>
 <calculation>
  <scstep>
   <time name="dav">    6.33    6.34</time>
   <time name="total">    8.72    8.74</time>
   <energy>
    <i name="alphaZ">      5.17874040 </i>
    <i name="ewald">  12694.04117667 </i>
    <i name="hartreedc"> -21667.37657295 </i>
    <i name="XCdc">     63.13017823 </i>
    <i name="pawpsdc">   9003.59075477 </i>
    <i name="pawaedc">  -9155.75339974 </i>
    <i name="eentropy">     -0.00511941 </i>
    <i name="bandstr">     79.10006516 </i>
    <i name="atom">   9704.95859309 </i>
    <i name="e_fr_energy">    726.86441622 </i>
    <i name="e_wo_entrp">    726.86953563 </i>
    <i name="e_0_energy">    726.86612269 </i>
   </energy>
  </scstep>
  <scstep>
   <time name="dav">   10.01   10.02</time>
   <time name="total">   10.02   10.03</time>
   <energy>
    <i name="e_fr_energy">    240.95540410 </i>
    <i name="e_wo_entrp">    240.97493657 </i>
    <i name="e_0_energy">    240.96191492 </i>
   </energy>
  </scstep>
  <scstep>
   <time name="dav">    7.90    7.90</time>
   <time name="total">    7.90    7.91</time>
   <energy>
    <i name="e_fr_energy">     21.56023869 </i>
    <i name="e_wo_entrp">     21.54644795 </i>
    <i name="e_0_energy">     21.55564178 </i>
   </energy>
  </scstep>
  <scstep>
   <time name="dav">    9.25    9.26</time>
   <time name="total">    9.26    9.27</time>
   <energy>
    <i name="e_fr_energy">    -37.54404238 </i>
    <i name="e_wo_entrp">    -37.51873052 </i>
    <i name="e_0_energy">    -37.53560509 </i>
   </energy>
  </scstep>
  <scstep>
   <time name="dav">    7.67    7.67</time>
   <time name="total">    8.41    8.42</time>
   <energy>
    <i name="e_fr_energy">    -44.26384425 </i>
    <i name="e_wo_entrp">    -44.22193314 </i>
    <i name="e_0_energy">    -44.24987388 </i>
   </energy>
  </scstep>
  <scstep>
   <time name="dav">    6.70    6.70</time>
   <time name="total">    9.81    9.82</time>
   <energy>
    <i name="e_fr_energy">    -62.72770343 </i>
    <i name="e_wo_entrp">    -62.74267603 </i>
    <i name="e_0_energy">    -62.73269430 </i>
   </energy>
  </scstep>
  <scstep>
   <time name="dav">    7.13    7.13</time>
   <time name="total">   10.27   10.29</time>
   <energy>
    <i name="e_fr_energy">    -38.52647170 </i>
    <i name="e_wo_entrp">    -38.47947474 </i>
    <i name="e_0_energy">    -38.51080605 </i>
   </energy>
  </scstep>
  <scstep>
   <time name="dav">    7.67    7.68</time>
   <time name="total">   10.85   10.87</time>
   <energy>
    <i name="e_fr_energy">    -38.69393159 </i>
    <i name="e_wo_entrp">    -38.70130895 </i>
    <i name="e_0_energy">    -38.69639071 </i>
   </energy>
  </scstep>
  <scstep>
   <time name="dav">    7.73    7.74</time>
   <time name="total">   10.84   10.86</time>
   <energy>
    <i name="e_fr_energy">    -38.97469899 </i>
    <i name="e_wo_entrp">    -38.96672339 </i>
    <i name="e_0_energy">    -38.97204046 </i>
   </energy>
  </scstep>
  <scstep>
   <time name="dav">    7.79    7.80</time>
   <time name="total">   10.95   10.96</time>
   <energy>
    <i name="e_fr_energy">    -36.50208517 </i>
    <i name="e_wo_entrp">    -36.48801339 </i>
    <i name="e_0_energy">    -36.49739458 </i>
   </energy>
  </scstep>
  <scstep>
   <time name="dav">    7.91    7.92</time>
   <time name="total">   11.07   11.08</time>
   <energy>
    <i name="e_fr_energy">    -36.32477756 </i>
    <i name="e_wo_entrp">    -36.31655931 </i>
    <i name="e_0_energy">    -36.32203814 </i>
   </energy>
  </scstep>
  <scstep>
   <time name="dav">    7.74    7.75</time>
   <time name="total">   10.93   10.94</time>
   <energy>
    <i name="e_fr_energy">    -35.73817979 </i>
    <i name="e_wo_entrp">    -35.72312903 </i>
    <i name="e_0_energy">    -35.73316287 </i>
   </energy>
  </scstep>
  <scstep>
   <time name="dav">    7.92    7.93</time>
   <time name="total">   11.10   11.11</time>
   <energy>
    <i name="e_fr_energy">    -35.96797934 </i>
    <i name="e_wo_entrp">    -35.94585024 </i>
    <i name="e_0_energy">    -35.96060298 </i>
   </energy>
  </scstep>
  <scstep>
   <time name="dav">    8.04    8.05</time>
   <time name="total">   11.18   11.19</time>
   <energy>
    <i name="e_fr_energy">    -35.97084111 </i>
    <i name="e_wo_entrp">    -36.00223942 </i>
    <i name="e_0_energy">    -35.98130721 </i>
   </energy>
  </scstep>
  <scstep>
   <time name="dav">    7.79    7.80</time>
   <time name="total">   10.99   11.00</time>
   <energy>
    <i name="e_fr_energy">    -36.18346410 </i>
    <i name="e_wo_entrp">    -36.18205876 </i>
    <i name="e_0_energy">    -36.18299566 </i>
   </energy>
  </scstep>
  <scstep>
   <time name="dav">    7.72    7.73</time>
   <time name="total">   10.92   10.93</time>
   <energy>
    <i name="e_fr_energy">    -36.18087378 </i>
    <i name="e_wo_entrp">    -36.20736774 </i>
    <i name="e_0_energy">    -36.18970510 </i>
   </energy>
  </scstep>
  <scstep>
   <time name="dav">    7.92    7.93</time>
   <time name="total">   11.12   11.13</time>
   <energy>
    <i name="e_fr_energy">    -36.44507041 </i>
    <i name="e_wo_entrp">    -36.46293449 </i>
    <i name="e_0_energy">    -36.45102510 </i>
   </energy>
  </scstep>
  <scstep>
   <time name="dav">    7.69    7.69</time>
   <time name="total">   10.89   10.91</time>
   <energy>
    <i name="e_fr_energy">    -36.70821094 </i>
    <i name="e_wo_entrp">    -36.73161879 </i>
    <i name="e_0_energy">    -36.71601355 </i>
   </energy>
  </scstep>
  <scstep>
   <time name="dav">    8.67    8.68</time>
   <time name="total">   11.88   11.89</time>
   <energy>
    <i name="e_fr_energy">    -36.95568507 </i>
    <i name="e_wo_entrp">    -36.98714878 </i>
    <i name="e_0_energy">    -36.96617297 </i>
   </energy>
  </scstep>
  <scstep>
   <time name="dav">    7.40    7.41</time>
   <time name="total">   10.61   10.63</time>
   <energy>
    <i name="e_fr_energy">    -37.11458110 </i>
    <i name="e_wo_entrp">    -37.14770859 </i>
    <i name="e_0_energy">    -37.12562360 </i>
   </energy>
  </scstep>
  <scstep>
   <time name="dav">    7.76    7.77</time>
   <time name="total">   11.01   11.02</time>
   <energy>
    <i name="e_fr_energy">    -37.26092578 </i>
    <i name="e_wo_entrp">    -37.29518767 </i>
    <i name="e_0_energy">    -37.27234641 </i>
   </energy>
  </scstep>
  <scstep>
   <time name="dav">    7.43    7.44</time>
   <time name="total">   10.69   10.71</time>
   <energy>
    <i name="e_fr_energy">    -37.37189491 </i>
    <i name="e_wo_entrp">    -37.40812995 </i>
    <i name="e_0_energy">    -37.38397326 </i>
   </energy>
  </scstep>
  <scstep>
   <time name="dav">    7.09    7.10</time>
   <time name="total">   10.36   10.37</time>
   <energy>
    <i name="e_fr_energy">    -37.48196066 </i>
    <i name="e_wo_entrp">    -37.51798933 </i>
    <i name="e_0_energy">    -37.49397022 </i>
   </energy>
  </scstep>
  <scstep>
   <time name="dav">    6.96    6.97</time>
   <time name="total">   10.21   10.23</time>
   <energy>
    <i name="e_fr_energy">    -37.56854119 </i>
    <i name="e_wo_entrp">    -37.60467327 </i>
    <i name="e_0_energy">    -37.58058522 </i>
   </energy>
  </scstep>
  <scstep>
   <time name="dav">    6.45    6.45</time>
   <time name="total">    9.70    9.72</time>
   <energy>
    <i name="e_fr_energy">    -37.65450587 </i>
    <i name="e_wo_entrp">    -37.69136740 </i>
    <i name="e_0_energy">    -37.66679305 </i>
   </energy>
  </scstep>
  <scstep>
   <time name="dav">    6.60    6.61</time>
   <time name="total">    9.89    9.90</time>
   <energy>
    <i name="e_fr_energy">    -37.72175243 </i>
    <i name="e_wo_entrp">    -37.75881865 </i>
    <i name="e_0_energy">    -37.73410783 </i>
   </energy>
  </scstep>
  <scstep>
   <time name="dav">    5.75    5.75</time>
   <time name="total">    9.01    9.02</time>
   <energy>
    <i name="e_fr_energy">    -37.75294799 </i>
    <i name="e_wo_entrp">    -37.79000195 </i>
    <i name="e_0_energy">    -37.76529931 </i>
   </energy>
  </scstep>
  <scstep>
   <time name="dav">    5.84    5.85</time>
   <time name="total">    9.14    9.15</time>
   <energy>
    <i name="e_fr_energy">    -37.77574761 </i>
    <i name="e_wo_entrp">    -37.81274298 </i>
    <i name="e_0_energy">    -37.78807940 </i>
   </energy>
  </scstep>
  <scstep>
   <time name="dav">    5.62    5.62</time>
   <time name="total">    8.94    8.95</time>
   <energy>
    <i name="e_fr_energy">    -37.79016203 </i>
    <i name="e_wo_entrp">    -37.82733612 </i>
    <i name="e_0_energy">    -37.80255340 </i>
   </energy>
  </scstep>
  <scstep>
   <time name="dav">    5.41    5.41</time>
   <time name="total">    8.68    8.69</time>
   <energy>
    <i name="e_fr_energy">    -37.79993127 </i>
    <i name="e_wo_entrp">    -37.83719130 </i>
    <i name="e_0_energy">    -37.81235128 </i>
   </energy>
  </scstep>
  <scstep>
   <time name="dav">    5.09    5.10</time>
   <time name="total">    8.46    8.48</time>
   <energy>
    <i name="e_fr_energy">    -37.80424533 </i>
    <i name="e_wo_entrp">    -37.84156352 </i>
    <i name="e_0_energy">    -37.81668473 </i>
   </energy>
  </scstep>
  <scstep>
   <time name="dav">    5.21    5.21</time>
   <time name="total">    8.54    8.55</time>
   <energy>
    <i name="e_fr_energy">    -37.80711093 </i>
    <i name="e_wo_entrp">    -37.84446598 </i>
    <i name="e_0_energy">    -37.81956261 </i>
   </energy>
  </scstep>
  <scstep>
   <time name="dav">    5.02    5.02</time>
   <time name="total">    8.35    8.36</time>
   <energy>
    <i name="e_fr_energy">    -37.80853378 </i>
    <i name="e_wo_entrp">    -37.84588682 </i>
    <i name="e_0_energy">    -37.82098479 </i>
   </energy>
  </scstep>
  <scstep>
   <time name="dav">    4.95    4.96</time>
   <time name="total">    8.29    8.31</time>
   <energy>
    <i name="e_fr_energy">    -37.80908602 </i>
    <i name="e_wo_entrp">    -37.84648119 </i>
    <i name="e_0_energy">    -37.82155107 </i>
   </energy>
  </scstep>
  <scstep>
   <time name="dav">    4.70    4.70</time>
   <time name="total">    8.06    8.07</time>
   <energy>
    <i name="e_fr_energy">    -37.80978266 </i>
    <i name="e_wo_entrp">    -37.84716669 </i>
    <i name="e_0_energy">    -37.82224401 </i>
   </energy>
  </scstep>
  <scstep>
   <time name="dav">    5.08    5.08</time>
   <time name="total">    8.43    8.44</time>
   <energy>
    <i name="e_fr_energy">    -37.81006870 </i>
    <i name="e_wo_entrp">    -37.84746315 </i>
    <i name="e_0_energy">    -37.82253352 </i>
   </energy>
  </scstep>
  <scstep>
   <time name="dav">    4.74    4.75</time>
   <time name="total">    8.12    8.13</time>
   <energy>
    <i name="e_fr_energy">    -37.81033580 </i>
    <i name="e_wo_entrp">    -37.84773191 </i>
    <i name="e_0_energy">    -37.82280117 </i>
   </energy>
  </scstep>
  <scstep>
   <time name="dav">    4.92    4.93</time>
   <time name="total">    8.38    8.39</time>
   <energy>
    <i name="e_fr_energy">    -37.81051694 </i>
    <i name="e_wo_entrp">    -37.84791236 </i>
    <i name="e_0_energy">    -37.82298208 </i>
   </energy>
  </scstep>
  <scstep>
   <time name="dav">    4.72    4.72</time>
   <time name="total">    8.16    8.17</time>
   <energy>
    <i name="e_fr_energy">    -37.81067748 </i>
    <i name="e_wo_entrp">    -37.84807471 </i>
    <i name="e_0_energy">    -37.82314322 </i>
   </energy>
  </scstep>
  <scstep>
   <time name="dav">    4.69    4.69</time>
   <time name="total">    7.05    7.06</time>
   <energy>
    <i name="alphaZ">      5.17874040 </i>
    <i name="ewald">  12694.04117667 </i>
    <i name="hartreedc"> -21737.71516182 </i>
    <i name="XCdc">     60.22254454 </i>
    <i name="pawpsdc">  10138.72762571 </i>
    <i name="pawaedc"> -10303.36349777 </i>
    <i name="eentropy">      0.03738569 </i>
    <i name="bandstr">   -599.89813672 </i>
    <i name="atom">   9704.95859309 </i>
    <i name="e_fr_energy">    -37.81073020 </i>
    <i name="e_wo_entrp">    -37.84811589 </i>
    <i name="e_0_energy">    -37.82319209 </i>
   </energy>
  </scstep>
  <structure>
   <crystal>
    <varray name="basis" >
     <v>      22.62984394       0.00000000       0.00000000 </v>
     <v>       0.00000000      22.38829269       0.00000000 </v>
     <v>       0.00000000       0.00000000      21.59854381 </v>
    </varray>
    <i name="volume">  10942.76334035 </i>
    <varray name="rec_basis" >
     <v>       0.04418943       0.00000000       0.00000000 </v>
     <v>       0.00000000       0.04466620       0.00000000 </v>
     <v>       0.00000000       0.00000000       0.04629942 </v>
    </varray>
   </crystal>
   <varray name="positions" >
    <v>       0.47230534       0.49724877       0.51281642 </v>
    <v>       0.56849759       0.42186949       0.49728366 </v>
    <v>       0.63059237       0.50437005       0.50288420 </v>
    <v>       0.55663109       0.48602884       0.57798635 </v>
    <v>       0.54619275       0.50299781       0.43669445 </v>
    <v>       0.55271893       0.57086938       0.51611233 </v>
    <v>       0.48652265       0.40167583       0.56972608 </v>
    <v>       0.47512472       0.41237521       0.43879578 </v>
    <v>       0.45411559       0.60503093       0.49631013 </v>
    <v>       0.44641939       0.52930705       0.40523567 </v>
   </varray>
  </structure>
  <varray name="forces" >
   <v>      -0.01762130       0.00823415      -0.03178541 </v>
   <v>      -0.00369115       0.00429006      -0.01537671 </v>
   <v>      -0.01861851       0.00702275      -0.00253642 </v>
   <v>      -0.02530863      -0.01970765       0.01856560 </v>
   <v>      -0.00395334      -0.00013665       0.01803651 </v>
   <v>       0.01349223       0.00381080      -0.02087495 </v>
   <v>       0.02027896       0.01202734      -0.00264416 </v>
   <v>       0.00528302       0.00501170       0.01373500 </v>
   <v>       0.01770483      -0.00406834       0.01395773 </v>
   <v>       0.01243388      -0.01648417       0.00892281 </v>
  </varray>
  <energy>
   <i name="e_fr_energy">    -37.81073020 </i>
   <i name="e_wo_entrp">    -37.84811589 </i>
   <i name="e_0_energy">    -37.82319209 </i>
  </energy>
  <time name="totalsc">  396.57  397.10</time>
 </calculation>
 <calculation>
  <scstep>
   <time name="dav">    6.50    6.51</time>
   <time name="total">    9.58    9.60</time>
   <energy>
    <i name="alphaZ">      5.17874040 </i>
    <i name="ewald">  12698.03292441 </i>
    <i name="hartreedc"> -21741.63142234 </i>
    <i name="XCdc">     60.23300722 </i>
    <i name="pawpsdc">  10138.73694935 </i>
    <i name="pawaedc"> -10303.37308386 </i>
    <i name="eentropy">      0.03776757 </i>
    <i name="bandstr">   -599.98434819 </i>
    <i name="atom">   9704.95859309 </i>
    <i name="e_fr_energy">    -37.81087234 </i>
    <i name="e_wo_entrp">    -37.84863992 </i>
    <i name="e_0_energy">    -37.82346154 </i>
   </energy>
  </scstep>
  <scstep>
   <time name="dav">    8.49    8.50</time>
   <time name="total">   11.59   11.60</time>
   <energy>
    <i name="e_fr_energy">    -37.81123326 </i>
    <i name="e_wo_entrp">    -37.84758960 </i>
    <i name="e_0_energy">    -37.82335204 </i>
   </energy>
  </scstep>
  <scstep>
   <time name="dav">    6.86    6.87</time>
   <time name="total">    9.96    9.97</time>
   <energy>
    <i name="e_fr_energy">    -37.81063082 </i>
    <i name="e_wo_entrp">    -37.84894956 </i>
    <i name="e_0_energy">    -37.82340373 </i>
   </energy>
  </scstep>
  <scstep>
   <time name="dav">    5.49    5.49</time>
   <time name="total">    8.56    8.57</time>
   <energy>
    <i name="e_fr_energy">    -37.81098387 </i>
    <i name="e_wo_entrp">    -37.84884809 </i>
    <i name="e_0_energy">    -37.82360528 </i>
   </energy>
  </scstep>
  <scstep>
   <time name="dav">    4.44    4.44</time>
   <time name="total">    6.81    6.82</time>
   <energy>
    <i name="alphaZ">      5.17874040 </i>
    <i name="ewald">  12698.03292441 </i>
    <i name="hartreedc"> -21741.56052495 </i>
    <i name="XCdc">     60.22998612 </i>
    <i name="pawpsdc">  10139.58203437 </i>
    <i name="pawaedc"> -10304.21893307 </i>
    <i name="eentropy">      0.03746733 </i>
    <i name="bandstr">   -600.05122589 </i>
    <i name="atom">   9704.95859309 </i>
    <i name="e_fr_energy">    -37.81093817 </i>
    <i name="e_wo_entrp">    -37.84840550 </i>
    <i name="e_0_energy">    -37.82342728 </i>
   </energy>
  </scstep>
  <structure>
   <crystal>
    <varray name="basis" >
     <v>      22.62984394       0.00000000       0.00000000 </v>
     <v>       0.00000000      22.38829269       0.00000000 </v>
     <v>       0.00000000       0.00000000      21.59854381 </v>
    </varray>
    <i name="volume">  10942.76334035 </i>
    <varray name="rec_basis" >
     <v>       0.04418943       0.00000000       0.00000000 </v>
     <v>       0.00000000       0.04466620       0.00000000 </v>
     <v>       0.00000000       0.00000000       0.04629942 </v>
    </varray>
   </crystal>
   <varray name="positions" >
    <v>       0.47226777       0.49726651       0.51274542 </v>
    <v>       0.56848972       0.42187874       0.49724932 </v>
    <v>       0.63055268       0.50438519       0.50287854 </v>
    <v>       0.55657714       0.48598638       0.57802782 </v>
    <v>       0.54618433       0.50299752       0.43673473 </v>
    <v>       0.55274769       0.57087759       0.51606570 </v>
    <v>       0.48656588       0.40170174       0.56972017 </v>
    <v>       0.47513599       0.41238601       0.43882646 </v>
    <v>       0.45415334       0.60502217       0.49634131 </v>
    <v>       0.44644589       0.52927153       0.40525560 </v>
   </varray>
  </structure>
  <varray name="forces" >
   <v>      -0.01893198       0.00368232      -0.01409398 </v>
   <v>       0.00049563       0.00166950      -0.00899635 </v>
   <v>      -0.00615412       0.00481157       0.00144042 </v>
   <v>      -0.02054495      -0.00702674       0.00805145 </v>
   <v>       0.00005382       0.00158246       0.00720225 </v>
   <v>       0.01376450       0.00151109      -0.00947047 </v>
   <v>       0.01151494       0.00487980      -0.00155931 </v>
   <v>       0.00151320      -0.00324554       0.00681708 </v>
   <v>       0.01247154       0.00014790       0.00855749 </v>
   <v>       0.00581742      -0.00801237       0.00205143 </v>
  </varray>
  <energy>
   <i name="e_fr_energy">    -37.81093817 </i>
   <i name="e_wo_entrp">    -37.84840550 </i>
   <i name="e_0_energy">    -37.82342728 </i>
  </energy>
  <time name="totalsc">   55.56   55.65</time>
 </calculation>
 <calculation>
  <scstep>
   <time name="dav">    6.27    6.27</time>
   <time name="total">    9.39    9.40</time>
   <energy>
    <i name="alphaZ">      5.17874040 </i>
    <i name="ewald">  12702.72214143 </i>
    <i name="hartreedc"> -21746.22047489 </i>
    <i name="XCdc">     60.24359395 </i>
    <i name="pawpsdc">  10139.75195860 </i>
    <i name="pawaedc"> -10304.40493036 </i>
    <i name="eentropy">      0.03827649 </i>
    <i name="bandstr">   -600.07878043 </i>
    <i name="atom">   9704.95859309 </i>
    <i name="e_fr_energy">    -37.81088172 </i>
    <i name="e_wo_entrp">    -37.84915821 </i>
    <i name="e_0_energy">    -37.82364055 </i>
   </energy>
  </scstep>
  <scstep>
   <time name="dav">    8.32    8.33</time>
   <time name="total">   11.42   11.43</time>
   <energy>
    <i name="e_fr_energy">    -37.81178421 </i>
    <i name="e_wo_entrp">    -37.84782534 </i>
    <i name="e_0_energy">    -37.82379792 </i>
   </energy>
  </scstep>
  <scstep>
   <time name="dav">    7.05    7.06</time>
   <time name="total">   10.18   10.19</time>
   <energy>
    <i name="e_fr_energy">    -37.81042748 </i>
    <i name="e_wo_entrp">    -37.84928525 </i>
    <i name="e_0_energy">    -37.82338007 </i>
   </energy>
  </scstep>
  <scstep>
   <time name="dav">    6.00    6.01</time>
   <time name="total">    9.13    9.14</time>
   <energy>
    <i name="e_fr_energy">    -37.81103603 </i>
    <i name="e_wo_entrp">    -37.84932427 </i>
    <i name="e_0_energy">    -37.82379878 </i>
   </energy>
  </scstep>
  <scstep>
   <time name="dav">    4.94    4.95</time>
   <time name="total">    7.32    7.33</time>
   <energy>
    <i name="alphaZ">      5.17874040 </i>
    <i name="ewald">  12702.72214143 </i>
    <i name="hartreedc"> -21746.11113503 </i>
    <i name="XCdc">     60.23999428 </i>
    <i name="pawpsdc">  10141.18034329 </i>
    <i name="pawaedc"> -10305.84175894 </i>
    <i name="eentropy">      0.03778873 </i>
    <i name="bandstr">   -600.17570409 </i>
    <i name="atom">   9704.95859309 </i>
    <i name="e_fr_energy">    -37.81099683 </i>
    <i name="e_wo_entrp">    -37.84878557 </i>
    <i name="e_0_energy">    -37.82359308 </i>
   </energy>
  </scstep>
  <structure>
   <crystal>
    <varray name="basis" >
     <v>      22.62984394       0.00000000       0.00000000 </v>
     <v>       0.00000000      22.38829269       0.00000000 </v>
     <v>       0.00000000       0.00000000      21.59854381 </v>
    </varray>
    <i name="volume">  10942.76334035 </i>
    <varray name="rec_basis" >
     <v>       0.04418943       0.00000000       0.00000000 </v>
     <v>       0.00000000       0.04466620       0.00000000 </v>
     <v>       0.00000000       0.00000000       0.04629942 </v>
    </varray>
   </crystal>
   <varray name="positions" >
    <v>       0.47222366       0.49728734       0.51266206 </v>
    <v>       0.56848048       0.42188959       0.49720899 </v>
    <v>       0.63050608       0.50440296       0.50287188 </v>
    <v>       0.55651379       0.48593651       0.57807651 </v>
    <v>       0.54617443       0.50299717       0.43678204 </v>
    <v>       0.55278146       0.57088723       0.51601095 </v>
    <v>       0.48661664       0.40173217       0.56971324 </v>
    <v>       0.47514921       0.41239869       0.43886249 </v>
    <v>       0.45419766       0.60501187       0.49637791 </v>
    <v>       0.44647702       0.52922982       0.40527900 </v>
   </varray>
  </structure>
  <varray name="forces" >
   <v>      -0.01790840      -0.00150121       0.00746794 </v>
   <v>       0.00798233      -0.00130082      -0.00121899 </v>
   <v>       0.00460883       0.00156360       0.00560165 </v>
   <v>      -0.01408003       0.00838000      -0.00600749 </v>
   <v>       0.00447662       0.00280552      -0.00514753 </v>
   <v>       0.01338239      -0.00093477       0.00429052 </v>
   <v>       0.00180424      -0.00273812       0.00071402 </v>
   <v>      -0.00450441      -0.01283052      -0.00174251 </v>
   <v>       0.00620883       0.00636887       0.00400529 </v>
   <v>      -0.00197039       0.00018745      -0.00796290 </v>
  </varray>
  <energy>
   <i name="e_fr_energy">    -37.81099683 </i>
   <i name="e_wo_entrp">    -37.84878557 </i>
   <i name="e_0_energy">    -37.82359308 </i>
  </energy>
  <time name="totalsc">   55.74   55.82</time>
  <eigenvalues>
   <array>
    <dimension dim="1">band</dimension>
    <dimension dim="2">kpoint</dimension>
    <dimension dim="3">spin</dimension>
    <field>eigene</field>
    <field>occ</field>
    <set>
     <set comment="spin 1">
      <set comment="kpoint 1">
       <r>   -9.9461    1.0000 </r>
       <r>   -8.4308    1.0000 </r>
       <r>   -8.2691    1.0000 </r>
       <r>   -8.0745    1.0000 </r>
       <r>   -7.8297    1.0000 </r>
       <r>   -7.8026    1.0000 </r>
       <r>   -7.7340    1.0000 </r>
       <r>   -7.5806    1.0000 </r>
       <r>   -7.5302    1.0000 </r>
       <r>   -7.5179    1.0000 </r>
       <r>   -7.4353    1.0000 </r>
       <r>   -7.3567    1.0000 </r>
       <r>   -7.2378    1.0000 </r>
       <r>   -7.0442    1.0000 </r>
       <r>   -6.8450    1.0000 </r>
       <r>   -6.7707    1.0000 </r>
       <r>   -6.6672    1.0000 </r>
       <r>   -6.6310    1.0000 </r>
       <r>   -6.4510    1.0000 </r>
       <r>   -6.4014    1.0000 </r>
       <r>   -6.3704    1.0000 </r>
       <r>   -6.3082    1.0000 </r>
       <r>   -6.2122    1.0000 </r>
       <r>   -6.1362    1.0000 </r>
       <r>   -6.0936    1.0000 </r>
       <r>   -6.0661    1.0000 </r>
       <r>   -6.0538    1.0000 </r>
       <r>   -5.9710    1.0000 </r>
       <r>   -5.8279    1.0000 </r>
       <r>   -5.7962    1.0000 </r>
       <r>   -5.7197    1.0000 </r>
       <r>   -5.6059    1.0000 </r>
       <r>   -5.5283    1.0000 </r>
       <r>   -5.4793    1.0000 </r>
       <r>   -5.4664    1.0000 </r>
       <r>   -5.4093    1.0000 </r>
       <r>   -5.3703    1.0000 </r>
       <r>   -5.3354    1.0000 </r>
       <r>   -5.2896    1.0000 </r>
       <r>   -5.2253    1.0000 </r>
       <r>   -5.2032    1.0000 </r>
       <r>   -5.1887    1.0000 </r>
       <r>   -5.1260    1.0000 </r>
       <r>   -5.0969    1.0000 </r>
       <r>   -5.0459    1.0000 </r>
       <r>   -5.0120    1.0000 </r>
       <r>   -4.9384    1.0000 </r>
       <r>   -4.9236    1.0000 </r>
       <r>   -4.8828    1.0000 </r>
       <r>   -4.8672    1.0000 </r>
       <r>   -4.7538    1.0003 </r>
       <r>   -4.6796    1.0015 </r>
       <r>   -4.6385    1.0034 </r>
       <r>   -4.4194    1.0344 </r>
       <r>   -3.0080   -0.0000 </r>
       <r>   -2.9045   -0.0000 </r>
       <r>   -2.7030   -0.0000 </r>
       <r>   -2.4651   -0.0000 </r>
       <r>   -2.2940   -0.0000 </r>
       <r>   -1.7697   -0.0000 </r>
       <r>   -1.0547   -0.0000 </r>
       <r>   -0.8028   -0.0000 </r>
       <r>   -0.6184   -0.0000 </r>
       <r>   -0.4945   -0.0000 </r>
       <r>   -0.3826   -0.0000 </r>
       <r>   -0.1442   -0.0000 </r>
      </set>
     </set>
     <set comment="spin 2">
      <set comment="kpoint 1">
       <r>   -9.8767    1.0000 </r>
       <r>   -8.0893    1.0000 </r>
       <r>   -7.9001    1.0000 </r>
       <r>   -7.6279    1.0000 </r>
       <r>   -7.2536    1.0000 </r>
       <r>   -7.1705    1.0000 </r>
       <r>   -7.0543    1.0000 </r>
       <r>   -6.8951    1.0000 </r>
       <r>   -6.7850    1.0000 </r>
       <r>   -6.7461    1.0000 </r>
       <r>   -6.6425    1.0000 </r>
       <r>   -6.5602    1.0000 </r>
       <r>   -6.4214    1.0000 </r>
       <r>   -6.3525    1.0000 </r>
       <r>   -6.2965    1.0000 </r>
       <r>   -6.1432    1.0000 </r>
       <r>   -6.1298    1.0000 </r>
       <r>   -6.0051    1.0000 </r>
       <r>   -5.9786    1.0000 </r>
       <r>   -5.8139    1.0000 </r>
       <r>   -5.7564    1.0000 </r>
       <r>   -5.7046    1.0000 </r>
       <r>   -5.6333    1.0000 </r>
       <r>   -5.5659    1.0000 </r>
       <r>   -5.5217    1.0000 </r>
       <r>   -5.4518    1.0000 </r>
       <r>   -5.4362    1.0000 </r>
       <r>   -5.2749    1.0000 </r>
       <r>   -5.1935    1.0000 </r>
       <r>   -5.1415    1.0000 </r>
       <r>   -5.1006    1.0000 </r>
       <r>   -5.0179    1.0000 </r>
       <r>   -4.9886    1.0000 </r>
       <r>   -4.9255    1.0000 </r>
       <r>   -4.8156    1.0000 </r>
       <r>   -4.7720    1.0002 </r>
       <r>   -4.6840    1.0013 </r>
       <r>   -4.6482    1.0028 </r>
       <r>   -4.6067    1.0061 </r>
       <r>   -4.4972    1.0261 </r>
       <r>   -4.4517    1.0345 </r>
       <r>   -4.4051    1.0312 </r>
       <r>   -4.3725    1.0131 </r>
       <r>   -4.3372    0.9712 </r>
       <r>   -4.3057    0.9093 </r>
       <r>   -4.2072    0.5710 </r>
       <r>   -4.1543    0.3499 </r>
       <r>   -4.0880    0.1235 </r>
       <r>   -4.0503    0.0400 </r>
       <r>   -3.9702   -0.0327 </r>
       <r>   -3.9337   -0.0350 </r>
       <r>   -3.8793   -0.0251 </r>
       <r>   -3.8699   -0.0230 </r>
       <r>   -3.7524   -0.0041 </r>
       <r>   -2.7446   -0.0000 </r>
       <r>   -2.5910   -0.0000 </r>
       <r>   -2.4357   -0.0000 </r>
       <r>   -2.1763   -0.0000 </r>
       <r>   -2.0092   -0.0000 </r>
       <r>   -1.5000   -0.0000 </r>
       <r>   -0.9192   -0.0000 </r>
       <r>   -0.6494   -0.0000 </r>
       <r>   -0.4170   -0.0000 </r>
       <r>   -0.3466   -0.0000 </r>
       <r>   -0.1674   -0.0000 </r>
       <r>    0.0118   -0.0000 </r>
      </set>
     </set>
    </set>
   </array>
  </eigenvalues>
  <separator name="orbital magnetization" >
   <v name="MAGDIPOLOUT">      0.00000000      0.00000000      0.00000000</v>
  </separator>
  <dos>
   <i name="efermi">     -4.19039043 </i>
   <total>
    <array>
     <dimension dim="1">gridpoints</dimension>
     <dimension dim="2">spin</dimension>
     <field>energy</field>
     <field>total</field>
     <field>integrated</field>
     <set>
      <set comment="spin 1">
       <r>   -11.9461     0.0000     0.0000 </r>
       <r>   -11.8995     0.0000     0.0000 </r>
       <r>   -11.8530     0.0000     0.0000 </r>
       <r>   -11.8065     0.0000     0.0000 </r>
       <r>   -11.7600     0.0000     0.0000 </r>
       <r>   -11.7134     0.0000     0.0000 </r>
       <r>   -11.6669     0.0000     0.0000 </r>
       <r>   -11.6204     0.0000     0.0000 </r>
       <r>   -11.5738    -0.0000    -0.0000 </r>
       <r>   -11.5273    -0.0000    -0.0000 </r>
       <r>   -11.4808    -0.0000    -0.0000 </r>
       <r>   -11.4343    -0.0000    -0.0000 </r>
       <r>   -11.3877    -0.0000    -0.0000 </r>
       <r>   -11.3412    -0.0000    -0.0000 </r>
       <r>   -11.2947    -0.0000    -0.0000 </r>
       <r>   -11.2482    -0.0000    -0.0000 </r>
       <r>   -11.2016    -0.0000    -0.0000 </r>
       <r>   -11.1551    -0.0000    -0.0000 </r>
       <r>   -11.1086    -0.0000    -0.0000 </r>
       <r>   -11.0621    -0.0000    -0.0000 </r>
       <r>   -11.0155    -0.0000    -0.0000 </r>
       <r>   -10.9690    -0.0000    -0.0000 </r>
       <r>   -10.9225    -0.0000    -0.0000 </r>
       <r>   -10.8760    -0.0000    -0.0000 </r>
       <r>   -10.8294    -0.0000    -0.0000 </r>
       <r>   -10.7829    -0.0000    -0.0000 </r>
       <r>   -10.7364    -0.0000    -0.0000 </r>
       <r>   -10.6898    -0.0000    -0.0000 </r>
       <r>   -10.6433    -0.0001    -0.0000 </r>
       <r>   -10.5968    -0.0004    -0.0000 </r>
       <r>   -10.5503    -0.0013    -0.0001 </r>
       <r>   -10.5037    -0.0045    -0.0003 </r>
       <r>   -10.4572    -0.0131    -0.0009 </r>
       <r>   -10.4107    -0.0335    -0.0025 </r>
       <r>   -10.3642    -0.0740    -0.0059 </r>
       <r>   -10.3176    -0.1377    -0.0123 </r>
       <r>   -10.2711    -0.2062    -0.0219 </r>
       <r>   -10.2246    -0.2179    -0.0320 </r>
       <r>   -10.1781    -0.0584    -0.0348 </r>
       <r>   -10.1315     0.4061    -0.0159 </r>
       <r>   -10.0850     1.2430     0.0420 </r>
       <r>   -10.0385     2.3522     0.1514 </r>
       <r>    -9.9920     3.4375     0.3113 </r>
       <r>    -9.9454     4.1120     0.5027 </r>
       <r>    -9.8989     4.1020     0.6935 </r>
       <r>    -9.8524     3.4119     0.8523 </r>
       <r>    -9.8058     2.3208     0.9602 </r>
       <r>    -9.7593     1.2158     1.0168 </r>
       <r>    -9.7128     0.3887     1.0349 </r>
       <r>    -9.6663    -0.0661     1.0318 </r>
       <r>    -9.6197    -0.2192     1.0216 </r>
       <r>    -9.5732    -0.2047     1.0121 </r>
       <r>    -9.5267    -0.1357     1.0058 </r>
       <r>    -9.4802    -0.0726     1.0024 </r>
       <r>    -9.4336    -0.0328     1.0009 </r>
       <r>    -9.3871    -0.0127     1.0003 </r>
       <r>    -9.3406    -0.0043     1.0001 </r>
       <r>    -9.2941    -0.0013     1.0000 </r>
       <r>    -9.2475    -0.0003     1.0000 </r>
       <r>    -9.2010    -0.0001     1.0000 </r>
       <r>    -9.1545    -0.0001     1.0000 </r>
       <r>    -9.1080    -0.0002     1.0000 </r>
       <r>    -9.0614    -0.0006     1.0000 </r>
       <r>    -9.0149    -0.0023     0.9999 </r>
       <r>    -8.9684    -0.0073     0.9995 </r>
       <r>    -8.9218    -0.0203     0.9986 </r>
       <r>    -8.8753    -0.0494     0.9963 </r>
       <r>    -8.8288    -0.1033     0.9915 </r>
       <r>    -8.7823    -0.1817     0.9830 </r>
       <r>    -8.7357    -0.2564     0.9711 </r>
       <r>    -8.6892    -0.2508     0.9594 </r>
       <r>    -8.6427    -0.0396     0.9576 </r>
       <r>    -8.5962     0.5094     0.9813 </r>
       <r>    -8.5496     1.4554     1.0490 </r>
       <r>    -8.5031     2.7139     1.1753 </r>
       <r>    -8.4566     4.0570     1.3640 </r>
       <r>    -8.4101     5.2027     1.6061 </r>
       <r>    -8.3635     5.9405     1.8825 </r>
       <r>    -8.3170     6.2108     2.1714 </r>
       <r>    -8.2705     6.0981     2.4551 </r>
       <r>    -8.2240     5.7587     2.7231 </r>
       <r>    -8.1774     5.3313     2.9711 </r>
       <r>    -8.1309     4.8870     3.1985 </r>
       <r>    -8.0844     4.4639     3.4062 </r>
       <r>    -8.0378     4.1757     3.6005 </r>
       <r>    -7.9913     4.2813     3.7997 </r>
       <r>    -7.9448     5.0794     4.0360 </r>
       <r>    -7.8983     6.6464     4.3452 </r>
       <r>    -7.8517     8.6447     4.7474 </r>
       <r>    -7.8052    10.4519     5.2337 </r>
       <r>    -7.7587    11.5846     5.7727 </r>
       <r>    -7.7122    12.0722     6.3344 </r>
       <r>    -7.6656    12.4195     6.9122 </r>
       <r>    -7.6191    13.1570     7.5243 </r>
       <r>    -7.5726    14.3602     8.1925 </r>
       <r>    -7.5261    15.5588     8.9164 </r>
       <r>    -7.4795    16.0870     9.6648 </r>
       <r>    -7.4330    15.5513    10.3884 </r>
       <r>    -7.3865    14.0381    11.0415 </r>
       <r>    -7.3400    11.9727    11.5986 </r>
       <r>    -7.2934     9.8296    12.0559 </r>
       <r>    -7.2469     7.9382    12.4252 </r>
       <r>    -7.2004     6.4549    12.7256 </r>
       <r>    -7.1539     5.4173    12.9776 </r>
       <r>    -7.1073     4.7899    13.2005 </r>
       <r>    -7.0608     4.5030    13.4100 </r>
       <r>    -7.0143     4.5173    13.6201 </r>
       <r>    -6.9677     4.8819    13.8473 </r>
       <r>    -6.9212     5.7049    14.1127 </r>
       <r>    -6.8747     7.0229    14.4395 </r>
       <r>    -6.8282     8.6693    14.8428 </r>
       <r>    -6.7816    10.2665    15.3205 </r>
       <r>    -6.7351    11.3681    15.8494 </r>
       <r>    -6.6886    11.6816    16.3929 </r>
       <r>    -6.6421    11.2583    16.9167 </r>
       <r>    -6.5955    10.5411    17.4071 </r>
       <r>    -6.5490    10.1832    17.8809 </r>
       <r>    -6.5025    10.6749    18.3776 </r>
       <r>    -6.4560    12.0041    18.9361 </r>
       <r>    -6.4094    13.6410    19.5708 </r>
       <r>    -6.3629    14.9245    20.2651 </r>
       <r>    -6.3164    15.5725    20.9897 </r>
       <r>    -6.2699    15.8859    21.7288 </r>
       <r>    -6.2233    16.4509    22.4942 </r>
       <r>    -6.1768    17.5752    23.3119 </r>
       <r>    -6.1303    18.9318    24.1927 </r>
       <r>    -6.0837    19.7284    25.1106 </r>
       <r>    -6.0372    19.2878    26.0080 </r>
       <r>    -5.9907    17.5774    26.8258 </r>
       <r>    -5.9442    15.2596    27.5358 </r>
       <r>    -5.8976    13.2284    28.1512 </r>
       <r>    -5.8511    12.0211    28.7105 </r>
       <r>    -5.8046    11.5784    29.2492 </r>
       <r>    -5.7581    11.5036    29.7844 </r>
       <r>    -5.7115    11.5401    30.3214 </r>
       <r>    -5.6650    11.8345    30.8720 </r>
       <r>    -5.6185    12.7832    31.4667 </r>
       <r>    -5.5720    14.6381    32.1478 </r>
       <r>    -5.5254    17.2222    32.9491 </r>
       <r>    -5.4789    19.9814    33.8787 </r>
       <r>    -5.4324    22.3065    34.9166 </r>
       <r>    -5.3859    23.8665    36.0270 </r>
       <r>    -5.3393    24.7152    37.1769 </r>
       <r>    -5.2928    25.1323    38.3462 </r>
       <r>    -5.2463    25.3658    39.5264 </r>
       <r>    -5.1997    25.4878    40.7122 </r>
       <r>    -5.1532    25.4520    41.8964 </r>
       <r>    -5.1067    25.2437    43.0709 </r>
       <r>    -5.0602    24.9368    44.2311 </r>
       <r>    -5.0136    24.5892    45.3752 </r>
       <r>    -4.9671    24.0984    46.4964 </r>
       <r>    -4.9206    23.2121    47.5764 </r>
       <r>    -4.8741    21.7304    48.5874 </r>
       <r>    -4.8275    19.7132    49.5046 </r>
       <r>    -4.7810    17.4642    50.3171 </r>
       <r>    -4.7345    15.2855    51.0283 </r>
       <r>    -4.6880    13.2552    51.6450 </r>
       <r>    -4.6414    11.2631    52.1690 </r>
       <r>    -4.5949     9.2510    52.5995 </r>
       <r>    -4.5484     7.3709    52.9424 </r>
       <r>    -4.5019     5.8763    53.2158 </r>
       <r>    -4.4553     4.8673    53.4423 </r>
       <r>    -4.4088     4.1721    53.6364 </r>
       <r>    -4.3623     3.4873    53.7986 </r>
       <r>    -4.3157     2.6282    53.9209 </r>
       <r>    -4.2692     1.6496    53.9977 </r>
       <r>    -4.2227     0.7586    54.0330 </r>
       <r>    -4.1762     0.1360    54.0393 </r>
       <r>    -4.1296    -0.1733    54.0312 </r>
       <r>    -4.0831    -0.2456    54.0198 </r>
       <r>    -4.0366    -0.1982    54.0106 </r>
       <r>    -3.9901    -0.1225    54.0049 </r>
       <r>    -3.9435    -0.0625    54.0020 </r>
       <r>    -3.8970    -0.0272    54.0007 </r>
       <r>    -3.8505    -0.0102    54.0002 </r>
       <r>    -3.8040    -0.0034    54.0001 </r>
       <r>    -3.7574    -0.0010    54.0000 </r>
       <r>    -3.7109    -0.0003    54.0000 </r>
       <r>    -3.6644    -0.0004    54.0000 </r>
       <r>    -3.6179    -0.0012    53.9999 </r>
       <r>    -3.5713    -0.0041    53.9997 </r>
       <r>    -3.5248    -0.0124    53.9992 </r>
       <r>    -3.4783    -0.0331    53.9976 </r>
       <r>    -3.4318    -0.0770    53.9940 </r>
       <r>    -3.3852    -0.1538    53.9869 </r>
       <r>    -3.3387    -0.2570    53.9749 </r>
       <r>    -3.2922    -0.3382    53.9592 </r>
       <r>    -3.2456    -0.2824    53.9460 </r>
       <r>    -3.1991     0.0860    53.9500 </r>
       <r>    -3.1526     0.9376    53.9937 </r>
       <r>    -3.1061     2.3231    54.1018 </r>
       <r>    -3.0595     4.0703    54.2911 </r>
       <r>    -3.0130     5.7887    54.5605 </r>
       <r>    -2.9665     7.0225    54.8872 </r>
       <r>    -2.9200     7.4825    55.2353 </r>
       <r>    -2.8734     7.1991    55.5703 </r>
       <r>    -2.8269     6.4760    55.8716 </r>
       <r>    -2.7804     5.6756    56.1356 </r>
       <r>    -2.7339     5.0121    56.3688 </r>
       <r>    -2.6873     4.5157    56.5789 </r>
       <r>    -2.6408     4.1587    56.7724 </r>
       <r>    -2.5943     3.9811    56.9576 </r>
       <r>    -2.5478     4.0779    57.1474 </r>
       <r>    -2.5012     4.4799    57.3558 </r>
       <r>    -2.4547     5.0727    57.5918 </r>
       <r>    -2.4082     5.6304    57.8538 </r>
       <r>    -2.3616     5.9141    58.1289 </r>
       <r>    -2.3151     5.7519    58.3966 </r>
       <r>    -2.2686     5.0806    58.6329 </r>
       <r>    -2.2221     3.9704    58.8177 </r>
       <r>    -2.1755     2.6241    58.9398 </r>
       <r>    -2.1290     1.3202    59.0012 </r>
       <r>    -2.0825     0.3166    59.0159 </r>
       <r>    -2.0360    -0.2178    59.0058 </r>
       <r>    -1.9894    -0.2095    58.9960 </r>
       <r>    -1.9429     0.3402    59.0119 </r>
       <r>    -1.8964     1.3385    59.0741 </r>
       <r>    -1.8499     2.5541    59.1930 </r>
       <r>    -1.8033     3.6212    59.3614 </r>
       <r>    -1.7568     4.1608    59.5550 </r>
       <r>    -1.7103     3.9707    59.7398 </r>
       <r>    -1.6638     3.1434    59.8860 </r>
       <r>    -1.6172     2.0107    59.9796 </r>
       <r>    -1.5707     0.9508    60.0238 </r>
       <r>    -1.5242     0.2024    60.0332 </r>
       <r>    -1.4776    -0.1995    60.0239 </r>
       <r>    -1.4311    -0.3570    60.0073 </r>
       <r>    -1.3846    -0.3910    59.9891 </r>
       <r>    -1.3381    -0.3472    59.9730 </r>
       <r>    -1.2915    -0.1681    59.9652 </r>
       <r>    -1.2450     0.2634    59.9774 </r>
       <r>    -1.1985     1.0246    60.0251 </r>
       <r>    -1.1520     2.0466    60.1203 </r>
       <r>    -1.1054     3.0879    60.2640 </r>
       <r>    -1.0589     3.8440    60.4428 </r>
       <r>    -1.0124     4.1418    60.6355 </r>
       <r>    -0.9659     4.0672    60.8248 </r>
       <r>    -0.9193     3.9014    61.0063 </r>
       <r>    -0.8728     3.9122    61.1883 </r>
       <r>    -0.8263     4.1854    61.3830 </r>
       <r>    -0.7798     4.6367    61.5988 </r>
       <r>    -0.7332     5.1584    61.8388 </r>
       <r>    -0.6867     5.7298    62.1053 </r>
       <r>    -0.6402     6.3916    62.4027 </r>
       <r>    -0.5936     7.1380    62.7348 </r>
       <r>    -0.5471     7.8456    63.0999 </r>
       <r>    -0.5006     8.2995    63.4860 </r>
       <r>    -0.4541     8.2908    63.8717 </r>
       <r>    -0.4075     7.7336    64.2316 </r>
       <r>    -0.3610     6.7472    64.5455 </r>
       <r>    -0.3145     5.6420    64.8080 </r>
       <r>    -0.2680     4.7744    65.0301 </r>
       <r>    -0.2214     4.3325    65.2317 </r>
       <r>    -0.1749     4.2065    65.4274 </r>
       <r>    -0.1284     4.0679    65.6167 </r>
       <r>    -0.0819     3.6109    65.7847 </r>
       <r>    -0.0353     2.7674    65.9134 </r>
       <r>     0.0112     1.7285    65.9938 </r>
       <r>     0.0577     0.7859    66.0304 </r>
       <r>     0.1042     0.1430    66.0371 </r>
       <r>     0.1508    -0.1665    66.0293 </r>
       <r>     0.1973    -0.2348    66.0184 </r>
       <r>     0.2438    -0.1868    66.0097 </r>
       <r>     0.2904    -0.1137    66.0044 </r>
       <r>     0.3369    -0.0571    66.0018 </r>
       <r>     0.3834    -0.0245    66.0006 </r>
       <r>     0.4299    -0.0091    66.0002 </r>
       <r>     0.4765    -0.0029    66.0001 </r>
       <r>     0.5230    -0.0008    66.0000 </r>
       <r>     0.5695    -0.0002    66.0000 </r>
       <r>     0.6160    -0.0000    66.0000 </r>
       <r>     0.6626    -0.0000    66.0000 </r>
       <r>     0.7091    -0.0000    66.0000 </r>
       <r>     0.7556    -0.0000    66.0000 </r>
       <r>     0.8021    -0.0000    66.0000 </r>
       <r>     0.8487    -0.0000    66.0000 </r>
       <r>     0.8952    -0.0000    66.0000 </r>
       <r>     0.9417    -0.0000    66.0000 </r>
       <r>     0.9882    -0.0000    66.0000 </r>
       <r>     1.0348    -0.0000    66.0000 </r>
       <r>     1.0813    -0.0000    66.0000 </r>
       <r>     1.1278     0.0000    66.0000 </r>
       <r>     1.1743     0.0000    66.0000 </r>
       <r>     1.2209     0.0000    66.0000 </r>
       <r>     1.2674     0.0000    66.0000 </r>
       <r>     1.3139     0.0000    66.0000 </r>
       <r>     1.3605     0.0000    66.0000 </r>
       <r>     1.4070     0.0000    66.0000 </r>
       <r>     1.4535     0.0000    66.0000 </r>
       <r>     1.5000     0.0000    66.0000 </r>
       <r>     1.5466     0.0000    66.0000 </r>
       <r>     1.5931     0.0000    66.0000 </r>
       <r>     1.6396     0.0000    66.0000 </r>
       <r>     1.6861     0.0000    66.0000 </r>
       <r>     1.7327     0.0000    66.0000 </r>
       <r>     1.7792     0.0000    66.0000 </r>
       <r>     1.8257     0.0000    66.0000 </r>
       <r>     1.8722     0.0000    66.0000 </r>
       <r>     1.9188     0.0000    66.0000 </r>
       <r>     1.9653     0.0000    66.0000 </r>
       <r>     2.0118     0.0000    66.0000 </r>
      </set>
      <set comment="spin 2">
       <r>   -11.9461     0.0000     0.0000 </r>
       <r>   -11.8995     0.0000     0.0000 </r>
       <r>   -11.8530     0.0000     0.0000 </r>
       <r>   -11.8065     0.0000     0.0000 </r>
       <r>   -11.7600     0.0000     0.0000 </r>
       <r>   -11.7134     0.0000     0.0000 </r>
       <r>   -11.6669     0.0000     0.0000 </r>
       <r>   -11.6204     0.0000     0.0000 </r>
       <r>   -11.5738     0.0000     0.0000 </r>
       <r>   -11.5273     0.0000     0.0000 </r>
       <r>   -11.4808    -0.0000    -0.0000 </r>
       <r>   -11.4343    -0.0000    -0.0000 </r>
       <r>   -11.3877    -0.0000    -0.0000 </r>
       <r>   -11.3412    -0.0000    -0.0000 </r>
       <r>   -11.2947    -0.0000    -0.0000 </r>
       <r>   -11.2482    -0.0000    -0.0000 </r>
       <r>   -11.2016    -0.0000    -0.0000 </r>
       <r>   -11.1551    -0.0000    -0.0000 </r>
       <r>   -11.1086    -0.0000    -0.0000 </r>
       <r>   -11.0621    -0.0000    -0.0000 </r>
       <r>   -11.0155    -0.0000    -0.0000 </r>
       <r>   -10.9690    -0.0000    -0.0000 </r>
       <r>   -10.9225    -0.0000    -0.0000 </r>
       <r>   -10.8760    -0.0000    -0.0000 </r>
       <r>   -10.8294    -0.0000    -0.0000 </r>
       <r>   -10.7829    -0.0000    -0.0000 </r>
       <r>   -10.7364    -0.0000    -0.0000 </r>
       <r>   -10.6898    -0.0000    -0.0000 </r>
       <r>   -10.6433    -0.0000    -0.0000 </r>
       <r>   -10.5968    -0.0000    -0.0000 </r>
       <r>   -10.5503    -0.0002    -0.0000 </r>
       <r>   -10.5037    -0.0007    -0.0000 </r>
       <r>   -10.4572    -0.0025    -0.0002 </r>
       <r>   -10.4107    -0.0078    -0.0005 </r>
       <r>   -10.3642    -0.0215    -0.0015 </r>
       <r>   -10.3176    -0.0512    -0.0039 </r>
       <r>   -10.2711    -0.1039    -0.0087 </r>
       <r>   -10.2246    -0.1746    -0.0169 </r>
       <r>   -10.1781    -0.2253    -0.0273 </r>
       <r>   -10.1315    -0.1668    -0.0351 </r>
       <r>   -10.0850     0.1329    -0.0289 </r>
       <r>   -10.0385     0.7871     0.0077 </r>
       <r>    -9.9920     1.7882     0.0909 </r>
       <r>    -9.9454     2.9321     0.2273 </r>
       <r>    -9.8989     3.8546     0.4067 </r>
       <r>    -9.8524     4.1996     0.6020 </r>
       <r>    -9.8058     3.8232     0.7799 </r>
       <r>    -9.7593     2.8821     0.9140 </r>
       <r>    -9.7128     1.7375     0.9949 </r>
       <r>    -9.6663     0.7493     1.0297 </r>
       <r>    -9.6197     0.1123     1.0349 </r>
       <r>    -9.5732    -0.1736     1.0269 </r>
       <r>    -9.5267    -0.2245     1.0164 </r>
       <r>    -9.4802    -0.1713     1.0085 </r>
       <r>    -9.4336    -0.1010     1.0038 </r>
       <r>    -9.3871    -0.0494     1.0015 </r>
       <r>    -9.3406    -0.0206     1.0005 </r>
       <r>    -9.2941    -0.0075     1.0002 </r>
       <r>    -9.2475    -0.0024     1.0000 </r>
       <r>    -9.2010    -0.0007     1.0000 </r>
       <r>    -9.1545    -0.0002     1.0000 </r>
       <r>    -9.1080    -0.0000     1.0000 </r>
       <r>    -9.0614    -0.0000     1.0000 </r>
       <r>    -9.0149    -0.0000     1.0000 </r>
       <r>    -8.9684    -0.0000     1.0000 </r>
       <r>    -8.9218    -0.0000     1.0000 </r>
       <r>    -8.8753    -0.0000     1.0000 </r>
       <r>    -8.8288    -0.0000     1.0000 </r>
       <r>    -8.7823    -0.0001     1.0000 </r>
       <r>    -8.7357    -0.0004     1.0000 </r>
       <r>    -8.6892    -0.0015     0.9999 </r>
       <r>    -8.6427    -0.0050     0.9997 </r>
       <r>    -8.5962    -0.0144     0.9990 </r>
       <r>    -8.5496    -0.0366     0.9973 </r>
       <r>    -8.5031    -0.0803     0.9936 </r>
       <r>    -8.4566    -0.1489     0.9866 </r>
       <r>    -8.4101    -0.2245     0.9762 </r>
       <r>    -8.3635    -0.2468     0.9647 </r>
       <r>    -8.3170    -0.1060     0.9598 </r>
       <r>    -8.2705     0.3271     0.9750 </r>
       <r>    -8.2240     1.1267     1.0274 </r>
       <r>    -8.1774     2.2361     1.1315 </r>
       <r>    -8.1309     3.4557     1.2922 </r>
       <r>    -8.0844     4.5264     1.5028 </r>
       <r>    -8.0378     5.2511     1.7472 </r>
       <r>    -7.9913     5.5561     2.0057 </r>
       <r>    -7.9448     5.4625     2.2598 </r>
       <r>    -7.8983     5.0405     2.4943 </r>
       <r>    -7.8517     4.4194     2.6999 </r>
       <r>    -7.8052     3.8157     2.8775 </r>
       <r>    -7.7587     3.4735     3.0391 </r>
       <r>    -7.7122     3.5003     3.2019 </r>
       <r>    -7.6656     3.7377     3.3758 </r>
       <r>    -7.6191     3.8264     3.5539 </r>
       <r>    -7.5726     3.4569     3.7147 </r>
       <r>    -7.5261     2.6218     3.8367 </r>
       <r>    -7.4795     1.6723     3.9145 </r>
       <r>    -7.4330     1.1432     3.9677 </r>
       <r>    -7.3865     1.4683     4.0360 </r>
       <r>    -7.3400     2.7535     4.1641 </r>
       <r>    -7.2934     4.7144     4.3834 </r>
       <r>    -7.2469     6.7947     4.6996 </r>
       <r>    -7.2004     8.4043     5.0906 </r>
       <r>    -7.1539     9.1658     5.5171 </r>
       <r>    -7.1073     9.0551     5.9384 </r>
       <r>    -7.0608     8.3837     6.3284 </r>
       <r>    -7.0143     7.6511     6.6844 </r>
       <r>    -6.9677     7.3400     7.0259 </r>
       <r>    -6.9212     7.7300     7.3855 </r>
       <r>    -6.8747     8.7905     7.7945 </r>
       <r>    -6.8282    10.1998     8.2691 </r>
       <r>    -6.7816    11.4896     8.8037 </r>
       <r>    -6.7351    12.2507     9.3736 </r>
       <r>    -6.6886    12.2995     9.9459 </r>
       <r>    -6.6421    11.7320    10.4917 </r>
       <r>    -6.5955    10.8648    10.9972 </r>
       <r>    -6.5490    10.1047    11.4674 </r>
       <r>    -6.5025     9.7856    11.9226 </r>
       <r>    -6.4560    10.0169    12.3887 </r>
       <r>    -6.4094    10.6230    12.8829 </r>
       <r>    -6.3629    11.2513    13.4064 </r>
       <r>    -6.3164    11.6167    13.9469 </r>
       <r>    -6.2699    11.7009    14.4913 </r>
       <r>    -6.2233    11.7300    15.0371 </r>
       <r>    -6.1768    11.9381    15.5925 </r>
       <r>    -6.1303    12.3279    16.1661 </r>
       <r>    -6.0837    12.6399    16.7542 </r>
       <r>    -6.0372    12.5569    17.3384 </r>
       <r>    -5.9907    11.9788    17.8957 </r>
       <r>    -5.9442    11.1580    18.4148 </r>
       <r>    -5.8976    10.5868    18.9074 </r>
       <r>    -5.8511    10.7047    19.4055 </r>
       <r>    -5.8046    11.6274    19.9464 </r>
       <r>    -5.7581    13.1012    20.5560 </r>
       <r>    -5.7115    14.7021    21.2400 </r>
       <r>    -5.6650    16.0915    21.9887 </r>
       <r>    -5.6185    17.1059    22.7846 </r>
       <r>    -5.5720    17.6461    23.6056 </r>
       <r>    -5.5254    17.5516    24.4222 </r>
       <r>    -5.4789    16.6521    25.1970 </r>
       <r>    -5.4324    14.9902    25.8944 </r>
       <r>    -5.3859    12.9942    26.4990 </r>
       <r>    -5.3393    11.3852    27.0287 </r>
       <r>    -5.2928    10.8243    27.5323 </r>
       <r>    -5.2463    11.5437    28.0694 </r>
       <r>    -5.1997    13.2280    28.6848 </r>
       <r>    -5.1532    15.2079    29.3924 </r>
       <r>    -5.1067    16.7982    30.1740 </r>
       <r>    -5.0602    17.5624    30.9911 </r>
       <r>    -5.0136    17.4080    31.8010 </r>
       <r>    -4.9671    16.5523    32.5711 </r>
       <r>    -4.9206    15.4220    33.2886 </r>
       <r>    -4.8741    14.5020    33.9634 </r>
       <r>    -4.8275    14.1431    34.6214 </r>
       <r>    -4.7810    14.4026    35.2915 </r>
       <r>    -4.7345    15.0306    35.9908 </r>
       <r>    -4.6880    15.6483    36.7189 </r>
       <r>    -4.6414    16.0293    37.4646 </r>
       <r>    -4.5949    16.2834    38.2223 </r>
       <r>    -4.5484    16.7788    39.0029 </r>
       <r>    -4.5019    17.8189    39.8320 </r>
       <r>    -4.4553    19.3111    40.7304 </r>
       <r>    -4.4088    20.7148    41.6942 </r>
       <r>    -4.3623    21.3591    42.6880 </r>
       <r>    -4.3157    20.9014    43.6604 </r>
       <r>    -4.2692    19.5727    44.5711 </r>
       <r>    -4.2227    18.0278    45.4098 </r>
       <r>    -4.1762    16.9470    46.1983 </r>
       <r>    -4.1296    16.6996    46.9753 </r>
       <r>    -4.0831    17.2567    47.7782 </r>
       <r>    -4.0366    18.2985    48.6295 </r>
       <r>    -3.9901    19.3523    49.5299 </r>
       <r>    -3.9435    19.8897    50.4553 </r>
       <r>    -3.8970    19.4381    51.3597 </r>
       <r>    -3.8505    17.7420    52.1852 </r>
       <r>    -3.8040    14.8972    52.8783 </r>
       <r>    -3.7574    11.3409    53.4059 </r>
       <r>    -3.7109     7.6819    53.7633 </r>
       <r>    -3.6644     4.4733    53.9715 </r>
       <r>    -3.6179     2.0554    54.0671 </r>
       <r>    -3.5713     0.5141    54.0910 </r>
       <r>    -3.5248    -0.2682    54.0785 </r>
       <r>    -3.4783    -0.5189    54.0544 </r>
       <r>    -3.4318    -0.4789    54.0321 </r>
       <r>    -3.3852    -0.3352    54.0165 </r>
       <r>    -3.3387    -0.1960    54.0074 </r>
       <r>    -3.2922    -0.1024    54.0027 </r>
       <r>    -3.2456    -0.0584    53.9999 </r>
       <r>    -3.1991    -0.0575    53.9973 </r>
       <r>    -3.1526    -0.0955    53.9928 </r>
       <r>    -3.1061    -0.1673    53.9850 </r>
       <r>    -3.0595    -0.2491    53.9734 </r>
       <r>    -3.0130    -0.2749    53.9607 </r>
       <r>    -2.9665    -0.1273    53.9547 </r>
       <r>    -2.9200     0.3328    53.9702 </r>
       <r>    -2.8734     1.1933    54.0257 </r>
       <r>    -2.8269     2.4134    54.1380 </r>
       <r>    -2.7804     3.8040    54.3150 </r>
       <r>    -2.7339     5.1011    54.5523 </r>
       <r>    -2.6873     6.0886    54.8356 </r>
       <r>    -2.6408     6.6827    55.1465 </r>
       <r>    -2.5943     6.9169    55.4684 </r>
       <r>    -2.5478     6.8572    55.7874 </r>
       <r>    -2.5012     6.5302    56.0912 </r>
       <r>    -2.4547     5.9329    56.3673 </r>
       <r>    -2.4082     5.1174    56.6054 </r>
       <r>    -2.3616     4.2672    56.8039 </r>
       <r>    -2.3151     3.6676    56.9745 </r>
       <r>    -2.2686     3.5605    57.1402 </r>
       <r>    -2.2221     3.9870    57.3257 </r>
       <r>    -2.1755     4.7491    57.5466 </r>
       <r>    -2.1290     5.5147    57.8032 </r>
       <r>    -2.0825     5.9695    58.0810 </r>
       <r>    -2.0360     5.9132    58.3561 </r>
       <r>    -1.9894     5.2877    58.6021 </r>
       <r>    -1.9429     4.1789    58.7965 </r>
       <r>    -1.8964     2.8025    58.9269 </r>
       <r>    -1.8499     1.4505    58.9944 </r>
       <r>    -1.8033     0.4014    59.0131 </r>
       <r>    -1.7568    -0.1508    59.0061 </r>
       <r>    -1.7103    -0.1166    59.0006 </r>
       <r>    -1.6638     0.4938    59.0236 </r>
       <r>    -1.6172     1.5508    59.0958 </r>
       <r>    -1.5707     2.7745    59.2249 </r>
       <r>    -1.5242     3.7700    59.4003 </r>
       <r>    -1.4776     4.1723    59.5944 </r>
       <r>    -1.4311     3.8306    59.7726 </r>
       <r>    -1.3846     2.8920    59.9072 </r>
       <r>    -1.3381     1.7097    59.9867 </r>
       <r>    -1.2915     0.6466    60.0168 </r>
       <r>    -1.2450    -0.0760    60.0133 </r>
       <r>    -1.1985    -0.3916    59.9950 </r>
       <r>    -1.1520    -0.3039    59.9809 </r>
       <r>    -1.1054     0.1823    59.9894 </r>
       <r>    -1.0589     1.0389    60.0377 </r>
       <r>    -1.0124     2.1300    60.1368 </r>
       <r>    -0.9659     3.1795    60.2847 </r>
       <r>    -0.9193     3.8741    60.4650 </r>
       <r>    -0.8728     4.0571    60.6538 </r>
       <r>    -0.8263     3.8486    60.8328 </r>
       <r>    -0.7798     3.5609    60.9985 </r>
       <r>    -0.7332     3.4622    61.1596 </r>
       <r>    -0.6867     3.6000    61.3271 </r>
       <r>    -0.6402     3.8514    61.5063 </r>
       <r>    -0.5936     4.1357    61.6987 </r>
       <r>    -0.5471     4.5502    61.9104 </r>
       <r>    -0.5006     5.2676    62.1555 </r>
       <r>    -0.4541     6.2932    62.4483 </r>
       <r>    -0.4075     7.3464    62.7901 </r>
       <r>    -0.3610     8.0139    63.1629 </r>
       <r>    -0.3145     8.0471    63.5373 </r>
       <r>    -0.2680     7.5330    63.8878 </r>
       <r>    -0.2214     6.8033    64.2043 </r>
       <r>    -0.1749     6.1917    64.4924 </r>
       <r>    -0.1284     5.8467    64.7644 </r>
       <r>    -0.0819     5.6994    65.0296 </r>
       <r>    -0.0353     5.5438    65.2875 </r>
       <r>     0.0112     5.1536    65.5273 </r>
       <r>     0.0577     4.3957    65.7318 </r>
       <r>     0.1042     3.3072    65.8857 </r>
       <r>     0.1508     2.0902    65.9830 </r>
       <r>     0.1973     1.0082    66.0299 </r>
       <r>     0.2438     0.2505    66.0415 </r>
       <r>     0.2904    -0.1426    66.0349 </r>
       <r>     0.3369    -0.2565    66.0230 </r>
       <r>     0.3834    -0.2215    66.0127 </r>
       <r>     0.4299    -0.1429    66.0060 </r>
       <r>     0.4765    -0.0756    66.0025 </r>
       <r>     0.5230    -0.0340    66.0009 </r>
       <r>     0.5695    -0.0132    66.0003 </r>
       <r>     0.6160    -0.0045    66.0001 </r>
       <r>     0.6626    -0.0013    66.0000 </r>
       <r>     0.7091    -0.0004    66.0000 </r>
       <r>     0.7556    -0.0001    66.0000 </r>
       <r>     0.8021    -0.0000    66.0000 </r>
       <r>     0.8487    -0.0000    66.0000 </r>
       <r>     0.8952    -0.0000    66.0000 </r>
       <r>     0.9417    -0.0000    66.0000 </r>
       <r>     0.9882    -0.0000    66.0000 </r>
       <r>     1.0348    -0.0000    66.0000 </r>
       <r>     1.0813    -0.0000    66.0000 </r>
       <r>     1.1278    -0.0000    66.0000 </r>
       <r>     1.1743    -0.0000    66.0000 </r>
       <r>     1.2209    -0.0000    66.0000 </r>
       <r>     1.2674    -0.0000    66.0000 </r>
       <r>     1.3139     0.0000    66.0000 </r>
       <r>     1.3605     0.0000    66.0000 </r>
       <r>     1.4070     0.0000    66.0000 </r>
       <r>     1.4535     0.0000    66.0000 </r>
       <r>     1.5000     0.0000    66.0000 </r>
       <r>     1.5466     0.0000    66.0000 </r>
       <r>     1.5931     0.0000    66.0000 </r>
       <r>     1.6396     0.0000    66.0000 </r>
       <r>     1.6861     0.0000    66.0000 </r>
       <r>     1.7327     0.0000    66.0000 </r>
       <r>     1.7792     0.0000    66.0000 </r>
       <r>     1.8257     0.0000    66.0000 </r>
       <r>     1.8722     0.0000    66.0000 </r>
       <r>     1.9188     0.0000    66.0000 </r>
       <r>     1.9653     0.0000    66.0000 </r>
       <r>     2.0118     0.0000    66.0000 </r>
      </set>
     </set>
    </array>
   </total>
  </dos>
 </calculation>
 <structure name="finalpos" >
  <crystal>
   <varray name="basis" >
    <v>      22.62984394       0.00000000       0.00000000 </v>
    <v>       0.00000000      22.38829269       0.00000000 </v>
    <v>       0.00000000       0.00000000      21.59854381 </v>
   </varray>
   <i name="volume">  10942.76334035 </i>
   <varray name="rec_basis" >
    <v>       0.04418943       0.00000000       0.00000000 </v>
    <v>       0.00000000       0.04466620       0.00000000 </v>
    <v>       0.00000000       0.00000000       0.04629942 </v>
   </varray>
  </crystal>
  <varray name="positions" >
   <v>       0.47222366       0.49728734       0.51266206 </v>
   <v>       0.56848048       0.42188959       0.49720899 </v>
   <v>       0.63050608       0.50440296       0.50287188 </v>
   <v>       0.55651379       0.48593651       0.57807651 </v>
   <v>       0.54617443       0.50299717       0.43678204 </v>
   <v>       0.55278146       0.57088723       0.51601095 </v>
   <v>       0.48661664       0.40173217       0.56971324 </v>
   <v>       0.47514921       0.41239869       0.43886249 </v>
   <v>       0.45419766       0.60501187       0.49637791 </v>
   <v>       0.44647702       0.52922982       0.40527900 </v>
  </varray>
 </structure>
</modeling>
