unknown system                          
            1
    22.629844    0.000000    0.000000
     0.000000   22.388293    0.000000
     0.000000    0.000000   21.598544
   Ni   Pd
     6     4
Direct configuration=     1
   0.47230534  0.49724877  0.51281642
   0.56849759  0.42186949  0.49728366
   0.63059237  0.50437005  0.50288420
   0.55663109  0.48602884  0.57798635
   0.54619275  0.50299781  0.43669445
   0.55271893  0.57086938  0.51611233
   0.48652265  0.40167583  0.56972608
   0.47512472  0.41237521  0.43879578
   0.45411559  0.60503093  0.49631013
   0.44641939  0.52930705  0.40523567
Direct configuration=     2
   0.47226777  0.49726651  0.51274542
   0.56848972  0.42187874  0.49724932
   0.63055268  0.50438519  0.50287854
   0.55657714  0.48598638  0.57802782
   0.54618433  0.50299752  0.43673473
   0.55274769  0.57087759  0.51606570
   0.48656588  0.40170174  0.56972017
   0.47513599  0.41238601  0.43882646
   0.45415334  0.60502217  0.49634131
   0.44644589  0.52927153  0.40525560
Direct configuration=     3
   0.47222366  0.49728734  0.51266206
   0.56848048  0.42188959  0.49720899
   0.63050608  0.50440296  0.50287188
   0.55651379  0.48593651  0.57807651
   0.54617443  0.50299717  0.43678204
   0.55278146  0.57088723  0.51601095
   0.48661664  0.40173217  0.56971324
   0.47514921  0.41239869  0.43886249
   0.45419766  0.60501187  0.49637791
   0.44647702  0.52922982  0.40527900
