  10  10   0   0
  0.1185542E+04  0.2159997E-08  0.2371835E-08  0.2314084E-08  0.5000000E-15
   1.0000000000000000E-004
  CAR 
 unknown system                          
      1.98495685    -11.93151259  301     -3.90953922      1.00000000
    -11.932  0.0000E+00  0.0000E+00  0.0000E+00  0.0000E+00
    -11.885  0.0000E+00  0.0000E+00  0.0000E+00  0.0000E+00
    -11.839  0.0000E+00  0.0000E+00  0.0000E+00  0.0000E+00
    -11.792  0.0000E+00  0.0000E+00  0.0000E+00  0.0000E+00
    -11.746  0.0000E+00  0.0000E+00  0.0000E+00  0.0000E+00
    -11.700  0.0000E+00  0.0000E+00  0.0000E+00  0.0000E+00
    -11.653  0.0000E+00  0.0000E+00  0.0000E+00  0.0000E+00
    -11.607  0.0000E+00  0.0000E+00  0.0000E+00  0.0000E+00
    -11.560 -0.5916E-30 -0.7710E-30 -0.2744E-31 -0.3577E-31
    -11.514 -0.2341E-28 -0.3027E-28 -0.1113E-29 -0.1440E-29
    -11.468 -0.8497E-27 -0.1090E-26 -0.4053E-28 -0.5202E-28
    -11.421 -0.2766E-25 -0.3522E-25 -0.1324E-26 -0.1686E-26
    -11.375 -0.8074E-24 -0.1020E-23 -0.3878E-25 -0.4901E-25
    -11.328 -0.2113E-22 -0.2650E-22 -0.1019E-23 -0.1278E-23
    -11.282 -0.4960E-21 -0.6172E-21 -0.2403E-22 -0.2991E-22
    -11.236 -0.1043E-19 -0.1288E-19 -0.5081E-21 -0.6276E-21
    -11.189 -0.1968E-18 -0.2411E-18 -0.9636E-20 -0.1181E-19
    -11.143 -0.3325E-17 -0.4042E-17 -0.1639E-18 -0.1993E-18
    -11.097 -0.4915E-16 -0.5834E-16 -0.2444E-17 -0.2906E-17
    -11.050 -0.6612E-15 -0.7921E-15 -0.3312E-16 -0.3965E-16
    -11.004 -0.8008E-14 -0.9509E-14 -0.4046E-15 -0.4808E-15
    -10.957 -0.8680E-13 -0.1023E-12 -0.4431E-14 -0.5225E-14
    -10.911 -0.8415E-12 -0.9836E-12 -0.4347E-13 -0.5085E-13
    -10.865 -0.7294E-11 -0.8459E-11 -0.3818E-12 -0.4433E-12
    -10.818 -0.5650E-10 -0.6500E-10 -0.3003E-11 -0.3458E-11
    -10.772 -0.3907E-09 -0.4459E-09 -0.2113E-10 -0.2415E-10
    -10.725 -0.2411E-08 -0.2729E-08 -0.1330E-09 -0.1508E-09
    -10.679 -0.1326E-07 -0.1488E-07 -0.7479E-09 -0.8412E-09
    -10.633 -0.6486E-07 -0.7223E-07 -0.3757E-08 -0.4192E-08
    -10.586 -0.2820E-06 -0.3114E-06 -0.1684E-07 -0.1864E-07
    -10.540 -0.1086E-05 -0.1189E-05 -0.6723E-07 -0.7380E-07
    -10.493 -0.3698E-05 -0.4012E-05 -0.2388E-06 -0.2599E-06
    -10.447 -0.1107E-04 -0.1190E-04 -0.7522E-06 -0.8119E-06
    -10.401 -0.2895E-04 -0.3081E-04 -0.2095E-05 -0.2241E-05
    -10.354 -0.6542E-04 -0.6889E-04 -0.5130E-05 -0.5437E-05
    -10.308 -0.1254E-03 -0.1303E-03 -0.1095E-04 -0.1148E-04
    -10.262 -0.1958E-03 -0.2002E-03 -0.2003E-04 -0.2077E-04
    -10.215 -0.2245E-03 -0.2225E-03 -0.3044E-04 -0.3109E-04
    -10.169 -0.1064E-03 -0.8900E-04 -0.3538E-04 -0.3522E-04
    -10.122  0.2926E-03  0.3343E-03 -0.2181E-04 -0.1971E-04
    -10.076  0.1059E-02  0.1127E-02  0.2733E-04  0.3256E-04
    -10.030  0.2131E-02  0.2213E-02  0.1262E-03  0.1352E-03
     -9.983  0.3248E-02  0.3319E-02  0.2769E-03  0.2892E-03
     -9.937  0.4028E-02  0.4061E-02  0.4637E-03  0.4776E-03
     -9.890  0.4163E-02  0.4145E-02  0.6569E-03  0.6698E-03
     -9.844  0.3596E-02  0.3534E-02  0.8237E-03  0.8338E-03
     -9.798  0.2558E-02  0.2477E-02  0.9424E-03  0.9487E-03
     -9.751  0.1430E-02  0.1356E-02  0.1009E-02  0.1012E-02
     -9.705  0.5325E-03  0.4826E-03  0.1033E-02  0.1034E-02
     -9.658  0.1712E-05 -0.2223E-04  0.1033E-02  0.1033E-02
     -9.612 -0.2050E-03 -0.2105E-03  0.1024E-02  0.1023E-02
     -9.566 -0.2158E-03 -0.2126E-03  0.1014E-02  0.1013E-02
     -9.519 -0.1519E-03 -0.1468E-03  0.1007E-02  0.1007E-02
     -9.473 -0.8495E-04 -0.8097E-04  0.1003E-02  0.1003E-02
     -9.427 -0.3984E-04 -0.3754E-04  0.1001E-02  0.1001E-02
     -9.380 -0.1605E-04 -0.1498E-04  0.1000E-02  0.1000E-02
     -9.334 -0.5632E-05 -0.5205E-05  0.1000E-02  0.1000E-02
     -9.287 -0.1734E-05 -0.1588E-05  0.1000E-02  0.1000E-02
     -9.241 -0.4710E-06 -0.4276E-06  0.1000E-02  0.1000E-02
     -9.195 -0.1133E-06 -0.1020E-06  0.1000E-02  0.1000E-02
     -9.148 -0.2429E-07 -0.2159E-07  0.1000E-02  0.1000E-02
     -9.102 -0.5343E-08 -0.4065E-08  0.1000E-02  0.1000E-02
     -9.055 -0.5237E-08 -0.6819E-09  0.1000E-02  0.1000E-02
     -9.009 -0.2366E-07 -0.1029E-09  0.1000E-02  0.1000E-02
     -8.963 -0.1105E-06 -0.2135E-10  0.1000E-02  0.1000E-02
     -8.916 -0.4606E-06 -0.6128E-10  0.1000E-02  0.1000E-02
     -8.870 -0.1700E-05 -0.4115E-09  0.9999E-03  0.1000E-02
     -8.824 -0.5536E-05 -0.2530E-08  0.9996E-03  0.1000E-02
     -8.777 -0.1583E-04 -0.1387E-07  0.9989E-03  0.1000E-02
     -8.731 -0.3946E-04 -0.6763E-07  0.9971E-03  0.1000E-02
     -8.684 -0.8468E-04 -0.2931E-06  0.9931E-03  0.1000E-02
     -8.638 -0.1531E-03 -0.1125E-05  0.9860E-03  0.9999E-03
     -8.592 -0.2226E-03 -0.3818E-05  0.9757E-03  0.9998E-03
     -8.545 -0.2272E-03 -0.1139E-04  0.9652E-03  0.9992E-03
     -8.499 -0.5392E-04 -0.2969E-04  0.9627E-03  0.9978E-03
     -8.452  0.4184E-03 -0.6688E-04  0.9821E-03  0.9947E-03
     -8.406  0.1238E-02 -0.1278E-03  0.1040E-02  0.9888E-03
     -8.360  0.2306E-02 -0.1995E-03  0.1146E-02  0.9796E-03
     -8.313  0.3382E-02 -0.2300E-03  0.1303E-02  0.9689E-03
     -8.267  0.4210E-02 -0.1173E-03  0.1499E-02  0.9635E-03
     -8.220  0.4662E-02  0.2657E-03  0.1715E-02  0.9758E-03
     -8.174  0.4801E-02  0.9954E-03  0.1938E-02  0.1022E-02
     -8.128  0.4786E-02  0.2005E-02  0.2160E-02  0.1115E-02
     -8.081  0.4740E-02  0.3056E-02  0.2380E-02  0.1257E-02
     -8.035  0.4698E-02  0.3842E-02  0.2597E-02  0.1435E-02
     -7.989  0.4661E-02  0.4182E-02  0.2814E-02  0.1629E-02
     -7.942  0.4643E-02  0.4148E-02  0.3029E-02  0.1821E-02
     -7.896  0.4616E-02  0.4000E-02  0.3243E-02  0.2007E-02
     -7.849  0.4460E-02  0.3960E-02  0.3450E-02  0.2191E-02
     -7.803  0.3999E-02  0.4013E-02  0.3636E-02  0.2377E-02
     -7.757  0.3173E-02  0.3949E-02  0.3783E-02  0.2560E-02
     -7.710  0.2168E-02  0.3595E-02  0.3883E-02  0.2727E-02
     -7.664  0.1381E-02  0.3030E-02  0.3947E-02  0.2867E-02
     -7.617  0.1229E-02  0.2577E-02  0.4004E-02  0.2987E-02
     -7.571  0.1929E-02  0.2554E-02  0.4094E-02  0.3105E-02
     -7.525  0.3415E-02  0.3001E-02  0.4252E-02  0.3245E-02
     -7.478  0.5409E-02  0.3613E-02  0.4503E-02  0.3412E-02
     -7.432  0.7587E-02  0.3931E-02  0.4855E-02  0.3595E-02
     -7.385  0.9753E-02  0.3643E-02  0.5308E-02  0.3764E-02
     -7.339  0.1192E-01  0.2768E-02  0.5860E-02  0.3892E-02
     -7.293  0.1421E-01  0.1618E-02  0.6520E-02  0.3967E-02
     -7.246  0.1671E-01  0.6105E-03  0.7295E-02  0.3995E-02
     -7.200  0.1920E-01  0.7723E-04  0.8185E-02  0.3999E-02
     -7.154  0.2123E-01  0.1717E-03  0.9170E-02  0.4007E-02
     -7.107  0.2230E-01  0.8486E-03  0.1020E-01  0.4046E-02
     -7.061  0.2216E-01  0.1876E-02  0.1123E-01  0.4133E-02
     -7.014  0.2087E-01  0.2892E-02  0.1220E-01  0.4267E-02
     -6.968  0.1865E-01  0.3552E-02  0.1307E-01  0.4432E-02
     -6.922  0.1571E-01  0.3730E-02  0.1380E-01  0.4605E-02
     -6.875  0.1232E-01  0.3651E-02  0.1437E-01  0.4775E-02
     -6.829  0.8938E-02  0.3813E-02  0.1478E-01  0.4951E-02
     -6.782  0.6129E-02  0.4712E-02  0.1507E-01  0.5170E-02
     -6.736  0.4309E-02  0.6547E-02  0.1527E-01  0.5474E-02
     -6.690  0.3457E-02  0.9088E-02  0.1543E-01  0.5895E-02
     -6.643  0.3163E-02  0.1176E-01  0.1557E-01  0.6441E-02
     -6.597  0.2963E-02  0.1390E-01  0.1571E-01  0.7086E-02
     -6.550  0.2692E-02  0.1496E-01  0.1584E-01  0.7780E-02
     -6.504  0.2554E-02  0.1481E-01  0.1595E-01  0.8467E-02
     -6.458  0.2914E-02  0.1374E-01  0.1609E-01  0.9104E-02
     -6.411  0.3997E-02  0.1244E-01  0.1627E-01  0.9681E-02
     -6.365  0.5741E-02  0.1172E-01  0.1654E-01  0.1022E-01
     -6.319  0.7841E-02  0.1210E-01  0.1690E-01  0.1079E-01
     -6.272  0.9907E-02  0.1355E-01  0.1736E-01  0.1141E-01
     -6.226  0.1162E-01  0.1542E-01  0.1790E-01  0.1213E-01
     -6.179  0.1287E-01  0.1676E-01  0.1850E-01  0.1291E-01
     -6.133  0.1377E-01  0.1679E-01  0.1914E-01  0.1369E-01
     -6.087  0.1465E-01  0.1528E-01  0.1982E-01  0.1439E-01
     -6.040  0.1586E-01  0.1256E-01  0.2055E-01  0.1498E-01
     -5.994  0.1754E-01  0.9321E-02  0.2137E-01  0.1541E-01
     -5.947  0.1941E-01  0.6251E-02  0.2227E-01  0.1570E-01
     -5.901  0.2080E-01  0.3869E-02  0.2323E-01  0.1588E-01
     -5.855  0.2102E-01  0.2478E-02  0.2421E-01  0.1599E-01
     -5.808  0.1978E-01  0.2194E-02  0.2513E-01  0.1610E-01
     -5.762  0.1732E-01  0.2948E-02  0.2593E-01  0.1623E-01
     -5.715  0.1434E-01  0.4474E-02  0.2659E-01  0.1644E-01
     -5.669  0.1165E-01  0.6339E-02  0.2713E-01  0.1673E-01
     -5.623  0.9918E-02  0.8033E-02  0.2759E-01  0.1711E-01
     -5.576  0.9500E-02  0.9120E-02  0.2804E-01  0.1753E-01
     -5.530  0.1035E-01  0.9421E-02  0.2852E-01  0.1797E-01
     -5.484  0.1196E-01  0.9151E-02  0.2907E-01  0.1839E-01
     -5.437  0.1352E-01  0.8853E-02  0.2970E-01  0.1880E-01
     -5.391  0.1441E-01  0.9126E-02  0.3037E-01  0.1923E-01
     -5.344  0.1463E-01  0.1030E-01  0.3104E-01  0.1970E-01
     -5.298  0.1484E-01  0.1231E-01  0.3173E-01  0.2027E-01
     -5.252  0.1589E-01  0.1486E-01  0.3247E-01  0.2096E-01
     -5.205  0.1814E-01  0.1756E-01  0.3331E-01  0.2178E-01
     -5.159  0.2119E-01  0.1999E-01  0.3430E-01  0.2270E-01
     -5.112  0.2414E-01  0.2164E-01  0.3542E-01  0.2371E-01
     -5.066  0.2633E-01  0.2205E-01  0.3664E-01  0.2473E-01
     -5.020  0.2777E-01  0.2113E-01  0.3792E-01  0.2571E-01
     -4.973  0.2906E-01  0.1930E-01  0.3927E-01  0.2661E-01
     -4.927  0.3088E-01  0.1733E-01  0.4071E-01  0.2741E-01
     -4.881  0.3346E-01  0.1584E-01  0.4226E-01  0.2815E-01
     -4.834  0.3634E-01  0.1491E-01  0.4394E-01  0.2884E-01
     -4.788  0.3860E-01  0.1425E-01  0.4573E-01  0.2950E-01
     -4.741  0.3925E-01  0.1351E-01  0.4756E-01  0.3013E-01
     -4.695  0.3763E-01  0.1262E-01  0.4930E-01  0.3071E-01
     -4.649  0.3362E-01  0.1177E-01  0.5086E-01  0.3126E-01
     -4.602  0.2763E-01  0.1132E-01  0.5214E-01  0.3178E-01
     -4.556  0.2054E-01  0.1158E-01  0.5310E-01  0.3232E-01
     -4.509  0.1342E-01  0.1276E-01  0.5372E-01  0.3291E-01
     -4.463  0.7293E-02  0.1491E-01  0.5406E-01  0.3360E-01
     -4.417  0.2821E-02  0.1786E-01  0.5419E-01  0.3443E-01
     -4.370  0.1596E-03  0.2109E-01  0.5419E-01  0.3541E-01
     -4.324 -0.9942E-03  0.2391E-01  0.5415E-01  0.3652E-01
     -4.277 -0.1179E-02  0.2573E-01  0.5409E-01  0.3771E-01
     -4.231 -0.9205E-03  0.2622E-01  0.5405E-01  0.3893E-01
     -4.185 -0.5730E-03  0.2542E-01  0.5402E-01  0.4011E-01
     -4.138 -0.3010E-03  0.2371E-01  0.5401E-01  0.4121E-01
     -4.092 -0.1366E-03  0.2167E-01  0.5400E-01  0.4221E-01
     -4.046 -0.5437E-04  0.2007E-01  0.5400E-01  0.4314E-01
     -3.999 -0.1941E-04  0.1962E-01  0.5400E-01  0.4405E-01
     -3.953 -0.7422E-05  0.2067E-01  0.5400E-01  0.4501E-01
     -3.906 -0.6659E-05  0.2295E-01  0.5400E-01  0.4608E-01
     -3.860 -0.1495E-04  0.2562E-01  0.5400E-01  0.4727E-01
     -3.814 -0.3671E-04  0.2757E-01  0.5400E-01  0.4854E-01
     -3.767 -0.7937E-04  0.2794E-01  0.5399E-01  0.4984E-01
     -3.721 -0.1447E-03  0.2633E-01  0.5399E-01  0.5106E-01
     -3.674 -0.2112E-03  0.2287E-01  0.5398E-01  0.5212E-01
     -3.628 -0.2127E-03  0.1811E-01  0.5397E-01  0.5296E-01
     -3.582 -0.3227E-04  0.1283E-01  0.5397E-01  0.5356E-01
     -3.535  0.4603E-03  0.7823E-02  0.5399E-01  0.5392E-01
     -3.489  0.1319E-02  0.3765E-02  0.5405E-01  0.5410E-01
     -3.442  0.2422E-02  0.9923E-03  0.5416E-01  0.5414E-01
     -3.396  0.3452E-02 -0.5265E-03  0.5432E-01  0.5412E-01
     -3.350  0.4010E-02 -0.1083E-02  0.5451E-01  0.5407E-01
     -3.303  0.3830E-02 -0.1024E-02  0.5468E-01  0.5402E-01
     -3.257  0.2952E-02 -0.5761E-03  0.5482E-01  0.5399E-01
     -3.211  0.1745E-02  0.1781E-03  0.5490E-01  0.5400E-01
     -3.164  0.7723E-03  0.1196E-02  0.5494E-01  0.5406E-01
     -3.118  0.5818E-03  0.2328E-02  0.5497E-01  0.5416E-01
     -3.071  0.1523E-02  0.3274E-02  0.5504E-01  0.5432E-01
     -3.025  0.3606E-02  0.3717E-02  0.5520E-01  0.5449E-01
     -2.979  0.6427E-02  0.3559E-02  0.5550E-01  0.5465E-01
     -2.932  0.9208E-02  0.3080E-02  0.5593E-01  0.5480E-01
     -2.886  0.1103E-01  0.2859E-02  0.5644E-01  0.5493E-01
     -2.839  0.1124E-01  0.3475E-02  0.5696E-01  0.5509E-01
     -2.793  0.9743E-02  0.5137E-02  0.5741E-01  0.5533E-01
     -2.747  0.7158E-02  0.7489E-02  0.5775E-01  0.5568E-01
     -2.700  0.4477E-02  0.9717E-02  0.5795E-01  0.5613E-01
     -2.654  0.2600E-02  0.1092E-01  0.5807E-01  0.5663E-01
     -2.607  0.1932E-02  0.1055E-01  0.5816E-01  0.5712E-01
     -2.561  0.2286E-02  0.8717E-02  0.5827E-01  0.5753E-01
     -2.515  0.3108E-02  0.6118E-02  0.5841E-01  0.5781E-01
     -2.468  0.3860E-02  0.3708E-02  0.5859E-01  0.5798E-01
     -2.422  0.4298E-02  0.2243E-02  0.5879E-01  0.5809E-01
     -2.376  0.4481E-02  0.1966E-02  0.5900E-01  0.5818E-01
     -2.329  0.4559E-02  0.2610E-02  0.5921E-01  0.5830E-01
     -2.283  0.4552E-02  0.3641E-02  0.5942E-01  0.5847E-01
     -2.236  0.4316E-02  0.4582E-02  0.5962E-01  0.5868E-01
     -2.190  0.3705E-02  0.5187E-02  0.5979E-01  0.5892E-01
     -2.144  0.2745E-02  0.5410E-02  0.5992E-01  0.5917E-01
     -2.097  0.1657E-02  0.5260E-02  0.6000E-01  0.5942E-01
     -2.051  0.7186E-03  0.4727E-02  0.6003E-01  0.5964E-01
     -2.004  0.1027E-03  0.3825E-02  0.6004E-01  0.5981E-01
     -1.958 -0.1808E-03  0.2679E-02  0.6003E-01  0.5994E-01
     -1.912 -0.2339E-03  0.1526E-02  0.6002E-01  0.6001E-01
     -1.865 -0.1811E-03  0.6025E-03  0.6001E-01  0.6004E-01
     -1.819 -0.1092E-03  0.3112E-04  0.6000E-01  0.6004E-01
     -1.772 -0.5716E-04 -0.2122E-03  0.6000E-01  0.6003E-01
     -1.726 -0.3306E-04 -0.2420E-03  0.6000E-01  0.6002E-01
     -1.680 -0.3545E-04 -0.1813E-03  0.6000E-01  0.6001E-01
     -1.633 -0.6453E-04 -0.1128E-03  0.6000E-01  0.6000E-01
     -1.587 -0.1208E-03 -0.7398E-04  0.5999E-01  0.6000E-01
     -1.541 -0.1912E-03 -0.7552E-04  0.5998E-01  0.6000E-01
     -1.494 -0.2259E-03 -0.1163E-03  0.5997E-01  0.5999E-01
     -1.448 -0.1237E-03 -0.1818E-03  0.5996E-01  0.5998E-01
     -1.401  0.2494E-03 -0.2269E-03  0.5998E-01  0.5997E-01
     -1.355  0.9873E-03 -0.1570E-03  0.6002E-01  0.5996E-01
     -1.309  0.2041E-02  0.1606E-03  0.6012E-01  0.5997E-01
     -1.262  0.3161E-02  0.8336E-03  0.6026E-01  0.6001E-01
     -1.216  0.3964E-02  0.1843E-02  0.6045E-01  0.6010E-01
     -1.169  0.4120E-02  0.2973E-02  0.6064E-01  0.6023E-01
     -1.123  0.3538E-02  0.3849E-02  0.6080E-01  0.6041E-01
     -1.077  0.2431E-02  0.4116E-02  0.6092E-01  0.6060E-01
     -1.030  0.1206E-02  0.3639E-02  0.6097E-01  0.6077E-01
     -0.984  0.2842E-03  0.2599E-02  0.6098E-01  0.6089E-01
     -0.938 -0.3044E-04  0.1415E-02  0.6098E-01  0.6096E-01
     -0.891  0.4011E-03  0.5500E-03  0.6100E-01  0.6098E-01
     -0.845  0.1548E-02  0.3337E-03  0.6107E-01  0.6100E-01
     -0.798  0.3194E-02  0.8685E-03  0.6122E-01  0.6104E-01
     -0.752  0.4947E-02  0.2025E-02  0.6145E-01  0.6113E-01
     -0.706  0.6321E-02  0.3497E-02  0.6174E-01  0.6130E-01
     -0.659  0.6929E-02  0.4906E-02  0.6207E-01  0.6152E-01
     -0.613  0.6684E-02  0.5927E-02  0.6238E-01  0.6180E-01
     -0.566  0.5881E-02  0.6406E-02  0.6265E-01  0.6210E-01
     -0.520  0.5081E-02  0.6397E-02  0.6288E-01  0.6239E-01
     -0.474  0.4815E-02  0.6129E-02  0.6311E-01  0.6268E-01
     -0.427  0.5285E-02  0.5883E-02  0.6335E-01  0.6295E-01
     -0.381  0.6266E-02  0.5864E-02  0.6364E-01  0.6322E-01
     -0.334  0.7267E-02  0.6102E-02  0.6398E-01  0.6350E-01
     -0.288  0.7847E-02  0.6461E-02  0.6434E-01  0.6380E-01
     -0.242  0.7836E-02  0.6744E-02  0.6471E-01  0.6412E-01
     -0.195  0.7323E-02  0.6823E-02  0.6505E-01  0.6443E-01
     -0.149  0.6484E-02  0.6686E-02  0.6535E-01  0.6474E-01
     -0.103  0.5432E-02  0.6384E-02  0.6560E-01  0.6504E-01
     -0.056  0.4214E-02  0.5927E-02  0.6580E-01  0.6532E-01
     -0.010  0.2908E-02  0.5257E-02  0.6593E-01  0.6556E-01
      0.037  0.1670E-02  0.4313E-02  0.6601E-01  0.6576E-01
      0.083  0.6857E-03  0.3139E-02  0.6604E-01  0.6590E-01
      0.129  0.6156E-04  0.1916E-02  0.6604E-01  0.6599E-01
      0.176 -0.2200E-03  0.8740E-03  0.6603E-01  0.6603E-01
      0.222 -0.2674E-03  0.1713E-03  0.6602E-01  0.6604E-01
      0.269 -0.2060E-03 -0.1756E-03  0.6601E-01  0.6603E-01
      0.315 -0.1245E-03 -0.2618E-03  0.6600E-01  0.6602E-01
      0.361 -0.6280E-04 -0.2156E-03  0.6600E-01  0.6601E-01
      0.408 -0.2713E-04 -0.1356E-03  0.6600E-01  0.6601E-01
      0.454 -0.1018E-04 -0.7050E-04  0.6600E-01  0.6600E-01
      0.501 -0.3350E-05 -0.3125E-04  0.6600E-01  0.6600E-01
      0.547 -0.9709E-06 -0.1200E-04  0.6600E-01  0.6600E-01
      0.593 -0.2489E-06 -0.4034E-05  0.6600E-01  0.6600E-01
      0.640 -0.5660E-07 -0.1193E-05  0.6600E-01  0.6600E-01
      0.686 -0.1144E-07 -0.3120E-06  0.6600E-01  0.6600E-01
      0.732 -0.2058E-08 -0.7233E-07  0.6600E-01  0.6600E-01
      0.779 -0.3300E-09 -0.1490E-07  0.6600E-01  0.6600E-01
      0.825 -0.4723E-10 -0.2731E-08  0.6600E-01  0.6600E-01
      0.872 -0.6035E-11 -0.4461E-09  0.6600E-01  0.6600E-01
      0.918 -0.6892E-12 -0.6502E-10  0.6600E-01  0.6600E-01
      0.964 -0.7037E-13 -0.8461E-11  0.6600E-01  0.6600E-01
      1.011 -0.6428E-14 -0.9837E-12  0.6600E-01  0.6600E-01
      1.057 -0.5217E-15 -0.1023E-12  0.6600E-01  0.6600E-01
      1.104 -0.3829E-16 -0.9511E-14  0.6600E-01  0.6600E-01
      1.150 -0.4787E-17 -0.7898E-15  0.6600E-01  0.6600E-01
      1.196  0.0000E+00 -0.5744E-16  0.6600E-01  0.6600E-01
      1.243  0.0000E+00 -0.4787E-17  0.6600E-01  0.6600E-01
      1.289  0.0000E+00  0.0000E+00  0.6600E-01  0.6600E-01
      1.336  0.0000E+00  0.0000E+00  0.6600E-01  0.6600E-01
      1.382  0.0000E+00  0.0000E+00  0.6600E-01  0.6600E-01
      1.428  0.0000E+00  0.0000E+00  0.6600E-01  0.6600E-01
      1.475  0.0000E+00  0.0000E+00  0.6600E-01  0.6600E-01
      1.521  0.0000E+00  0.0000E+00  0.6600E-01  0.6600E-01
      1.567  0.0000E+00  0.0000E+00  0.6600E-01  0.6600E-01
      1.614  0.0000E+00  0.0000E+00  0.6600E-01  0.6600E-01
      1.660  0.0000E+00  0.0000E+00  0.6600E-01  0.6600E-01
      1.707  0.0000E+00  0.0000E+00  0.6600E-01  0.6600E-01
      1.753  0.0000E+00  0.0000E+00  0.6600E-01  0.6600E-01
      1.799  0.0000E+00  0.0000E+00  0.6600E-01  0.6600E-01
      1.846  0.0000E+00  0.0000E+00  0.6600E-01  0.6600E-01
      1.892  0.0000E+00  0.0000E+00  0.6600E-01  0.6600E-01
      1.939  0.0000E+00  0.0000E+00  0.6600E-01  0.6600E-01
      1.985  0.0000E+00  0.0000E+00  0.6600E-01  0.6600E-01
