   10   10 1000    2
  0.1185542E+04  0.2159997E-08  0.2371835E-08  0.2314084E-08  0.5000000E-15
   1.0000000000000000E-004
  CAR 
 unknown system                          
    100      1     66
 
  0.1262379E-14  0.1262379E-14  0.1262379E-14  0.1000000E+01
    1       -9.928239     -9.931513   1.000000   1.000000
    2       -8.274647     -8.027591   1.000000   1.000000
    3       -8.055940     -7.769103   1.000000   1.000000
    4       -7.833013     -7.450303   1.000000   1.000000
    5       -7.479688     -6.966877   1.000000   1.000000
    6       -7.349250     -6.715833   1.000000   1.000000
    7       -7.324757     -6.615488   1.000000   1.000000
    8       -7.198544     -6.586017   1.000000   1.000000
    9       -7.167418     -6.485297   1.000000   1.000000
   10       -7.129590     -6.478299   1.000000   1.000000
   11       -7.122398     -6.323387   1.000000   1.000000
   12       -7.075502     -6.245569   1.000000   1.000000
   13       -6.958043     -6.176440   1.000000   1.000000
   14       -6.948773     -6.148669   1.000000   1.000000
   15       -6.908875     -6.124347   1.000000   1.000000
   16       -6.648821     -5.980880   1.000000   1.000000
   17       -6.366709     -5.696731   1.000000   1.000000
   18       -6.239651     -5.549943   1.000000   1.000000
   19       -6.202112     -5.528628   1.000000   1.000000
   20       -6.107330     -5.313920   1.000000   1.000000
   21       -6.047208     -5.302277   1.000000   1.000000
   22       -5.978671     -5.235363   1.000000   1.000000
   23       -5.894224     -5.122090   1.000000   1.000000
   24       -5.870549     -5.102725   1.000000   1.000000
   25       -5.858382     -5.088592   1.000000   1.000000
   26       -5.849382     -5.061150   1.000000   1.000000
   27       -5.689497     -5.015756   1.000000   1.000000
   28       -5.676628     -4.888196   1.000000   1.000000
   29       -5.475510     -4.864662   1.000000   1.000000
   30       -5.458831     -4.761247   1.000000   1.000000
   31       -5.387912     -4.759319   1.000000   1.000000
   32       -5.362604     -4.594210   1.000000   1.000007
   33       -5.226835     -4.579541   1.000000   1.000012
   34       -5.152189     -4.436679   1.000000   1.000618
   35       -5.133864     -4.415424   1.000000   1.001014
   36       -5.115980     -4.341424   1.000000   1.004619
   37       -5.115179     -4.318155   1.000000   1.006938
   38       -5.027092     -4.285430   1.000000   1.011570
   39       -5.017356     -4.283293   1.000000   1.011931
   40       -4.969886     -4.186829   1.000000   1.032256
   41       -4.914583     -4.182022   1.000000   1.033053
   42       -4.897851     -4.124978   1.000000   1.031395
   43       -4.849599     -4.104819   1.000000   1.022501
   44       -4.844614     -4.046171   1.000000   0.953857
   45       -4.817777     -3.945935   1.000000   0.651213
   46       -4.788516     -3.900396   1.000000   0.461354
   47       -4.760846     -3.893156   1.000000   0.430932
   48       -4.738166     -3.843799   1.000000   0.237790
   49       -4.716128     -3.802003   1.000000   0.109912
   50       -4.706731     -3.783487   1.000000   0.066869
   51       -4.674355     -3.758749   1.000000   0.022690
   52       -4.615857     -3.711010   1.000004  -0.024347
   53       -4.605632     -3.646248   1.000005  -0.034317
   54       -4.567738     -3.628556   1.000017  -0.031591
   55       -3.353641     -3.033780  -0.000304  -0.000000
   56       -2.946892     -2.736333  -0.000000  -0.000000
   57       -2.855205     -2.650320  -0.000000  -0.000000
   58       -2.844403     -2.612891  -0.000000  -0.000000
   59       -2.491951     -2.273402  -0.000000  -0.000000
   60       -2.257144     -2.075248  -0.000000  -0.000000
   61       -1.203712     -1.102980  -0.000000  -0.000000
   62       -0.731357     -0.661901  -0.000000  -0.000000
   63       -0.616570     -0.513622  -0.000000  -0.000000
   64       -0.377582     -0.325828  -0.000000  -0.000000
   65       -0.284331     -0.189971  -0.000000  -0.000000
   66       -0.115267     -0.015043  -0.000000  -0.000000
