       N       E                     dE             d eps       ncg     rms          rms(c)
DAV:   1     0.614558449061E+03    0.61456E+03   -0.16363E+04   272   0.695E+02
DAV:   2     0.107266277408E+03   -0.50729E+03   -0.46743E+03   448   0.139E+02
DAV:   3    -0.285334369018E+02   -0.13580E+03   -0.12581E+03   312   0.133E+02
DAV:   4    -0.414070766731E+02   -0.12874E+02   -0.11847E+02   296   0.543E+01
DAV:   5    -0.417061552646E+02   -0.29908E+00   -0.29610E+00   318   0.682E+00    0.192E+01
DAV:   6    -0.441076108297E+02   -0.24015E+01   -0.50659E+01   300   0.958E+01    0.430E+01
DAV:   7    -0.403409991596E+02    0.37666E+01   -0.41281E+01   286   0.992E+01    0.322E+01
DAV:   8    -0.406477986406E+02   -0.30680E+00   -0.29585E+01   286   0.799E+01    0.409E+01
DAV:   9    -0.387259191672E+02    0.19219E+01   -0.18836E+01   334   0.513E+01    0.379E+01
DAV:  10    -0.359989247121E+02    0.27270E+01   -0.10548E+01   366   0.392E+01    0.173E+01
DAV:  11    -0.363842743054E+02   -0.38535E+00   -0.79536E+00   360   0.469E+01    0.249E+01
DAV:  12    -0.359254248922E+02    0.45885E+00   -0.84753E+00   308   0.393E+01    0.252E+01
DAV:  13    -0.349544208386E+02    0.97100E+00   -0.33054E+00   334   0.236E+01    0.174E+01
DAV:  14    -0.347317777734E+02    0.22264E+00   -0.11008E+00   348   0.143E+01    0.121E+01
DAV:  15    -0.345799578233E+02    0.15182E+00   -0.59234E-01   336   0.109E+01    0.674E+00
DAV:  16    -0.346040054135E+02   -0.24048E-01   -0.46965E-01   360   0.118E+01    0.733E+00
DAV:  17    -0.346048796492E+02   -0.87424E-03   -0.57366E-01   312   0.110E+01    0.847E+00
DAV:  18    -0.344882068231E+02    0.11667E+00   -0.22017E-01   278   0.741E+00    0.366E+00
DAV:  19    -0.346019654191E+02   -0.11376E+00   -0.18697E-01   376   0.671E+00    0.490E+00
DAV:  20    -0.346089085058E+02   -0.69431E-02   -0.13084E-01   280   0.684E+00    0.284E+00
DAV:  21    -0.347911821467E+02   -0.18227E+00   -0.10254E-01   360   0.397E+00    0.166E+00
DAV:  22    -0.350090496236E+02   -0.21787E+00   -0.79768E-02   304   0.356E+00    0.190E+00
DAV:  23    -0.351652561579E+02   -0.15621E+00   -0.32276E-02   268   0.225E+00    0.158E+00
DAV:  24    -0.353035318990E+02   -0.13828E+00   -0.17935E-02   312   0.162E+00    0.743E-01
DAV:  25    -0.354650698057E+02   -0.16154E+00   -0.16925E-02   292   0.110E+00    0.395E-01
DAV:  26    -0.355852610955E+02   -0.12019E+00   -0.84422E-03   282   0.671E-01    0.418E-01
DAV:  27    -0.356985177104E+02   -0.11326E+00   -0.63658E-03   304   0.620E-01    0.233E-01
DAV:  28    -0.358054097344E+02   -0.10689E+00   -0.61439E-03   274   0.369E-01    0.216E-01
DAV:  29    -0.358831368346E+02   -0.77727E-01   -0.35425E-03   292   0.316E-01    0.188E-01
DAV:  30    -0.359474897530E+02   -0.64353E-01   -0.19619E-03   284   0.225E-01    0.936E-02
DAV:  31    -0.360023146806E+02   -0.54825E-01   -0.18124E-03   282   0.177E-01    0.960E-02
DAV:  32    -0.360340500041E+02   -0.31735E-01   -0.83888E-04   272   0.169E-01    0.648E-02
DAV:  33    -0.360554366318E+02   -0.21387E-01   -0.52142E-04   252   0.109E-01    0.655E-02
DAV:  34    -0.360715669162E+02   -0.16130E-01   -0.33240E-04   212   0.108E-01    0.356E-02
DAV:  35    -0.360789674844E+02   -0.74006E-02   -0.11025E-04   200   0.624E-02    0.208E-02
DAV:  36    -0.360851408528E+02   -0.61734E-02   -0.12758E-04   196   0.391E-02    0.179E-02
DAV:  37    -0.360893409371E+02   -0.42001E-02   -0.67739E-05   184   0.399E-02    0.247E-02
DAV:  38    -0.360916176446E+02   -0.22767E-02   -0.61393E-05   192   0.413E-02    0.127E-02
DAV:  39    -0.360926914915E+02   -0.10738E-02   -0.29782E-05   176   0.258E-02    0.102E-02
DAV:  40    -0.360937658680E+02   -0.10744E-02   -0.33831E-05   176   0.173E-02    0.864E-03
DAV:  41    -0.360944123220E+02   -0.64645E-03   -0.22067E-05   184   0.178E-02    0.863E-03
DAV:  42    -0.360948040400E+02   -0.39172E-03   -0.15199E-05   174   0.143E-02    0.520E-03
DAV:  43    -0.360950330049E+02   -0.22896E-03   -0.10161E-05   184   0.934E-03    0.535E-03
DAV:  44    -0.360952371995E+02   -0.20419E-03   -0.80340E-06   180   0.105E-02    0.314E-03
DAV:  45    -0.360953264497E+02   -0.89250E-04   -0.35282E-06   168   0.792E-03
   1 F= -.36095326E+02 E0= -.36085041E+02  d E =-.360953E+02  mag=     7.9332
       N       E                     dE             d eps       ncg     rms          rms(c)
DAV:   1    -0.362925885560E+02   -0.19735E+00   -0.99588E+01   264   0.391E+01    0.388E+00
DAV:   2    -0.379080871261E+02   -0.16155E+01   -0.51464E+00   350   0.379E+01    0.241E+01
DAV:   3    -0.364142513905E+02    0.14938E+01   -0.36225E+00   292   0.303E+01    0.915E+00
DAV:   4    -0.364014393571E+02    0.12812E-01   -0.12411E+00   366   0.164E+01    0.591E+00
DAV:   5    -0.365005466712E+02   -0.99107E-01   -0.62827E-01   326   0.115E+01    0.786E+00
DAV:   6    -0.363996193710E+02    0.10093E+00   -0.37171E-01   284   0.854E+00    0.213E+00
DAV:   7    -0.364291453443E+02   -0.29526E-01   -0.13893E-01   334   0.492E+00    0.355E+00
DAV:   8    -0.364152580468E+02    0.13887E-01   -0.66248E-02   320   0.414E+00    0.194E+00
DAV:   9    -0.364225926118E+02   -0.73346E-02   -0.40721E-02   294   0.391E+00    0.223E+00
DAV:  10    -0.364265519529E+02   -0.39593E-02   -0.55162E-02   334   0.406E+00    0.254E+00
DAV:  11    -0.364156526056E+02    0.10899E-01   -0.42439E-02   326   0.344E+00    0.139E+00
DAV:  12    -0.364221196942E+02   -0.64671E-02   -0.19092E-02   374   0.229E+00    0.155E+00
DAV:  13    -0.364180791839E+02    0.40405E-02   -0.12200E-02   304   0.206E+00    0.613E-01
DAV:  14    -0.364204269058E+02   -0.23477E-02   -0.50282E-03   380   0.116E+00    0.619E-01
DAV:  15    -0.364198951484E+02    0.53176E-03   -0.23764E-03   288   0.982E-01    0.227E-01
DAV:  16    -0.364206840932E+02   -0.78894E-03   -0.89036E-04   274   0.431E-01    0.178E-01
DAV:  17    -0.364208290923E+02   -0.14500E-03   -0.29403E-04   192   0.338E-01    0.186E-01
DAV:  18    -0.364209651869E+02   -0.13609E-03   -0.22827E-04   190   0.291E-01    0.905E-02
DAV:  19    -0.364212493492E+02   -0.28416E-03   -0.86339E-05   192   0.147E-01    0.366E-02
DAV:  20    -0.364214251902E+02   -0.17584E-03   -0.37648E-05   176   0.595E-02    0.190E-02
DAV:  21    -0.364215423147E+02   -0.11712E-03   -0.15977E-05   176   0.379E-02    0.125E-02
DAV:  22    -0.364216544920E+02   -0.11218E-03   -0.75390E-06   176   0.228E-02    0.841E-03
DAV:  23    -0.364217467610E+02   -0.92269E-04   -0.37188E-06   168   0.138E-02
   2 F= -.36421747E+02 E0= -.36413085E+02  d E =-.326420E+00  mag=     7.9315
       N       E                     dE             d eps       ncg     rms          rms(c)
DAV:   1    -0.364329878424E+02   -0.11333E-01   -0.35050E+01   264   0.229E+01    0.228E+00
DAV:   2    -0.369804690609E+02   -0.54748E+00   -0.18466E+00   368   0.221E+01    0.148E+01
DAV:   3    -0.364176413395E+02    0.56283E+00   -0.15110E+00   292   0.192E+01    0.425E+00
DAV:   4    -0.364817000369E+02   -0.64059E-01   -0.45186E-01   390   0.914E+00    0.410E+00
DAV:   5    -0.364889549815E+02   -0.72549E-02   -0.19628E-01   334   0.635E+00    0.325E+00
DAV:   6    -0.364702016906E+02    0.18753E-01   -0.61793E-02   284   0.453E+00    0.858E-01
DAV:   7    -0.364860922036E+02   -0.15891E-01   -0.38569E-02   360   0.298E+00    0.238E+00
DAV:   8    -0.364757579835E+02    0.10334E-01   -0.31380E-02   310   0.317E+00    0.146E+00
DAV:   9    -0.364822595155E+02   -0.65015E-02   -0.22333E-02   334   0.284E+00    0.183E+00
DAV:  10    -0.364772320400E+02    0.50275E-02   -0.24053E-02   326   0.272E+00    0.140E+00
DAV:  11    -0.364758782019E+02    0.13538E-02   -0.12030E-02   352   0.194E+00    0.851E-01
DAV:  12    -0.364781005027E+02   -0.22223E-02   -0.69385E-03   350   0.135E+00    0.830E-01
DAV:  13    -0.364772988573E+02    0.80165E-03   -0.35919E-03   320   0.110E+00    0.306E-01
DAV:  14    -0.364778482611E+02   -0.54940E-03   -0.94413E-04   284   0.464E-01    0.129E-01
DAV:  15    -0.364781978924E+02   -0.34963E-03   -0.29301E-04   184   0.339E-01    0.149E-01
DAV:  16    -0.364782579640E+02   -0.60072E-04   -0.21416E-04   190   0.248E-01
   3 F= -.36478258E+02 E0= -.36470308E+02  d E =-.382932E+00  mag=     7.9333
       N       E                     dE             d eps       ncg     rms          rms(c)
DAV:   1    -0.364992706318E+02   -0.21073E-01   -0.92508E+00   264   0.117E+01    0.138E+00
DAV:   2    -0.367382888569E+02   -0.23902E+00   -0.71948E-01   302   0.156E+01    0.872E+00
DAV:   3    -0.364863087212E+02    0.25198E+00   -0.44522E-01   300   0.136E+01    0.257E+00
DAV:   4    -0.365036878156E+02   -0.17379E-01   -0.75149E-02   364   0.467E+00    0.191E+00
DAV:   5    -0.365135090434E+02   -0.98212E-02   -0.52965E-02   334   0.368E+00    0.189E+00
DAV:   6    -0.365059169513E+02    0.75921E-02   -0.21560E-02   300   0.270E+00    0.363E-01
DAV:   7    -0.365101938651E+02   -0.42769E-02   -0.10564E-02   358   0.139E+00    0.935E-01
DAV:   8    -0.365091262546E+02    0.10676E-02   -0.85308E-03   316   0.123E+00    0.573E-01
DAV:   9    -0.365093040021E+02   -0.17775E-03   -0.21007E-03   308   0.913E-01    0.462E-01
DAV:  10    -0.365095882212E+02   -0.28422E-03   -0.24139E-03   300   0.883E-01    0.387E-01
DAV:  11    -0.365095957043E+02   -0.74831E-05   -0.14043E-03   304   0.605E-01    0.293E-01
DAV:  12    -0.365098330273E+02   -0.23732E-03   -0.73404E-04   228   0.477E-01    0.256E-01
DAV:  13    -0.365097995881E+02    0.33439E-04   -0.37634E-04   174   0.363E-01
   4 F= -.36509800E+02 E0= -.36503285E+02  d E =-.315416E-01  mag=     7.9367
       N       E                     dE             d eps       ncg     rms          rms(c)
DAV:   1    -0.364407762159E+02    0.69057E-01   -0.84201E+01   264   0.360E+01    0.419E+00
DAV:   2    -0.381482465856E+02   -0.17075E+01   -0.61813E+00   302   0.471E+01    0.182E+01
DAV:   3    -0.366044007959E+02    0.15438E+01   -0.31316E+00   300   0.379E+01    0.853E+00
DAV:   4    -0.365234582909E+02    0.80943E-01   -0.83800E-01   356   0.146E+01    0.441E+00
DAV:   5    -0.366327743037E+02   -0.10932E+00   -0.53370E-01   334   0.112E+01    0.686E+00
DAV:   6    -0.365226670716E+02    0.11011E+00   -0.30573E-01   308   0.904E+00    0.145E+00
DAV:   7    -0.365545716898E+02   -0.31905E-01   -0.72882E-02   334   0.464E+00    0.239E+00
DAV:   8    -0.365459025469E+02    0.86691E-02   -0.61091E-02   308   0.376E+00    0.149E+00
DAV:   9    -0.365466131108E+02   -0.71056E-03   -0.26477E-02   310   0.272E+00    0.118E+00
DAV:  10    -0.365498661025E+02   -0.32530E-02   -0.18465E-02   308   0.238E+00    0.134E+00
DAV:  11    -0.365467418554E+02    0.31242E-02   -0.15340E-02   312   0.203E+00    0.889E-01
DAV:  12    -0.365509112057E+02   -0.41694E-02   -0.12583E-02   366   0.177E+00    0.121E+00
DAV:  13    -0.365480643429E+02    0.28469E-02   -0.65180E-03   316   0.156E+00    0.357E-01
DAV:  14    -0.365494545965E+02   -0.13903E-02   -0.23006E-03   366   0.809E-01    0.378E-01
DAV:  15    -0.365493961688E+02    0.58428E-04   -0.10921E-03   286   0.701E-01    0.190E-01
DAV:  16    -0.365498806302E+02   -0.48446E-03   -0.45797E-04   206   0.400E-01    0.146E-01
DAV:  17    -0.365500116337E+02   -0.13100E-03   -0.21098E-04   176   0.272E-01    0.117E-01
DAV:  18    -0.365503712026E+02   -0.35957E-03   -0.12663E-04   184   0.186E-01    0.470E-02
DAV:  19    -0.365507463908E+02   -0.37519E-03   -0.41810E-05   192   0.968E-02    0.285E-02
DAV:  20    -0.365511411352E+02   -0.39474E-03   -0.33103E-05   184   0.505E-02    0.122E-02
DAV:  21    -0.365514541350E+02   -0.31300E-03   -0.18937E-05   176   0.298E-02    0.125E-02
DAV:  22    -0.365517240689E+02   -0.26993E-03   -0.11124E-05   184   0.258E-02    0.670E-03
DAV:  23    -0.365519619027E+02   -0.23783E-03   -0.67439E-06   176   0.178E-02    0.568E-03
DAV:  24    -0.365521505568E+02   -0.18865E-03   -0.49293E-06   168   0.119E-02    0.453E-03
DAV:  25    -0.365524722031E+02   -0.32165E-03   -0.74427E-06   184   0.116E-02    0.459E-03
DAV:  26    -0.365527068009E+02   -0.23460E-03   -0.52622E-06   184   0.101E-02    0.216E-03
DAV:  27    -0.365528552206E+02   -0.14842E-03   -0.33091E-06   168   0.587E-03    0.219E-03
DAV:  28    -0.365530025550E+02   -0.14733E-03   -0.33676E-06   184   0.635E-03    0.236E-03
DAV:  29    -0.365530718284E+02   -0.69273E-04   -0.11933E-06   168   0.557E-03
   5 F= -.36553072E+02 E0= -.36548429E+02  d E =-.748139E-01  mag=     7.9600
       N       E                     dE             d eps       ncg     rms          rms(c)
DAV:   1    -0.365499845129E+02    0.30180E-02   -0.22078E+01   264   0.180E+01    0.209E+00
DAV:   2    -0.369446911665E+02   -0.39471E+00   -0.16021E+00   318   0.213E+01    0.107E+01
DAV:   3    -0.365295161587E+02    0.41518E+00   -0.64972E-01   302   0.193E+01    0.311E+00
DAV:   4    -0.365872423510E+02   -0.57726E-01   -0.25796E-01   404   0.739E+00    0.365E+00
DAV:   5    -0.365869001921E+02    0.34216E-03   -0.14222E-01   292   0.556E+00    0.276E+00
DAV:   6    -0.365720782587E+02    0.14822E-01   -0.52634E-02   294   0.389E+00    0.806E-01
DAV:   7    -0.365800759114E+02   -0.79977E-02   -0.16583E-02   384   0.221E+00    0.116E+00
DAV:   8    -0.365793491605E+02    0.72675E-03   -0.10130E-02   344   0.193E+00    0.819E-01
DAV:   9    -0.365797212551E+02   -0.37209E-03   -0.54535E-03   310   0.159E+00    0.858E-01
DAV:  10    -0.365785378242E+02    0.11834E-02   -0.81792E-03   302   0.159E+00    0.456E-01
DAV:  11    -0.365799085641E+02   -0.13707E-02   -0.30240E-03   368   0.931E-01    0.519E-01
DAV:  12    -0.365793366989E+02    0.57187E-03   -0.12848E-03   288   0.743E-01    0.176E-01
DAV:  13    -0.365798961860E+02   -0.55949E-03   -0.87791E-04   262   0.416E-01    0.292E-01
DAV:  14    -0.365797422120E+02    0.15397E-03   -0.65166E-04   192   0.377E-01    0.117E-01
DAV:  15    -0.365799103891E+02   -0.16818E-03   -0.18344E-04   170   0.215E-01    0.803E-02
DAV:  16    -0.365800478085E+02   -0.13742E-03   -0.96945E-05   182   0.166E-01    0.489E-02
DAV:  17    -0.365801406941E+02   -0.92886E-04   -0.45367E-05   176   0.113E-01
   6 F= -.36580141E+02 E0= -.36575993E+02  d E =-.270689E-01  mag=     7.9668
       N       E                     dE             d eps       ncg     rms          rms(c)
DAV:   1    -0.365368505587E+02    0.43197E-01   -0.38564E+01   264   0.240E+01    0.275E+00
DAV:   2    -0.371763503986E+02   -0.63950E+00   -0.26587E+00   326   0.278E+01    0.131E+01
DAV:   3    -0.365444229079E+02    0.63193E+00   -0.11136E+00   302   0.246E+01    0.487E+00
DAV:   4    -0.365921769766E+02   -0.47754E-01   -0.44746E-01   388   0.100E+01    0.400E+00
DAV:   5    -0.366170935626E+02   -0.24917E-01   -0.25314E-01   316   0.726E+00    0.418E+00
DAV:   6    -0.365767266285E+02    0.40367E-01   -0.12737E-01   292   0.561E+00    0.106E+00
DAV:   7    -0.365914670501E+02   -0.14740E-01   -0.30439E-02   390   0.285E+00    0.137E+00
DAV:   8    -0.365913011329E+02    0.16592E-03   -0.14531E-02   348   0.225E+00    0.983E-01
DAV:   9    -0.365918016510E+02   -0.50052E-03   -0.11322E-02   292   0.202E+00    0.994E-01
DAV:  10    -0.365937554672E+02   -0.19538E-02   -0.23590E-02   334   0.223E+00    0.139E+00
DAV:  11    -0.365903350886E+02    0.34204E-02   -0.11797E-02   316   0.170E+00    0.627E-01
DAV:  12    -0.365915297063E+02   -0.11946E-02   -0.32090E-03   318   0.956E-01    0.399E-01
DAV:  13    -0.365917985759E+02   -0.26887E-03   -0.12140E-03   286   0.679E-01    0.181E-01
DAV:  14    -0.365923161521E+02   -0.51758E-03   -0.36984E-04   196   0.297E-01    0.136E-01
DAV:  15    -0.365924092458E+02   -0.93094E-04   -0.26859E-04   176   0.294E-01
   7 F= -.36592409E+02 E0= -.36589280E+02  d E =-.393374E-01  mag=     7.9756
       N       E                     dE             d eps       ncg     rms          rms(c)
DAV:   1    -0.365990140529E+02   -0.66979E-02   -0.12145E+01   264   0.134E+01    0.162E+00
DAV:   2    -0.368608556918E+02   -0.26184E+00   -0.85410E-01   326   0.174E+01    0.977E+00
DAV:   3    -0.365740375911E+02    0.28682E+00   -0.62567E-01   284   0.154E+01    0.329E+00
DAV:   4    -0.366069298873E+02   -0.32892E-01   -0.17543E-01   372   0.605E+00    0.188E+00
DAV:   5    -0.366168314914E+02   -0.99016E-02   -0.53818E-02   340   0.331E+00    0.148E+00
DAV:   6    -0.366113323524E+02    0.54991E-02   -0.16881E-02   286   0.237E+00    0.378E-01
DAV:   7    -0.366157385353E+02   -0.44062E-02   -0.77528E-03   374   0.155E+00    0.966E-01
DAV:   8    -0.366144963199E+02    0.12422E-02   -0.66706E-03   308   0.143E+00    0.641E-01
DAV:   9    -0.366148416900E+02   -0.34537E-03   -0.42894E-03   332   0.109E+00    0.668E-01
DAV:  10    -0.366146209720E+02    0.22072E-03   -0.61949E-03   300   0.115E+00    0.549E-01
DAV:  11    -0.366147174312E+02   -0.96459E-04   -0.26080E-03   332   0.755E-01    0.285E-01
DAV:  12    -0.366152026296E+02   -0.48520E-03   -0.77632E-04   260   0.520E-01    0.250E-01
DAV:  13    -0.366151386431E+02    0.63987E-04   -0.41461E-04   184   0.410E-01
   8 F= -.36615139E+02 E0= -.36612455E+02  d E =-.227294E-01  mag=     7.9815
       N       E                     dE             d eps       ncg     rms          rms(c)
DAV:   1    -0.364863412513E+02    0.12886E+00   -0.11211E+02   264   0.419E+01    0.491E+00
DAV:   2    -0.385125868053E+02   -0.20262E+01   -0.85436E+00   326   0.523E+01    0.233E+01
DAV:   3    -0.368921342529E+02    0.16205E+01   -0.48719E+00   286   0.401E+01    0.142E+01
DAV:   4    -0.365625557929E+02    0.32958E+00   -0.17975E+00   364   0.194E+01    0.426E+00
DAV:   5    -0.367362199309E+02   -0.17366E+00   -0.84817E-01   374   0.140E+01    0.636E+00
DAV:   6    -0.366419780824E+02    0.94242E-01   -0.33934E-01   292   0.105E+01    0.275E+00
DAV:   7    -0.366477682060E+02   -0.57901E-02   -0.10544E-01   332   0.448E+00    0.186E+00
DAV:   8    -0.366586186685E+02   -0.10850E-01   -0.56236E-02   332   0.374E+00    0.185E+00
DAV:   9    -0.366541378130E+02    0.44809E-02   -0.37790E-02   296   0.352E+00    0.116E+00
DAV:  10    -0.366590662827E+02   -0.49285E-02   -0.40653E-02   340   0.289E+00    0.165E+00
DAV:  11    -0.366542590660E+02    0.48072E-02   -0.27825E-02   308   0.267E+00    0.917E-01
DAV:  12    -0.366593403850E+02   -0.50813E-02   -0.11925E-02   382   0.208E+00    0.116E+00
DAV:  13    -0.366559209966E+02    0.34194E-02   -0.63530E-03   302   0.168E+00    0.341E-01
DAV:  14    -0.366579966999E+02   -0.20757E-02   -0.31136E-03   414   0.993E-01    0.512E-01
DAV:  15    -0.366577648636E+02    0.23184E-03   -0.16134E-03   302   0.852E-01    0.238E-01
DAV:  16    -0.366582013323E+02   -0.43647E-03   -0.71200E-04   264   0.454E-01    0.976E-02
DAV:  17    -0.366585677509E+02   -0.36642E-03   -0.24117E-04   184   0.315E-01    0.161E-01
DAV:  18    -0.366586163524E+02   -0.48601E-04   -0.17229E-04   192   0.269E-01
   9 F= -.36658616E+02 E0= -.36658648E+02  d E =-.662071E-01  mag=     7.9910
       N       E                     dE             d eps       ncg     rms          rms(c)
DAV:   1    -0.357347583250E+02    0.92381E+00   -0.49130E+02   264   0.966E+01    0.108E+01
DAV:   2    -0.436544189586E+02   -0.79197E+01   -0.40369E+01   286   0.115E+02    0.390E+01
DAV:   3    -0.394067551450E+02    0.42477E+01   -0.19480E+01   286   0.675E+01    0.286E+01
DAV:   4    -0.370163043206E+02    0.23905E+01   -0.61208E+00   326   0.392E+01    0.164E+01
DAV:   5    -0.366147206815E+02    0.40158E+00   -0.37108E+00   398   0.295E+01    0.101E+01
DAV:   6    -0.369141199258E+02   -0.29940E+00   -0.25789E+00   334   0.250E+01    0.142E+01
DAV:   7    -0.365737818655E+02    0.34034E+00   -0.16463E+00   336   0.191E+01    0.538E+00
DAV:   8    -0.366169694387E+02   -0.43188E-01   -0.51938E-01   342   0.112E+01    0.511E+00
DAV:   9    -0.365948109651E+02    0.22158E-01   -0.24816E-01   318   0.797E+00    0.337E+00
DAV:  10    -0.365976362529E+02   -0.28253E-02   -0.12500E-01   320   0.651E+00    0.285E+00
DAV:  11    -0.366071820004E+02   -0.95457E-02   -0.88934E-02   336   0.495E+00    0.299E+00
DAV:  12    -0.365939885442E+02    0.13193E-01   -0.10329E-01   328   0.538E+00    0.177E+00
DAV:  13    -0.366168686118E+02   -0.22880E-01   -0.92017E-02   400   0.439E+00    0.263E+00
DAV:  14    -0.365986022868E+02    0.18266E-01   -0.47440E-02   304   0.433E+00    0.900E-01
DAV:  15    -0.366066388286E+02   -0.80365E-02   -0.17452E-02   416   0.214E+00    0.943E-01
DAV:  16    -0.366053237145E+02    0.13151E-02   -0.80154E-03   296   0.180E+00    0.569E-01
DAV:  17    -0.366068605775E+02   -0.15369E-02   -0.35848E-03   344   0.102E+00    0.350E-01
DAV:  18    -0.366075382446E+02   -0.67767E-03   -0.14125E-03   280   0.594E-01    0.145E-01
DAV:  19    -0.366083090830E+02   -0.77084E-03   -0.26188E-04   200   0.261E-01    0.470E-02
DAV:  20    -0.366088608282E+02   -0.55175E-03   -0.10472E-04   184   0.120E-01    0.468E-02
DAV:  21    -0.366093176421E+02   -0.45681E-03   -0.57534E-05   192   0.748E-02    0.329E-02
DAV:  22    -0.366096459235E+02   -0.32828E-03   -0.30356E-05   192   0.493E-02    0.219E-02
DAV:  23    -0.366099083970E+02   -0.26247E-03   -0.18853E-05   192   0.339E-02    0.990E-03
DAV:  24    -0.366102237782E+02   -0.31538E-03   -0.19484E-05   192   0.202E-02    0.982E-03
DAV:  25    -0.366104345543E+02   -0.21078E-03   -0.10258E-05   192   0.151E-02    0.713E-03
DAV:  26    -0.366106515388E+02   -0.21698E-03   -0.93827E-06   192   0.132E-02    0.867E-03
DAV:  27    -0.366108364365E+02   -0.18490E-03   -0.84833E-06   192   0.152E-02    0.540E-03
DAV:  28    -0.366110039091E+02   -0.16747E-03   -0.11718E-05   192   0.113E-02    0.578E-03
DAV:  29    -0.366110615999E+02   -0.57691E-04   -0.40264E-06   192   0.104E-02
  10 F= -.36611062E+02 E0= -.36614625E+02  d E =-.186524E-01  mag=     7.9996
       N       E                     dE             d eps       ncg     rms          rms(c)
DAV:   1    -0.362365378514E+02    0.37447E+00   -0.26373E+02   264   0.670E+01    0.844E+00
DAV:   2    -0.414338141973E+02   -0.51973E+01   -0.24713E+01   312   0.925E+01    0.302E+01
DAV:   3    -0.379791009884E+02    0.34547E+01   -0.12182E+01   310   0.581E+01    0.246E+01
DAV:   4    -0.367104987307E+02    0.12686E+01   -0.37931E+00   342   0.293E+01    0.108E+01
DAV:   5    -0.367283599201E+02   -0.17861E-01   -0.16324E+00   352   0.224E+01    0.100E+01
DAV:   6    -0.367065579572E+02    0.21802E-01   -0.15280E+00   342   0.173E+01    0.712E+00
DAV:   7    -0.366681254880E+02    0.38432E-01   -0.76321E-01   308   0.128E+01    0.479E+00
DAV:   8    -0.366688157720E+02   -0.69028E-03   -0.25788E-01   318   0.896E+00    0.355E+00
DAV:   9    -0.366591762876E+02    0.96395E-02   -0.15122E-01   350   0.604E+00    0.244E+00
DAV:  10    -0.366669041464E+02   -0.77279E-02   -0.62233E-02   320   0.416E+00    0.290E+00
DAV:  11    -0.366535908875E+02    0.13313E-01   -0.57867E-02   316   0.452E+00    0.140E+00
DAV:  12    -0.366720600424E+02   -0.18469E-01   -0.43573E-02   416   0.411E+00    0.225E+00
DAV:  13    -0.366595248853E+02    0.12535E-01   -0.39247E-02   326   0.373E+00    0.916E-01
DAV:  14    -0.366648818473E+02   -0.53570E-02   -0.14865E-02   392   0.191E+00    0.971E-01
DAV:  15    -0.366633423506E+02    0.15395E-02   -0.86612E-03   288   0.179E+00    0.505E-01
DAV:  16    -0.366645932740E+02   -0.12509E-02   -0.30325E-03   360   0.881E-01    0.307E-01
DAV:  17    -0.366652117182E+02   -0.61844E-03   -0.11818E-03   280   0.677E-01    0.321E-01
DAV:  18    -0.366652068842E+02    0.48340E-05   -0.78025E-04   262   0.554E-01
  11 F= -.36665207E+02 E0= -.36666625E+02  d E =-.727976E-01  mag=     7.9986
       N       E                     dE             d eps       ncg     rms          rms(c)
DAV:   1    -0.366469561813E+02    0.18256E-01   -0.36488E+01   264   0.233E+01    0.254E+00
DAV:   2    -0.372282145073E+02   -0.58126E+00   -0.16502E+00   356   0.259E+01    0.143E+01
DAV:   3    -0.366454070823E+02    0.58281E+00   -0.15481E+00   300   0.218E+01    0.479E+00
DAV:   4    -0.366984464379E+02   -0.53039E-01   -0.41953E-01   374   0.991E+00    0.389E+00
DAV:   5    -0.367188508756E+02   -0.20404E-01   -0.22316E-01   326   0.722E+00    0.326E+00
DAV:   6    -0.366928115880E+02    0.26039E-01   -0.79398E-02   296   0.524E+00    0.865E-01
DAV:   7    -0.367012638155E+02   -0.84522E-02   -0.32080E-02   374   0.238E+00    0.129E+00
DAV:   8    -0.367014196702E+02   -0.15585E-03   -0.17963E-02   320   0.222E+00    0.105E+00
DAV:   9    -0.367013589937E+02    0.60676E-04   -0.10492E-02   328   0.186E+00    0.788E-01
DAV:  10    -0.367026510049E+02   -0.12920E-02   -0.88937E-03   312   0.182E+00    0.880E-01
DAV:  11    -0.367017164249E+02    0.93458E-03   -0.65954E-03   336   0.147E+00    0.518E-01
DAV:  12    -0.367025751563E+02   -0.85873E-03   -0.36820E-03   336   0.971E-01    0.549E-01
DAV:  13    -0.367018404678E+02    0.73469E-03   -0.16800E-03   288   0.777E-01    0.111E-01
DAV:  14    -0.367027018925E+02   -0.86142E-03   -0.48817E-04   224   0.370E-01    0.174E-01
DAV:  15    -0.367026737544E+02    0.28138E-04   -0.29251E-04   176   0.357E-01
  12 F= -.36702674E+02 E0= -.36705814E+02  d E =-.374669E-01  mag=     7.9986
       N       E                     dE             d eps       ncg     rms          rms(c)
DAV:   1    -0.366795174155E+02    0.23184E-01   -0.29019E+01   264   0.208E+01    0.230E+00
DAV:   2    -0.371591727042E+02   -0.47966E+00   -0.13414E+00   350   0.233E+01    0.130E+01
DAV:   3    -0.366599665221E+02    0.49921E+00   -0.12002E+00   286   0.201E+01    0.374E+00
DAV:   4    -0.367281706893E+02   -0.68204E-01   -0.36414E-01   398   0.880E+00    0.393E+00
DAV:   5    -0.367320641039E+02   -0.38934E-02   -0.17679E-01   326   0.661E+00    0.284E+00
DAV:   6    -0.367141678190E+02    0.17896E-01   -0.59955E-02   294   0.455E+00    0.656E-01
DAV:   7    -0.367223141044E+02   -0.81463E-02   -0.22446E-02   392   0.224E+00    0.116E+00
DAV:   8    -0.367215277631E+02    0.78634E-03   -0.13738E-02   304   0.201E+00    0.900E-01
DAV:   9    -0.367220576831E+02   -0.52992E-03   -0.85142E-03   336   0.163E+00    0.879E-01
DAV:  10    -0.367220228787E+02    0.34804E-04   -0.81944E-03   320   0.166E+00    0.684E-01
DAV:  11    -0.367220185242E+02    0.43545E-05   -0.43978E-03   352   0.120E+00    0.463E-01
DAV:  12    -0.367225496266E+02   -0.53110E-03   -0.28120E-03   320   0.843E-01    0.470E-01
DAV:  13    -0.367220518392E+02    0.49779E-03   -0.15410E-03   288   0.666E-01    0.116E-01
DAV:  14    -0.367227609899E+02   -0.70915E-03   -0.34632E-04   192   0.362E-01    0.176E-01
DAV:  15    -0.367227232009E+02    0.37789E-04   -0.22432E-04   184   0.329E-01
  13 F= -.36722723E+02 E0= -.36726119E+02  d E =-.575163E-01  mag=     7.9989
       N       E                     dE             d eps       ncg     rms          rms(c)
DAV:   1    -0.365254192962E+02    0.19734E+00   -0.11861E+02   264   0.432E+01    0.480E+00
DAV:   2    -0.386143065470E+02   -0.20889E+01   -0.69443E+00   326   0.499E+01    0.237E+01
DAV:   3    -0.367270323296E+02    0.18873E+01   -0.35387E+00   288   0.384E+01    0.106E+01
DAV:   4    -0.366655474719E+02    0.61485E-01   -0.16687E+00   384   0.175E+01    0.564E+00
DAV:   5    -0.368120026932E+02   -0.14646E+00   -0.72741E-01   328   0.137E+01    0.715E+00
DAV:   6    -0.366873221754E+02    0.12468E+00   -0.44417E-01   296   0.108E+01    0.193E+00
DAV:   7    -0.367090528217E+02   -0.21731E-01   -0.10325E-01   368   0.458E+00    0.191E+00
DAV:   8    -0.367157653707E+02   -0.67125E-02   -0.65607E-02   304   0.371E+00    0.210E+00
DAV:   9    -0.367111640645E+02    0.46013E-02   -0.48124E-02   288   0.344E+00    0.120E+00
DAV:  10    -0.367204182967E+02   -0.92542E-02   -0.30328E-02   344   0.310E+00    0.177E+00
DAV:  11    -0.367130632716E+02    0.73550E-02   -0.21585E-02   328   0.273E+00    0.103E+00
DAV:  12    -0.367167403559E+02   -0.36771E-02   -0.11567E-02   392   0.193E+00    0.118E+00
DAV:  13    -0.367144660045E+02    0.22744E-02   -0.86316E-03   304   0.173E+00    0.340E-01
DAV:  14    -0.367168046407E+02   -0.23386E-02   -0.35176E-03   376   0.952E-01    0.500E-01
DAV:  15    -0.367162024642E+02    0.60218E-03   -0.15490E-03   288   0.846E-01    0.222E-01
DAV:  16    -0.367167163490E+02   -0.51388E-03   -0.73211E-04   270   0.466E-01    0.139E-01
DAV:  17    -0.367170220885E+02   -0.30574E-03   -0.27333E-04   184   0.317E-01    0.158E-01
DAV:  18    -0.367171574568E+02   -0.13537E-03   -0.20671E-04   182   0.278E-01    0.597E-02
DAV:  19    -0.367174302503E+02   -0.27279E-03   -0.47505E-05   184   0.114E-01    0.259E-02
DAV:  20    -0.367176517646E+02   -0.22151E-03   -0.31481E-05   192   0.558E-02    0.150E-02
DAV:  21    -0.367178030571E+02   -0.15129E-03   -0.17101E-05   176   0.324E-02    0.849E-03
DAV:  22    -0.367179023331E+02   -0.99276E-04   -0.76942E-06   176   0.212E-02
  14 F= -.36717902E+02 E0= -.36718130E+02  d E =-.526954E-01  mag=     7.9995
       N       E                     dE             d eps       ncg     rms          rms(c)
DAV:   1    -0.366882590554E+02    0.29544E-01   -0.56403E+01   264   0.293E+01    0.334E+00
DAV:   2    -0.376111017099E+02   -0.92284E+00   -0.34342E+00   356   0.320E+01    0.157E+01
DAV:   3    -0.368454471112E+02    0.76565E+00   -0.24060E+00   292   0.278E+01    0.854E+00
DAV:   4    -0.367316287815E+02    0.11382E+00   -0.63646E-01   372   0.136E+01    0.271E+00
DAV:   5    -0.368169416242E+02   -0.85313E-01   -0.30674E-01   372   0.943E+00    0.498E+00
DAV:   6    -0.367573953113E+02    0.59546E-01   -0.19563E-01   284   0.742E+00    0.146E+00
DAV:   7    -0.367763489769E+02   -0.18954E-01   -0.73537E-02   348   0.388E+00    0.212E+00
DAV:   8    -0.367728285053E+02    0.35205E-02   -0.34053E-02   308   0.306E+00    0.133E+00
DAV:   9    -0.367723816924E+02    0.44681E-03   -0.16224E-02   288   0.262E+00    0.104E+00
DAV:  10    -0.367779795558E+02   -0.55979E-02   -0.23963E-02   366   0.248E+00    0.169E+00
DAV:  11    -0.367727919542E+02    0.51876E-02   -0.19688E-02   344   0.211E+00    0.777E-01
DAV:  12    -0.367746003486E+02   -0.18084E-02   -0.54575E-03   350   0.141E+00    0.582E-01
DAV:  13    -0.367744819713E+02    0.11838E-03   -0.34773E-03   328   0.115E+00    0.338E-01
DAV:  14    -0.367750248714E+02   -0.54290E-03   -0.13660E-03   286   0.589E-01    0.260E-01
DAV:  15    -0.367749842405E+02    0.40631E-04   -0.62672E-04   224   0.506E-01
  15 F= -.36774984E+02 E0= -.36773441E+02  d E =-.570819E-01  mag=     7.9996
       N       E                     dE             d eps       ncg     rms          rms(c)
DAV:   1    -0.367751479411E+02   -0.12307E-03   -0.10445E+00   264   0.393E+00    0.399E-01
DAV:   2    -0.367889239887E+02   -0.13776E-01   -0.50778E-02   380   0.362E+00    0.246E+00
DAV:   3    -0.367698754742E+02    0.19049E-01   -0.38458E-02   292   0.361E+00    0.281E-01
DAV:   4    -0.367779142675E+02   -0.80388E-02   -0.89376E-03   378   0.139E+00    0.883E-01
DAV:   5    -0.367760577616E+02    0.18565E-02   -0.51206E-03   292   0.122E+00    0.314E-01
DAV:   6    -0.367766032291E+02   -0.54547E-03   -0.10355E-03   282   0.547E-01    0.189E-01
DAV:   7    -0.367770685215E+02   -0.46529E-03   -0.13669E-03   240   0.496E-01    0.313E-01
DAV:   8    -0.367768664345E+02    0.20209E-03   -0.57484E-04   190   0.400E-01    0.226E-01
DAV:   9    -0.367770478949E+02   -0.18146E-03   -0.44181E-04   224   0.421E-01    0.188E-01
DAV:  10    -0.367770626386E+02   -0.14744E-04   -0.33036E-04   172   0.343E-01
  16 F= -.36777063E+02 E0= -.36775579E+02  d E =-.591603E-01  mag=     7.9996
       N       E                     dE             d eps       ncg     rms          rms(c)
DAV:   1    -0.367721903322E+02    0.48576E-02   -0.16799E+01   264   0.158E+01    0.177E+00
DAV:   2    -0.371267988325E+02   -0.35461E+00   -0.14705E+00   342   0.176E+01    0.120E+01
DAV:   3    -0.367440135052E+02    0.38279E+00   -0.88262E-01   308   0.168E+01    0.335E+00
DAV:   4    -0.367900243589E+02   -0.46011E-01   -0.17607E-01   388   0.701E+00    0.192E+00
DAV:   5    -0.367979398157E+02   -0.79155E-02   -0.55904E-02   318   0.384E+00    0.162E+00
DAV:   6    -0.367930346598E+02    0.49052E-02   -0.23628E-02   294   0.256E+00    0.746E-01
DAV:   7    -0.367973226799E+02   -0.42880E-02   -0.14795E-02   324   0.198E+00    0.107E+00
DAV:   8    -0.367956474470E+02    0.16752E-02   -0.84325E-03   294   0.162E+00    0.631E-01
DAV:   9    -0.367979898016E+02   -0.23424E-02   -0.75506E-03   320   0.152E+00    0.108E+00
DAV:  10    -0.367956835703E+02    0.23062E-02   -0.71406E-03   312   0.148E+00    0.444E-01
DAV:  11    -0.367963942113E+02   -0.71064E-03   -0.19797E-03   320   0.877E-01    0.360E-01
DAV:  12    -0.367966984339E+02   -0.30422E-03   -0.96390E-04   278   0.583E-01    0.172E-01
DAV:  13    -0.367968882707E+02   -0.18984E-03   -0.31330E-04   176   0.375E-01    0.118E-01
DAV:  14    -0.367969798564E+02   -0.91586E-04   -0.17643E-04   174   0.227E-01
  17 F= -.36796980E+02 E0= -.36794395E+02  d E =-.199172E-01  mag=     7.9996
       N       E                     dE             d eps       ncg     rms          rms(c)
DAV:   1    -0.367965408934E+02    0.34738E-03   -0.82034E-01   264   0.347E+00    0.382E-01
DAV:   2    -0.368114345501E+02   -0.14894E-01   -0.67023E-02   374   0.360E+00    0.276E+00
DAV:   3    -0.367900156216E+02    0.21419E-01   -0.60434E-02   316   0.371E+00    0.626E-01
DAV:   4    -0.367974607836E+02   -0.74452E-02   -0.84091E-03   378   0.156E+00    0.560E-01
DAV:   5    -0.367973026448E+02    0.15814E-03   -0.28272E-03   284   0.950E-01    0.266E-01
DAV:   6    -0.367973817830E+02   -0.79138E-04   -0.68900E-04   258   0.475E-01
  18 F= -.36797382E+02 E0= -.36794429E+02  d E =-.203191E-01  mag=     7.9996
       N       E                     dE             d eps       ncg     rms          rms(c)
DAV:   1    -0.367894025731E+02    0.79001E-02   -0.10136E+01   264   0.121E+01    0.113E+00
DAV:   2    -0.368774690083E+02   -0.88066E-01   -0.39208E-01   356   0.919E+00    0.588E+00
DAV:   3    -0.367817318951E+02    0.95737E-01   -0.22752E-01   300   0.956E+00    0.190E+00
DAV:   4    -0.368139215685E+02   -0.32190E-01   -0.96835E-02   358   0.520E+00    0.237E+00
DAV:   5    -0.368018047480E+02    0.12117E-01   -0.39032E-02   302   0.351E+00    0.823E-01
DAV:   6    -0.368034934524E+02   -0.16887E-02   -0.82173E-03   320   0.146E+00    0.457E-01
DAV:   7    -0.368065618575E+02   -0.30684E-02   -0.68832E-03   340   0.136E+00    0.890E-01
DAV:   8    -0.368048809116E+02    0.16809E-02   -0.44471E-03   302   0.127E+00    0.362E-01
DAV:   9    -0.368063427984E+02   -0.14619E-02   -0.28844E-03   336   0.102E+00    0.512E-01
DAV:  10    -0.368058388822E+02    0.50392E-03   -0.19952E-03   304   0.924E-01    0.243E-01
DAV:  11    -0.368063639987E+02   -0.52512E-03   -0.99628E-04   266   0.532E-01    0.316E-01
DAV:  12    -0.368060945728E+02    0.26943E-03   -0.92505E-04   186   0.456E-01    0.156E-01
DAV:  13    -0.368063030387E+02   -0.20847E-03   -0.17143E-04   172   0.240E-01    0.106E-01
DAV:  14    -0.368063985313E+02   -0.95493E-04   -0.75574E-05   176   0.147E-01
  19 F= -.36806399E+02 E0= -.36801430E+02  d E =-.901675E-02  mag=     7.9996
       N       E                     dE             d eps       ncg     rms          rms(c)
DAV:   1    -0.368063879158E+02   -0.84877E-04   -0.81850E-02   264   0.110E+00    0.108E-01
DAV:   2    -0.368069948134E+02   -0.60690E-03   -0.25949E-03   366   0.899E-01    0.567E-01
DAV:   3    -0.368059146915E+02    0.10801E-02   -0.23973E-03   292   0.931E-01    0.183E-01
DAV:   4    -0.368065534744E+02   -0.63878E-03   -0.94016E-04   252   0.464E-01    0.240E-01
DAV:   5    -0.368064293610E+02    0.12411E-03   -0.40201E-04   164   0.323E-01    0.601E-02
DAV:   6    -0.368065451684E+02   -0.11581E-03   -0.55232E-05   160   0.129E-01    0.422E-02
DAV:   7    -0.368066404732E+02   -0.95305E-04   -0.49637E-05   176   0.120E-01
  20 F= -.36806640E+02 E0= -.36801486E+02  d E =-.925869E-02  mag=     7.9995
       N       E                     dE             d eps       ncg     rms          rms(c)
DAV:   1    -0.368062451315E+02    0.30004E-03   -0.12684E+00   264   0.432E+00    0.449E-01
DAV:   2    -0.368260416766E+02   -0.19797E-01   -0.64126E-02   358   0.432E+00    0.300E+00
DAV:   3    -0.368011045866E+02    0.24937E-01   -0.54919E-02   302   0.419E+00    0.680E-01
DAV:   4    -0.368077582490E+02   -0.66537E-02   -0.14417E-02   386   0.176E+00    0.832E-01
DAV:   5    -0.368073240034E+02    0.43425E-03   -0.59976E-03   290   0.124E+00    0.454E-01
DAV:   6    -0.368073562702E+02   -0.32267E-04   -0.13273E-03   282   0.684E-01    0.140E-01
DAV:   7    -0.368080951766E+02   -0.73891E-03   -0.11372E-03   276   0.517E-01    0.404E-01
DAV:   8    -0.368077297857E+02    0.36539E-03   -0.82226E-04   226   0.474E-01    0.207E-01
DAV:   9    -0.368079715445E+02   -0.24176E-03   -0.33069E-04   164   0.387E-01    0.228E-01
DAV:  10    -0.368079293566E+02    0.42188E-04   -0.33493E-04   190   0.382E-01
  21 F= -.36807929E+02 E0= -.36802528E+02  d E =-.128888E-02  mag=     7.9995
       N       E                     dE             d eps       ncg     rms          rms(c)
DAV:   1    -0.368080907362E+02   -0.11919E-03   -0.59926E-02   268   0.961E-01    0.165E-01
DAV:   2    -0.368115744026E+02   -0.34837E-02   -0.90560E-03   342   0.193E+00    0.121E+00
DAV:   3    -0.368063987945E+02    0.51756E-02   -0.66067E-03   300   0.177E+00    0.269E-01
DAV:   4    -0.368077540736E+02   -0.13553E-02   -0.10417E-03   306   0.467E-01    0.121E-01
DAV:   5    -0.368081475864E+02   -0.39351E-03   -0.21997E-04   178   0.245E-01    0.129E-01
DAV:   6    -0.368080926858E+02    0.54901E-04   -0.12848E-04   148   0.201E-01
  22 F= -.36808093E+02 E0= -.36802581E+02  d E =-.145221E-02  mag=     7.9995
       N       E                     dE             d eps       ncg     rms          rms(c)
DAV:   1    -0.368079521542E+02    0.19543E-03   -0.41669E-01   264   0.249E+00    0.249E-01
DAV:   2    -0.368129756804E+02   -0.50235E-02   -0.16526E-02   348   0.225E+00    0.159E+00
DAV:   3    -0.368059837602E+02    0.69919E-02   -0.16002E-02   298   0.225E+00    0.448E-01
DAV:   4    -0.368083328909E+02   -0.23491E-02   -0.49529E-03   354   0.106E+00    0.417E-01
DAV:   5    -0.368082096925E+02    0.12320E-03   -0.13842E-03   278   0.632E-01    0.150E-01
DAV:   6    -0.368083562079E+02   -0.14652E-03   -0.24782E-04   168   0.291E-01    0.768E-02
DAV:   7    -0.368085912374E+02   -0.23503E-03   -0.22001E-04   166   0.254E-01    0.185E-01
DAV:   8    -0.368084719472E+02    0.11929E-03   -0.21804E-04   168   0.249E-01    0.983E-02
DAV:   9    -0.368086026788E+02   -0.13073E-03   -0.14552E-04   164   0.234E-01    0.126E-01
DAV:  10    -0.368085872673E+02    0.15411E-04   -0.11507E-04   176   0.216E-01
  23 F= -.36808587E+02 E0= -.36802996E+02  d E =-.494582E-03  mag=     7.9995
       N       E                     dE             d eps       ncg     rms          rms(c)
DAV:   1    -0.368086441225E+02   -0.41444E-04   -0.23533E-02   268   0.598E-01    0.820E-02
DAV:   2    -0.368092805360E+02   -0.63641E-03   -0.20716E-03   326   0.883E-01    0.542E-01
DAV:   3    -0.368081151007E+02    0.11654E-02   -0.16837E-03   282   0.824E-01    0.131E-01
DAV:   4    -0.368085652673E+02   -0.45017E-03   -0.32232E-04   162   0.284E-01    0.109E-01
DAV:   5    -0.368086358914E+02   -0.70624E-04   -0.11983E-04   158   0.158E-01
  24 F= -.36808636E+02 E0= -.36803019E+02  d E =-.543206E-03  mag=     7.9995
