 vasp.6.1.2 22Jul20 (build Aug  2 2021 21:04:21) gamma-only                      
 executed on             LinuxPGI date 2021.12.24  18:39:34
 running on   16 total cores
 distrk:  each k-point on   16 cores,    1 groups
 distr:  one band on NCORE=   8 cores,    2 groups


--------------------------------------------------------------------------------------------------------


 INCAR:
 POTCAR:    PAW_PBE Ni 02Aug2007                  
 -----------------------------------------------------------------------------
|                                                                             |
|           W    W    AA    RRRRR   N    N  II  N    N   GGGG   !!!           |
|           W    W   A  A   R    R  NN   N  II  NN   N  G    G  !!!           |
|           W    W  A    A  R    R  N N  N  II  N N  N  G       !!!           |
|           W WW W  AAAAAA  RRRRR   N  N N  II  N  N N  G  GGG   !            |
|           WW  WW  A    A  R   R   N   NN  II  N   NN  G    G                |
|           W    W  A    A  R    R  N    N  II  N    N   GGGG   !!!           |
|                                                                             |
|     You use a magnetic or noncollinear calculation, but did not specify     |
|     the initial magnetic moment with the MAGMOM tag. Note that a            |
|     default of 1 will be used for all atoms. This ferromagnetic setup       |
|     may break the symmetry of the crystal, in particular it may rule        |
|     out finding an antiferromagnetic solution. Thence, we recommend         |
|     setting the initial magnetic moment manually or verifying carefully     |
|     that this magnetic setup is desired.                                    |
|                                                                             |
 -----------------------------------------------------------------------------

 POTCAR:    PAW_PBE Ni 02Aug2007                  
   SHA256 =  0534bc51ca8003dfef23f56753fef9fdd3e22eac8d719fccacb59f3e6b7a69c7 Ni/POTCAR             
   COPYR  = (c) Copyright 02Aug2007 Georg Kresse                                                    
   COPYR  = This file is part of the software VASP. Any use, copying, and all other rights are regul
   COPYR  = If you do not have a valid VASP license, you may not use, copy or distribute this file. 
   VRHFIN =Ni:                                                                                      
   LEXCH  = PE                                                                                      
   EATOM  =  1077.6739 eV,   79.2068 Ry                                                             
                                                                                                    
   TITEL  = PAW_PBE Ni 02Aug2007                                                                    
   LULTRA =        F    use ultrasoft PP ?                                                          
   IUNSCR =        1    unscreen: 0-lin 1-nonlin 2-no                                               
   RPACOR =    2.000    partial core radius                                                         
   POMASS =   58.690; ZVAL   =   10.000    mass and valenz                                          
   RCORE  =    2.300    outmost cutoff radius                                                       
   RWIGS  =    2.430; RWIGS  =    1.286    wigner-seitz radius (au A)                               
   ENMAX  =  269.532; ENMIN  =  202.149 eV                                                          
   RCLOC  =    1.201    cutoff for local pot                                                        
   LCOR   =        T    correct aug charges                                                         
   LPAW   =        T    paw PP                                                                      
   EAUG   =  544.565                                                                                
   DEXC   =    0.000                                                                                
   RMAX   =    2.357    core radius for proj-oper                                                   
   RAUG   =    1.300    factor for augmentation sphere                                              
   RDEP   =    2.390    radius for radial grids                                                     
   RDEPT  =    1.838    core radius for aug-charge                                                  
                                                                                                    
   Atomic configuration                                                                             
    9 entries                                                                                       
     n  l   j            E        occ.                                                              
     1  0  0.50     -8206.4253   2.0000                                                             
     2  0  0.50      -976.1748   2.0000                                                             
     2  1  1.50      -839.0571   6.0000                                                             
     3  0  0.50      -105.9991   2.0000                                                             
     3  1  1.50       -66.4603   6.0000                                                             
     3  2  2.50        -4.6458   9.0000                                                             
     4  0  0.50        -4.4926   1.0000                                                             
     4  1  1.50        -4.0817   0.0000                                                             
     4  3  2.50        -1.3606   0.0000                                                             
   Description                                                                                      
     l       E           TYP  RCUT    TYP  RCUT                                                     
     2     -4.6457903     23  2.300                                                                 
     2     -6.0063729     23  2.300                                                                 
     0     -4.4925590     23  2.300                                                                 
     0      5.0102601     23  2.300                                                                 
     1     -2.7211652     23  2.300                                                                 
     1     16.5183231     23  2.300                                                                 
  local pseudopotential read in
  partial core-charges read in
  partial kinetic energy density read in
  atomic valenz-charges read in
  non local Contribution for L=            2  read in
    real space projection operators read in
  non local Contribution for L=            2  read in
    real space projection operators read in
  non local Contribution for L=            0  read in
    real space projection operators read in
  non local Contribution for L=            0  read in
    real space projection operators read in
  non local Contribution for L=            1  read in
    real space projection operators read in
  non local Contribution for L=            1  read in
    real space projection operators read in
    PAW grid and wavefunctions read in
 
   number of l-projection  operators is LMAX  =            6
   number of lm-projection operators is LMMAX =           18
 
  PAW_PBE Ni 02Aug2007                  :
 energy of atom  1       EATOM=-1077.6739
 kinetic energy error for atom=    0.0101 (will be added to EATOM!!)
 
 
 POSCAR: Ni
  positions in cartesian coordinates
  No initial velocities read in
 exchange correlation table for  LEXCH =        8
   RHO(1)=    0.500       N(1)  =     2000
   RHO(2)=  100.500       N(2)  =     4000
 


--------------------------------------------------------------------------------------------------------


 ion  position               nearest neighbor table
   1  0.454  0.474  0.456-   4 2.34   2 2.38   3 2.38   7 2.39   5 2.40   8 2.70
   2  0.522  0.508  0.383-   8 2.37   1 2.38   6 2.42   3 2.48   4 3.01
   3  0.454  0.573  0.438-   1 2.38   6 2.40   9 2.42   2 2.48   5 2.51
   4  0.535  0.408  0.462-   1 2.34   8 2.35   7 2.51   2 3.01
   5  0.415  0.533  0.532-  10 2.40   1 2.40   9 2.41   7 2.50   3 2.51
   6  0.563  0.592  0.429-   3 2.40   8 2.40   2 2.42   9 2.46
   7  0.504  0.468  0.548-  10 2.39   1 2.39   8 2.42   5 2.50   4 2.51   9 2.53
   8  0.574  0.500  0.473-   4 2.35   2 2.37   9 2.39   6 2.40   7 2.42   1 2.70
   9  0.518  0.571  0.524-   8 2.39  10 2.40   5 2.41   3 2.42   6 2.46   7 2.53
  10  0.479  0.540  0.616-   7 2.39   9 2.40   5 2.40
 

IMPORTANT INFORMATION: All symmetrisations will be switched off!
NOSYMM: (Re-)initialisation of all symmetry stuff for point group C_1.


----------------------------------------------------------------------------------------

                                     Primitive cell                                     

  volume of cell :   11855.4151

  direct lattice vectors                    reciprocal lattice vectors
    21.599972480  0.000000000  0.000000000     0.046296355  0.000000000  0.000000000
     0.000000000 23.718348461  0.000000000     0.000000000  0.042161452  0.000000000
     0.000000000  0.000000000 23.140840126     0.000000000  0.000000000  0.043213643

  length of vectors
    21.599972480 23.718348461 23.140840126     0.046296355  0.042161452  0.043213643

  position of ions in fractional coordinates (direct lattice)
     0.453534088  0.473639653  0.455769082
     0.521706030  0.507922314  0.382837202
     0.454211057  0.572703383  0.438368056
     0.534834872  0.408444557  0.462439156
     0.414913463  0.533094424  0.531781748
     0.562627917  0.591835637  0.428920729
     0.504270898  0.467876402  0.547559693
     0.573718228  0.500492856  0.472813744
     0.517956320  0.571358147  0.524236637
     0.479493489  0.539998505  0.615831860

  ion indices of the primitive-cell ions
   primitive index   ion index
                 1           1
                 2           2
                 3           3
                 4           4
                 5           5
                 6           6
                 7           7
                 8           8
                 9           9
                10          10

----------------------------------------------------------------------------------------

 
 
 KPOINTS: KPOINTS created by Atomic Simulation Env

Automatic generation of k-mesh.
Space group operators:
 irot       det(A)        alpha          n_x          n_y          n_z        tau_x        tau_y        tau_z
    1     1.000000     0.000000     1.000000     0.000000     0.000000     0.000000     0.000000     0.000000
 
 Subroutine IBZKPT returns following result:
 ===========================================
 
 Found      1 irreducible k-points:
 
 Following reciprocal coordinates:
            Coordinates               Weight
  0.000000  0.000000  0.000000      1.000000
 
 Following cartesian coordinates:
            Coordinates               Weight
  0.000000  0.000000  0.000000      1.000000
 


--------------------------------------------------------------------------------------------------------




 Dimension of arrays:
   k-points           NKPTS =      1   k-points in BZ     NKDIM =      1   number of bands    NBANDS=     66
   number of dos      NEDOS =    301   number of ions     NIONS =     10
   non local maximal  LDIM  =      6   non local SUM 2l+1 LMDIM =     18
   total plane-waves  NPLWV = ******
   max r-space proj   IRMAX =      1   max aug-charges    IRDMAX=   4451
   dimension x,y,z NGX =   108 NGY =  120 NGZ =  120
   dimension x,y,z NGXF=   216 NGYF=  240 NGZF=  240
   support grid    NGXF=   216 NGYF=  240 NGZF=  240
   ions per type =              10
   NGX,Y,Z   is equivalent  to a cutoff of   8.31,  8.41,  8.62 a.u.
   NGXF,Y,Z  is equivalent  to a cutoff of  16.62, 16.82, 17.24 a.u.

 SYSTEM =  unknown system                          
 POSCAR =  Ni                                      

 Startparameter for this run:
   NWRITE =      2    write-flag & timer
   PREC   = normal    normal or accurate (medium, high low for compatibility)
   ISTART =      0    job   : 0-new  1-cont  2-samecut
   ICHARG =      2    charge: 1-file 2-atom 10-const
   ISPIN  =      2    spin polarized calculation?
   LNONCOLLINEAR =      F non collinear calculations
   LSORBIT =      F    spin-orbit coupling
   INIWAV =      1    electr: 0-lowe 1-rand  2-diag
   LASPH  =      F    aspherical Exc in radial PAW
   METAGGA=      F    non-selfconsistent MetaGGA calc.

 Electronic Relaxation 1
   ENCUT  =  400.0 eV  29.40 Ry    5.42 a.u.  35.22 38.68 37.74*2*pi/ulx,y,z
   ENINI  =  400.0     initial cutoff
   ENAUG  =  544.6 eV  augmentation charge cutoff
   NELM   =     60;   NELMIN=  2; NELMDL=  0     # of ELM steps 
   EDIFF  = 0.1E-03   stopping-criterion for ELM
   LREAL  =      F    real-space projection
   NLSPLINE    = F    spline interpolate recip. space projectors
   LCOMPAT=      F    compatible to vasp.4.4
   GGA_COMPAT  = T    GGA compatible to vasp.4.4-vasp.4.6
   LMAXPAW     = -100 max onsite density
   LMAXMIX     =    2 max onsite mixed and CHGCAR
   VOSKOWN=      0    Vosko Wilk Nusair interpolation
   ROPT   =    0.00000
 Ionic relaxation
   EDIFFG = 0.1E-02   stopping-criterion for IOM
   NSW    =   1000    number of steps for IOM
   NBLOCK =      1;   KBLOCK =   1000    inner block; outer block 
   IBRION =      2    ionic relax: 0-MD 1-quasi-New 2-CG
   NFREE  =      1    steps in history (QN), initial steepest desc. (CG)
   ISIF   =      0    stress and relaxation
   IWAVPR =     11    prediction:  0-non 1-charg 2-wave 3-comb
   ISYM   =      0    0-nonsym 1-usesym 2-fastsym
   LCORR  =      T    Harris-Foulkes like correction to forces

   POTIM  = 0.5000    time-step for ionic-motion
   TEIN   =    0.0    initial temperature
   TEBEG  =    0.0;   TEEND  =   0.0 temperature during run
   SMASS  =  -3.00    Nose mass-parameter (am)
   estimated Nose-frequenzy (Omega)   =  0.10E-29 period in steps = 0.13E+47 mass=  -0.107E-25a.u.
   SCALEE = 1.0000    scale energy and forces
   NPACO  =    256;   APACO  = 16.0  distance and # of slots for P.C.
   PSTRESS=    0.0 pullay stress

  Mass of Ions in am
   POMASS =  58.69
  Ionic Valenz
   ZVAL   =  10.00
  Atomic Wigner-Seitz radii
   RWIGS  =  -1.00
  virtual crystal weights 
   VCA    =   1.00
   NELECT =     100.0000    total number of electrons
   NUPDOWN=      -1.0000    fix difference up-down

 DOS related values:
   EMIN   =  10.00;   EMAX   =-10.00  energy-range for DOS
   EFERMI =   0.00
   ISMEAR =     1;   SIGMA  =   0.20  broadening in eV -4-tet -1-fermi 0-gaus

 Electronic relaxation 2 (details)
   IALGO  =     38    algorithm
   LDIAG  =      T    sub-space diagonalisation (order eigenvalues)
   LSUBROT=      F    optimize rotation matrix (better conditioning)
   TURBO    =      0    0=normal 1=particle mesh
   IRESTART =      0    0=no restart 2=restart with 2 vectors
   NREBOOT  =      0    no. of reboots
   NMIN     =      0    reboot dimension
   EREF     =   0.00    reference energy to select bands
   IMIX   =      4    mixing-type and parameters
     AMIX     =   0.40;   BMIX     =  1.00
     AMIX_MAG =   1.60;   BMIX_MAG =  1.00
     AMIN     =   0.10
     WC   =   100.;   INIMIX=   1;  MIXPRE=   1;  MAXMIX= -45

 Intra band minimization:
   WEIMIN = 0.0010     energy-eigenvalue tresh-hold
   EBREAK =  0.38E-06  absolut break condition
   DEPER  =   0.30     relativ break condition  

   TIME   =   0.40     timestep for ELM

  volume/ion in A,a.u.               =    1185.54      8000.43
  Fermi-wavevector in a.u.,A,eV,Ry     =   0.333249  0.629750  1.510996  0.111055
  Thomas-Fermi vector in A             =   1.230945
 
 Write flags
   LWAVE        =      F    write WAVECAR
   LDOWNSAMPLE  =      F    k-point downsampling of WAVECAR
   LCHARG       =      F    write CHGCAR
   LVTOT        =      F    write LOCPOT, total local potential
   LVHAR        =      F    write LOCPOT, Hartree potential only
   LELF         =      F    write electronic localiz. function (ELF)
   LORBIT       =      0    0 simple, 1 ext, 2 COOP (PROOUT), +10 PAW based schemes


 Dipole corrections
   LMONO  =      F    monopole corrections only (constant potential shift)
   LDIPOL =      F    correct potential (dipole corrections)
   IDIPOL =      0    1-x, 2-y, 3-z, 4-all directions 
   EPSILON=  1.0000000 bulk dielectric constant

 Exchange correlation treatment:
   GGA     =    PE    GGA type
   LEXCH   =     8    internal setting for exchange type
   VOSKOWN=      0    Vosko Wilk Nusair interpolation
   LHFCALC =     F    Hartree Fock is set to
   LHFONE  =     F    Hartree Fock one center treatment
   AEXX    =    0.0000 exact exchange contribution

 Linear response parameters
   LEPSILON=     F    determine dielectric tensor
   LRPA    =     F    only Hartree local field effects (RPA)
   LNABLA  =     F    use nabla operator in PAW spheres
   LVEL    =     F    velocity operator in full k-point grid
   LINTERFAST=   F  fast interpolation
   KINTER  =     0    interpolate to denser k-point grid
   CSHIFT  =0.1000    complex shift for real part using Kramers Kronig
   OMEGAMAX=  -1.0    maximum frequency
   DEG_THRESHOLD= 0.2000000E-02 threshold for treating states as degnerate
   RTIME   =   -0.100 relaxation time in fs
  (WPLASMAI=    0.000 imaginary part of plasma frequency in eV, 0.658/RTIME)
   DFIELD  = 0.0000000 0.0000000 0.0000000 field for delta impulse in time
 
 Orbital magnetization related:
   ORBITALMAG=     F  switch on orbital magnetization
   LCHIMAG   =     F  perturbation theory with respect to B field
   DQ        =  0.001000  dq finite difference perturbation B field
   LLRAUG    =     F  two centre corrections for induced B field



--------------------------------------------------------------------------------------------------------


 conjugate gradient relaxation of ions
 charge density and potential will be updated during run
 spin polarized calculation
 Variant of blocked Davidson
 Davidson routine will perform the subspace rotation
 perform sub-space diagonalisation
    after iterative eigenvector-optimisation
 modified Broyden-mixing scheme, WC =      100.0
 initial mixing is a Kerker type mixing with AMIX =  0.4000 and BMIX =      1.0000
 Hartree-type preconditioning will be used
 using additional bands            16
 reciprocal scheme for non local part
 use partial core corrections
 calculate Harris-corrections to forces 
   (improved forces if not selfconsistent)
 use gradient corrections 
 use of overlap-Matrix (Vanderbilt PP)
 Methfessel and Paxton  Order N= 1 SIGMA  =   0.20


--------------------------------------------------------------------------------------------------------


  energy-cutoff  :      400.00
  volume of cell :    11855.42
      direct lattice vectors                 reciprocal lattice vectors
    21.599972480  0.000000000  0.000000000     0.046296355  0.000000000  0.000000000
     0.000000000 23.718348461  0.000000000     0.000000000  0.042161452  0.000000000
     0.000000000  0.000000000 23.140840126     0.000000000  0.000000000  0.043213643

  length of vectors
    21.599972480 23.718348461 23.140840126     0.046296355  0.042161452  0.043213643


 
 k-points in units of 2pi/SCALE and weight: KPOINTS created by Atomic Simulation Env
   0.00000000  0.00000000  0.00000000       1.000
 
 k-points in reciprocal lattice and weights: KPOINTS created by Atomic Simulation Env
   0.00000000  0.00000000  0.00000000       1.000
 
 position of ions in fractional coordinates (direct lattice) 
   0.45353409  0.47363965  0.45576908
   0.52170603  0.50792231  0.38283720
   0.45421106  0.57270338  0.43836806
   0.53483487  0.40844456  0.46243916
   0.41491346  0.53309442  0.53178175
   0.56262792  0.59183564  0.42892073
   0.50427090  0.46787640  0.54755969
   0.57371823  0.50049286  0.47281374
   0.51795632  0.57135815  0.52423664
   0.47949349  0.53999851  0.61583186
 
 position of ions in cartesian coordinates  (Angst):
   9.79632381 11.23395033 10.54687946
  11.26883588 12.04707844  8.85917450
   9.81094633 13.58357840 10.14420509
  11.55241852  9.68763033 10.70123058
   8.96211938 12.64411932 12.30587640
  12.15274753 14.03736387  9.92558602
  10.89223752 11.09725555 12.67099131
  12.39229794 11.87086396 10.94130726
  11.18784226 13.55167162 12.13127621
  10.35704617 12.80787271 14.25086662
 


--------------------------------------------------------------------------------------------------------


 use parallel FFT for orbitals z direction half grid
 k-point   1 :   0.0000 0.0000 0.0000  plane waves:  107647

 maximum and minimum number of plane-waves per node :     13458    13453

 maximum number of plane-waves:    107647
 maximum index in each direction: 
   IXMAX=   35   IYMAX=   38   IZMAX=   37
   IXMIN=  -35   IYMIN=  -38   IZMIN=    0


 parallel 3D FFT for wavefunctions:
    minimum data exchange during FFTs selected (reduces bandwidth)
 parallel 3D FFT for charge:
    minimum data exchange during FFTs selected (reduces bandwidth)


 total amount of memory used by VASP MPI-rank0   154261. kBytes
=======================================================================

   base      :      30000. kBytes
   nonl-proj :       4090. kBytes
   fftplans  :      31294. kBytes
   grid      :      74618. kBytes
   one-center:         31. kBytes
   wavefun   :      14228. kBytes
 
     INWAV:  cpu time    0.0000: real time    0.0000
 Broyden mixing: mesh for mixing (old mesh)
   NGX = 71   NGY = 77   NGZ = 75
  (NGX  =216   NGY  =240   NGZ  =240)
  gives a total of 410025 points

 initial charge density was supplied:
 charge density of overlapping atoms calculated
 number of electron     100.0000000 magnetization      10.0000000
 keeping initial charge density in first step


--------------------------------------------------------------------------------------------------------


 Maximum index for augmentation-charges           313 (set IRDMAX)


--------------------------------------------------------------------------------------------------------


 First call to EWALD:  gamma=   0.078
 Maximum number of real-space cells 3x 3x 3
 Maximum number of reciprocal cells 3x 3x 3

    FEWALD:  cpu time    0.0012: real time    0.0012


--------------------------------------- Iteration      1(   1)  ---------------------------------------


    POTLOK:  cpu time    2.5290: real time    2.5359
    SETDIJ:  cpu time    0.0233: real time    0.0233
     EDDAV:  cpu time    5.9717: real time    5.9770
       DOS:  cpu time    0.0061: real time    0.0061
    --------------------------------------------
      LOOP:  cpu time    8.5300: real time    8.5423

 eigenvalue-minimisations  :   272
 total energy-change (2. order) : 0.6145584E+03  (-0.1636345E+04)
 number of electron     100.0000000 magnetization      10.0000000
 augmentation part      100.0000000 magnetization      10.0000000

 Free energy of the ion-electron system (eV)
  ---------------------------------------------------
  alpha Z        PSCENC =         4.30178113
  Ewald energy   TEWEN  =     13003.91380518
  -Hartree energ DENC   =    -22854.67527411
  -exchange      EXHF   =         0.00000000
  -V(xc)+E(xc)   XCENC  =       304.85256863
  PAW double counting   =      9628.33173603   -10296.70712275
  entropy T*S    EENTRO =        -0.01780945
  eigenvalues    EBANDS =        47.92039310
  atomic energy  EATOM  =     10776.63837129
  Solvation  Ediel_sol  =         0.00000000
  ---------------------------------------------------
  free energy    TOTEN  =       614.55844906 eV

  energy without entropy =      614.57625852  energy(sigma->0) =      614.56438555


--------------------------------------------------------------------------------------------------------




--------------------------------------- Iteration      1(   2)  ---------------------------------------


     EDDAV:  cpu time    8.6212: real time    8.6345
       DOS:  cpu time    0.0060: real time    0.0060
    --------------------------------------------
      LOOP:  cpu time    8.6272: real time    8.6405

 eigenvalue-minimisations  :   448
 total energy-change (2. order) :-0.5072922E+03  (-0.4674300E+03)
 number of electron     100.0000000 magnetization      10.0000000
 augmentation part      100.0000000 magnetization      10.0000000

 Free energy of the ion-electron system (eV)
  ---------------------------------------------------
  alpha Z        PSCENC =         4.30178113
  Ewald energy   TEWEN  =     13003.91380518
  -Hartree energ DENC   =    -22854.67527411
  -exchange      EXHF   =         0.00000000
  -V(xc)+E(xc)   XCENC  =       304.85256863
  PAW double counting   =      9628.33173603   -10296.70712275
  entropy T*S    EENTRO =         0.01000476
  eigenvalues    EBANDS =      -459.39959276
  atomic energy  EATOM  =     10776.63837129
  Solvation  Ediel_sol  =         0.00000000
  ---------------------------------------------------
  free energy    TOTEN  =       107.26627741 eV

  energy without entropy =      107.25627265  energy(sigma->0) =      107.26294249


--------------------------------------------------------------------------------------------------------




--------------------------------------- Iteration      1(   3)  ---------------------------------------


     EDDAV:  cpu time    6.5539: real time    6.5620
       DOS:  cpu time    0.0023: real time    0.0023
    --------------------------------------------
      LOOP:  cpu time    6.5562: real time    6.5643

 eigenvalue-minimisations  :   312
 total energy-change (2. order) :-0.1357997E+03  (-0.1258127E+03)
 number of electron     100.0000000 magnetization      10.0000000
 augmentation part      100.0000000 magnetization      10.0000000

 Free energy of the ion-electron system (eV)
  ---------------------------------------------------
  alpha Z        PSCENC =         4.30178113
  Ewald energy   TEWEN  =     13003.91380518
  -Hartree energ DENC   =    -22854.67527411
  -exchange      EXHF   =         0.00000000
  -V(xc)+E(xc)   XCENC  =       304.85256863
  PAW double counting   =      9628.33173603   -10296.70712275
  entropy T*S    EENTRO =        -0.01677063
  eigenvalues    EBANDS =      -595.17253169
  atomic energy  EATOM  =     10776.63837129
  Solvation  Ediel_sol  =         0.00000000
  ---------------------------------------------------
  free energy    TOTEN  =       -28.53343690 eV

  energy without entropy =      -28.51666628  energy(sigma->0) =      -28.52784669


--------------------------------------------------------------------------------------------------------




--------------------------------------- Iteration      1(   4)  ---------------------------------------


     EDDAV:  cpu time    6.3117: real time    6.3201
       DOS:  cpu time    0.0061: real time    0.0061
    --------------------------------------------
      LOOP:  cpu time    6.3178: real time    6.3262

 eigenvalue-minimisations  :   296
 total energy-change (2. order) :-0.1287364E+02  (-0.1184673E+02)
 number of electron     100.0000000 magnetization      10.0000000
 augmentation part      100.0000000 magnetization      10.0000000

 Free energy of the ion-electron system (eV)
  ---------------------------------------------------
  alpha Z        PSCENC =         4.30178113
  Ewald energy   TEWEN  =     13003.91380518
  -Hartree energ DENC   =    -22854.67527411
  -exchange      EXHF   =         0.00000000
  -V(xc)+E(xc)   XCENC  =       304.85256863
  PAW double counting   =      9628.33173603   -10296.70712275
  entropy T*S    EENTRO =        -0.09426565
  eigenvalues    EBANDS =      -607.96867644
  atomic energy  EATOM  =     10776.63837129
  Solvation  Ediel_sol  =         0.00000000
  ---------------------------------------------------
  free energy    TOTEN  =       -41.40707667 eV

  energy without entropy =      -41.31281102  energy(sigma->0) =      -41.37565479


--------------------------------------------------------------------------------------------------------




--------------------------------------- Iteration      1(   5)  ---------------------------------------


     EDDAV:  cpu time    6.6219: real time    6.6306
       DOS:  cpu time    0.0062: real time    0.0062
    CHARGE:  cpu time    0.6776: real time    0.6783
    MIXING:  cpu time    0.0394: real time    0.0394
    --------------------------------------------
      LOOP:  cpu time    7.3451: real time    7.3545

 eigenvalue-minimisations  :   318
 total energy-change (2. order) :-0.2990786E+00  (-0.2960976E+00)
 number of electron      99.9999904 magnetization       9.8245224
 augmentation part       59.4626493 magnetization       8.3556485

 Broyden mixing:
  rms(total) = 0.19196E+01    rms(broyden)= 0.19187E+01
  rms(prec ) = 0.20272E+01
  weight for this iteration     100.00

 Free energy of the ion-electron system (eV)
  ---------------------------------------------------
  alpha Z        PSCENC =         4.30178113
  Ewald energy   TEWEN  =     13003.91380518
  -Hartree energ DENC   =    -22854.67527411
  -exchange      EXHF   =         0.00000000
  -V(xc)+E(xc)   XCENC  =       304.85256863
  PAW double counting   =      9628.33173603   -10296.70712275
  entropy T*S    EENTRO =        -0.09625284
  eigenvalues    EBANDS =      -608.26576784
  atomic energy  EATOM  =     10776.63837129
  Solvation  Ediel_sol  =         0.00000000
  ---------------------------------------------------
  free energy    TOTEN  =       -41.70615526 eV

  energy without entropy =      -41.60990242  energy(sigma->0) =      -41.67407098


--------------------------------------------------------------------------------------------------------




--------------------------------------- Iteration      1(   6)  ---------------------------------------


    POTLOK:  cpu time    2.5431: real time    2.5508
    SETDIJ:  cpu time    0.0248: real time    0.0248
     EDDAV:  cpu time    6.3679: real time    6.3791
       DOS:  cpu time    0.0060: real time    0.0060
    CHARGE:  cpu time    0.6550: real time    0.6577
    MIXING:  cpu time    0.0429: real time    0.0430
    --------------------------------------------
      LOOP:  cpu time    9.6396: real time    9.6613

 eigenvalue-minimisations  :   300
 total energy-change (2. order) :-0.2401456E+01  (-0.5065897E+01)
 number of electron      99.9999979 magnetization       9.7569978
 augmentation part       64.0581864 magnetization       8.4066426

 Broyden mixing:
  rms(total) = 0.42983E+01    rms(broyden)= 0.42977E+01
  rms(prec ) = 0.45331E+01
  weight for this iteration     100.00

 eigenvalues of (default mixing * dielectric matrix)
  average eigenvalue GAMMA=   0.1858
  0.1858

 Free energy of the ion-electron system (eV)
  ---------------------------------------------------
  alpha Z        PSCENC =         4.30178113
  Ewald energy   TEWEN  =     13003.91380518
  -Hartree energ DENC   =    -22755.44354822
  -exchange      EXHF   =         0.00000000
  -V(xc)+E(xc)   XCENC  =       298.12573294
  PAW double counting   =      9948.24554956   -10591.89853823
  entropy T*S    EENTRO =        -0.01060841
  eigenvalues    EBANDS =      -727.98015609
  atomic energy  EATOM  =     10776.63837129
  Solvation  Ediel_sol  =         0.00000000
  ---------------------------------------------------
  free energy    TOTEN  =       -44.10761083 eV

  energy without entropy =      -44.09700242  energy(sigma->0) =      -44.10407469


--------------------------------------------------------------------------------------------------------




--------------------------------------- Iteration      1(   7)  ---------------------------------------


    POTLOK:  cpu time    2.5327: real time    2.5381
    SETDIJ:  cpu time    0.0238: real time    0.0239
     EDDAV:  cpu time    6.1557: real time    6.1677
       DOS:  cpu time    0.0055: real time    0.0055
    CHARGE:  cpu time    0.6664: real time    0.6670
    MIXING:  cpu time    0.0452: real time    0.0452
    --------------------------------------------
      LOOP:  cpu time    9.4293: real time    9.4474

 eigenvalue-minimisations  :   286
 total energy-change (2. order) : 0.3766612E+01  (-0.4128089E+01)
 number of electron      99.9999897 magnetization       9.7028882
 augmentation part       64.3048097 magnetization       8.0155598

 Broyden mixing:
  rms(total) = 0.32154E+01    rms(broyden)= 0.32142E+01
  rms(prec ) = 0.34004E+01
  weight for this iteration     100.00

 eigenvalues of (default mixing * dielectric matrix)
  average eigenvalue GAMMA=   0.2065
  0.2532  0.1598

 Free energy of the ion-electron system (eV)
  ---------------------------------------------------
  alpha Z        PSCENC =         4.30178113
  Ewald energy   TEWEN  =     13003.91380518
  -Hartree energ DENC   =    -22774.89271253
  -exchange      EXHF   =         0.00000000
  -V(xc)+E(xc)   XCENC  =       298.92627086
  PAW double counting   =     10033.84289211   -10684.13933953
  entropy T*S    EENTRO =        -0.01956571
  eigenvalues    EBANDS =      -698.91250196
  atomic energy  EATOM  =     10776.63837129
  Solvation  Ediel_sol  =         0.00000000
  ---------------------------------------------------
  free energy    TOTEN  =       -40.34099916 eV

  energy without entropy =      -40.32143345  energy(sigma->0) =      -40.33447726


--------------------------------------------------------------------------------------------------------




--------------------------------------- Iteration      1(   8)  ---------------------------------------


    POTLOK:  cpu time    2.5460: real time    2.5511
    SETDIJ:  cpu time    0.0239: real time    0.0239
     EDDAV:  cpu time    6.1680: real time    6.1757
       DOS:  cpu time    0.0063: real time    0.0063
    CHARGE:  cpu time    0.6603: real time    0.6609
    MIXING:  cpu time    0.0481: real time    0.0482
    --------------------------------------------
      LOOP:  cpu time    9.4525: real time    9.4660

 eigenvalue-minimisations  :   286
 total energy-change (2. order) :-0.3067995E+00  (-0.2958522E+01)
 number of electron      99.9999855 magnetization       9.6321109
 augmentation part       63.4457369 magnetization       8.0728222

 Broyden mixing:
  rms(total) = 0.40944E+01    rms(broyden)= 0.40937E+01
  rms(prec ) = 0.43726E+01
  weight for this iteration     100.00

 eigenvalues of (default mixing * dielectric matrix)
  average eigenvalue GAMMA=   0.2527
  0.4920  0.1331  0.1331

 Free energy of the ion-electron system (eV)
  ---------------------------------------------------
  alpha Z        PSCENC =         4.30178113
  Ewald energy   TEWEN  =     13003.91380518
  -Hartree energ DENC   =    -22806.47784203
  -exchange      EXHF   =         0.00000000
  -V(xc)+E(xc)   XCENC  =       300.04106638
  PAW double counting   =     10134.44643454   -10793.24450817
  entropy T*S    EENTRO =        -0.01103304
  eigenvalues    EBANDS =      -660.25587392
  atomic energy  EATOM  =     10776.63837129
  Solvation  Ediel_sol  =         0.00000000
  ---------------------------------------------------
  free energy    TOTEN  =       -40.64779864 eV

  energy without entropy =      -40.63676561  energy(sigma->0) =      -40.64412096


--------------------------------------------------------------------------------------------------------




--------------------------------------- Iteration      1(   9)  ---------------------------------------


    POTLOK:  cpu time    2.5290: real time    2.5381
    SETDIJ:  cpu time    0.0222: real time    0.0223
     EDDAV:  cpu time    6.9151: real time    6.9242
       DOS:  cpu time    0.0035: real time    0.0035
    CHARGE:  cpu time    0.6608: real time    0.6614
    MIXING:  cpu time    0.0515: real time    0.0516
    --------------------------------------------
      LOOP:  cpu time   10.1822: real time   10.2011

 eigenvalue-minimisations  :   334
 total energy-change (2. order) : 0.1921879E+01  (-0.1883606E+01)
 number of electron      99.9999854 magnetization       9.5936867
 augmentation part       62.7754043 magnetization       7.8681027

 Broyden mixing:
  rms(total) = 0.37853E+01    rms(broyden)= 0.37849E+01
  rms(prec ) = 0.40366E+01
  weight for this iteration     100.00

 eigenvalues of (default mixing * dielectric matrix)
  average eigenvalue GAMMA=   0.2424
  0.6019  0.1372  0.1372  0.0932

 Free energy of the ion-electron system (eV)
  ---------------------------------------------------
  alpha Z        PSCENC =         4.30178113
  Ewald energy   TEWEN  =     13003.91380518
  -Hartree energ DENC   =    -22838.04045244
  -exchange      EXHF   =         0.00000000
  -V(xc)+E(xc)   XCENC  =       300.87424595
  PAW double counting   =     10238.16133148   -10905.14438395
  entropy T*S    EENTRO =         0.05373998
  eigenvalues    EBANDS =      -619.48435779
  atomic energy  EATOM  =     10776.63837129
  Solvation  Ediel_sol  =         0.00000000
  ---------------------------------------------------
  free energy    TOTEN  =       -38.72591917 eV

  energy without entropy =      -38.77965914  energy(sigma->0) =      -38.74383249


--------------------------------------------------------------------------------------------------------




--------------------------------------- Iteration      1(  10)  ---------------------------------------


    POTLOK:  cpu time    2.5233: real time    2.5266
    SETDIJ:  cpu time    0.0242: real time    0.0242
     EDDAV:  cpu time    7.3794: real time    7.3929
       DOS:  cpu time    0.0046: real time    0.0046
    CHARGE:  cpu time    0.6686: real time    0.6692
    MIXING:  cpu time    0.0555: real time    0.0556
    --------------------------------------------
      LOOP:  cpu time   10.6556: real time   10.6730

 eigenvalue-minimisations  :   366
 total energy-change (2. order) : 0.2726994E+01  (-0.1054795E+01)
 number of electron      99.9999906 magnetization       9.5280999
 augmentation part       62.6869376 magnetization       7.9539844

 Broyden mixing:
  rms(total) = 0.17331E+01    rms(broyden)= 0.17319E+01
  rms(prec ) = 0.18389E+01
  weight for this iteration     100.00

 eigenvalues of (default mixing * dielectric matrix)
  average eigenvalue GAMMA=   0.2530
  0.6697  0.1908  0.1908  0.1070  0.1070

 Free energy of the ion-electron system (eV)
  ---------------------------------------------------
  alpha Z        PSCENC =         4.30178113
  Ewald energy   TEWEN  =     13003.91380518
  -Hartree energ DENC   =    -22850.39292825
  -exchange      EXHF   =         0.00000000
  -V(xc)+E(xc)   XCENC  =       301.11764740
  PAW double counting   =     10286.51778599   -10956.62747711
  entropy T*S    EENTRO =        -0.03432240
  eigenvalues    EBANDS =      -601.43358795
  atomic energy  EATOM  =     10776.63837129
  Solvation  Ediel_sol  =         0.00000000
  ---------------------------------------------------
  free energy    TOTEN  =       -35.99892471 eV

  energy without entropy =      -35.96460232  energy(sigma->0) =      -35.98748391


--------------------------------------------------------------------------------------------------------




--------------------------------------- Iteration      1(  11)  ---------------------------------------


    POTLOK:  cpu time    2.5271: real time    2.5340
    SETDIJ:  cpu time    0.0275: real time    0.0275
     EDDAV:  cpu time    7.3138: real time    7.3270
       DOS:  cpu time    0.0063: real time    0.0063
    CHARGE:  cpu time    0.6627: real time    0.6633
    MIXING:  cpu time    0.0607: real time    0.0608
    --------------------------------------------
      LOOP:  cpu time   10.5980: real time   10.6189

 eigenvalue-minimisations  :   360
 total energy-change (2. order) :-0.3853496E+00  (-0.7953620E+00)
 number of electron      99.9999912 magnetization       9.4095452
 augmentation part       62.3534489 magnetization       7.7177307

 Broyden mixing:
  rms(total) = 0.24913E+01    rms(broyden)= 0.24903E+01
  rms(prec ) = 0.26449E+01
  weight for this iteration     100.00

 eigenvalues of (default mixing * dielectric matrix)
  average eigenvalue GAMMA=   0.3336
  1.0414  0.4902  0.1184  0.1184  0.1284  0.1048

 Free energy of the ion-electron system (eV)
  ---------------------------------------------------
  alpha Z        PSCENC =         4.30178113
  Ewald energy   TEWEN  =     13003.91380518
  -Hartree energ DENC   =    -22858.63708643
  -exchange      EXHF   =         0.00000000
  -V(xc)+E(xc)   XCENC  =       301.42117300
  PAW double counting   =     10346.04657566   -11018.71423184
  entropy T*S    EENTRO =        -0.05456179
  eigenvalues    EBANDS =      -591.30010051
  atomic energy  EATOM  =     10776.63837129
  Solvation  Ediel_sol  =         0.00000000
  ---------------------------------------------------
  free energy    TOTEN  =       -36.38427431 eV

  energy without entropy =      -36.32971252  energy(sigma->0) =      -36.36608704


--------------------------------------------------------------------------------------------------------




--------------------------------------- Iteration      1(  12)  ---------------------------------------


    POTLOK:  cpu time    2.5228: real time    2.5306
    SETDIJ:  cpu time    0.0238: real time    0.0238
     EDDAV:  cpu time    6.5005: real time    6.5118
       DOS:  cpu time    0.0047: real time    0.0047
    CHARGE:  cpu time    0.6545: real time    0.6550
    MIXING:  cpu time    0.0668: real time    0.0669
    --------------------------------------------
      LOOP:  cpu time    9.7730: real time    9.7927

 eigenvalue-minimisations  :   308
 total energy-change (2. order) : 0.4588494E+00  (-0.8475312E+00)
 number of electron      99.9999950 magnetization       9.3840002
 augmentation part       62.1382669 magnetization       7.8072807

 Broyden mixing:
  rms(total) = 0.25181E+01    rms(broyden)= 0.25176E+01
  rms(prec ) = 0.26723E+01
  weight for this iteration     100.00

 eigenvalues of (default mixing * dielectric matrix)
  average eigenvalue GAMMA=   0.3158
  1.1386  0.5180  0.1278  0.1278  0.1135  0.1135  0.0716

 Free energy of the ion-electron system (eV)
  ---------------------------------------------------
  alpha Z        PSCENC =         4.30178113
  Ewald energy   TEWEN  =     13003.91380518
  -Hartree energ DENC   =    -22869.78403449
  -exchange      EXHF   =         0.00000000
  -V(xc)+E(xc)   XCENC  =       301.76150328
  PAW double counting   =     10450.51171678   -11127.14622679
  entropy T*S    EENTRO =        -0.06577948
  eigenvalues    EBANDS =      -576.05656180
  atomic energy  EATOM  =     10776.63837129
  Solvation  Ediel_sol  =         0.00000000
  ---------------------------------------------------
  free energy    TOTEN  =       -35.92542489 eV

  energy without entropy =      -35.85964541  energy(sigma->0) =      -35.90349840


--------------------------------------------------------------------------------------------------------




--------------------------------------- Iteration      1(  13)  ---------------------------------------


    POTLOK:  cpu time    2.5260: real time    2.5306
    SETDIJ:  cpu time    0.0243: real time    0.0243
     EDDAV:  cpu time    6.8140: real time    6.8225
       DOS:  cpu time    0.0040: real time    0.0040
    CHARGE:  cpu time    0.6525: real time    0.6531
    MIXING:  cpu time    0.0720: real time    0.0721
    --------------------------------------------
      LOOP:  cpu time   10.0928: real time   10.1066

 eigenvalue-minimisations  :   334
 total energy-change (2. order) : 0.9710041E+00  (-0.3305377E+00)
 number of electron      99.9999923 magnetization       9.3667939
 augmentation part       62.3449207 magnetization       7.8977624

 Broyden mixing:
  rms(total) = 0.17446E+01    rms(broyden)= 0.17441E+01
  rms(prec ) = 0.18520E+01
  weight for this iteration     100.00

 eigenvalues of (default mixing * dielectric matrix)
  average eigenvalue GAMMA=   0.2970
  1.1800  0.5043  0.1628  0.1628  0.1052  0.1052  0.0777  0.0777

 Free energy of the ion-electron system (eV)
  ---------------------------------------------------
  alpha Z        PSCENC =         4.30178113
  Ewald energy   TEWEN  =     13003.91380518
  -Hartree energ DENC   =    -22869.83531238
  -exchange      EXHF   =         0.00000000
  -V(xc)+E(xc)   XCENC  =       301.74628838
  PAW double counting   =     10468.17589381   -11145.21878693
  entropy T*S    EENTRO =        -0.08109013
  eigenvalues    EBANDS =      -574.59537119
  atomic energy  EATOM  =     10776.63837129
  Solvation  Ediel_sol  =         0.00000000
  ---------------------------------------------------
  free energy    TOTEN  =       -34.95442084 eV

  energy without entropy =      -34.87333070  energy(sigma->0) =      -34.92739079


--------------------------------------------------------------------------------------------------------




--------------------------------------- Iteration      1(  14)  ---------------------------------------


    POTLOK:  cpu time    2.5128: real time    2.5198
    SETDIJ:  cpu time    0.0246: real time    0.0246
     EDDAV:  cpu time    7.0501: real time    7.0588
       DOS:  cpu time    0.0046: real time    0.0046
    CHARGE:  cpu time    0.6721: real time    0.6727
    MIXING:  cpu time    0.0802: real time    0.0825
    --------------------------------------------
      LOOP:  cpu time   10.3445: real time   10.3629

 eigenvalue-minimisations  :   348
 total energy-change (2. order) : 0.2226431E+00  (-0.1100819E+00)
 number of electron      99.9999922 magnetization       9.3380911
 augmentation part       62.3393485 magnetization       7.9296585

 Broyden mixing:
  rms(total) = 0.12113E+01    rms(broyden)= 0.12110E+01
  rms(prec ) = 0.12860E+01
  weight for this iteration     100.00

 eigenvalues of (default mixing * dielectric matrix)
  average eigenvalue GAMMA=   0.2852
  1.2016  0.4638  0.2176  0.2176  0.1102  0.1102  0.0959  0.0959  0.0538

 Free energy of the ion-electron system (eV)
  ---------------------------------------------------
  alpha Z        PSCENC =         4.30178113
  Ewald energy   TEWEN  =     13003.91380518
  -Hartree energ DENC   =    -22871.06540671
  -exchange      EXHF   =         0.00000000
  -V(xc)+E(xc)   XCENC  =       301.75398998
  PAW double counting   =     10478.19745274   -11155.54458644
  entropy T*S    EENTRO =        -0.07713999
  eigenvalues    EBANDS =      -572.85004496
  atomic energy  EATOM  =     10776.63837129
  Solvation  Ediel_sol  =         0.00000000
  ---------------------------------------------------
  free energy    TOTEN  =       -34.73177777 eV

  energy without entropy =      -34.65463778  energy(sigma->0) =      -34.70606444


--------------------------------------------------------------------------------------------------------




--------------------------------------- Iteration      1(  15)  ---------------------------------------


    POTLOK:  cpu time    2.5232: real time    2.5288
    SETDIJ:  cpu time    0.0243: real time    0.0243
     EDDAV:  cpu time    6.9368: real time    6.9495
       DOS:  cpu time    0.0069: real time    0.0069
    CHARGE:  cpu time    0.6580: real time    0.6608
    MIXING:  cpu time    0.0913: real time    0.0914
    --------------------------------------------
      LOOP:  cpu time   10.2404: real time   10.2617

 eigenvalue-minimisations  :   336
 total energy-change (2. order) : 0.1518200E+00  (-0.5923406E-01)
 number of electron      99.9999906 magnetization       9.2912396
 augmentation part       62.3434553 magnetization       7.9449387

 Broyden mixing:
  rms(total) = 0.67403E+00    rms(broyden)= 0.67370E+00
  rms(prec ) = 0.70889E+00
  weight for this iteration     100.00

 eigenvalues of (default mixing * dielectric matrix)
  average eigenvalue GAMMA=   0.3024
  1.2861  0.4590  0.4590  0.1731  0.1731  0.1146  0.1146  0.0936  0.0936  0.0575

 Free energy of the ion-electron system (eV)
  ---------------------------------------------------
  alpha Z        PSCENC =         4.30178113
  Ewald energy   TEWEN  =     13003.91380518
  -Hartree energ DENC   =    -22872.17760660
  -exchange      EXHF   =         0.00000000
  -V(xc)+E(xc)   XCENC  =       301.77588993
  PAW double counting   =     10490.47649325   -11168.00287876
  entropy T*S    EENTRO =        -0.06708659
  eigenvalues    EBANDS =      -571.43872666
  atomic energy  EATOM  =     10776.63837129
  Solvation  Ediel_sol  =         0.00000000
  ---------------------------------------------------
  free energy    TOTEN  =       -34.57995782 eV

  energy without entropy =      -34.51287123  energy(sigma->0) =      -34.55759563


--------------------------------------------------------------------------------------------------------




--------------------------------------- Iteration      1(  16)  ---------------------------------------


    POTLOK:  cpu time    2.5344: real time    2.5402
    SETDIJ:  cpu time    0.0239: real time    0.0239
     EDDAV:  cpu time    7.3405: real time    7.3483
       DOS:  cpu time    0.0015: real time    0.0015
    CHARGE:  cpu time    0.6458: real time    0.6504
    MIXING:  cpu time    0.0884: real time    0.0885
    --------------------------------------------
      LOOP:  cpu time   10.6344: real time   10.6528

 eigenvalue-minimisations  :   360
 total energy-change (2. order) :-0.2404759E-01  (-0.4696545E-01)
 number of electron      99.9999899 magnetization       9.2082931
 augmentation part       62.3537609 magnetization       7.9043385

 Broyden mixing:
  rms(total) = 0.73301E+00    rms(broyden)= 0.73248E+00
  rms(prec ) = 0.77453E+00
  weight for this iteration     100.00

 eigenvalues of (default mixing * dielectric matrix)
  average eigenvalue GAMMA=   0.3353
  1.4944  0.5743  0.5743  0.2646  0.2049  0.1136  0.1136  0.1121  0.0902  0.0902
  0.0560

 Free energy of the ion-electron system (eV)
  ---------------------------------------------------
  alpha Z        PSCENC =         4.30178113
  Ewald energy   TEWEN  =     13003.91380518
  -Hartree energ DENC   =    -22874.85841449
  -exchange      EXHF   =         0.00000000
  -V(xc)+E(xc)   XCENC  =       301.78880765
  PAW double counting   =     10508.07285156   -11185.85075346
  entropy T*S    EENTRO =        -0.05446895
  eigenvalues    EBANDS =      -568.55598533
  atomic energy  EATOM  =     10776.63837129
  Solvation  Ediel_sol  =         0.00000000
  ---------------------------------------------------
  free energy    TOTEN  =       -34.60400541 eV

  energy without entropy =      -34.54953646  energy(sigma->0) =      -34.58584910


--------------------------------------------------------------------------------------------------------




--------------------------------------- Iteration      1(  17)  ---------------------------------------


    POTLOK:  cpu time    2.5373: real time    2.5435
    SETDIJ:  cpu time    0.0243: real time    0.0243
     EDDAV:  cpu time    6.5665: real time    6.5734
       DOS:  cpu time    0.0014: real time    0.0014
    CHARGE:  cpu time    0.6587: real time    0.6593
    MIXING:  cpu time    0.1047: real time    0.1069
    --------------------------------------------
      LOOP:  cpu time    9.8928: real time    9.9089

 eigenvalue-minimisations  :   312
 total energy-change (2. order) :-0.8742358E-03  (-0.5736603E-01)
 number of electron      99.9999900 magnetization       9.1851034
 augmentation part       62.3774899 magnetization       7.8996375

 Broyden mixing:
  rms(total) = 0.84722E+00    rms(broyden)= 0.84664E+00
  rms(prec ) = 0.90086E+00
  weight for this iteration     100.00

 eigenvalues of (default mixing * dielectric matrix)
  average eigenvalue GAMMA=   0.3153
  1.5074  0.5829  0.5829  0.2861  0.1962  0.1135  0.1135  0.1136  0.0919  0.0919
  0.0541  0.0493

 Free energy of the ion-electron system (eV)
  ---------------------------------------------------
  alpha Z        PSCENC =         4.30178113
  Ewald energy   TEWEN  =     13003.91380518
  -Hartree energ DENC   =    -22878.29384055
  -exchange      EXHF   =         0.00000000
  -V(xc)+E(xc)   XCENC  =       301.73120191
  PAW double counting   =     10533.61207699   -11211.39081014
  entropy T*S    EENTRO =        -0.00322091
  eigenvalues    EBANDS =      -565.11424456
  atomic energy  EATOM  =     10776.63837129
  Solvation  Ediel_sol  =         0.00000000
  ---------------------------------------------------
  free energy    TOTEN  =       -34.60487965 eV

  energy without entropy =      -34.60165874  energy(sigma->0) =      -34.60380601


--------------------------------------------------------------------------------------------------------




--------------------------------------- Iteration      1(  18)  ---------------------------------------


    POTLOK:  cpu time    2.5238: real time    2.5262
    SETDIJ:  cpu time    0.0253: real time    0.0253
     EDDAV:  cpu time    6.0144: real time    6.0231
       DOS:  cpu time    0.0016: real time    0.0016
    CHARGE:  cpu time    0.6879: real time    0.6884
    MIXING:  cpu time    0.1074: real time    0.1075
    --------------------------------------------
      LOOP:  cpu time    9.3603: real time    9.3721

 eigenvalue-minimisations  :   278
 total energy-change (2. order) : 0.1166728E+00  (-0.2201739E-01)
 number of electron      99.9999899 magnetization       9.0646996
 augmentation part       62.4403974 magnetization       7.7830600

 Broyden mixing:
  rms(total) = 0.36579E+00    rms(broyden)= 0.36550E+00
  rms(prec ) = 0.38535E+00
  weight for this iteration     100.00

 eigenvalues of (default mixing * dielectric matrix)
  average eigenvalue GAMMA=   0.3678
  1.6414  0.7400  0.7400  0.4129  0.4129  0.1700  0.1135  0.1135  0.1210  0.0929
  0.0929  0.0565  0.0745

 Free energy of the ion-electron system (eV)
  ---------------------------------------------------
  alpha Z        PSCENC =         4.30178113
  Ewald energy   TEWEN  =     13003.91380518
  -Hartree energ DENC   =    -22878.66762129
  -exchange      EXHF   =         0.00000000
  -V(xc)+E(xc)   XCENC  =       301.70270411
  PAW double counting   =     10537.79885310   -11215.41737408
  entropy T*S    EENTRO =        -0.03618609
  eigenvalues    EBANDS =      -564.72254018
  atomic energy  EATOM  =     10776.63837129
  Solvation  Ediel_sol  =         0.00000000
  ---------------------------------------------------
  free energy    TOTEN  =       -34.48820682 eV

  energy without entropy =      -34.45202073  energy(sigma->0) =      -34.47614479


--------------------------------------------------------------------------------------------------------




--------------------------------------- Iteration      1(  19)  ---------------------------------------


    POTLOK:  cpu time    2.5244: real time    2.5353
    SETDIJ:  cpu time    0.0244: real time    0.0244
     EDDAV:  cpu time    7.4936: real time    7.5029
       DOS:  cpu time    0.0013: real time    0.0013
    CHARGE:  cpu time    0.6904: real time    0.6909
    MIXING:  cpu time    0.1156: real time    0.1156
    --------------------------------------------
      LOOP:  cpu time   10.8496: real time   10.8705

 eigenvalue-minimisations  :   376
 total energy-change (2. order) :-0.1137586E+00  (-0.1869699E-01)
 number of electron      99.9999902 magnetization       9.0252467
 augmentation part       62.5122263 magnetization       7.7736913

 Broyden mixing:
  rms(total) = 0.48986E+00    rms(broyden)= 0.48948E+00
  rms(prec ) = 0.51631E+00
  weight for this iteration     100.00

 eigenvalues of (default mixing * dielectric matrix)
  average eigenvalue GAMMA=   0.3588
  1.6916  0.7588  0.7588  0.4330  0.4330  0.1687  0.1134  0.1134  0.1184  0.1184
  0.0928  0.0928  0.0565  0.0739

 Free energy of the ion-electron system (eV)
  ---------------------------------------------------
  alpha Z        PSCENC =         4.30178113
  Ewald energy   TEWEN  =     13003.91380518
  -Hartree energ DENC   =    -22883.37656259
  -exchange      EXHF   =         0.00000000
  -V(xc)+E(xc)   XCENC  =       301.60868144
  PAW double counting   =     10553.60973471   -11230.86295402
  entropy T*S    EENTRO =        -0.04040380
  eigenvalues    EBANDS =      -560.39441878
  atomic energy  EATOM  =     10776.63837129
  Solvation  Ediel_sol  =         0.00000000
  ---------------------------------------------------
  free energy    TOTEN  =       -34.60196542 eV

  energy without entropy =      -34.56156162  energy(sigma->0) =      -34.58849748


--------------------------------------------------------------------------------------------------------




--------------------------------------- Iteration      1(  20)  ---------------------------------------


    POTLOK:  cpu time    2.5316: real time    2.5342
    SETDIJ:  cpu time    0.0249: real time    0.0249
     EDDAV:  cpu time    6.0422: real time    6.0542
       DOS:  cpu time    0.0019: real time    0.0019
    CHARGE:  cpu time    0.6918: real time    0.6924
    MIXING:  cpu time    0.1273: real time    0.1274
    --------------------------------------------
      LOOP:  cpu time    9.4197: real time    9.4351

 eigenvalue-minimisations  :   280
 total energy-change (2. order) :-0.6943087E-02  (-0.1308405E-01)
 number of electron      99.9999901 magnetization       8.8738365
 augmentation part       62.5363263 magnetization       7.6520377

 Broyden mixing:
  rms(total) = 0.28353E+00    rms(broyden)= 0.28329E+00
  rms(prec ) = 0.30207E+00
  weight for this iteration     100.00

 eigenvalues of (default mixing * dielectric matrix)
  average eigenvalue GAMMA=   0.4065
  1.9206  0.8638  0.8638  0.5704  0.5704  0.3706  0.1742  0.1135  0.1135  0.1183
  0.1020  0.0927  0.0927  0.0565  0.0739

 Free energy of the ion-electron system (eV)
  ---------------------------------------------------
  alpha Z        PSCENC =         4.30178113
  Ewald energy   TEWEN  =     13003.91380518
  -Hartree energ DENC   =    -22884.63551915
  -exchange      EXHF   =         0.00000000
  -V(xc)+E(xc)   XCENC  =       301.56556504
  PAW double counting   =     10557.18221977   -11234.29830114
  entropy T*S    EENTRO =        -0.04141300
  eigenvalues    EBANDS =      -559.23541763
  atomic energy  EATOM  =     10776.63837129
  Solvation  Ediel_sol  =         0.00000000
  ---------------------------------------------------
  free energy    TOTEN  =       -34.60890851 eV

  energy without entropy =      -34.56749551  energy(sigma->0) =      -34.59510417


--------------------------------------------------------------------------------------------------------




--------------------------------------- Iteration      1(  21)  ---------------------------------------


    POTLOK:  cpu time    2.5230: real time    2.5393
    SETDIJ:  cpu time    0.0270: real time    0.0270
     EDDAV:  cpu time    7.2654: real time    7.2778
       DOS:  cpu time    0.0070: real time    0.0070
    CHARGE:  cpu time    0.6557: real time    0.6562
    MIXING:  cpu time    0.1338: real time    0.1339
    --------------------------------------------
      LOOP:  cpu time   10.6118: real time   10.6411

 eigenvalue-minimisations  :   360
 total energy-change (2. order) :-0.1822736E+00  (-0.1025365E-01)
 number of electron      99.9999899 magnetization       8.7371418
 augmentation part       62.5719932 magnetization       7.5844711

 Broyden mixing:
  rms(total) = 0.16627E+00    rms(broyden)= 0.16603E+00
  rms(prec ) = 0.17628E+00
  weight for this iteration     100.00

 eigenvalues of (default mixing * dielectric matrix)
  average eigenvalue GAMMA=   0.4632
  2.2348  1.2689  0.6418  0.6418  0.6411  0.6411  0.4045  0.1728  0.1135  0.1135
  0.1203  0.1016  0.0927  0.0927  0.0565  0.0739

 Free energy of the ion-electron system (eV)
  ---------------------------------------------------
  alpha Z        PSCENC =         4.30178113
  Ewald energy   TEWEN  =     13003.91380518
  -Hartree energ DENC   =    -22889.92214530
  -exchange      EXHF   =         0.00000000
  -V(xc)+E(xc)   XCENC  =       301.44304604
  PAW double counting   =     10566.10686509   -11243.04007320
  entropy T*S    EENTRO =        -0.02795888
  eigenvalues    EBANDS =      -554.20487351
  atomic energy  EATOM  =     10776.63837129
  Solvation  Ediel_sol  =         0.00000000
  ---------------------------------------------------
  free energy    TOTEN  =       -34.79118215 eV

  energy without entropy =      -34.76322327  energy(sigma->0) =      -34.78186252


--------------------------------------------------------------------------------------------------------




--------------------------------------- Iteration      1(  22)  ---------------------------------------


    POTLOK:  cpu time    2.5115: real time    2.5164
    SETDIJ:  cpu time    0.0237: real time    0.0237
     EDDAV:  cpu time    6.4306: real time    6.4394
       DOS:  cpu time    0.0069: real time    0.0069
    CHARGE:  cpu time    0.6508: real time    0.6536
    MIXING:  cpu time    0.1449: real time    0.1450
    --------------------------------------------
      LOOP:  cpu time    9.7684: real time    9.7851

 eigenvalue-minimisations  :   304
 total energy-change (2. order) :-0.2178675E+00  (-0.7976843E-02)
 number of electron      99.9999900 magnetization       8.6729642
 augmentation part       62.5481634 magnetization       7.5708425

 Broyden mixing:
  rms(total) = 0.19026E+00    rms(broyden)= 0.19002E+00
  rms(prec ) = 0.20058E+00
  weight for this iteration     100.00

 eigenvalues of (default mixing * dielectric matrix)
  average eigenvalue GAMMA=   0.4948
  2.3793  1.4631  0.7180  0.7180  0.7189  0.5366  0.5366  0.4032  0.1727  0.1135
  0.1135  0.1204  0.1020  0.0927  0.0927  0.0565  0.0739

 Free energy of the ion-electron system (eV)
  ---------------------------------------------------
  alpha Z        PSCENC =         4.30178113
  Ewald energy   TEWEN  =     13003.91380518
  -Hartree energ DENC   =    -22895.34519995
  -exchange      EXHF   =         0.00000000
  -V(xc)+E(xc)   XCENC  =       301.33354795
  PAW double counting   =     10565.89416191   -11242.69059209
  entropy T*S    EENTRO =        -0.03531048
  eigenvalues    EBANDS =      -549.01961456
  atomic energy  EATOM  =     10776.63837129
  Solvation  Ediel_sol  =         0.00000000
  ---------------------------------------------------
  free energy    TOTEN  =       -35.00904962 eV

  energy without entropy =      -34.97373914  energy(sigma->0) =      -34.99727946


--------------------------------------------------------------------------------------------------------




--------------------------------------- Iteration      1(  23)  ---------------------------------------


    POTLOK:  cpu time    2.5098: real time    2.5124
    SETDIJ:  cpu time    0.0232: real time    0.0232
     EDDAV:  cpu time    5.8224: real time    5.8298
       DOS:  cpu time    0.0070: real time    0.0071
    CHARGE:  cpu time    0.6445: real time    0.6451
    MIXING:  cpu time    0.1461: real time    0.1485
    --------------------------------------------
      LOOP:  cpu time    9.1531: real time    9.1661

 eigenvalue-minimisations  :   268
 total energy-change (2. order) :-0.1562065E+00  (-0.3227600E-02)
 number of electron      99.9999899 magnetization       8.6126887
 augmentation part       62.5480635 magnetization       7.5496105

 Broyden mixing:
  rms(total) = 0.15750E+00    rms(broyden)= 0.15742E+00
  rms(prec ) = 0.16706E+00
  weight for this iteration     100.00

 eigenvalues of (default mixing * dielectric matrix)
  average eigenvalue GAMMA=   0.5209
  2.4698  1.1349  1.1349  0.7296  0.7296  0.6146  0.6146  0.5992  0.4107  0.1727
  0.1135  0.1135  0.1204  0.1020  0.0927  0.0927  0.0565  0.0739

 Free energy of the ion-electron system (eV)
  ---------------------------------------------------
  alpha Z        PSCENC =         4.30178113
  Ewald energy   TEWEN  =     13003.91380518
  -Hartree energ DENC   =    -22896.52444292
  -exchange      EXHF   =         0.00000000
  -V(xc)+E(xc)   XCENC  =       301.20767910
  PAW double counting   =     10560.66609779   -11237.38981422
  entropy T*S    EENTRO =        -0.03320263
  eigenvalues    EBANDS =      -547.94553088
  atomic energy  EATOM  =     10776.63837129
  Solvation  Ediel_sol  =         0.00000000
  ---------------------------------------------------
  free energy    TOTEN  =       -35.16525616 eV

  energy without entropy =      -35.13205353  energy(sigma->0) =      -35.15418861


--------------------------------------------------------------------------------------------------------




--------------------------------------- Iteration      1(  24)  ---------------------------------------


    POTLOK:  cpu time    2.5092: real time    2.5122
    SETDIJ:  cpu time    0.0239: real time    0.0239
     EDDAV:  cpu time    6.5744: real time    6.5828
       DOS:  cpu time    0.0069: real time    0.0069
    CHARGE:  cpu time    0.6781: real time    0.6787
    MIXING:  cpu time    0.1581: real time    0.1583
    --------------------------------------------
      LOOP:  cpu time    9.9506: real time    9.9628

 eigenvalue-minimisations  :   312
 total energy-change (2. order) :-0.1382757E+00  (-0.1793504E-02)
 number of electron      99.9999899 magnetization       8.5177945
 augmentation part       62.5460869 magnetization       7.4869827

 Broyden mixing:
  rms(total) = 0.74257E-01    rms(broyden)= 0.74166E-01
  rms(prec ) = 0.79379E-01
  weight for this iteration     100.00

 eigenvalues of (default mixing * dielectric matrix)
  average eigenvalue GAMMA=   0.5572
  2.7719  1.0964  1.0964  0.9108  0.9108  0.6406  0.6406  0.5890  0.5890  0.4033
  0.1727  0.1135  0.1135  0.1204  0.1020  0.0927  0.0927  0.0565  0.0739

 Free energy of the ion-electron system (eV)
  ---------------------------------------------------
  alpha Z        PSCENC =         4.30178113
  Ewald energy   TEWEN  =     13003.91380518
  -Hartree energ DENC   =    -22897.05764359
  -exchange      EXHF   =         0.00000000
  -V(xc)+E(xc)   XCENC  =       301.08227004
  PAW double counting   =     10556.59379972   -11233.45140733
  entropy T*S    EENTRO =        -0.03020979
  eigenvalues    EBANDS =      -547.29429857
  atomic energy  EATOM  =     10776.63837129
  Solvation  Ediel_sol  =         0.00000000
  ---------------------------------------------------
  free energy    TOTEN  =       -35.30353190 eV

  energy without entropy =      -35.27332211  energy(sigma->0) =      -35.29346197


--------------------------------------------------------------------------------------------------------




--------------------------------------- Iteration      1(  25)  ---------------------------------------


    POTLOK:  cpu time    2.5148: real time    2.5290
    SETDIJ:  cpu time    0.0245: real time    0.0245
     EDDAV:  cpu time    6.2063: real time    6.2121
       DOS:  cpu time    0.0071: real time    0.0071
    CHARGE:  cpu time    0.6947: real time    0.6953
    MIXING:  cpu time    0.1756: real time    0.1779
    --------------------------------------------
      LOOP:  cpu time    9.6230: real time    9.6461

 eigenvalue-minimisations  :   292
 total energy-change (2. order) :-0.1615379E+00  (-0.1692528E-02)
 number of electron      99.9999899 magnetization       8.4480392
 augmentation part       62.5399412 magnetization       7.4579744

 Broyden mixing:
  rms(total) = 0.39471E-01    rms(broyden)= 0.39364E-01
  rms(prec ) = 0.41795E-01
  weight for this iteration     100.00

 eigenvalues of (default mixing * dielectric matrix)
  average eigenvalue GAMMA=   0.5965
  2.9639  1.2952  1.2952  0.9631  0.9631  0.6512  0.6512  0.6312  0.5872  0.5872
  0.4046  0.1727  0.1135  0.1135  0.1204  0.1020  0.0927  0.0927  0.0565  0.0739

 Free energy of the ion-electron system (eV)
  ---------------------------------------------------
  alpha Z        PSCENC =         4.30178113
  Ewald energy   TEWEN  =     13003.91380518
  -Hartree energ DENC   =    -22898.57326212
  -exchange      EXHF   =         0.00000000
  -V(xc)+E(xc)   XCENC  =       300.95093391
  PAW double counting   =     10553.19751543   -11230.14332979
  entropy T*S    EENTRO =        -0.03073909
  eigenvalues    EBANDS =      -545.72014577
  atomic energy  EATOM  =     10776.63837129
  Solvation  Ediel_sol  =         0.00000000
  ---------------------------------------------------
  free energy    TOTEN  =       -35.46506981 eV

  energy without entropy =      -35.43433072  energy(sigma->0) =      -35.45482344


--------------------------------------------------------------------------------------------------------




--------------------------------------- Iteration      1(  26)  ---------------------------------------


    POTLOK:  cpu time    2.5255: real time    2.5278
    SETDIJ:  cpu time    0.0246: real time    0.0246
     EDDAV:  cpu time    6.0861: real time    6.0969
       DOS:  cpu time    0.0044: real time    0.0045
    CHARGE:  cpu time    0.6698: real time    0.6725
    MIXING:  cpu time    0.1811: real time    0.1813
    --------------------------------------------
      LOOP:  cpu time    9.4914: real time    9.5076

 eigenvalue-minimisations  :   282
 total energy-change (2. order) :-0.1201913E+00  (-0.8442216E-03)
 number of electron      99.9999899 magnetization       8.3783982
 augmentation part       62.5331009 magnetization       7.4160729

 Broyden mixing:
  rms(total) = 0.41759E-01    rms(broyden)= 0.41722E-01
  rms(prec ) = 0.44364E-01
  weight for this iteration     100.00

 eigenvalues of (default mixing * dielectric matrix)
  average eigenvalue GAMMA=   0.6377
  3.0493  1.6243  1.6243  0.9600  0.9600  0.6380  0.6380  0.6435  0.6435  0.6346
  0.6346  0.4039  0.1727  0.1135  0.1135  0.1204  0.1020  0.0927  0.0927  0.0565
  0.0739

 Free energy of the ion-electron system (eV)
  ---------------------------------------------------
  alpha Z        PSCENC =         4.30178113
  Ewald energy   TEWEN  =     13003.91380518
  -Hartree energ DENC   =    -22899.35294423
  -exchange      EXHF   =         0.00000000
  -V(xc)+E(xc)   XCENC  =       300.85048057
  PAW double counting   =     10549.27713345   -11226.27721256
  entropy T*S    EENTRO =        -0.03126111
  eigenvalues    EBANDS =      -544.90541482
  atomic energy  EATOM  =     10776.63837129
  Solvation  Ediel_sol  =         0.00000000
  ---------------------------------------------------
  free energy    TOTEN  =       -35.58526110 eV

  energy without entropy =      -35.55399998  energy(sigma->0) =      -35.57484072


--------------------------------------------------------------------------------------------------------




--------------------------------------- Iteration      1(  27)  ---------------------------------------


    POTLOK:  cpu time    2.5146: real time    2.5170
    SETDIJ:  cpu time    0.0254: real time    0.0255
     EDDAV:  cpu time    6.4194: real time    6.4299
       DOS:  cpu time    0.0041: real time    0.0041
    CHARGE:  cpu time    0.6751: real time    0.6757
    MIXING:  cpu time    0.1989: real time    0.1991
    --------------------------------------------
      LOOP:  cpu time    9.8376: real time    9.8513

 eigenvalue-minimisations  :   304
 total energy-change (2. order) :-0.1132566E+00  (-0.6365834E-03)
 number of electron      99.9999899 magnetization       8.2950414
 augmentation part       62.5320246 magnetization       7.3546761

 Broyden mixing:
  rms(total) = 0.23331E-01    rms(broyden)= 0.23281E-01
  rms(prec ) = 0.24834E-01
  weight for this iteration     100.00

 eigenvalues of (default mixing * dielectric matrix)
  average eigenvalue GAMMA=   0.6794
  3.3160  1.8733  1.8733  0.9872  0.9872  0.7380  0.7380  0.6297  0.6297  0.6259
  0.6035  0.6035  0.4044  0.1727  0.1135  0.1135  0.1204  0.1020  0.0927  0.0927
  0.0565  0.0739

 Free energy of the ion-electron system (eV)
  ---------------------------------------------------
  alpha Z        PSCENC =         4.30178113
  Ewald energy   TEWEN  =     13003.91380518
  -Hartree energ DENC   =    -22899.63631806
  -exchange      EXHF   =         0.00000000
  -V(xc)+E(xc)   XCENC  =       300.74364426
  PAW double counting   =     10545.44833577   -11222.51753911
  entropy T*S    EENTRO =        -0.03079267
  eigenvalues    EBANDS =      -544.55980551
  atomic energy  EATOM  =     10776.63837129
  Solvation  Ediel_sol  =         0.00000000
  ---------------------------------------------------
  free energy    TOTEN  =       -35.69851771 eV

  energy without entropy =      -35.66772504  energy(sigma->0) =      -35.68825349


--------------------------------------------------------------------------------------------------------




--------------------------------------- Iteration      1(  28)  ---------------------------------------


    POTLOK:  cpu time    2.5236: real time    2.5280
    SETDIJ:  cpu time    0.0242: real time    0.0243
     EDDAV:  cpu time    5.9639: real time    5.9759
       DOS:  cpu time    0.0054: real time    0.0055
    CHARGE:  cpu time    0.6477: real time    0.6483
    MIXING:  cpu time    0.2042: real time    0.2045
    --------------------------------------------
      LOOP:  cpu time    9.3692: real time    9.3864

 eigenvalue-minimisations  :   274
 total energy-change (2. order) :-0.1068920E+00  (-0.6143915E-03)
 number of electron      99.9999899 magnetization       8.2211596
 augmentation part       62.5363771 magnetization       7.3029015

 Broyden mixing:
  rms(total) = 0.21557E-01    rms(broyden)= 0.21543E-01
  rms(prec ) = 0.23072E-01
  weight for this iteration     100.00

 eigenvalues of (default mixing * dielectric matrix)
  average eigenvalue GAMMA=   0.7173
  3.8292  1.9665  1.9665  0.9991  0.9991  0.6325  0.6325  0.8036  0.7226  0.7226
  0.6167  0.6167  0.6480  0.4043  0.1727  0.1135  0.1135  0.1204  0.1020  0.0927
  0.0927  0.0565  0.0739

 Free energy of the ion-electron system (eV)
  ---------------------------------------------------
  alpha Z        PSCENC =         4.30178113
  Ewald energy   TEWEN  =     13003.91380518
  -Hartree energ DENC   =    -22900.00971774
  -exchange      EXHF   =         0.00000000
  -V(xc)+E(xc)   XCENC  =       300.63845668
  PAW double counting   =     10542.52066380   -11219.64452867
  entropy T*S    EENTRO =        -0.03058872
  eigenvalues    EBANDS =      -544.13365269
  atomic energy  EATOM  =     10776.63837129
  Solvation  Ediel_sol  =         0.00000000
  ---------------------------------------------------
  free energy    TOTEN  =       -35.80540973 eV

  energy without entropy =      -35.77482101  energy(sigma->0) =      -35.79521349


--------------------------------------------------------------------------------------------------------




--------------------------------------- Iteration      1(  29)  ---------------------------------------


    POTLOK:  cpu time    2.5188: real time    2.5248
    SETDIJ:  cpu time    0.0266: real time    0.0266
     EDDAV:  cpu time    6.2202: real time    6.2284
       DOS:  cpu time    0.0053: real time    0.0054
    CHARGE:  cpu time    0.6550: real time    0.6556
    MIXING:  cpu time    0.2177: real time    0.2179
    --------------------------------------------
      LOOP:  cpu time    9.6436: real time    9.6587

 eigenvalue-minimisations  :   292
 total energy-change (2. order) :-0.7772710E-01  (-0.3542486E-03)
 number of electron      99.9999899 magnetization       8.1624381
 augmentation part       62.5331042 magnetization       7.2623487

 Broyden mixing:
  rms(total) = 0.18830E-01    rms(broyden)= 0.18817E-01
  rms(prec ) = 0.19941E-01
  weight for this iteration     100.00

 eigenvalues of (default mixing * dielectric matrix)
  average eigenvalue GAMMA=   0.7475
  4.1023  2.1154  2.1154  1.0716  1.0716  0.7958  0.7958  0.6281  0.6281  0.7022
  0.7022  0.6386  0.6154  0.6154  0.4043  0.1727  0.1135  0.1135  0.1204  0.1020
  0.0927  0.0927  0.0565  0.0739

 Free energy of the ion-electron system (eV)
  ---------------------------------------------------
  alpha Z        PSCENC =         4.30178113
  Ewald energy   TEWEN  =     13003.91380518
  -Hartree energ DENC   =    -22900.55858772
  -exchange      EXHF   =         0.00000000
  -V(xc)+E(xc)   XCENC  =       300.56919743
  PAW double counting   =     10540.75769100   -11217.94554170
  entropy T*S    EENTRO =        -0.03089174
  eigenvalues    EBANDS =      -543.52896172
  atomic energy  EATOM  =     10776.63837129
  Solvation  Ediel_sol  =         0.00000000
  ---------------------------------------------------
  free energy    TOTEN  =       -35.88313683 eV

  energy without entropy =      -35.85224510  energy(sigma->0) =      -35.87283959


--------------------------------------------------------------------------------------------------------




--------------------------------------- Iteration      1(  30)  ---------------------------------------


    POTLOK:  cpu time    2.5209: real time    2.5278
    SETDIJ:  cpu time    0.0242: real time    0.0242
     EDDAV:  cpu time    6.1569: real time    6.1669
       DOS:  cpu time    0.0053: real time    0.0053
    CHARGE:  cpu time    0.6836: real time    0.6842
    MIXING:  cpu time    0.2381: real time    0.2384
    --------------------------------------------
      LOOP:  cpu time    9.6290: real time    9.6468

 eigenvalue-minimisations  :   284
 total energy-change (2. order) :-0.6435292E-01  (-0.1961873E-03)
 number of electron      99.9999899 magnetization       8.1015709
 augmentation part       62.5337688 magnetization       7.2117937

 Broyden mixing:
  rms(total) = 0.93621E-02    rms(broyden)= 0.93433E-02
  rms(prec ) = 0.99600E-02
  weight for this iteration     100.00

 eigenvalues of (default mixing * dielectric matrix)
  average eigenvalue GAMMA=   0.7860
  4.6594  2.1516  2.1516  1.1600  1.1600  0.9134  0.9134  0.6294  0.6294  0.7111
  0.7111  0.6893  0.6159  0.6159  0.5967  0.4043  0.1727  0.1135  0.1135  0.1204
  0.1020  0.0927  0.0927  0.0565  0.0739

 Free energy of the ion-electron system (eV)
  ---------------------------------------------------
  alpha Z        PSCENC =         4.30178113
  Ewald energy   TEWEN  =     13003.91380518
  -Hartree energ DENC   =    -22900.52567290
  -exchange      EXHF   =         0.00000000
  -V(xc)+E(xc)   XCENC  =       300.50184777
  PAW double counting   =     10538.88527889   -11216.10694663
  entropy T*S    EENTRO =        -0.03105872
  eigenvalues    EBANDS =      -543.52489577
  atomic energy  EATOM  =     10776.63837129
  Solvation  Ediel_sol  =         0.00000000
  ---------------------------------------------------
  free energy    TOTEN  =       -35.94748975 eV

  energy without entropy =      -35.91643103  energy(sigma->0) =      -35.93713684


--------------------------------------------------------------------------------------------------------




--------------------------------------- Iteration      1(  31)  ---------------------------------------


    POTLOK:  cpu time    2.5242: real time    2.5289
    SETDIJ:  cpu time    0.0236: real time    0.0237
     EDDAV:  cpu time    6.1002: real time    6.1060
       DOS:  cpu time    0.0021: real time    0.0021
    CHARGE:  cpu time    0.6608: real time    0.6614
    MIXING:  cpu time    0.2434: real time    0.2437
    --------------------------------------------
      LOOP:  cpu time    9.5545: real time    9.5658

 eigenvalue-minimisations  :   282
 total energy-change (2. order) :-0.5482493E-01  (-0.1812449E-03)
 number of electron      99.9999899 magnetization       8.0599755
 augmentation part       62.5326392 magnetization       7.1813629

 Broyden mixing:
  rms(total) = 0.95954E-02    rms(broyden)= 0.95717E-02
  rms(prec ) = 0.10150E-01
  weight for this iteration     100.00

 eigenvalues of (default mixing * dielectric matrix)
  average eigenvalue GAMMA=   0.8212
  5.2951  2.1305  2.1305  1.2649  1.2649  0.9402  0.9402  0.7954  0.7954  0.6286
[...]
 total energy-change (2. order) :-0.7062410E-04  (-0.1198310E-04)
 number of electron     100.0000109 magnetization       7.9994617
 augmentation part       62.3334585 magnetization       7.2485530

 Free energy of the ion-electron system (eV)
  ---------------------------------------------------
  alpha Z        PSCENC =         4.30178113
  Ewald energy   TEWEN  =     13892.36646713
  -Hartree energ DENC   =    -23759.24127794
  -exchange      EXHF   =         0.00000000
  -V(xc)+E(xc)   XCENC  =       301.58327737
  PAW double counting   =     10836.49111956   -11517.73844172
  entropy T*S    EENTRO =        -0.01685011
  eigenvalues    EBANDS =      -571.19308262
  atomic energy  EATOM  =     10776.63837129
  Solvation  Ediel_sol  =         0.00000000
  ---------------------------------------------------
  free energy    TOTEN  =       -36.80863589 eV

  energy without entropy =      -36.79178578  energy(sigma->0) =      -36.80301919


--------------------------------------------------------------------------------------------------------




 average (electrostatic) potential at core
  the test charge radii are     0.9791
  (the norm of the test charge is              1.0000)
       1 -95.0469       2 -95.1641       3 -95.0546       4 -94.8182       5 -94.9428
       6 -94.8219       7 -95.2612       8 -95.0761       9 -95.2518      10 -94.6647
 
 
 
 E-fermi :  -3.9095     XC(G=0):  -0.3075     alpha+bet : -0.1511


 spin component 1

 k-point     1 :       0.0000    0.0000    0.0000
  band No.  band energies     occupation 
      1      -9.9282      1.00000
      2      -8.2746      1.00000
      3      -8.0559      1.00000
      4      -7.8330      1.00000
      5      -7.4797      1.00000
      6      -7.3492      1.00000
      7      -7.3248      1.00000
      8      -7.1985      1.00000
      9      -7.1674      1.00000
     10      -7.1296      1.00000
     11      -7.1224      1.00000
     12      -7.0755      1.00000
     13      -6.9580      1.00000
     14      -6.9488      1.00000
     15      -6.9089      1.00000
     16      -6.6488      1.00000
     17      -6.3667      1.00000
     18      -6.2397      1.00000
     19      -6.2021      1.00000
     20      -6.1073      1.00000
     21      -6.0472      1.00000
     22      -5.9787      1.00000
     23      -5.8942      1.00000
     24      -5.8705      1.00000
     25      -5.8584      1.00000
     26      -5.8494      1.00000
     27      -5.6895      1.00000
     28      -5.6766      1.00000
     29      -5.4755      1.00000
     30      -5.4588      1.00000
     31      -5.3879      1.00000
     32      -5.3626      1.00000
     33      -5.2268      1.00000
     34      -5.1522      1.00000
     35      -5.1339      1.00000
     36      -5.1160      1.00000
     37      -5.1152      1.00000
     38      -5.0271      1.00000
     39      -5.0174      1.00000
     40      -4.9699      1.00000
     41      -4.9146      1.00000
     42      -4.8979      1.00000
     43      -4.8496      1.00000
     44      -4.8446      1.00000
     45      -4.8178      1.00000
     46      -4.7885      1.00000
     47      -4.7608      1.00000
     48      -4.7382      1.00000
     49      -4.7161      1.00000
     50      -4.7067      1.00000
     51      -4.6744      1.00000
     52      -4.6159      1.00000
     53      -4.6056      1.00000
     54      -4.5677      1.00002
     55      -3.3536     -0.00030
     56      -2.9469     -0.00000
     57      -2.8552     -0.00000
     58      -2.8444     -0.00000
     59      -2.4920     -0.00000
     60      -2.2571     -0.00000
     61      -1.2037     -0.00000
     62      -0.7314     -0.00000
     63      -0.6166     -0.00000
     64      -0.3776     -0.00000
     65      -0.2843     -0.00000
     66      -0.1153     -0.00000

 spin component 2

 k-point     1 :       0.0000    0.0000    0.0000
  band No.  band energies     occupation 
      1      -9.9315      1.00000
      2      -8.0276      1.00000
      3      -7.7691      1.00000
      4      -7.4503      1.00000
      5      -6.9669      1.00000
      6      -6.7158      1.00000
      7      -6.6155      1.00000
      8      -6.5860      1.00000
      9      -6.4853      1.00000
     10      -6.4783      1.00000
     11      -6.3234      1.00000
     12      -6.2456      1.00000
     13      -6.1764      1.00000
     14      -6.1487      1.00000
     15      -6.1243      1.00000
     16      -5.9809      1.00000
     17      -5.6967      1.00000
     18      -5.5499      1.00000
     19      -5.5286      1.00000
     20      -5.3139      1.00000
     21      -5.3023      1.00000
     22      -5.2354      1.00000
     23      -5.1221      1.00000
     24      -5.1027      1.00000
     25      -5.0886      1.00000
     26      -5.0612      1.00000
     27      -5.0158      1.00000
     28      -4.8882      1.00000
     29      -4.8647      1.00000
     30      -4.7612      1.00000
     31      -4.7593      1.00000
     32      -4.5942      1.00001
     33      -4.5795      1.00001
     34      -4.4367      1.00062
     35      -4.4154      1.00101
     36      -4.3414      1.00462
     37      -4.3182      1.00694
     38      -4.2854      1.01157
     39      -4.2833      1.01193
     40      -4.1868      1.03226
     41      -4.1820      1.03305
     42      -4.1250      1.03139
     43      -4.1048      1.02250
     44      -4.0462      0.95386
     45      -3.9459      0.65121
     46      -3.9004      0.46135
     47      -3.8932      0.43093
     48      -3.8438      0.23779
     49      -3.8020      0.10991
     50      -3.7835      0.06687
     51      -3.7587      0.02269
     52      -3.7110     -0.02435
     53      -3.6462     -0.03432
     54      -3.6286     -0.03159
     55      -3.0338     -0.00000
     56      -2.7363     -0.00000
     57      -2.6503     -0.00000
     58      -2.6129     -0.00000
     59      -2.2734     -0.00000
     60      -2.0752     -0.00000
     61      -1.1030     -0.00000
     62      -0.6619     -0.00000
     63      -0.5136     -0.00000
     64      -0.3258     -0.00000
     65      -0.1900     -0.00000
     66      -0.0150     -0.00000


--------------------------------------------------------------------------------------------------------


 soft charge-density along one line, spin component            1
         0         1         2         3         4         5         6         7         8         9
 total charge-density along one line
 
 soft charge-density along one line, spin component            2
         0         1         2         3         4         5         6         7         8         9
 total charge-density along one line
 
 pseudopotential strength for first ion, spin component:            1
 -9.950   0.104  -0.066   0.047  -0.007 -10.236   0.099  -0.063
  0.104  -9.935  -0.068  -0.015  -0.050   0.099 -10.221  -0.065
 -0.066  -0.068  -9.986  -0.062  -0.094  -0.063  -0.065 -10.270
  0.047  -0.015  -0.062 -10.056   0.030   0.045  -0.015  -0.060
 -0.007  -0.050  -0.094   0.030  -9.888  -0.006  -0.047  -0.090
-10.236   0.099  -0.063   0.045  -0.006 -10.466   0.095  -0.060
  0.099 -10.221  -0.065  -0.015  -0.047   0.095 -10.452  -0.063
 -0.063  -0.065 -10.270  -0.060  -0.090  -0.060  -0.063 -10.499
  0.045  -0.015  -0.060 -10.337   0.028   0.043  -0.015  -0.057
 -0.006  -0.047  -0.090   0.028 -10.177  -0.006  -0.045  -0.086
 -0.011  -0.006   0.009  -0.013  -0.007  -0.011  -0.006   0.009
 -0.020  -0.010   0.015  -0.023  -0.012  -0.019  -0.010   0.015
 -0.010  -0.007   0.005  -0.002   0.007  -0.009  -0.007   0.004
 -0.002  -0.005  -0.002  -0.005   0.001  -0.002  -0.005  -0.001
 -0.006  -0.002   0.008  -0.004  -0.010  -0.006  -0.002   0.008
 -0.008  -0.008   0.004  -0.002   0.005  -0.007  -0.007   0.003
 -0.002  -0.003  -0.000  -0.002   0.002  -0.002  -0.003   0.000
 -0.004  -0.002   0.008  -0.004  -0.008  -0.004  -0.002   0.007
 pseudopotential strength for first ion, spin component:            2
 -9.177   0.002  -0.005   0.009   0.002  -9.499   0.001  -0.004
  0.002  -9.279   0.052   0.039  -0.003   0.001  -9.597   0.050
 -0.005   0.052  -9.254   0.059   0.019  -0.004   0.050  -9.572
  0.009   0.039   0.059  -9.185   0.034   0.008   0.037   0.057
  0.002  -0.003   0.019   0.034  -9.208   0.002  -0.002   0.018
 -9.499   0.001  -0.004   0.008   0.002  -9.763   0.001  -0.004
  0.001  -9.597   0.050   0.037  -0.002   0.001  -9.858   0.048
 -0.004   0.050  -9.572   0.057   0.018  -0.004   0.048  -9.834
  0.008   0.037   0.057  -9.506   0.033   0.008   0.036   0.055
  0.002  -0.002   0.018   0.033  -9.528   0.002  -0.002   0.018
 -0.006  -0.005   0.006  -0.007  -0.003  -0.006  -0.004   0.006
 -0.011  -0.008   0.010  -0.013  -0.005  -0.010  -0.008   0.010
 -0.015  -0.006   0.007  -0.001   0.011  -0.014  -0.005   0.006
 -0.001  -0.011  -0.008  -0.014  -0.000  -0.001  -0.010  -0.007
 -0.012  -0.001   0.008  -0.007  -0.014  -0.011  -0.001   0.008
 -0.015  -0.005   0.007  -0.000   0.011  -0.014  -0.005   0.006
 -0.000  -0.011  -0.009  -0.015  -0.001  -0.000  -0.010  -0.008
 -0.012  -0.000   0.008  -0.007  -0.014  -0.011  -0.000   0.007
 total augmentation occupancy for first ion, spin component:            1
  2.672   0.278  -0.303   0.081  -0.177  -0.962  -0.093   0.163  -0.012   0.145   0.153   0.044  -0.190   0.014  -0.016  -0.005
  0.278   2.776  -0.055   0.102  -0.217  -0.084  -0.947  -0.081  -0.114   0.165  -0.023   0.018  -0.097  -0.134   0.038   0.000
 -0.303  -0.055   2.631  -0.085  -0.377   0.152  -0.082  -0.877  -0.052   0.192   0.013  -0.019   0.022  -0.111   0.127   0.006
  0.081   0.102  -0.085   2.358   0.133  -0.011  -0.116  -0.047  -0.845  -0.102   0.114   0.021   0.036  -0.140  -0.038  -0.003
 -0.177  -0.217  -0.377   0.133   2.998   0.146   0.166   0.198  -0.102  -1.178   0.011   0.020   0.217   0.040  -0.229  -0.001
 -0.962  -0.084   0.152  -0.011   0.146   1.004  -0.017  -0.072  -0.027  -0.124  -0.169  -0.020   0.229  -0.045   0.049  -0.019
 -0.093  -0.947  -0.082  -0.116   0.166  -0.017   0.940   0.146   0.100  -0.152   0.047  -0.021   0.091   0.194  -0.060  -0.009
  0.163  -0.081  -0.877  -0.047   0.198  -0.072   0.146   0.898   0.108  -0.099  -0.022   0.021  -0.042   0.161  -0.133   0.004
 -0.012  -0.114  -0.052  -0.845  -0.102  -0.027   0.100   0.108   1.003   0.075  -0.124  -0.010  -0.058   0.236   0.050   0.005
  0.145   0.165   0.192  -0.102  -1.178  -0.124  -0.152  -0.099   0.075   1.188  -0.010  -0.015  -0.253  -0.026   0.267   0.022
  0.153  -0.023   0.013   0.114   0.011  -0.169   0.047  -0.022  -0.124  -0.010   1.992  -0.199   0.191   0.105   0.272  -0.032
  0.044   0.018  -0.019   0.021   0.020  -0.020  -0.021   0.021  -0.010  -0.015  -0.199   0.029  -0.027  -0.017  -0.044   0.004
 -0.190  -0.097   0.022   0.036   0.217   0.229   0.091  -0.042  -0.058  -0.253   0.191  -0.027   0.175   0.009  -0.028  -0.017
  0.014  -0.134  -0.111  -0.140   0.040  -0.045   0.194   0.161   0.236  -0.026   0.105  -0.017   0.009   0.154  -0.013  -0.002
 -0.016   0.038   0.127  -0.038  -0.229   0.049  -0.060  -0.133   0.050   0.267   0.272  -0.044  -0.028  -0.013   0.167  -0.000
 -0.005   0.000   0.006  -0.003  -0.001  -0.019  -0.009   0.004   0.005   0.022  -0.032   0.004  -0.017  -0.002  -0.000   0.002
 -0.003  -0.004   0.001  -0.005  -0.003   0.004  -0.017  -0.013  -0.021   0.002  -0.018   0.002  -0.002  -0.015  -0.000   0.000
 -0.013  -0.003   0.002  -0.005   0.001  -0.004   0.005   0.012  -0.004  -0.024  -0.046   0.006  -0.000  -0.000  -0.019   0.001
 total augmentation occupancy for first ion, spin component:            2
  0.939  -0.262   0.202  -0.104   0.040  -0.407   0.119  -0.105   0.047  -0.024   0.035   0.019  -0.006   0.005  -0.018  -0.007
 -0.262   0.663   0.296   0.086   0.116   0.106  -0.291  -0.127  -0.030  -0.050  -0.020  -0.006   0.023  -0.018   0.005   0.001
  0.202   0.296   0.877   0.250   0.308  -0.091  -0.126  -0.394  -0.094  -0.138   0.013   0.005   0.006  -0.030  -0.012   0.002
 -0.104   0.086   0.250   1.185  -0.047   0.047  -0.027  -0.098  -0.517   0.034   0.020   0.010   0.007  -0.040  -0.006   0.001
  0.040   0.116   0.308  -0.047   0.768  -0.025  -0.051  -0.145   0.035  -0.352   0.008   0.004   0.000  -0.019  -0.000   0.006
 -0.407   0.106  -0.091   0.047  -0.025   0.083  -0.035   0.036  -0.019   0.014  -0.007  -0.011  -0.007   0.003   0.002   0.004
  0.119  -0.291  -0.126  -0.027  -0.051  -0.035   0.043   0.044   0.011   0.020   0.009   0.002  -0.011  -0.003   0.001   0.001
 -0.105  -0.127  -0.394  -0.098  -0.145   0.036   0.044   0.089   0.029   0.056  -0.009  -0.002   0.001   0.003   0.009  -0.002
  0.047  -0.030  -0.094  -0.517   0.035  -0.019   0.011   0.029   0.126  -0.019  -0.004  -0.006   0.001   0.000   0.001  -0.000
 -0.024  -0.050  -0.138   0.034  -0.352   0.014   0.020   0.056  -0.019   0.077  -0.003  -0.002   0.008   0.007  -0.008  -0.004
  0.035  -0.020   0.013   0.020   0.008  -0.007   0.009  -0.009  -0.004  -0.003  -0.131   0.046  -0.014  -0.012  -0.021   0.002
  0.019  -0.006   0.005   0.010   0.004  -0.011   0.002  -0.002  -0.006  -0.002   0.046  -0.006   0.004   0.002   0.005  -0.001
 -0.006   0.023   0.006   0.007   0.000  -0.007  -0.011   0.001   0.001   0.008  -0.014   0.004  -0.013  -0.002   0.004   0.002
  0.005  -0.018  -0.030  -0.040  -0.019   0.003  -0.003   0.003   0.000   0.007  -0.012   0.002  -0.002  -0.010   0.004   0.000
 -0.018   0.005  -0.012  -0.006  -0.000   0.002   0.001   0.009   0.001  -0.008  -0.021   0.005   0.004   0.004  -0.011  -0.000
 -0.007   0.001   0.002   0.001   0.006   0.004   0.001  -0.002  -0.000  -0.004   0.002  -0.001   0.002   0.000  -0.000  -0.000
  0.001  -0.006  -0.006  -0.009  -0.001  -0.001   0.004   0.003   0.005   0.000   0.001  -0.000   0.000   0.002  -0.000  -0.000
 -0.005   0.002   0.001  -0.002  -0.006   0.003  -0.001  -0.001   0.001   0.004   0.003  -0.001  -0.000  -0.000   0.002   0.000


------------------------ aborting loop because EDIFF is reached ----------------------------------------


    CHARGE:  cpu time    0.6583: real time    0.6654
    FORLOC:  cpu time    0.0738: real time    0.0739
    FORNL :  cpu time    2.7036: real time    2.7161
    FORCOR:  cpu time    2.4427: real time    2.4471
    FORHAR:  cpu time    0.3171: real time    0.3195
    MIXING:  cpu time    0.0531: real time    0.0532
    OFIELD:  cpu time    0.0000: real time    0.0000

 VOLUME and BASIS-vectors are now :
 -----------------------------------------------------------------------------
  energy-cutoff  :      400.00
  volume of cell :    11855.42
      direct lattice vectors                 reciprocal lattice vectors
    21.599972480  0.000000000  0.000000000     0.046296355  0.000000000  0.000000000
     0.000000000 23.718348461  0.000000000     0.000000000  0.042161452  0.000000000
     0.000000000  0.000000000 23.140840126     0.000000000  0.000000000  0.043213643

  length of vectors
    21.599972480 23.718348461 23.140840126     0.046296355  0.042161452  0.043213643


 FORCES acting on ions
    electron-ion (+dipol)            ewald-force                    non-local-force                 convergence-correction
 -----------------------------------------------------------------------------------------------
   0.850E+03 0.617E+03 0.377E+03   -.846E+03 -.613E+03 -.375E+03   -.356E+01 -.321E+01 -.131E+01   0.344E-01 -.201E-01 -.371E-01
   -.176E+03 0.187E+03 0.107E+04   0.175E+03 -.187E+03 -.107E+04   0.716E+00 -.742E+00 -.418E+01   -.263E-01 -.144E-01 -.173E-01
   0.654E+03 -.699E+03 0.571E+03   -.652E+03 0.696E+03 -.569E+03   -.251E+01 0.352E+01 -.227E+01   0.446E-01 -.494E-01 -.213E-01
   -.302E+03 0.106E+04 0.218E+03   0.300E+03 -.106E+04 -.217E+03   0.219E+01 -.772E+01 -.149E+01   -.461E-01 0.221E-01 -.152E-01
   0.101E+04 -.212E+03 -.406E+03   -.100E+04 0.211E+03 0.404E+03   -.557E+01 0.112E+01 0.186E+01   0.518E-01 -.245E-01 -.344E-02
   -.580E+03 -.825E+03 0.502E+03   0.576E+03 0.819E+03 -.499E+03   0.422E+01 0.598E+01 -.356E+01   -.161E-01 -.124E-01 0.227E-03
   -.854E+02 0.702E+03 -.698E+03   0.856E+02 -.700E+03 0.697E+03   -.256E+00 -.191E+01 0.107E+01   -.294E-01 -.687E-02 -.279E-02
   -.109E+04 0.149E+03 -.949E+02   0.109E+04 -.149E+03 0.939E+02   0.455E+01 -.513E+00 0.105E+01   -.615E-01 0.545E-02 0.236E-02
   -.313E+03 -.818E+03 -.474E+03   0.313E+03 0.816E+03 0.474E+03   0.376E+00 0.221E+01 0.529E+00   -.246E-02 -.269E-02 0.880E-02
   0.369E+02 -.163E+03 -.107E+04   -.375E+02 0.162E+03 0.106E+04   0.568E+00 0.128E+01 0.942E+01   0.574E-01 -.628E-02 -.145E-01
 -----------------------------------------------------------------------------------------------
   -.739E+00 0.947E-01 -.991E+00   -.199E-12 -.114E-12 -.227E-12   0.727E+00 0.871E-02 0.110E+01   0.650E-02 -.109E+00 -.100E+00
 
 
 POSITION                                       TOTAL-FORCE (eV/Angst)
 -----------------------------------------------------------------------------------
      9.45094     11.14227     10.53466        -0.002544      0.009805     -0.002652
     11.27811     11.90466      9.34458         0.005118     -0.007439      0.005727
      9.80131     13.46440     10.19341        -0.018637      0.001179     -0.004168
     11.52056      9.93461     10.59079        -0.005028      0.005053      0.016064
      9.00075     12.68268     12.26587        -0.011684      0.005866     -0.006763
     12.12011     13.99674      9.98245         0.010906      0.010929      0.012324
     10.85695     11.22306     12.38039         0.005489     -0.024652     -0.020060
     12.68220     11.95883     11.08530         0.000545     -0.001396      0.009639
     11.20521     13.52612     12.04348        -0.002153     -0.001761     -0.006093
     10.45668     12.72802     14.05647         0.017988      0.002416     -0.004019
 -----------------------------------------------------------------------------------
    total drift:                               -0.005670     -0.005773      0.012162


--------------------------------------------------------------------------------------------------------



  FREE ENERGIE OF THE ION-ELECTRON SYSTEM (eV)
  ---------------------------------------------------
  free  energy   TOTEN  =       -36.80863589 eV

  energy  without entropy=      -36.79178578  energy(sigma->0) =      -36.80301919
 
 d Force = 0.9856865E-05[-0.129E-04, 0.326E-04]  d Energy = 0.4862412E-04-0.388E-04
 d Force =-0.1288333E+00[-0.129E+00,-0.129E+00]  d Ewald  =-0.1288332E+00-0.121E-07


--------------------------------------------------------------------------------------------------------


    POTLOK:  cpu time    2.5412: real time    2.5543


--------------------------------------------------------------------------------------------------------




--------------------------------------------------------------------------------------------------------


  
 reached required accuracy - stopping structural energy minimisation
     LOOP+:  cpu time   51.3277: real time   51.4762
    4ORBIT:  cpu time    0.0000: real time    0.0000

 total amount of memory used by VASP MPI-rank0   154261. kBytes
=======================================================================

   base      :      30000. kBytes
   nonl-proj :       4090. kBytes
   fftplans  :      31294. kBytes
   grid      :      74618. kBytes
   one-center:         31. kBytes
   wavefun   :      14228. kBytes
 
  
  
 General timing and accounting informations for this job:
 ========================================================
  
                  Total CPU time used (sec):     3839.149
                            User time (sec):     3802.775
                          System time (sec):       36.374
                         Elapsed time (sec):     3850.123
  
                   Maximum memory used (kb):      324776.
                   Average memory used (kb):           0.
  
                          Minor page faults:      9107046
                          Major page faults:       111285
                 Voluntary context switches:         5434
