<?xml version="1.0" encoding="ISO-8859-1"?>
<modeling>
 <generator>
  <i name="program" type="string">vasp </i>
  <i name="version" type="string">6.1.2  </i>
  <i name="subversion" type="string">22Jul20 (build Aug  2 2021 21:04:21) gamma-only                       parallel </i>
  <i name="platform" type="string">LinuxPGI </i>
  <i name="date" type="string">2021 12 24 </i>
  <i name="time" type="string">18:39:34 </i>
 </generator>
 <incar>
  <i type="int" name="ISPIN">     2</i>
  <i type="int" name="IBRION">     2</i>
  <i type="int" name="NSW">  1000</i>
  <i type="int" name="ISIF">     0</i>
  <i type="int" name="ISYM">     0</i>
  <i name="ENCUT">    400.00000000</i>
  <i type="logical" name="LREAL"> F  </i>
  <i type="int" name="ISMEAR">     1</i>
  <i name="SIGMA">      0.20000000</i>
  <i type="logical" name="LWAVE"> F  </i>
  <i type="logical" name="LCHARG"> F  </i>
  <i type="int" name="KPAR">     1</i>
  <i type="int" name="NCORE">     8</i>
  <i type="string" name="GGA"> PE</i>
  <i type="int" name="ISPIN">     2</i>
 </incar>
 <structure name="primitive_cell" >
  <crystal>
   <varray name="basis" >
    <v>      21.59997248       0.00000000       0.00000000 </v>
    <v>       0.00000000      23.71834846       0.00000000 </v>
    <v>       0.00000000       0.00000000      23.14084013 </v>
   </varray>
   <i name="volume">  11855.41510686 </i>
   <varray name="rec_basis" >
    <v>       0.04629636       0.00000000       0.00000000 </v>
    <v>       0.00000000       0.04216145       0.00000000 </v>
    <v>       0.00000000       0.00000000       0.04321364 </v>
   </varray>
  </crystal>
  <varray name="positions" >
   <v>       0.45353409       0.47363965       0.45576908 </v>
   <v>       0.52170603       0.50792231       0.38283720 </v>
   <v>       0.45421106       0.57270338       0.43836806 </v>
   <v>       0.53483487       0.40844456       0.46243916 </v>
   <v>       0.41491346       0.53309442       0.53178175 </v>
   <v>       0.56262792       0.59183564       0.42892073 </v>
   <v>       0.50427090       0.46787640       0.54755969 </v>
   <v>       0.57371823       0.50049286       0.47281374 </v>
   <v>       0.51795632       0.57135815       0.52423664 </v>
   <v>       0.47949349       0.53999851       0.61583186 </v>
  </varray>
 </structure>
 <varray name="primitive_index" >
  <v type="int" >        1 </v>
  <v type="int" >        2 </v>
  <v type="int" >        3 </v>
  <v type="int" >        4 </v>
  <v type="int" >        5 </v>
  <v type="int" >        6 </v>
  <v type="int" >        7 </v>
  <v type="int" >        8 </v>
  <v type="int" >        9 </v>
  <v type="int" >       10 </v>
 </varray>
 <kpoints>
  <generation param="Gamma">
   <v type="int" name="divisions">       1        1        1 </v>
   <v name="usershift">      0.00000000       0.00000000       0.00000000 </v>
   <v name="genvec1">      1.00000000       0.00000000       0.00000000 </v>
   <v name="genvec2">      0.00000000       1.00000000       0.00000000 </v>
   <v name="genvec3">      0.00000000       0.00000000       1.00000000 </v>
   <v name="shift">      0.00000000       0.00000000       0.00000000 </v>
  </generation>
  <varray name="kpointlist" >
   <v>       0.00000000       0.00000000       0.00000000 </v>
  </varray>
  <varray name="weights" >
   <v>       1.00000000 </v>
  </varray>
 </kpoints>
 <parameters>
  <separator name="general" >
   <i type="string" name="SYSTEM">unknown system</i>
   <i type="logical" name="LCOMPAT"> F  </i>
  </separator>
  <separator name="electronic" >
   <i type="string" name="PREC">normal</i>
   <i name="ENMAX">    400.00000000</i>
   <i name="ENAUG">    544.56500000</i>
   <i name="EDIFF">      0.00010000</i>
   <i type="int" name="IALGO">    38</i>
   <i type="int" name="IWAVPR">    11</i>
   <i type="int" name="NBANDS">    66</i>
   <i type="int" name="NBANDSLOW">    -1</i>
   <i type="int" name="NBANDSHIGH">    -1</i>
   <i name="NELECT">    100.00000000</i>
   <i type="int" name="TURBO">     0</i>
   <i type="int" name="IRESTART">     0</i>
   <i type="int" name="NREBOOT">     0</i>
   <i type="int" name="NMIN">     0</i>
   <i name="EREF">      0.00000000</i>
   <separator name="electronic smearing" >
    <i type="int" name="ISMEAR">     1</i>
    <i name="SIGMA">      0.20000000</i>
    <i name="KSPACING">      0.50000000</i>
    <i type="logical" name="KGAMMA"> T  </i>
    <i type="logical" name="KBLOWUP"> T  </i>
   </separator>
   <separator name="electronic projectors" >
    <i type="logical" name="LREAL"> F  </i>
    <v name="ROPT">      0.00000000</v>
    <i type="int" name="LMAXPAW">  -100</i>
    <i type="int" name="LMAXMIX">     2</i>
    <i type="logical" name="NLSPLINE"> F  </i>
   </separator>
   <separator name="electronic startup" >
    <i type="int" name="ISTART">     0</i>
    <i type="int" name="ICHARG">     2</i>
    <i type="int" name="INIWAV">     1</i>
   </separator>
   <separator name="electronic spin" >
    <i type="int" name="ISPIN">     2</i>
    <i type="logical" name="LNONCOLLINEAR"> F  </i>
    <v name="MAGMOM">      1.00000000      1.00000000      1.00000000      1.00000000      1.00000000      1.00000000      1.00000000      1.00000000      1.00000000      1.00000000</v>
    <i name="NUPDOWN">     -1.00000000</i>
    <i type="logical" name="LSORBIT"> F  </i>
    <v name="SAXIS">      0.00000000      0.00000000      1.00000000</v>
    <i type="logical" name="LSPIRAL"> F  </i>
    <v name="QSPIRAL">      0.00000000      0.00000000      0.00000000</v>
    <i type="logical" name="LZEROZ"> F  </i>
   </separator>
   <separator name="electronic exchange-correlation" >
    <i type="logical" name="LASPH"> F  </i>
    <i type="logical" name="LMETAGGA"> F  </i>
   </separator>
   <separator name="electronic convergence" >
    <i type="int" name="NELM">    60</i>
    <i type="int" name="NELMDL">     0</i>
    <i type="int" name="NELMIN">     2</i>
    <i name="ENINI">    400.00000000</i>
    <separator name="electronic convergence detail" >
     <i type="logical" name="LDIAG"> T  </i>
     <i type="logical" name="LSUBROT"> F  </i>
     <i name="WEIMIN">      0.00100000</i>
     <i name="EBREAK">      0.00000038</i>
     <i name="DEPER">      0.30000000</i>
     <i type="int" name="NRMM">     4</i>
     <i name="TIME">      0.40000000</i>
    </separator>
   </separator>
   <separator name="electronic mixer" >
    <i name="AMIX">      0.40000000</i>
    <i name="BMIX">      1.00000000</i>
    <i name="AMIN">      0.10000000</i>
    <i name="AMIX_MAG">      1.60000000</i>
    <i name="BMIX_MAG">      1.00000000</i>
    <separator name="electronic mixer details" >
     <i type="int" name="IMIX">     4</i>
     <i type="logical" name="MIXFIRST"> F  </i>
     <i type="int" name="MAXMIX">   -45</i>
     <i name="WC">    100.00000000</i>
     <i type="int" name="INIMIX">     1</i>
     <i type="int" name="MIXPRE">     1</i>
     <i type="int" name="MREMOVE">     5</i>
    </separator>
   </separator>
   <separator name="electronic dipolcorrection" >
    <i type="logical" name="LDIPOL"> F  </i>
    <i type="logical" name="LMONO"> F  </i>
    <i type="int" name="IDIPOL">     0</i>
    <i name="EPSILON">      1.00000000</i>
    <v name="DIPOL">   -100.00000000   -100.00000000   -100.00000000</v>
    <i name="EFIELD">      0.00000000</i>
   </separator>
  </separator>
  <separator name="grids" >
   <i type="int" name="NGX">   108</i>
   <i type="int" name="NGY">   120</i>
   <i type="int" name="NGZ">   120</i>
   <i type="int" name="NGXF">   216</i>
   <i type="int" name="NGYF">   240</i>
   <i type="int" name="NGZF">   240</i>
   <i type="logical" name="ADDGRID"> F  </i>
  </separator>
  <separator name="ionic" >
   <i type="int" name="NSW">  1000</i>
   <i type="int" name="IBRION">     2</i>
   <i type="int" name="MDALGO">     0</i>
   <i type="int" name="ISIF">     0</i>
   <i name="PSTRESS">      0.00000000</i>
   <i name="EDIFFG">      0.00100000</i>
   <i type="int" name="NFREE">     1</i>
   <i name="POTIM">      0.50000000</i>
   <i name="SMASS">     -3.00000000</i>
   <i name="SCALEE">      1.00000000</i>
  </separator>
  <separator name="ionic md" >
   <i name="TEBEG">      0.00010000</i>
   <i name="TEEND">      0.00010000</i>
   <i type="int" name="NBLOCK">     1</i>
   <i type="int" name="KBLOCK">  1000</i>
   <i type="int" name="NPACO">   256</i>
   <i name="APACO">     16.00000000</i>
  </separator>
  <separator name="symmetry" >
   <i type="int" name="ISYM">     0</i>
   <i name="SYMPREC">      0.00001000</i>
  </separator>
  <separator name="dos" >
   <i type="int" name="LORBIT">     0</i>
   <v name="RWIGS">     -1.00000000</v>
   <i type="int" name="NEDOS">   301</i>
   <i name="EMIN">     10.00000000</i>
   <i name="EMAX">    -10.00000000</i>
   <i name="EFERMI">      0.00000000</i>
  </separator>
  <separator name="writing" >
   <i type="int" name="NWRITE">     2</i>
   <i type="logical" name="LWAVE"> F  </i>
   <i type="logical" name="LDOWNSAMPLE"> F  </i>
   <i type="logical" name="LCHARG"> F  </i>
   <i type="logical" name="LPARD"> F  </i>
   <i type="logical" name="LVTOT"> F  </i>
   <i type="logical" name="LVHAR"> F  </i>
   <i type="logical" name="LELF"> F  </i>
   <i type="logical" name="LOPTICS"> F  </i>
   <v name="STM">      0.00000000      0.00000000      0.00000000      0.00000000      0.00000000      0.00000000      0.00000000</v>
  </separator>
  <separator name="performance" >
   <i type="int" name="NPAR">     2</i>
   <i type="int" name="NSIM">     4</i>
   <i type="int" name="NBLK">    -1</i>
   <i type="logical" name="LPLANE"> T  </i>
   <i type="logical" name="LSCALAPACK"> T  </i>
   <i type="logical" name="LSCAAWARE"> F  </i>
   <i type="logical" name="LSCALU"> F  </i>
   <i type="logical" name="LASYNC"> F  </i>
   <i type="logical" name="LORBITALREAL"> F  </i>
  </separator>
  <separator name="miscellaneous" >
   <i type="int" name="IDIOT">     3</i>
   <i type="int" name="PHON_NSTRUCT">    -1</i>
   <i type="logical" name="LMUSIC"> F  </i>
   <v name="POMASS">     58.69000000</v>
   <v name="DARWINR">      0.00000000</v>
   <v name="DARWINV">      1.00000000</v>
   <i type="logical" name="LCORR"> T  </i>
  </separator>
  <i type="logical" name="GGA_COMPAT"> T  </i>
  <i type="logical" name="LBERRY"> F  </i>
  <i type="int" name="ICORELEVEL">     0</i>
  <i type="logical" name="LDAU"> F  </i>
  <i type="int" name="I_CONSTRAINED_M">     0</i>
  <separator name="electronic exchange-correlation" >
   <i type="string" name="GGA">PE</i>
   <i type="int" name="VOSKOWN">     0</i>
   <i type="logical" name="LHFCALC"> F  </i>
   <i type="string" name="PRECFOCK"></i>
   <i type="logical" name="LSYMGRAD"> F  </i>
   <i type="logical" name="LHFONE"> F  </i>
   <i type="logical" name="LRHFCALC"> F  </i>
   <i type="logical" name="LTHOMAS"> F  </i>
   <i type="logical" name="LMODELHF"> F  </i>
   <i type="logical" name="LFOCKACE"> F  </i>
   <i name="ENCUT4O">     -1.00000000</i>
   <i type="int" name="EXXOEP">     0</i>
   <i type="int" name="FOURORBIT">     0</i>
   <i name="AEXX">      0.00000000</i>
   <i name="HFALPHA">      0.00000000</i>
   <i name="MCALPHA">      0.00000000</i>
   <i name="ALDAX">      1.00000000</i>
   <i name="AGGAX">      1.00000000</i>
   <i name="ALDAC">      1.00000000</i>
   <i name="AGGAC">      1.00000000</i>
   <i type="int" name="NKREDX">     1</i>
   <i type="int" name="NKREDY">     1</i>
   <i type="int" name="NKREDZ">     1</i>
   <i type="logical" name="SHIFTRED"> F  </i>
   <i type="logical" name="ODDONLY"> F  </i>
   <i type="logical" name="EVENONLY"> F  </i>
   <i type="int" name="LMAXFOCK">     0</i>
   <i type="int" name="NMAXFOCKAE">     0</i>
   <i type="logical" name="LFOCKAEDFT"> F  </i>
   <i name="HFSCREEN">      0.00000000</i>
   <i name="HFSCREENC">      0.00000000</i>
   <i type="int" name="NBANDSGWLOW">     0</i>
  </separator>
  <separator name="vdW DFT" >
   <i type="logical" name="LUSE_VDW"> F  </i>
   <i name="Zab_VDW">     -0.84910000</i>
   <i name="PARAM1">      0.12340000</i>
   <i name="PARAM2">      1.00000000</i>
   <i name="PARAM3">      0.00000000</i>
  </separator>
  <separator name="model GW" >
   <i type="int" name="MODEL_GW">     0</i>
   <i name="MODEL_EPS0">    711.32490641</i>
   <i name="MODEL_ALPHA">      1.00000000</i>
  </separator>
  <separator name="linear response parameters" >
   <i type="logical" name="LEPSILON"> F  </i>
   <i type="logical" name="LRPA"> F  </i>
   <i type="logical" name="LNABLA"> F  </i>
   <i type="logical" name="LVEL"> F  </i>
   <i type="int" name="KINTER">     0</i>
   <i name="CSHIFT">      0.10000000</i>
   <i name="OMEGAMAX">     -1.00000000</i>
   <i name="DEG_THRESHOLD">      0.00200000</i>
   <i name="RTIME">     -0.10000000</i>
   <i name="WPLASMAI">      0.00000000</i>
   <v name="DFIELD">      0.00000000      0.00000000      0.00000000</v>
   <v name="WPLASMA">      0.00000000      0.00000000      0.00000000      0.00000000      0.00000000      0.00000000      0.00000000      0.00000000      0.00000000</v>
  </separator>
  <separator name="orbital magnetization" >
   <i type="logical" name="NUCIND"> F  </i>
   <v name="MAGPOS">      0.00000000      0.00000000      0.00000000</v>
   <i type="logical" name="LNICSALL"> T  </i>
   <i type="logical" name="ORBITALMAG"> F  </i>
   <i type="logical" name="LMAGBLOCH"> F  </i>
   <i type="logical" name="LCHIMAG"> F  </i>
   <i type="logical" name="LGAUGE"> T  </i>
   <i type="int" name="MAGATOM">     0</i>
   <v name="MAGDIPOL">      0.00000000      0.00000000      0.00000000</v>
   <v name="AVECCONST">      0.00000000      0.00000000      0.00000000</v>
  </separator>
  <separator name="response functions" >
   <i type="logical" name="LFINITE_TEMPERATURE"> F  </i>
   <i type="logical" name="LADDER"> F  </i>
   <i type="logical" name="LRPAFORCE"> F  </i>
   <i type="logical" name="LFXC"> F  </i>
   <i type="logical" name="LHARTREE"> T  </i>
   <i type="int" name="IBSE">     0</i>
   <v type="int" name="KPOINT">    -1     0     0     0</v>
   <i type="logical" name="LTCTC"> F  </i>
   <i type="logical" name="LTCTE"> F  </i>
   <i type="logical" name="LTETE"> F  </i>
   <i type="logical" name="LTRIPLET"> F  </i>
   <i type="logical" name="LFXCEPS"> F  </i>
   <i type="logical" name="LFXHEG"> F  </i>
   <i type="int" name="NATURALO">     2</i>
   <i type="logical" name="LHOLEGF"> F  </i>
   <i type="logical" name="L2ORDER"> F  </i>
   <i type="logical" name="LDMP1"> F  </i>
   <i type="logical" name="LMP2LT"> F  </i>
   <i type="logical" name="LSMP2LT"> F  </i>
   <i type="logical" name="LGWLF"> F  </i>
   <i name="ENCUTGW">     -2.00000000</i>
   <i name="ENCUTGWSOFT">     -2.00000000</i>
   <i name="ENCUTLF">     -1.00000000</i>
   <i type="logical" name="LESF_SPLINES"> F  </i>
   <i type="int" name="LMAXMP2">    -1</i>
   <i name="SCISSOR">      0.00000000</i>
   <i type="int" name="NOMEGA">     0</i>
   <i type="int" name="NOMEGAR">     0</i>
   <i type="int" name="NBANDSGW">    -1</i>
   <i type="int" name="NBANDSO">    -1</i>
   <i type="int" name="NBANDSV">    -1</i>
   <i type="int" name="NELM">     1</i>
   <i type="int" name="NELMHF">     1</i>
   <i type="int" name="DIM">     3</i>
   <i type="int" name="IESPILON">     4</i>
   <i type="int" name="ANTIRES">     0</i>
   <i name="OMEGAMAX">    -30.00000000</i>
   <i name="OMEGAMIN">    -30.00000000</i>
   <i name="OMEGATL">   -200.00000000</i>
   <i type="int" name="OMEGAGRID">     0</i>
   <i name="CSHIFT">     -0.10000000</i>
   <i type="logical" name="LSELFENERGY"> F  </i>
   <i type="logical" name="LSPECTRAL"> F  </i>
   <i type="logical" name="LSPECTRALGW"> F  </i>
   <i type="logical" name="LSINGLES"> F  </i>
   <i type="logical" name="LFERMIGW"> F  </i>
   <i type="logical" name="ODDONLYGW"> F  </i>
   <i type="logical" name="EVENONLYGW"> F  </i>
   <i type="int" name="NKREDLFX">     1</i>
   <i type="int" name="NKREDLFY">     1</i>
   <i type="int" name="NKREDLFZ">     1</i>
   <i type="int" name="MAXMEM">  2800</i>
   <i type="int" name="TELESCOPE">     0</i>
   <i type="int" name="NTAUPAR">    -1</i>
   <i type="int" name="NOMEGAPAR">    -1</i>
   <i name="LAMBDA">      1.00000000</i>
  </separator>
  <separator name="External order field" >
   <i name="OFIELD_KAPPA">      0.00000000</i>
   <v name="OFIELD_K">      0.00000000      0.00000000      0.00000000</v>
   <i name="OFIELD_Q6_NEAR">      0.00000000</i>
   <i name="OFIELD_Q6_FAR">      0.00000000</i>
   <i name="OFIELD_A">      0.00000000</i>
  </separator>
 </parameters>
 <atominfo>
  <atoms>      10 </atoms>
  <types>       1 </types>
  <array name="atoms" >
   <dimension dim="1">ion</dimension>
   <field type="string">element</field>
   <field type="int">atomtype</field>
   <set>
    <rc><c>Ni</c><c>   1</c></rc>
    <rc><c>Ni</c><c>   1</c></rc>
    <rc><c>Ni</c><c>   1</c></rc>
    <rc><c>Ni</c><c>   1</c></rc>
    <rc><c>Ni</c><c>   1</c></rc>
    <rc><c>Ni</c><c>   1</c></rc>
    <rc><c>Ni</c><c>   1</c></rc>
    <rc><c>Ni</c><c>   1</c></rc>
    <rc><c>Ni</c><c>   1</c></rc>
    <rc><c>Ni</c><c>   1</c></rc>
   </set>
  </array>
  <array name="atomtypes" >
   <dimension dim="1">type</dimension>
   <field type="int">atomspertype</field>
   <field type="string">element</field>
   <field>mass</field>
   <field>valence</field>
   <field type="string">pseudopotential</field>
   <set>
    <rc><c>  10</c><c>Ni</c><c>     58.69000000</c><c>     10.00000000</c><c>  PAW_PBE Ni 02Aug2007                  </c></rc>
   </set>
  </array>
 </atominfo>
 <structure name="initialpos" >
  <crystal>
   <varray name="basis" >
    <v>      21.59997248       0.00000000       0.00000000 </v>
    <v>       0.00000000      23.71834846       0.00000000 </v>
    <v>       0.00000000       0.00000000      23.14084013 </v>
   </varray>
   <i name="volume">  11855.41510686 </i>
   <varray name="rec_basis" >
    <v>       0.04629636       0.00000000       0.00000000 </v>
    <v>       0.00000000       0.04216145       0.00000000 </v>
    <v>       0.00000000       0.00000000       0.04321364 </v>
   </varray>
  </crystal>
  <varray name="positions" >
   <v>       0.45353409       0.47363965       0.45576908 </v>
   <v>       0.52170603       0.50792231       0.38283720 </v>
   <v>       0.45421106       0.57270338       0.43836806 </v>
   <v>       0.53483487       0.40844456       0.46243916 </v>
   <v>       0.41491346       0.53309442       0.53178175 </v>
   <v>       0.56262792       0.59183564       0.42892073 </v>
   <v>       0.50427090       0.46787640       0.54755969 </v>
   <v>       0.57371823       0.50049286       0.47281374 </v>
   <v>       0.51795632       0.57135815       0.52423664 </v>
   <v>       0.47949349       0.53999851       0.61583186 </v>
  </varray>
 </structure>
 <calculation>
  <scstep>
   <time name="dav">    5.97    5.98</time>
   <time name="total">    8.53    8.54</time>
   <energy>
    <i name="alphaZ">      4.30178113 </i>
    <i name="ewald">  13003.91380518 </i>
    <i name="hartreedc"> -22854.67527411 </i>
    <i name="XCdc">    304.85256863 </i>
    <i name="pawpsdc">   9628.33173603 </i>
    <i name="pawaedc"> -10296.70712275 </i>
    <i name="eentropy">     -0.01780945 </i>
    <i name="bandstr">     47.92039310 </i>
    <i name="atom">  10776.63837129 </i>
    <i name="e_fr_energy">    614.55844906 </i>
    <i name="e_wo_entrp">    614.57625852 </i>
    <i name="e_0_energy">    614.56438555 </i>
   </energy>
  </scstep>
  <scstep>
   <time name="dav">    8.62    8.63</time>
   <time name="total">    8.63    8.64</time>
   <energy>
    <i name="e_fr_energy">    107.26627741 </i>
    <i name="e_wo_entrp">    107.25627265 </i>
    <i name="e_0_energy">    107.26294249 </i>
   </energy>
  </scstep>
  <scstep>
   <time name="dav">    6.55    6.56</time>
   <time name="total">    6.56    6.56</time>
   <energy>
    <i name="e_fr_energy">    -28.53343690 </i>
    <i name="e_wo_entrp">    -28.51666628 </i>
    <i name="e_0_energy">    -28.52784669 </i>
   </energy>
  </scstep>
  <scstep>
   <time name="dav">    6.31    6.32</time>
   <time name="total">    6.32    6.33</time>
   <energy>
    <i name="e_fr_energy">    -41.40707667 </i>
    <i name="e_wo_entrp">    -41.31281102 </i>
    <i name="e_0_energy">    -41.37565479 </i>
   </energy>
  </scstep>
  <scstep>
   <time name="dav">    6.62    6.63</time>
   <time name="total">    7.35    7.35</time>
   <energy>
    <i name="e_fr_energy">    -41.70615526 </i>
    <i name="e_wo_entrp">    -41.60990242 </i>
    <i name="e_0_energy">    -41.67407098 </i>
   </energy>
  </scstep>
  <scstep>
   <time name="dav">    6.37    6.38</time>
   <time name="total">    9.64    9.66</time>
   <energy>
    <i name="e_fr_energy">    -44.10761083 </i>
    <i name="e_wo_entrp">    -44.09700242 </i>
    <i name="e_0_energy">    -44.10407469 </i>
   </energy>
  </scstep>
  <scstep>
   <time name="dav">    6.16    6.17</time>
   <time name="total">    9.43    9.45</time>
   <energy>
    <i name="e_fr_energy">    -40.34099916 </i>
    <i name="e_wo_entrp">    -40.32143345 </i>
    <i name="e_0_energy">    -40.33447726 </i>
   </energy>
  </scstep>
  <scstep>
   <time name="dav">    6.17    6.18</time>
   <time name="total">    9.45    9.47</time>
   <energy>
    <i name="e_fr_energy">    -40.64779864 </i>
    <i name="e_wo_entrp">    -40.63676561 </i>
    <i name="e_0_energy">    -40.64412096 </i>
   </energy>
  </scstep>
  <scstep>
   <time name="dav">    6.92    6.92</time>
   <time name="total">   10.18   10.20</time>
   <energy>
    <i name="e_fr_energy">    -38.72591917 </i>
    <i name="e_wo_entrp">    -38.77965914 </i>
    <i name="e_0_energy">    -38.74383249 </i>
   </energy>
  </scstep>
  <scstep>
   <time name="dav">    7.38    7.39</time>
   <time name="total">   10.66   10.67</time>
   <energy>
    <i name="e_fr_energy">    -35.99892471 </i>
    <i name="e_wo_entrp">    -35.96460232 </i>
    <i name="e_0_energy">    -35.98748391 </i>
   </energy>
  </scstep>
  <scstep>
   <time name="dav">    7.31    7.33</time>
   <time name="total">   10.60   10.62</time>
   <energy>
    <i name="e_fr_energy">    -36.38427431 </i>
    <i name="e_wo_entrp">    -36.32971252 </i>
    <i name="e_0_energy">    -36.36608704 </i>
   </energy>
  </scstep>
  <scstep>
   <time name="dav">    6.50    6.51</time>
   <time name="total">    9.77    9.79</time>
   <energy>
    <i name="e_fr_energy">    -35.92542489 </i>
    <i name="e_wo_entrp">    -35.85964541 </i>
    <i name="e_0_energy">    -35.90349840 </i>
   </energy>
  </scstep>
  <scstep>
   <time name="dav">    6.81    6.82</time>
   <time name="total">   10.09   10.11</time>
   <energy>
    <i name="e_fr_energy">    -34.95442084 </i>
    <i name="e_wo_entrp">    -34.87333070 </i>
    <i name="e_0_energy">    -34.92739079 </i>
   </energy>
  </scstep>
  <scstep>
   <time name="dav">    7.05    7.06</time>
   <time name="total">   10.34   10.36</time>
   <energy>
    <i name="e_fr_energy">    -34.73177777 </i>
    <i name="e_wo_entrp">    -34.65463778 </i>
    <i name="e_0_energy">    -34.70606444 </i>
   </energy>
  </scstep>
  <scstep>
   <time name="dav">    6.94    6.95</time>
   <time name="total">   10.24   10.26</time>
   <energy>
    <i name="e_fr_energy">    -34.57995782 </i>
    <i name="e_wo_entrp">    -34.51287123 </i>
    <i name="e_0_energy">    -34.55759563 </i>
   </energy>
  </scstep>
  <scstep>
   <time name="dav">    7.34    7.35</time>
   <time name="total">   10.63   10.65</time>
   <energy>
    <i name="e_fr_energy">    -34.60400541 </i>
    <i name="e_wo_entrp">    -34.54953646 </i>
    <i name="e_0_energy">    -34.58584910 </i>
   </energy>
  </scstep>
  <scstep>
   <time name="dav">    6.57    6.57</time>
   <time name="total">    9.89    9.91</time>
   <energy>
    <i name="e_fr_energy">    -34.60487965 </i>
    <i name="e_wo_entrp">    -34.60165874 </i>
    <i name="e_0_energy">    -34.60380601 </i>
   </energy>
  </scstep>
  <scstep>
   <time name="dav">    6.01    6.02</time>
   <time name="total">    9.36    9.37</time>
   <energy>
    <i name="e_fr_energy">    -34.48820682 </i>
    <i name="e_wo_entrp">    -34.45202073 </i>
    <i name="e_0_energy">    -34.47614479 </i>
   </energy>
  </scstep>
  <scstep>
   <time name="dav">    7.49    7.50</time>
   <time name="total">   10.85   10.87</time>
   <energy>
    <i name="e_fr_energy">    -34.60196542 </i>
    <i name="e_wo_entrp">    -34.56156162 </i>
    <i name="e_0_energy">    -34.58849748 </i>
   </energy>
  </scstep>
  <scstep>
   <time name="dav">    6.04    6.05</time>
   <time name="total">    9.42    9.44</time>
   <energy>
    <i name="e_fr_energy">    -34.60890851 </i>
    <i name="e_wo_entrp">    -34.56749551 </i>
    <i name="e_0_energy">    -34.59510417 </i>
   </energy>
  </scstep>
  <scstep>
   <time name="dav">    7.27    7.28</time>
   <time name="total">   10.61   10.64</time>
   <energy>
    <i name="e_fr_energy">    -34.79118215 </i>
    <i name="e_wo_entrp">    -34.76322327 </i>
    <i name="e_0_energy">    -34.78186252 </i>
   </energy>
  </scstep>
  <scstep>
   <time name="dav">    6.43    6.44</time>
   <time name="total">    9.77    9.79</time>
   <energy>
    <i name="e_fr_energy">    -35.00904962 </i>
    <i name="e_wo_entrp">    -34.97373914 </i>
    <i name="e_0_energy">    -34.99727946 </i>
   </energy>
  </scstep>
  <scstep>
   <time name="dav">    5.82    5.83</time>
   <time name="total">    9.15    9.17</time>
   <energy>
    <i name="e_fr_energy">    -35.16525616 </i>
    <i name="e_wo_entrp">    -35.13205353 </i>
    <i name="e_0_energy">    -35.15418861 </i>
   </energy>
  </scstep>
  <scstep>
   <time name="dav">    6.57    6.58</time>
   <time name="total">    9.95    9.96</time>
   <energy>
    <i name="e_fr_energy">    -35.30353190 </i>
    <i name="e_wo_entrp">    -35.27332211 </i>
    <i name="e_0_energy">    -35.29346197 </i>
   </energy>
  </scstep>
  <scstep>
   <time name="dav">    6.21    6.21</time>
   <time name="total">    9.62    9.65</time>
   <energy>
    <i name="e_fr_energy">    -35.46506981 </i>
    <i name="e_wo_entrp">    -35.43433072 </i>
    <i name="e_0_energy">    -35.45482344 </i>
   </energy>
  </scstep>
  <scstep>
   <time name="dav">    6.09    6.10</time>
   <time name="total">    9.49    9.51</time>
   <energy>
    <i name="e_fr_energy">    -35.58526110 </i>
    <i name="e_wo_entrp">    -35.55399998 </i>
    <i name="e_0_energy">    -35.57484072 </i>
   </energy>
  </scstep>
  <scstep>
   <time name="dav">    6.42    6.43</time>
   <time name="total">    9.84    9.85</time>
   <energy>
    <i name="e_fr_energy">    -35.69851771 </i>
    <i name="e_wo_entrp">    -35.66772504 </i>
    <i name="e_0_energy">    -35.68825349 </i>
   </energy>
  </scstep>
  <scstep>
   <time name="dav">    5.96    5.98</time>
   <time name="total">    9.37    9.39</time>
   <energy>
    <i name="e_fr_energy">    -35.80540973 </i>
    <i name="e_wo_entrp">    -35.77482101 </i>
    <i name="e_0_energy">    -35.79521349 </i>
   </energy>
  </scstep>
  <scstep>
   <time name="dav">    6.22    6.23</time>
   <time name="total">    9.64    9.66</time>
   <energy>
    <i name="e_fr_energy">    -35.88313683 </i>
    <i name="e_wo_entrp">    -35.85224510 </i>
    <i name="e_0_energy">    -35.87283959 </i>
   </energy>
  </scstep>
  <scstep>
   <time name="dav">    6.16    6.17</time>
   <time name="total">    9.63    9.65</time>
   <energy>
    <i name="e_fr_energy">    -35.94748975 </i>
    <i name="e_wo_entrp">    -35.91643103 </i>
    <i name="e_0_energy">    -35.93713684 </i>
   </energy>
  </scstep>
  <scstep>
   <time name="dav">    6.10    6.11</time>
   <time name="total">    9.55    9.57</time>
   <energy>
    <i name="e_fr_energy">    -36.00231468 </i>
    <i name="e_wo_entrp">    -35.97144447 </i>
    <i name="e_0_energy">    -35.99202461 </i>
   </energy>
  </scstep>
  <scstep>
   <time name="dav">    5.98    5.99</time>
   <time name="total">    9.47    9.48</time>
   <energy>
    <i name="e_fr_energy">    -36.03405000 </i>
    <i name="e_wo_entrp">    -36.00340074 </i>
    <i name="e_0_energy">    -36.02383358 </i>
   </energy>
  </scstep>
  <scstep>
   <time name="dav">    5.62    5.63</time>
   <time name="total">    9.13    9.14</time>
   <energy>
    <i name="e_fr_energy">    -36.05543663 </i>
    <i name="e_wo_entrp">    -36.02471111 </i>
    <i name="e_0_energy">    -36.04519479 </i>
   </energy>
  </scstep>
  <scstep>
   <time name="dav">    5.03    5.03</time>
   <time name="total">    8.54    8.55</time>
   <energy>
    <i name="e_fr_energy">    -36.07156692 </i>
    <i name="e_wo_entrp">    -36.04089891 </i>
    <i name="e_0_energy">    -36.06134425 </i>
   </energy>
  </scstep>
  <scstep>
   <time name="dav">    4.84    4.84</time>
   <time name="total">    8.39    8.40</time>
   <energy>
    <i name="e_fr_energy">    -36.07896748 </i>
    <i name="e_wo_entrp">    -36.04813886 </i>
    <i name="e_0_energy">    -36.06869128 </i>
   </energy>
  </scstep>
  <scstep>
   <time name="dav">    4.78    4.78</time>
   <time name="total">    8.34    8.36</time>
   <energy>
    <i name="e_fr_energy">    -36.08514085 </i>
    <i name="e_wo_entrp">    -36.05427891 </i>
    <i name="e_0_energy">    -36.07485354 </i>
   </energy>
  </scstep>
  <scstep>
   <time name="dav">    4.61    4.62</time>
   <time name="total">    8.18    8.20</time>
   <energy>
    <i name="e_fr_energy">    -36.08934094 </i>
    <i name="e_wo_entrp">    -36.05849598 </i>
    <i name="e_0_energy">    -36.07905929 </i>
   </energy>
  </scstep>
  <scstep>
   <time name="dav">    4.71    4.71</time>
   <time name="total">    8.27    8.28</time>
   <energy>
    <i name="e_fr_energy">    -36.09161764 </i>
    <i name="e_wo_entrp">    -36.06078909 </i>
    <i name="e_0_energy">    -36.08134146 </i>
   </energy>
  </scstep>
  <scstep>
   <time name="dav">    4.46    4.47</time>
   <time name="total">    8.05    8.07</time>
   <energy>
    <i name="e_fr_energy">    -36.09269149 </i>
    <i name="e_wo_entrp">    -36.06185504 </i>
    <i name="e_0_energy">    -36.08241267 </i>
   </energy>
  </scstep>
  <scstep>
   <time name="dav">    4.45    4.46</time>
   <time name="total">    8.09    8.10</time>
   <energy>
    <i name="e_fr_energy">    -36.09376587 </i>
    <i name="e_wo_entrp">    -36.06291601 </i>
    <i name="e_0_energy">    -36.08348258 </i>
   </energy>
  </scstep>
  <scstep>
   <time name="dav">    4.57    4.57</time>
   <time name="total">    8.19    8.20</time>
   <energy>
    <i name="e_fr_energy">    -36.09441232 </i>
    <i name="e_wo_entrp">    -36.06355881 </i>
    <i name="e_0_energy">    -36.08412782 </i>
   </energy>
  </scstep>
  <scstep>
   <time name="dav">    4.44    4.44</time>
   <time name="total">    8.06    8.07</time>
   <energy>
    <i name="e_fr_energy">    -36.09480404 </i>
    <i name="e_wo_entrp">    -36.06393658 </i>
    <i name="e_0_energy">    -36.08451489 </i>
   </energy>
  </scstep>
  <scstep>
   <time name="dav">    4.60    4.60</time>
   <time name="total">    8.26    8.27</time>
   <energy>
    <i name="e_fr_energy">    -36.09503300 </i>
    <i name="e_wo_entrp">    -36.06417727 </i>
    <i name="e_0_energy">    -36.08474776 </i>
   </energy>
  </scstep>
  <scstep>
   <time name="dav">    4.51    4.51</time>
   <time name="total">    8.19    8.21</time>
   <energy>
    <i name="e_fr_energy">    -36.09523720 </i>
    <i name="e_wo_entrp">    -36.06437603 </i>
    <i name="e_0_energy">    -36.08495014 </i>
   </energy>
  </scstep>
  <scstep>
   <time name="dav">    4.32    4.32</time>
   <time name="total">    6.84    6.85</time>
   <energy>
    <i name="alphaZ">      4.30178113 </i>
    <i name="ewald">  13003.91380518 </i>
    <i name="hartreedc"> -22899.89955733 </i>
    <i name="XCdc">    300.34749017 </i>
    <i name="pawpsdc">  10538.02315400 </i>
    <i name="pawaedc"> -11215.27678179 </i>
    <i name="eentropy">     -0.03085628 </i>
    <i name="bandstr">   -544.11273284 </i>
    <i name="atom">  10776.63837129 </i>
    <i name="e_fr_energy">    -36.09532645 </i>
    <i name="e_wo_entrp">    -36.06447017 </i>
    <i name="e_0_energy">    -36.08504102 </i>
   </energy>
  </scstep>
  <structure>
   <crystal>
    <varray name="basis" >
     <v>      21.59997248       0.00000000       0.00000000 </v>
     <v>       0.00000000      23.71834846       0.00000000 </v>
     <v>       0.00000000       0.00000000      23.14084013 </v>
    </varray>
    <i name="volume">  11855.41510686 </i>
    <varray name="rec_basis" >
     <v>       0.04629636       0.00000000       0.00000000 </v>
     <v>       0.00000000       0.04216145       0.00000000 </v>
     <v>       0.00000000       0.00000000       0.04321364 </v>
    </varray>
   </crystal>
   <varray name="positions" >
    <v>       0.45353409       0.47363965       0.45576908 </v>
    <v>       0.52170603       0.50792231       0.38283720 </v>
    <v>       0.45421106       0.57270338       0.43836806 </v>
    <v>       0.53483487       0.40844456       0.46243916 </v>
    <v>       0.41491346       0.53309442       0.53178175 </v>
    <v>       0.56262792       0.59183564       0.42892073 </v>
    <v>       0.50427090       0.46787640       0.54755969 </v>
    <v>       0.57371823       0.50049286       0.47281374 </v>
    <v>       0.51795632       0.57135815       0.52423664 </v>
    <v>       0.47949349       0.53999851       0.61583186 </v>
   </varray>
  </structure>
  <varray name="forces" >
   <v>       0.48880032       0.41083256       0.21088193 </v>
   <v>      -0.11103561       0.18606275       1.22624138 </v>
   <v>       0.53586950      -0.69895790       0.41985095 </v>
   <v>      -0.28360009       1.02506490       0.38149765 </v>
   <v>       0.93185742      -0.04681970      -0.23847077 </v>
   <v>      -0.43695220      -0.64831746       0.45364845 </v>
   <v>      -0.08051579       0.50886111      -0.71308568 </v>
   <v>      -0.69908060       0.11156200      -0.34471350 </v>
   <v>      -0.43756986      -0.64411994      -0.28450419 </v>
   <v>       0.09222691      -0.20416832      -1.11134620 </v>
  </varray>
  <energy>
   <i name="e_fr_energy">    -36.09532645 </i>
   <i name="e_wo_entrp">    -36.06447017 </i>
   <i name="e_0_energy">    -36.08504102 </i>
  </energy>
  <time name="totalsc">  420.42  421.14</time>
 </calculation>
 <calculation>
  <scstep>
   <time name="dav">    5.85    5.85</time>
   <time name="total">    9.12    9.13</time>
   <energy>
    <i name="alphaZ">      4.30178113 </i>
    <i name="ewald">  13466.07852162 </i>
    <i name="hartreedc"> -23356.12846597 </i>
    <i name="XCdc">    301.43559955 </i>
    <i name="pawpsdc">  10538.02210211 </i>
    <i name="pawaedc"> -11215.27572372 </i>
    <i name="eentropy">     -0.02385485 </i>
    <i name="bandstr">   -551.34091972 </i>
    <i name="atom">  10776.63837129 </i>
    <i name="e_fr_energy">    -36.29258856 </i>
    <i name="e_wo_entrp">    -36.26873370 </i>
    <i name="e_0_energy">    -36.28463694 </i>
   </energy>
  </scstep>
  <scstep>
   <time name="dav">    7.23    7.25</time>
   <time name="total">   10.47   10.48</time>
   <energy>
    <i name="e_fr_energy">    -37.90808713 </i>
    <i name="e_wo_entrp">    -37.90318676 </i>
    <i name="e_0_energy">    -37.90645367 </i>
   </energy>
  </scstep>
  <scstep>
   <time name="dav">    6.22    6.23</time>
   <time name="total">    9.47    9.49</time>
   <energy>
    <i name="e_fr_energy">    -36.41425139 </i>
    <i name="e_wo_entrp">    -36.40572024 </i>
    <i name="e_0_energy">    -36.41140767 </i>
   </energy>
  </scstep>
  <scstep>
   <time name="dav">    7.39    7.40</time>
   <time name="total">   10.65   10.67</time>
   <energy>
    <i name="e_fr_energy">    -36.40143936 </i>
    <i name="e_wo_entrp">    -36.36224788 </i>
    <i name="e_0_energy">    -36.38837553 </i>
   </energy>
  </scstep>
  <scstep>
   <time name="dav">    6.77    6.78</time>
   <time name="total">   10.04   10.05</time>
   <energy>
    <i name="e_fr_energy">    -36.50054667 </i>
    <i name="e_wo_entrp">    -36.47292839 </i>
    <i name="e_0_energy">    -36.49134058 </i>
   </energy>
  </scstep>
  <scstep>
   <time name="dav">    6.11    6.12</time>
   <time name="total">    9.37    9.40</time>
   <energy>
    <i name="e_fr_energy">    -36.39961937 </i>
    <i name="e_wo_entrp">    -36.36514250 </i>
    <i name="e_0_energy">    -36.38812708 </i>
   </energy>
  </scstep>
  <scstep>
   <time name="dav">    6.88    6.89</time>
   <time name="total">   10.14   10.16</time>
   <energy>
    <i name="e_fr_energy">    -36.42914534 </i>
    <i name="e_wo_entrp">    -36.41079977 </i>
    <i name="e_0_energy">    -36.42303015 </i>
   </energy>
  </scstep>
  <scstep>
   <time name="dav">    6.68    6.70</time>
   <time name="total">    9.98   10.00</time>
   <energy>
    <i name="e_fr_energy">    -36.41525805 </i>
    <i name="e_wo_entrp">    -36.38581730 </i>
    <i name="e_0_energy">    -36.40544446 </i>
   </energy>
  </scstep>
  <scstep>
   <time name="dav">    6.30    6.30</time>
   <time name="total">    9.58    9.58</time>
   <energy>
    <i name="e_fr_energy">    -36.42259261 </i>
    <i name="e_wo_entrp">    -36.39646688 </i>
    <i name="e_0_energy">    -36.41388403 </i>
   </energy>
  </scstep>
  <scstep>
   <time name="dav">    6.83    6.84</time>
   <time name="total">   10.13   10.15</time>
   <energy>
    <i name="e_fr_energy">    -36.42655195 </i>
    <i name="e_wo_entrp">    -36.39762176 </i>
    <i name="e_0_energy">    -36.41690855 </i>
   </energy>
  </scstep>
  <scstep>
   <time name="dav">    6.73    6.74</time>
   <time name="total">   10.02   10.03</time>
   <energy>
    <i name="e_fr_energy">    -36.41565261 </i>
    <i name="e_wo_entrp">    -36.39225697 </i>
    <i name="e_0_energy">    -36.40785406 </i>
   </energy>
  </scstep>
  <scstep>
   <time name="dav">    7.52    7.53</time>
   <time name="total">   10.82   10.84</time>
   <energy>
    <i name="e_fr_energy">    -36.42211969 </i>
    <i name="e_wo_entrp">    -36.39507418 </i>
    <i name="e_0_energy">    -36.41310452 </i>
   </energy>
  </scstep>
  <scstep>
   <time name="dav">    6.36    6.36</time>
   <time name="total">    9.67    9.68</time>
   <energy>
    <i name="e_fr_energy">    -36.41807918 </i>
    <i name="e_wo_entrp">    -36.39316754 </i>
    <i name="e_0_energy">    -36.40977530 </i>
   </energy>
  </scstep>
  <scstep>
   <time name="dav">    7.52    7.53</time>
   <time name="total">   10.83   10.86</time>
   <energy>
    <i name="e_fr_energy">    -36.42042691 </i>
    <i name="e_wo_entrp">    -36.39362921 </i>
    <i name="e_0_energy">    -36.41149434 </i>
   </energy>
  </scstep>
  <scstep>
   <time name="dav">    6.15    6.15</time>
   <time name="total">    9.47    9.48</time>
   <energy>
    <i name="e_fr_energy">    -36.41989515 </i>
    <i name="e_wo_entrp">    -36.39401252 </i>
    <i name="e_0_energy">    -36.41126760 </i>
   </energy>
  </scstep>
  <scstep>
   <time name="dav">    5.89    5.90</time>
   <time name="total">    9.22    9.24</time>
   <energy>
    <i name="e_fr_energy">    -36.42068409 </i>
    <i name="e_wo_entrp">    -36.39459881 </i>
    <i name="e_0_energy">    -36.41198900 </i>
   </energy>
  </scstep>
  <scstep>
   <time name="dav">    4.72    4.73</time>
   <time name="total">    8.06    8.07</time>
   <energy>
    <i name="e_fr_energy">    -36.42082909 </i>
    <i name="e_wo_entrp">    -36.39495670 </i>
    <i name="e_0_energy">    -36.41220496 </i>
   </energy>
  </scstep>
  <scstep>
   <time name="dav">    4.66    4.67</time>
   <time name="total">    8.01    8.03</time>
   <energy>
    <i name="e_fr_energy">    -36.42096519 </i>
    <i name="e_wo_entrp">    -36.39507986 </i>
    <i name="e_0_energy">    -36.41233675 </i>
   </energy>
  </scstep>
  <scstep>
   <time name="dav">    4.69    4.70</time>
   <time name="total">    8.03    8.05</time>
   <energy>
    <i name="e_fr_energy">    -36.42124935 </i>
    <i name="e_wo_entrp">    -36.39530468 </i>
    <i name="e_0_energy">    -36.41260112 </i>
   </energy>
  </scstep>
  <scstep>
   <time name="dav">    4.45    4.46</time>
   <time name="total">    7.86    7.88</time>
   <energy>
    <i name="e_fr_energy">    -36.42142519 </i>
    <i name="e_wo_entrp">    -36.39543164 </i>
    <i name="e_0_energy">    -36.41276067 </i>
   </energy>
  </scstep>
  <scstep>
   <time name="dav">    4.42    4.43</time>
   <time name="total">    7.79    7.80</time>
   <energy>
    <i name="e_fr_energy">    -36.42154231 </i>
    <i name="e_wo_entrp">    -36.39556307 </i>
    <i name="e_0_energy">    -36.41288257 </i>
   </energy>
  </scstep>
  <scstep>
   <time name="dav">    4.47    4.48</time>
   <time name="total">    7.87    7.87</time>
   <energy>
    <i name="e_fr_energy">    -36.42165449 </i>
    <i name="e_wo_entrp">    -36.39564149 </i>
    <i name="e_0_energy">    -36.41298349 </i>
   </energy>
  </scstep>
  <scstep>
   <time name="dav">    4.35    4.36</time>
   <time name="total">    6.90    6.92</time>
   <energy>
    <i name="alphaZ">      4.30178113 </i>
    <i name="ewald">  13466.07852162 </i>
    <i name="hartreedc"> -23349.74092049 </i>
    <i name="XCdc">    301.08270225 </i>
    <i name="pawpsdc">  10709.08386574 </i>
    <i name="pawaedc"> -11388.48559211 </i>
    <i name="eentropy">     -0.02598530 </i>
    <i name="bandstr">   -555.35449089 </i>
    <i name="atom">  10776.63837129 </i>
    <i name="e_fr_energy">    -36.42174676 </i>
    <i name="e_wo_entrp">    -36.39576146 </i>
    <i name="e_0_energy">    -36.41308500 </i>
   </energy>
  </scstep>
  <structure>
   <crystal>
    <varray name="basis" >
     <v>      21.59997248       0.00000000       0.00000000 </v>
     <v>       0.00000000      23.71834846       0.00000000 </v>
     <v>       0.00000000       0.00000000      23.14084013 </v>
    </varray>
    <i name="volume">  11855.41510686 </i>
    <varray name="rec_basis" >
     <v>       0.04629636       0.00000000       0.00000000 </v>
     <v>       0.00000000       0.04216145       0.00000000 </v>
     <v>       0.00000000       0.00000000       0.04321364 </v>
    </varray>
   </crystal>
   <varray name="positions" >
    <v>       0.45462580       0.47447528       0.45620872 </v>
    <v>       0.52145804       0.50830076       0.38539360 </v>
    <v>       0.45540790       0.57128172       0.43924334 </v>
    <v>       0.53420146       0.41052952       0.46323448 </v>
    <v>       0.41699473       0.53299919       0.53128460 </v>
    <v>       0.56165200       0.59051697       0.42986647 </v>
    <v>       0.50409107       0.46891142       0.54607309 </v>
    <v>       0.57215686       0.50071977       0.47209511 </v>
    <v>       0.51697903       0.57004802       0.52364352 </v>
    <v>       0.47969947       0.53958323       0.61351499 </v>
   </varray>
  </structure>
  <varray name="forces" >
   <v>      -0.00482825       0.12484730       0.07651287 </v>
   <v>      -0.09339410       0.01361300       0.52497476 </v>
   <v>       0.14653334      -0.31224159       0.21914936 </v>
   <v>      -0.15473174       0.52941384       0.28171064 </v>
   <v>       0.32164326      -0.03332470      -0.20524600 </v>
   <v>      -0.11440510      -0.21438427       0.32630130 </v>
   <v>       0.02359659       0.15078397      -0.35338707 </v>
   <v>      -0.14008306       0.11113769      -0.10824386 </v>
   <v>      -0.10486573      -0.25455722      -0.14484549 </v>
   <v>       0.12053479      -0.11528802      -0.61692652 </v>
  </varray>
  <energy>
   <i name="e_fr_energy">    -36.42174676 </i>
   <i name="e_wo_entrp">    -36.39576146 </i>
   <i name="e_0_energy">    -36.41308500 </i>
  </energy>
  <time name="totalsc">  222.99  223.42</time>
 </calculation>
 <calculation>
  <scstep>
   <time name="dav">    5.84    5.85</time>
   <time name="total">    9.08    9.10</time>
   <energy>
    <i name="alphaZ">      4.30178113 </i>
    <i name="ewald">  13750.99993725 </i>
    <i name="hartreedc"> -23630.19448233 </i>
    <i name="XCdc">    301.76113599 </i>
    <i name="pawpsdc">  10709.05623746 </i>
    <i name="pawaedc"> -11388.45750232 </i>
    <i name="eentropy">     -0.02195607 </i>
    <i name="bandstr">   -560.51651025 </i>
    <i name="atom">  10776.63837129 </i>
    <i name="e_fr_energy">    -36.43298784 </i>
    <i name="e_wo_entrp">    -36.41103177 </i>
    <i name="e_0_energy">    -36.42566915 </i>
   </energy>
  </scstep>
  <scstep>
   <time name="dav">    7.44    7.45</time>
   <time name="total">   10.71   10.72</time>
   <energy>
    <i name="e_fr_energy">    -36.98046906 </i>
    <i name="e_wo_entrp">    -36.95983675 </i>
    <i name="e_0_energy">    -36.97359162 </i>
   </energy>
  </scstep>
  <scstep>
   <time name="dav">    6.24    6.25</time>
   <time name="total">    9.49    9.51</time>
   <energy>
    <i name="e_fr_energy">    -36.41764134 </i>
    <i name="e_wo_entrp">    -36.40100675 </i>
    <i name="e_0_energy">    -36.41209648 </i>
   </energy>
  </scstep>
  <scstep>
   <time name="dav">    7.78    7.79</time>
   <time name="total">   11.04   11.06</time>
   <energy>
    <i name="e_fr_energy">    -36.48170004 </i>
    <i name="e_wo_entrp">    -36.45051885 </i>
    <i name="e_0_energy">    -36.47130631 </i>
   </energy>
  </scstep>
  <scstep>
   <time name="dav">    6.87    6.88</time>
   <time name="total">   10.13   10.14</time>
   <energy>
    <i name="e_fr_energy">    -36.48895498 </i>
    <i name="e_wo_entrp">    -36.46601263 </i>
    <i name="e_0_energy">    -36.48130753 </i>
   </energy>
  </scstep>
  <scstep>
   <time name="dav">    6.12    6.13</time>
   <time name="total">    9.40    9.41</time>
   <energy>
    <i name="e_fr_energy">    -36.47020169 </i>
    <i name="e_wo_entrp">    -36.44552645 </i>
    <i name="e_0_energy">    -36.46197661 </i>
   </energy>
  </scstep>
  <scstep>
   <time name="dav">    7.21    7.22</time>
   <time name="total">   10.49   10.50</time>
   <energy>
    <i name="e_fr_energy">    -36.48609220 </i>
    <i name="e_wo_entrp">    -36.46683370 </i>
    <i name="e_0_energy">    -36.47967270 </i>
   </energy>
  </scstep>
  <scstep>
   <time name="dav">    6.54    6.55</time>
   <time name="total">    9.82    9.84</time>
   <energy>
    <i name="e_fr_energy">    -36.47575798 </i>
    <i name="e_wo_entrp">    -36.44806041 </i>
    <i name="e_0_energy">    -36.46652546 </i>
   </energy>
  </scstep>
  <scstep>
   <time name="dav">    6.89    6.90</time>
   <time name="total">   10.19   10.21</time>
   <energy>
    <i name="e_fr_energy">    -36.48225952 </i>
    <i name="e_wo_entrp">    -36.46137501 </i>
    <i name="e_0_energy">    -36.47529801 </i>
   </energy>
  </scstep>
  <scstep>
   <time name="dav">    6.82    6.83</time>
   <time name="total">   10.13   10.15</time>
   <energy>
    <i name="e_fr_energy">    -36.47723204 </i>
    <i name="e_wo_entrp">    -36.45054224 </i>
    <i name="e_0_energy">    -36.46833544 </i>
   </energy>
  </scstep>
  <scstep>
   <time name="dav">    7.16    7.17</time>
   <time name="total">   10.47   10.48</time>
   <energy>
    <i name="e_fr_energy">    -36.47587820 </i>
    <i name="e_wo_entrp">    -36.45344840 </i>
    <i name="e_0_energy">    -36.46840160 </i>
   </energy>
  </scstep>
  <scstep>
   <time name="dav">    7.18    7.18</time>
   <time name="total">   10.46   10.48</time>
   <energy>
    <i name="e_fr_energy">    -36.47810050 </i>
    <i name="e_wo_entrp">    -36.45325594 </i>
    <i name="e_0_energy">    -36.46981898 </i>
   </energy>
  </scstep>
  <scstep>
   <time name="dav">    6.70    6.70</time>
   <time name="total">   10.03   10.04</time>
   <energy>
    <i name="e_fr_energy">    -36.47729886 </i>
    <i name="e_wo_entrp">    -36.45380653 </i>
    <i name="e_0_energy">    -36.46946808 </i>
   </energy>
  </scstep>
  <scstep>
   <time name="dav">    6.15    6.16</time>
   <time name="total">    9.46    9.48</time>
   <energy>
    <i name="e_fr_energy">    -36.47784826 </i>
    <i name="e_wo_entrp">    -36.45384346 </i>
    <i name="e_0_energy">    -36.46984666 </i>
   </energy>
  </scstep>
  <scstep>
   <time name="dav">    4.55    4.55</time>
   <time name="total">    7.86    7.87</time>
   <energy>
    <i name="e_fr_energy">    -36.47819789 </i>
    <i name="e_wo_entrp">    -36.45448696 </i>
    <i name="e_0_energy">    -36.47029425 </i>
   </energy>
  </scstep>
  <scstep>
   <time name="dav">    4.64    4.64</time>
   <time name="total">    7.18    7.19</time>
   <energy>
    <i name="alphaZ">      4.30178113 </i>
    <i name="ewald">  13750.99993725 </i>
    <i name="hartreedc"> -23626.36897724 </i>
    <i name="XCdc">    301.56273802 </i>
    <i name="pawpsdc">  10825.61466608 </i>
    <i name="pawaedc"> -11506.51387942 </i>
    <i name="eentropy">     -0.02385107 </i>
    <i name="bandstr">   -562.68904401 </i>
    <i name="atom">  10776.63837129 </i>
    <i name="e_fr_energy">    -36.47825796 </i>
    <i name="e_wo_entrp">    -36.45440690 </i>
    <i name="e_0_energy">    -36.47030761 </i>
   </energy>
  </scstep>
  <structure>
   <crystal>
    <varray name="basis" >
     <v>      21.59997248       0.00000000       0.00000000 </v>
     <v>       0.00000000      23.71834846       0.00000000 </v>
     <v>       0.00000000       0.00000000      23.14084013 </v>
    </varray>
    <i name="volume">  11855.41510686 </i>
    <varray name="rec_basis" >
     <v>       0.04629636       0.00000000       0.00000000 </v>
     <v>       0.00000000       0.04216145       0.00000000 </v>
     <v>       0.00000000       0.00000000       0.04321364 </v>
    </varray>
   </crystal>
   <varray name="positions" >
    <v>       0.45527583       0.47497283       0.45647048 </v>
    <v>       0.52131038       0.50852610       0.38691573 </v>
    <v>       0.45612052       0.57043523       0.43976450 </v>
    <v>       0.53382432       0.41177095       0.46370803 </v>
    <v>       0.41823395       0.53294249       0.53098859 </v>
    <v>       0.56107092       0.58973181       0.43042958 </v>
    <v>       0.50398400       0.46952768       0.54518794 </v>
    <v>       0.57122719       0.50085488       0.47166721 </v>
    <v>       0.51639713       0.56926794       0.52329037 </v>
    <v>       0.47982212       0.53933597       0.61213548 </v>
   </varray>
  </structure>
  <varray name="forces" >
   <v>      -0.37867406      -0.08376170      -0.01848815 </v>
   <v>      -0.08255604      -0.11354661      -0.01959555 </v>
   <v>      -0.14745531      -0.03695266       0.07392082 </v>
   <v>      -0.06132731       0.16627354       0.21145670 </v>
   <v>      -0.14653685      -0.02790377      -0.18904448 </v>
   <v>       0.10932867       0.10889057       0.24393165 </v>
   <v>       0.10441294      -0.10363915      -0.08232446 </v>
   <v>       0.28657314       0.11166906       0.09252617 </v>
   <v>       0.17025139       0.03777164      -0.05459839 </v>
   <v>       0.14598342      -0.05880092      -0.25778433 </v>
  </varray>
  <energy>
   <i name="e_fr_energy">    -36.47825796 </i>
   <i name="e_wo_entrp">    -36.45440690 </i>
   <i name="e_0_energy">    -36.47030761 </i>
  </energy>
  <time name="totalsc">  165.38  165.66</time>
 </calculation>
 <calculation>
  <scstep>
   <time name="dav">    5.78    5.79</time>
   <time name="total">    9.05    9.06</time>
   <energy>
    <i name="alphaZ">      4.30178113 </i>
    <i name="ewald">  13775.62432542 </i>
    <i name="hartreedc"> -23651.11669296 </i>
    <i name="XCdc">    301.60683772 </i>
    <i name="pawpsdc">  10825.48692988 </i>
    <i name="pawaedc"> -11506.37913176 </i>
    <i name="eentropy">     -0.01949386 </i>
    <i name="bandstr">   -562.64219749 </i>
    <i name="atom">  10776.63837129 </i>
    <i name="e_fr_energy">    -36.49927063 </i>
    <i name="e_wo_entrp">    -36.47977677 </i>
    <i name="e_0_energy">    -36.49277268 </i>
   </energy>
  </scstep>
  <scstep>
   <time name="dav">    6.39    6.40</time>
   <time name="total">    9.66    9.67</time>
   <energy>
    <i name="e_fr_energy">    -36.73828886 </i>
    <i name="e_wo_entrp">    -36.70779147 </i>
    <i name="e_0_energy">    -36.72812306 </i>
   </energy>
  </scstep>
  <scstep>
   <time name="dav">    6.38    6.39</time>
   <time name="total">    9.64    9.65</time>
   <energy>
    <i name="e_fr_energy">    -36.48630872 </i>
    <i name="e_wo_entrp">    -36.47430977 </i>
    <i name="e_0_energy">    -36.48230907 </i>
   </energy>
  </scstep>
  <scstep>
   <time name="dav">    7.33    7.34</time>
   <time name="total">   10.60   10.61</time>
   <energy>
    <i name="e_fr_energy">    -36.50368782 </i>
    <i name="e_wo_entrp">    -36.47700585 </i>
    <i name="e_0_energy">    -36.49479383 </i>
   </energy>
  </scstep>
  <scstep>
   <time name="dav">    6.92    6.92</time>
   <time name="total">   10.18   10.20</time>
   <energy>
    <i name="e_fr_energy">    -36.51350904 </i>
    <i name="e_wo_entrp">    -36.49634747 </i>
    <i name="e_0_energy">    -36.50778852 </i>
   </energy>
  </scstep>
  <scstep>
   <time name="dav">    6.36    6.37</time>
   <time name="total">    9.63    9.64</time>
   <energy>
    <i name="e_fr_energy">    -36.50591695 </i>
    <i name="e_wo_entrp">    -36.48637580 </i>
    <i name="e_0_energy">    -36.49940324 </i>
   </energy>
  </scstep>
  <scstep>
   <time name="dav">    7.27    7.28</time>
   <time name="total">   10.53   10.54</time>
   <energy>
    <i name="e_fr_energy">    -36.51019387 </i>
    <i name="e_wo_entrp">    -36.49086474 </i>
    <i name="e_0_energy">    -36.50375082 </i>
   </energy>
  </scstep>
  <scstep>
   <time name="dav">    6.63    6.64</time>
   <time name="total">    9.92    9.94</time>
   <energy>
    <i name="e_fr_energy">    -36.50912625 </i>
    <i name="e_wo_entrp">    -36.48890923 </i>
    <i name="e_0_energy">    -36.50238725 </i>
   </energy>
  </scstep>
  <scstep>
   <time name="dav">    6.43    6.44</time>
   <time name="total">    9.73    9.74</time>
   <energy>
    <i name="e_fr_energy">    -36.50930400 </i>
    <i name="e_wo_entrp">    -36.48924663 </i>
    <i name="e_0_energy">    -36.50261821 </i>
   </energy>
  </scstep>
  <scstep>
   <time name="dav">    6.35    6.36</time>
   <time name="total">    9.62    9.64</time>
   <energy>
    <i name="e_fr_energy">    -36.50958822 </i>
    <i name="e_wo_entrp">    -36.49109988 </i>
    <i name="e_0_energy">    -36.50342544 </i>
   </energy>
  </scstep>
  <scstep>
   <time name="dav">    6.40    6.41</time>
   <time name="total">    9.68    9.69</time>
   <energy>
    <i name="e_fr_energy">    -36.50959570 </i>
    <i name="e_wo_entrp">    -36.49000232 </i>
    <i name="e_0_energy">    -36.50306457 </i>
   </energy>
  </scstep>
  <scstep>
   <time name="dav">    5.19    5.20</time>
   <time name="total">    8.47    8.48</time>
   <energy>
    <i name="e_fr_energy">    -36.50983303 </i>
    <i name="e_wo_entrp">    -36.49059175 </i>
    <i name="e_0_energy">    -36.50341927 </i>
   </energy>
  </scstep>
  <scstep>
   <time name="dav">    4.44    4.44</time>
   <time name="total">    6.99    7.00</time>
   <energy>
    <i name="alphaZ">      4.30178113 </i>
    <i name="ewald">  13775.62432542 </i>
    <i name="hartreedc"> -23649.97939905 </i>
    <i name="XCdc">    301.57672313 </i>
    <i name="pawpsdc">  10829.51242729 </i>
    <i name="pawaedc"> -11510.48426768 </i>
    <i name="eentropy">     -0.01954234 </i>
    <i name="bandstr">   -563.68021878 </i>
    <i name="atom">  10776.63837129 </i>
    <i name="e_fr_energy">    -36.50979959 </i>
    <i name="e_wo_entrp">    -36.49025725 </i>
    <i name="e_0_energy">    -36.50328547 </i>
   </energy>
  </scstep>
  <structure>
   <crystal>
    <varray name="basis" >
     <v>      21.59997248       0.00000000       0.00000000 </v>
     <v>       0.00000000      23.71834846       0.00000000 </v>
     <v>       0.00000000       0.00000000      23.14084013 </v>
    </varray>
    <i name="volume">  11855.41510686 </i>
    <varray name="rec_basis" >
     <v>       0.04629636       0.00000000       0.00000000 </v>
     <v>       0.00000000       0.04216145       0.00000000 </v>
     <v>       0.00000000       0.00000000       0.04321364 </v>
    </varray>
   </crystal>
   <varray name="positions" >
    <v>       0.45443104       0.47485999       0.45646829 </v>
    <v>       0.52108094       0.50830289       0.38710809 </v>
    <v>       0.45586343       0.57021871       0.44001847 </v>
    <v>       0.53361204       0.41234360       0.46427543 </v>
    <v>       0.41806153       0.53287011       0.53050124 </v>
    <v>       0.56125329       0.58985686       0.43108675 </v>
    <v>       0.50422822       0.46938817       0.54485743 </v>
    <v>       0.57179805       0.50113019       0.47181615 </v>
    <v>       0.51673164       0.56923190       0.52310775 </v>
    <v>       0.48020618       0.53916345       0.61131830 </v>
   </varray>
  </structure>
  <varray name="forces" >
   <v>      -0.33048971      -0.11994791      -0.04299727 </v>
   <v>      -0.05887201      -0.08618640       0.09634594 </v>
   <v>      -0.09513410      -0.01539339       0.02413908 </v>
   <v>      -0.03847982       0.11014097       0.15355693 </v>
   <v>      -0.13208813       0.00123045      -0.12538195 </v>
   <v>       0.08042597       0.10418722       0.18327695 </v>
   <v>       0.07712722      -0.07839507      -0.09099599 </v>
   <v>       0.25971095       0.08342813       0.03199300 </v>
   <v>       0.12286594       0.05199216      -0.04928370 </v>
   <v>       0.11493369      -0.05105616      -0.18065300 </v>
  </varray>
  <energy>
   <i name="e_fr_energy">    -36.50979959 </i>
   <i name="e_wo_entrp">    -36.49025725 </i>
   <i name="e_0_energy">    -36.50328547 </i>
  </energy>
  <time name="totalsc">  133.17  133.40</time>
 </calculation>
 <calculation>
  <scstep>
   <time name="dav">    5.78    5.79</time>
   <time name="total">    9.07    9.08</time>
   <energy>
    <i name="alphaZ">      4.30178113 </i>
    <i name="ewald">  13851.13428223 </i>
    <i name="hartreedc"> -23725.79698302 </i>
    <i name="XCdc">    301.75269413 </i>
    <i name="pawpsdc">  10829.64282478 </i>
    <i name="pawaedc"> -11510.62043710 </i>
    <i name="eentropy">     -0.01371959 </i>
    <i name="bandstr">   -563.47959007 </i>
    <i name="atom">  10776.63837129 </i>
    <i name="e_fr_energy">    -36.44077622 </i>
    <i name="e_wo_entrp">    -36.42705662 </i>
    <i name="e_0_energy">    -36.43620302 </i>
   </energy>
  </scstep>
  <scstep>
   <time name="dav">    6.38    6.39</time>
   <time name="total">    9.63    9.64</time>
   <energy>
    <i name="e_fr_energy">    -38.14824659 </i>
    <i name="e_wo_entrp">    -38.14361412 </i>
    <i name="e_0_energy">    -38.14670243 </i>
   </energy>
  </scstep>
  <scstep>
   <time name="dav">    6.35    6.36</time>
   <time name="total">    9.62    9.63</time>
   <energy>
    <i name="e_fr_energy">    -36.60440080 </i>
    <i name="e_wo_entrp">    -36.60435163 </i>
    <i name="e_0_energy">    -36.60438441 </i>
   </energy>
  </scstep>
  <scstep>
   <time name="dav">    7.23    7.23</time>
   <time name="total">   10.49   10.51</time>
   <energy>
    <i name="e_fr_energy">    -36.52345829 </i>
    <i name="e_wo_entrp">    -36.48758699 </i>
    <i name="e_0_energy">    -36.51150119 </i>
   </energy>
  </scstep>
  <scstep>
   <time name="dav">    6.88    6.88</time>
   <time name="total">   10.15   10.16</time>
   <energy>
    <i name="e_fr_energy">    -36.63277430 </i>
    <i name="e_wo_entrp">    -36.63696917 </i>
    <i name="e_0_energy">    -36.63417259 </i>
   </energy>
  </scstep>
  <scstep>
   <time name="dav">    6.44    6.45</time>
   <time name="total">    9.72    9.73</time>
   <energy>
    <i name="e_fr_energy">    -36.52266707 </i>
    <i name="e_wo_entrp">    -36.50606094 </i>
    <i name="e_0_energy">    -36.51713169 </i>
   </energy>
  </scstep>
  <scstep>
   <time name="dav">    6.84    6.85</time>
   <time name="total">   10.14   10.15</time>
   <energy>
    <i name="e_fr_energy">    -36.55457169 </i>
    <i name="e_wo_entrp">    -36.54160003 </i>
    <i name="e_0_energy">    -36.55024780 </i>
   </energy>
  </scstep>
  <scstep>
   <time name="dav">    6.43    6.44</time>
   <time name="total">    9.72    9.73</time>
   <energy>
    <i name="e_fr_energy">    -36.54590255 </i>
    <i name="e_wo_entrp">    -36.52834686 </i>
    <i name="e_0_energy">    -36.54005065 </i>
   </energy>
  </scstep>
  <scstep>
   <time name="dav">    6.54    6.55</time>
   <time name="total">    9.84    9.86</time>
   <energy>
    <i name="e_fr_energy">    -36.54661311 </i>
    <i name="e_wo_entrp">    -36.53136086 </i>
    <i name="e_0_energy">    -36.54152903 </i>
   </energy>
  </scstep>
  <scstep>
   <time name="dav">    6.48    6.49</time>
   <time name="total">    9.79    9.80</time>
   <energy>
    <i name="e_fr_energy">    -36.54986610 </i>
    <i name="e_wo_entrp">    -36.54072487 </i>
    <i name="e_0_energy">    -36.54681903 </i>
   </energy>
  </scstep>
  <scstep>
   <time name="dav">    6.57    6.58</time>
   <time name="total">    9.87    9.88</time>
   <energy>
    <i name="e_fr_energy">    -36.54674186 </i>
    <i name="e_wo_entrp">    -36.53476269 </i>
    <i name="e_0_energy">    -36.54274880 </i>
   </energy>
  </scstep>
  <scstep>
   <time name="dav">    7.39    7.40</time>
   <time name="total">   10.68   10.70</time>
   <energy>
    <i name="e_fr_energy">    -36.55091121 </i>
    <i name="e_wo_entrp">    -36.53918228 </i>
    <i name="e_0_energy">    -36.54700156 </i>
   </energy>
  </scstep>
  <scstep>
   <time name="dav">    6.61    6.62</time>
   <time name="total">    9.92    9.94</time>
   <energy>
    <i name="e_fr_energy">    -36.54806434 </i>
    <i name="e_wo_entrp">    -36.53393385 </i>
    <i name="e_0_energy">    -36.54335418 </i>
   </energy>
  </scstep>
  <scstep>
   <time name="dav">    7.36    7.36</time>
   <time name="total">   10.66   10.68</time>
   <energy>
    <i name="e_fr_energy">    -36.54945460 </i>
    <i name="e_wo_entrp">    -36.53554447 </i>
    <i name="e_0_energy">    -36.54481789 </i>
   </energy>
  </scstep>
  <scstep>
   <time name="dav">    6.10    6.10</time>
   <time name="total">    9.42    9.43</time>
   <energy>
    <i name="e_fr_energy">    -36.54939617 </i>
    <i name="e_wo_entrp">    -36.53494607 </i>
    <i name="e_0_energy">    -36.54457947 </i>
   </energy>
  </scstep>
  <scstep>
   <time name="dav">    4.88    4.89</time>
   <time name="total">    8.23    8.25</time>
   <energy>
    <i name="e_fr_energy">    -36.54988063 </i>
    <i name="e_wo_entrp">    -36.53607593 </i>
    <i name="e_0_energy">    -36.54527906 </i>
   </energy>
  </scstep>
  <scstep>
   <time name="dav">    4.42    4.43</time>
   <time name="total">    7.81    7.82</time>
   <energy>
    <i name="e_fr_energy">    -36.55001163 </i>
    <i name="e_wo_entrp">    -36.53592871 </i>
    <i name="e_0_energy">    -36.54531733 </i>
   </energy>
  </scstep>
  <scstep>
   <time name="dav">    4.56    4.57</time>
   <time name="total">    7.91    7.92</time>
   <energy>
    <i name="e_fr_energy">    -36.55037120 </i>
    <i name="e_wo_entrp">    -36.53644550 </i>
    <i name="e_0_energy">    -36.54572930 </i>
   </energy>
  </scstep>
  <scstep>
   <time name="dav">    4.70    4.71</time>
   <time name="total">    8.06    8.06</time>
   <energy>
    <i name="e_fr_energy">    -36.55074639 </i>
    <i name="e_wo_entrp">    -36.53676047 </i>
    <i name="e_0_energy">    -36.54608442 </i>
   </energy>
  </scstep>
  <scstep>
   <time name="dav">    4.58    4.59</time>
   <time name="total">    7.98    7.99</time>
   <energy>
    <i name="e_fr_energy">    -36.55114114 </i>
    <i name="e_wo_entrp">    -36.53717611 </i>
    <i name="e_0_energy">    -36.54648613 </i>
   </energy>
  </scstep>
  <scstep>
   <time name="dav">    4.44    4.45</time>
   <time name="total">    7.82    7.84</time>
   <energy>
    <i name="e_fr_energy">    -36.55145413 </i>
    <i name="e_wo_entrp">    -36.53747053 </i>
    <i name="e_0_energy">    -36.54679293 </i>
   </energy>
  </scstep>
  <scstep>
   <time name="dav">    4.64    4.64</time>
   <time name="total">    8.05    8.06</time>
   <energy>
    <i name="e_fr_energy">    -36.55172407 </i>
    <i name="e_wo_entrp">    -36.53777786 </i>
    <i name="e_0_energy">    -36.54707533 </i>
   </energy>
  </scstep>
  <scstep>
   <time name="dav">    4.45    4.46</time>
   <time name="total">    7.87    7.88</time>
   <energy>
    <i name="e_fr_energy">    -36.55196190 </i>
    <i name="e_wo_entrp">    -36.53801103 </i>
    <i name="e_0_energy">    -36.54731161 </i>
   </energy>
  </scstep>
  <scstep>
   <time name="dav">    4.34    4.35</time>
   <time name="total">    7.77    7.78</time>
   <energy>
    <i name="e_fr_energy">    -36.55215056 </i>
    <i name="e_wo_entrp">    -36.53821466 </i>
    <i name="e_0_energy">    -36.54750526 </i>
   </energy>
  </scstep>
  <scstep>
   <time name="dav">    4.59    4.60</time>
   <time name="total">    8.02    8.04</time>
   <energy>
    <i name="e_fr_energy">    -36.55247220 </i>
    <i name="e_wo_entrp">    -36.53852995 </i>
    <i name="e_0_energy">    -36.54782478 </i>
   </energy>
  </scstep>
  <scstep>
   <time name="dav">    4.58    4.58</time>
   <time name="total">    8.02    8.03</time>
   <energy>
    <i name="e_fr_energy">    -36.55270680 </i>
    <i name="e_wo_entrp">    -36.53877242 </i>
    <i name="e_0_energy">    -36.54806201 </i>
   </energy>
  </scstep>
  <scstep>
   <time name="dav">    4.33    4.34</time>
   <time name="total">    7.81    7.83</time>
   <energy>
    <i name="e_fr_energy">    -36.55285522 </i>
    <i name="e_wo_entrp">    -36.53891979 </i>
    <i name="e_0_energy">    -36.54821008 </i>
   </energy>
  </scstep>
  <scstep>
   <time name="dav">    4.58    4.58</time>
   <time name="total">    8.09    8.10</time>
   <energy>
    <i name="e_fr_energy">    -36.55300256 </i>
    <i name="e_wo_entrp">    -36.53907288 </i>
    <i name="e_0_energy">    -36.54835933 </i>
   </energy>
  </scstep>
  <scstep>
   <time name="dav">    4.31    4.32</time>
   <time name="total">    6.87    6.89</time>
   <energy>
    <i name="alphaZ">      4.30178113 </i>
    <i name="ewald">  13851.13428223 </i>
    <i name="hartreedc"> -23721.60047997 </i>
    <i name="XCdc">    301.63112011 </i>
    <i name="pawpsdc">  10848.27759867 </i>
    <i name="pawaedc"> -11529.61319561 </i>
    <i name="eentropy">     -0.01392810 </i>
    <i name="bandstr">   -567.30862159 </i>
    <i name="atom">  10776.63837129 </i>
    <i name="e_fr_energy">    -36.55307183 </i>
    <i name="e_wo_entrp">    -36.53914373 </i>
    <i name="e_0_energy">    -36.54842913 </i>
   </energy>
  </scstep>
  <structure>
   <crystal>
    <varray name="basis" >
     <v>      21.59997248       0.00000000       0.00000000 </v>
     <v>       0.00000000      23.71834846       0.00000000 </v>
     <v>       0.00000000       0.00000000      23.14084013 </v>
    </varray>
    <i name="volume">  11855.41510686 </i>
    <varray name="rec_basis" >
     <v>       0.04629636       0.00000000       0.00000000 </v>
     <v>       0.00000000       0.04216145       0.00000000 </v>
     <v>       0.00000000       0.00000000       0.04321364 </v>
    </varray>
   </crystal>
   <varray name="positions" >
    <v>       0.45189666       0.47452149       0.45646173 </v>
    <v>       0.52039262       0.50763326       0.38768520 </v>
    <v>       0.45509217       0.56956917       0.44078039 </v>
    <v>       0.53297522       0.41406154       0.46597763 </v>
    <v>       0.41754426       0.53265296       0.52903922 </v>
    <v>       0.56180040       0.59023199       0.43305827 </v>
    <v>       0.50496089       0.46896965       0.54386589 </v>
    <v>       0.57351061       0.50195614       0.47226295 </v>
    <v>       0.51773518       0.56912378       0.52255990 </v>
    <v>       0.48135836       0.53864590       0.60886673 </v>
   </varray>
  </structure>
  <varray name="forces" >
   <v>      -0.18331945      -0.23008082      -0.13362329 </v>
   <v>       0.01578697      -0.01505445       0.36143355 </v>
   <v>       0.07295580       0.05736170      -0.14519790 </v>
   <v>       0.04003263      -0.12475619      -0.11047527 </v>
   <v>      -0.09793807       0.07942162       0.13031375 </v>
   <v>      -0.00354204       0.10156693      -0.02521628 </v>
   <v>      -0.04007835       0.07061783      -0.03483038 </v>
   <v>       0.19209794      -0.02032720      -0.13116733 </v>
   <v>      -0.00722944       0.09739490      -0.02545786 </v>
   <v>       0.01123401      -0.01614433       0.11422100 </v>
  </varray>
  <energy>
   <i name="e_fr_energy">    -36.55307183 </i>
   <i name="e_wo_entrp">    -36.53914373 </i>
   <i name="e_0_energy">    -36.54842913 </i>
  </energy>
  <time name="totalsc">  268.64  269.10</time>
 </calculation>
 <calculation>
  <scstep>
   <time name="dav">    5.80    5.81</time>
   <time name="total">    9.09    9.10</time>
   <energy>
    <i name="alphaZ">      4.30178113 </i>
    <i name="ewald">  13812.67455278 </i>
    <i name="hartreedc"> -23684.32640000 </i>
    <i name="XCdc">    301.55474968 </i>
    <i name="pawpsdc">  10848.28163945 </i>
    <i name="pawaedc"> -11529.61734484 </i>
    <i name="eentropy">     -0.01381561 </i>
    <i name="bandstr">   -566.04351840 </i>
    <i name="atom">  10776.63837129 </i>
    <i name="e_fr_energy">    -36.54998451 </i>
    <i name="e_wo_entrp">    -36.53616890 </i>
    <i name="e_0_energy">    -36.54537931 </i>
   </energy>
  </scstep>
  <scstep>
   <time name="dav">    6.62    6.62</time>
   <time name="total">    9.87    9.88</time>
   <energy>
    <i name="e_fr_energy">    -36.94469117 </i>
    <i name="e_wo_entrp">    -36.93256192 </i>
    <i name="e_0_energy">    -36.94064808 </i>
   </energy>
  </scstep>
  <scstep>
   <time name="dav">    6.36    6.37</time>
   <time name="total">    9.61    9.62</time>
   <energy>
    <i name="e_fr_energy">    -36.52951616 </i>
    <i name="e_wo_entrp">    -36.52106460 </i>
    <i name="e_0_energy">    -36.52669897 </i>
   </energy>
  </scstep>
  <scstep>
   <time name="dav">    8.00    8.01</time>
   <time name="total">   11.27   11.28</time>
   <energy>
    <i name="e_fr_energy">    -36.58724235 </i>
    <i name="e_wo_entrp">    -36.56539516 </i>
    <i name="e_0_energy">    -36.57995995 </i>
   </energy>
  </scstep>
  <scstep>
   <time name="dav">    6.24    6.24</time>
   <time name="total">    9.48    9.49</time>
   <energy>
    <i name="e_fr_energy">    -36.58690019 </i>
    <i name="e_wo_entrp">    -36.57892004 </i>
    <i name="e_0_energy">    -36.58424014 </i>
   </energy>
  </scstep>
  <scstep>
   <time name="dav">    6.27    6.28</time>
   <time name="total">    9.53    9.55</time>
   <energy>
    <i name="e_fr_energy">    -36.57207826 </i>
    <i name="e_wo_entrp">    -36.55586350 </i>
    <i name="e_0_energy">    -36.56667334 </i>
   </energy>
  </scstep>
  <scstep>
   <time name="dav">    7.66    7.67</time>
   <time name="total">   10.92   10.93</time>
   <energy>
    <i name="e_fr_energy">    -36.58007591 </i>
    <i name="e_wo_entrp">    -36.57257445 </i>
    <i name="e_0_energy">    -36.57757542 </i>
   </energy>
  </scstep>
  <scstep>
   <time name="dav">    7.04    7.05</time>
   <time name="total">   10.28   10.31</time>
   <energy>
    <i name="e_fr_energy">    -36.57934916 </i>
    <i name="e_wo_entrp">    -36.56613421 </i>
    <i name="e_0_energy">    -36.57494418 </i>
   </energy>
  </scstep>
  <scstep>
   <time name="dav">    6.47    6.49</time>
   <time name="total">    9.76    9.78</time>
   <energy>
    <i name="e_fr_energy">    -36.57972126 </i>
    <i name="e_wo_entrp">    -36.56866472 </i>
    <i name="e_0_energy">    -36.57603575 </i>
   </energy>
  </scstep>
  <scstep>
   <time name="dav">    6.43    6.44</time>
   <time name="total">    9.70    9.71</time>
   <energy>
    <i name="e_fr_energy">    -36.57853782 </i>
    <i name="e_wo_entrp">    -36.56636673 </i>
    <i name="e_0_energy">    -36.57448079 </i>
   </energy>
  </scstep>
  <scstep>
   <time name="dav">    7.41    7.42</time>
   <time name="total">   10.67   10.69</time>
   <energy>
    <i name="e_fr_energy">    -36.57990856 </i>
    <i name="e_wo_entrp">    -36.56694647 </i>
    <i name="e_0_energy">    -36.57558787 </i>
   </energy>
  </scstep>
  <scstep>
   <time name="dav">    6.11    6.11</time>
   <time name="total">    9.39    9.40</time>
   <energy>
    <i name="e_fr_energy">    -36.57933670 </i>
    <i name="e_wo_entrp">    -36.56689393 </i>
    <i name="e_0_energy">    -36.57518911 </i>
   </energy>
  </scstep>
  <scstep>
   <time name="dav">    5.72    5.73</time>
   <time name="total">    9.05    9.07</time>
   <energy>
    <i name="e_fr_energy">    -36.57989619 </i>
    <i name="e_wo_entrp">    -36.56704408 </i>
    <i name="e_0_energy">    -36.57561215 </i>
   </energy>
  </scstep>
  <scstep>
   <time name="dav">    4.67    4.68</time>
   <time name="total">    8.01    8.02</time>
   <energy>
    <i name="e_fr_energy">    -36.57974221 </i>
    <i name="e_wo_entrp">    -36.56770253 </i>
    <i name="e_0_energy">    -36.57572899 </i>
   </energy>
  </scstep>
  <scstep>
   <time name="dav">    4.36    4.36</time>
   <time name="total">    7.70    7.72</time>
   <energy>
    <i name="e_fr_energy">    -36.57991039 </i>
    <i name="e_wo_entrp">    -36.56763173 </i>
    <i name="e_0_energy">    -36.57581750 </i>
   </energy>
  </scstep>
  <scstep>
   <time name="dav">    4.55    4.56</time>
   <time name="total">    7.90    7.91</time>
   <energy>
    <i name="e_fr_energy">    -36.58004781 </i>
    <i name="e_wo_entrp">    -36.56766654 </i>
    <i name="e_0_energy">    -36.57592072 </i>
   </energy>
  </scstep>
  <scstep>
   <time name="dav">    4.44    4.45</time>
   <time name="total">    6.99    7.01</time>
   <energy>
    <i name="alphaZ">      4.30178113 </i>
    <i name="ewald">  13812.67455278 </i>
    <i name="hartreedc"> -23683.43040926 </i>
    <i name="XCdc">    301.55158130 </i>
    <i name="pawpsdc">  10830.20352325 </i>
    <i name="pawaedc"> -11511.35175797 </i>
    <i name="eentropy">     -0.01244216 </i>
    <i name="bandstr">   -567.15534108 </i>
    <i name="atom">  10776.63837129 </i>
    <i name="e_fr_energy">    -36.58014069 </i>
    <i name="e_wo_entrp">    -36.56769853 </i>
    <i name="e_0_energy">    -36.57599331 </i>
   </energy>
  </scstep>
  <structure>
   <crystal>
    <varray name="basis" >
     <v>      21.59997248       0.00000000       0.00000000 </v>
     <v>       0.00000000      23.71834846       0.00000000 </v>
     <v>       0.00000000       0.00000000      23.14084013 </v>
    </varray>
    <i name="volume">  11855.41510686 </i>
    <varray name="rec_basis" >
     <v>       0.04629636       0.00000000       0.00000000 </v>
     <v>       0.00000000       0.04216145       0.00000000 </v>
     <v>       0.00000000       0.00000000       0.04321364 </v>
    </varray>
   </crystal>
   <varray name="positions" >
    <v>       0.45034206       0.47357384       0.45596081 </v>
    <v>       0.52023264       0.50736139       0.38922142 </v>
    <v>       0.45513393       0.56956753       0.44048537 </v>
    <v>       0.53292890       0.41416404       0.46611699 </v>
    <v>       0.41698493       0.53287182       0.52905176 </v>
    <v>       0.56196358       0.59072349       0.43360318 </v>
    <v>       0.50503810       0.46909117       0.54341448 </v>
    <v>       0.57483393       0.50214982       0.47191816 </v>
    <v>       0.51803155       0.56944344       0.52228729 </v>
    <v>       0.48177675       0.53841934       0.60849846 </v>
   </varray>
  </structure>
  <varray name="forces" >
   <v>      -0.13938543      -0.11878039      -0.00104817 </v>
   <v>       0.02201003      -0.05575525       0.26886918 </v>
   <v>       0.04402330      -0.02991227      -0.03955681 </v>
   <v>       0.03418274      -0.04216934      -0.16125944 </v>
   <v>       0.08265017       0.04078266       0.05859222 </v>
   <v>       0.00791842       0.11775492      -0.07362280 </v>
   <v>      -0.08308226       0.18029190      -0.15198411 </v>
   <v>       0.13374450      -0.06074344       0.01827086 </v>
   <v>      -0.08359880      -0.02913371      -0.02627149 </v>
   <v>      -0.01846267      -0.00233507       0.10801056 </v>
  </varray>
  <energy>
   <i name="e_fr_energy">    -36.58014069 </i>
   <i name="e_wo_entrp">    -36.56769853 </i>
   <i name="e_0_energy">    -36.57599331 </i>
  </energy>
  <time name="totalsc">  168.70  168.99</time>
 </calculation>
 <calculation>
  <scstep>
   <time name="dav">    5.76    5.77</time>
   <time name="total">    9.03    9.05</time>
   <energy>
    <i name="alphaZ">      4.30178113 </i>
    <i name="ewald">  13761.79243715 </i>
    <i name="hartreedc"> -23634.01752171 </i>
    <i name="XCdc">    301.45951525 </i>
    <i name="pawpsdc">  10830.20740051 </i>
    <i name="pawaedc"> -11511.35546614 </i>
    <i name="eentropy">     -0.01237960 </i>
    <i name="bandstr">   -565.55098846 </i>
    <i name="atom">  10776.63837129 </i>
    <i name="e_fr_energy">    -36.53685056 </i>
    <i name="e_wo_entrp">    -36.52447096 </i>
    <i name="e_0_energy">    -36.53272403 </i>
   </energy>
  </scstep>
  <scstep>
   <time name="dav">    6.72    6.74</time>
   <time name="total">    9.97    9.99</time>
   <energy>
    <i name="e_fr_energy">    -37.17635040 </i>
    <i name="e_wo_entrp">    -37.16252740 </i>
    <i name="e_0_energy">    -37.17174273 </i>
   </energy>
  </scstep>
  <scstep>
   <time name="dav">    6.32    6.33</time>
   <time name="total">    9.58    9.60</time>
   <energy>
    <i name="e_fr_energy">    -36.54442291 </i>
    <i name="e_wo_entrp">    -36.54057946 </i>
    <i name="e_0_energy">    -36.54314176 </i>
   </energy>
  </scstep>
  <scstep>
   <time name="dav">    7.74    7.75</time>
   <time name="total">   10.99   11.01</time>
   <energy>
    <i name="e_fr_energy">    -36.59217698 </i>
    <i name="e_wo_entrp">    -36.57039669 </i>
    <i name="e_0_energy">    -36.58491688 </i>
   </energy>
  </scstep>
  <scstep>
   <time name="dav">    6.57    6.58</time>
   <time name="total">    9.83    9.84</time>
   <energy>
    <i name="e_fr_energy">    -36.61709356 </i>
    <i name="e_wo_entrp">    -36.61434038 </i>
    <i name="e_0_energy">    -36.61617584 </i>
   </energy>
  </scstep>
  <scstep>
   <time name="dav">    6.21    6.21</time>
   <time name="total">    9.48    9.49</time>
   <energy>
    <i name="e_fr_energy">    -36.57672663 </i>
    <i name="e_wo_entrp">    -36.56065982 </i>
    <i name="e_0_energy">    -36.57137102 </i>
   </energy>
  </scstep>
  <scstep>
   <time name="dav">    7.74    7.75</time>
   <time name="total">   11.02   11.04</time>
   <energy>
    <i name="e_fr_energy">    -36.59146705 </i>
    <i name="e_wo_entrp">    -36.58708073 </i>
    <i name="e_0_energy">    -36.59000494 </i>
   </energy>
  </scstep>
  <scstep>
   <time name="dav">    7.03    7.05</time>
   <time name="total">   10.31   10.34</time>
   <energy>
    <i name="e_fr_energy">    -36.59130113 </i>
    <i name="e_wo_entrp">    -36.58119563 </i>
    <i name="e_0_energy">    -36.58793263 </i>
   </energy>
  </scstep>
  <scstep>
   <time name="dav">    6.16    6.17</time>
   <time name="total">    9.46    9.48</time>
   <energy>
    <i name="e_fr_energy">    -36.59180165 </i>
    <i name="e_wo_entrp">    -36.58210768 </i>
    <i name="e_0_energy">    -36.58857033 </i>
   </energy>
  </scstep>
  <scstep>
   <time name="dav">    6.83    6.84</time>
   <time name="total">   10.11   10.13</time>
   <energy>
    <i name="e_fr_energy">    -36.59375547 </i>
    <i name="e_wo_entrp">    -36.58837242 </i>
    <i name="e_0_energy">    -36.59196112 </i>
   </energy>
  </scstep>
  <scstep>
   <time name="dav">    6.60    6.61</time>
   <time name="total">    9.88    9.90</time>
   <energy>
    <i name="e_fr_energy">    -36.59033509 </i>
    <i name="e_wo_entrp">    -36.58074374 </i>
    <i name="e_0_energy">    -36.58713797 </i>
   </energy>
  </scstep>
[...]
       <r>    -1.6333    -0.0645    59.9952 </r>
       <r>    -1.5869    -0.1208    59.9896 </r>
       <r>    -1.5405    -0.1912    59.9808 </r>
       <r>    -1.4942    -0.2259    59.9703 </r>
       <r>    -1.4478    -0.1237    59.9645 </r>
       <r>    -1.4014     0.2494    59.9761 </r>
       <r>    -1.3550     0.9873    60.0219 </r>
       <r>    -1.3086     2.0408    60.1166 </r>
       <r>    -1.2622     3.1608    60.2632 </r>
       <r>    -1.2158     3.9644    60.4471 </r>
       <r>    -1.1694     4.1200    60.6382 </r>
       <r>    -1.1231     3.5379    60.8023 </r>
       <r>    -1.0767     2.4306    60.9151 </r>
       <r>    -1.0303     1.2055    60.9710 </r>
       <r>    -0.9839     0.2842    60.9842 </r>
       <r>    -0.9375    -0.0304    60.9828 </r>
       <r>    -0.8911     0.4011    61.0014 </r>
       <r>    -0.8447     1.5479    61.0732 </r>
       <r>    -0.7983     3.1943    61.2214 </r>
       <r>    -0.7519     4.9465    61.4508 </r>
       <r>    -0.7056     6.3206    61.7440 </r>
       <r>    -0.6592     6.9291    62.0655 </r>
       <r>    -0.6128     6.6837    62.3755 </r>
       <r>    -0.5664     5.8811    62.6483 </r>
       <r>    -0.5200     5.0813    62.8840 </r>
       <r>    -0.4736     4.8148    63.1074 </r>
       <r>    -0.4272     5.2852    63.3526 </r>
       <r>    -0.3808     6.2659    63.6432 </r>
       <r>    -0.3345     7.2671    63.9803 </r>
       <r>    -0.2881     7.8473    64.3444 </r>
       <r>    -0.2417     7.8358    64.7078 </r>
       <r>    -0.1953     7.3227    65.0475 </r>
       <r>    -0.1489     6.4841    65.3483 </r>
       <r>    -0.1025     5.4321    65.6003 </r>
       <r>    -0.0561     4.2142    65.7958 </r>
       <r>    -0.0097     2.9075    65.9307 </r>
       <r>     0.0367     1.6702    66.0081 </r>
       <r>     0.0830     0.6857    66.0400 </r>
       <r>     0.1294     0.0616    66.0428 </r>
       <r>     0.1758    -0.2200    66.0326 </r>
       <r>     0.2222    -0.2674    66.0202 </r>
       <r>     0.2686    -0.2060    66.0106 </r>
       <r>     0.3150    -0.1245    66.0049 </r>
       <r>     0.3614    -0.0628    66.0019 </r>
       <r>     0.4078    -0.0271    66.0007 </r>
       <r>     0.4541    -0.0102    66.0002 </r>
       <r>     0.5005    -0.0033    66.0001 </r>
       <r>     0.5469    -0.0010    66.0000 </r>
       <r>     0.5933    -0.0002    66.0000 </r>
       <r>     0.6397    -0.0001    66.0000 </r>
       <r>     0.6861    -0.0000    66.0000 </r>
       <r>     0.7325    -0.0000    66.0000 </r>
       <r>     0.7789    -0.0000    66.0000 </r>
       <r>     0.8253    -0.0000    66.0000 </r>
       <r>     0.8716    -0.0000    66.0000 </r>
       <r>     0.9180    -0.0000    66.0000 </r>
       <r>     0.9644    -0.0000    66.0000 </r>
       <r>     1.0108    -0.0000    66.0000 </r>
       <r>     1.0572    -0.0000    66.0000 </r>
       <r>     1.1036    -0.0000    66.0000 </r>
       <r>     1.1500    -0.0000    66.0000 </r>
       <r>     1.1964     0.0000    66.0000 </r>
       <r>     1.2427     0.0000    66.0000 </r>
       <r>     1.2891     0.0000    66.0000 </r>
       <r>     1.3355     0.0000    66.0000 </r>
       <r>     1.3819     0.0000    66.0000 </r>
       <r>     1.4283     0.0000    66.0000 </r>
       <r>     1.4747     0.0000    66.0000 </r>
       <r>     1.5211     0.0000    66.0000 </r>
       <r>     1.5675     0.0000    66.0000 </r>
       <r>     1.6139     0.0000    66.0000 </r>
       <r>     1.6602     0.0000    66.0000 </r>
       <r>     1.7066     0.0000    66.0000 </r>
       <r>     1.7530     0.0000    66.0000 </r>
       <r>     1.7994     0.0000    66.0000 </r>
       <r>     1.8458     0.0000    66.0000 </r>
       <r>     1.8922     0.0000    66.0000 </r>
       <r>     1.9386     0.0000    66.0000 </r>
       <r>     1.9850     0.0000    66.0000 </r>
      </set>
      <set comment="spin 2">
       <r>   -11.9315     0.0000     0.0000 </r>
       <r>   -11.8851     0.0000     0.0000 </r>
       <r>   -11.8387     0.0000     0.0000 </r>
       <r>   -11.7923     0.0000     0.0000 </r>
       <r>   -11.7460     0.0000     0.0000 </r>
       <r>   -11.6996     0.0000     0.0000 </r>
       <r>   -11.6532     0.0000     0.0000 </r>
       <r>   -11.6068     0.0000     0.0000 </r>
       <r>   -11.5604    -0.0000    -0.0000 </r>
       <r>   -11.5140    -0.0000    -0.0000 </r>
       <r>   -11.4676    -0.0000    -0.0000 </r>
       <r>   -11.4212    -0.0000    -0.0000 </r>
       <r>   -11.3749    -0.0000    -0.0000 </r>
       <r>   -11.3285    -0.0000    -0.0000 </r>
       <r>   -11.2821    -0.0000    -0.0000 </r>
       <r>   -11.2357    -0.0000    -0.0000 </r>
       <r>   -11.1893    -0.0000    -0.0000 </r>
       <r>   -11.1429    -0.0000    -0.0000 </r>
       <r>   -11.0965    -0.0000    -0.0000 </r>
       <r>   -11.0501    -0.0000    -0.0000 </r>
       <r>   -11.0037    -0.0000    -0.0000 </r>
       <r>   -10.9574    -0.0000    -0.0000 </r>
       <r>   -10.9110    -0.0000    -0.0000 </r>
       <r>   -10.8646    -0.0000    -0.0000 </r>
       <r>   -10.8182    -0.0000    -0.0000 </r>
       <r>   -10.7718    -0.0000    -0.0000 </r>
       <r>   -10.7254    -0.0000    -0.0000 </r>
       <r>   -10.6790    -0.0000    -0.0000 </r>
       <r>   -10.6326    -0.0001    -0.0000 </r>
       <r>   -10.5863    -0.0003    -0.0000 </r>
       <r>   -10.5399    -0.0012    -0.0001 </r>
       <r>   -10.4935    -0.0040    -0.0003 </r>
       <r>   -10.4471    -0.0119    -0.0008 </r>
       <r>   -10.4007    -0.0308    -0.0022 </r>
       <r>   -10.3543    -0.0689    -0.0054 </r>
       <r>   -10.3079    -0.1303    -0.0115 </r>
       <r>   -10.2615    -0.2002    -0.0208 </r>
       <r>   -10.2151    -0.2225    -0.0311 </r>
       <r>   -10.1688    -0.0890    -0.0352 </r>
       <r>   -10.1224     0.3343    -0.0197 </r>
       <r>   -10.0760     1.1269     0.0326 </r>
       <r>   -10.0296     2.2128     0.1352 </r>
       <r>    -9.9832     3.3186     0.2892 </r>
       <r>    -9.9368     4.0614     0.4776 </r>
       <r>    -9.8904     4.1449     0.6698 </r>
       <r>    -9.8440     3.5342     0.8338 </r>
       <r>    -9.7977     2.4773     0.9487 </r>
       <r>    -9.7513     1.3563     1.0116 </r>
       <r>    -9.7049     0.4826     1.0340 </r>
       <r>    -9.6585    -0.0222     1.0330 </r>
       <r>    -9.6121    -0.2105     1.0232 </r>
       <r>    -9.5657    -0.2126     1.0133 </r>
       <r>    -9.5193    -0.1468     1.0065 </r>
       <r>    -9.4729    -0.0810     1.0028 </r>
       <r>    -9.4265    -0.0375     1.0010 </r>
       <r>    -9.3802    -0.0150     1.0003 </r>
       <r>    -9.3338    -0.0052     1.0001 </r>
       <r>    -9.2874    -0.0016     1.0000 </r>
       <r>    -9.2410    -0.0004     1.0000 </r>
       <r>    -9.1946    -0.0001     1.0000 </r>
       <r>    -9.1482    -0.0000     1.0000 </r>
       <r>    -9.1018    -0.0000     1.0000 </r>
       <r>    -9.0554    -0.0000     1.0000 </r>
       <r>    -9.0091    -0.0000     1.0000 </r>
       <r>    -8.9627    -0.0000     1.0000 </r>
       <r>    -8.9163    -0.0000     1.0000 </r>
       <r>    -8.8699    -0.0000     1.0000 </r>
       <r>    -8.8235    -0.0000     1.0000 </r>
       <r>    -8.7771    -0.0000     1.0000 </r>
       <r>    -8.7307    -0.0001     1.0000 </r>
       <r>    -8.6843    -0.0003     1.0000 </r>
       <r>    -8.6379    -0.0011     0.9999 </r>
       <r>    -8.5916    -0.0038     0.9998 </r>
       <r>    -8.5452    -0.0114     0.9992 </r>
       <r>    -8.4988    -0.0297     0.9978 </r>
       <r>    -8.4524    -0.0669     0.9947 </r>
       <r>    -8.4060    -0.1278     0.9888 </r>
       <r>    -8.3596    -0.1995     0.9796 </r>
       <r>    -8.3132    -0.2300     0.9689 </r>
       <r>    -8.2668    -0.1173     0.9635 </r>
       <r>    -8.2205     0.2657     0.9758 </r>
       <r>    -8.1741     0.9954     1.0220 </r>
       <r>    -8.1277     2.0046     1.1149 </r>
       <r>    -8.0813     3.0557     1.2567 </r>
       <r>    -8.0349     3.8423     1.4349 </r>
       <r>    -7.9885     4.1822     1.6289 </r>
       <r>    -7.9421     4.1478     1.8213 </r>
       <r>    -7.8957     4.0002     2.0069 </r>
       <r>    -7.8493     3.9595     2.1906 </r>
       <r>    -7.8030     4.0131     2.3767 </r>
       <r>    -7.7566     3.9494     2.5600 </r>
       <r>    -7.7102     3.5946     2.7267 </r>
       <r>    -7.6638     3.0298     2.8672 </r>
       <r>    -7.6174     2.5773     2.9868 </r>
       <r>    -7.5710     2.5544     3.1053 </r>
       <r>    -7.5246     3.0015     3.2445 </r>
       <r>    -7.4782     3.6133     3.4121 </r>
       <r>    -7.4319     3.9313     3.5945 </r>
       <r>    -7.3855     3.6430     3.7635 </r>
       <r>    -7.3391     2.7677     3.8919 </r>
       <r>    -7.2927     1.6180     3.9669 </r>
       <r>    -7.2463     0.6105     3.9953 </r>
       <r>    -7.1999     0.0772     3.9988 </r>
       <r>    -7.1535     0.1717     4.0068 </r>
       <r>    -7.1071     0.8486     4.0462 </r>
       <r>    -7.0607     1.8761     4.1332 </r>
       <r>    -7.0144     2.8923     4.2674 </r>
       <r>    -6.9680     3.5517     4.4321 </r>
       <r>    -6.9216     3.7296     4.6051 </r>
       <r>    -6.8752     3.6512     4.7745 </r>
       <r>    -6.8288     3.8131     4.9514 </r>
       <r>    -6.7824     4.7117     5.1700 </r>
       <r>    -6.7360     6.5467     5.4737 </r>
       <r>    -6.6896     9.0881     5.8952 </r>
       <r>    -6.6433    11.7642     6.4410 </r>
       <r>    -6.5969    13.8968     7.0856 </r>
       <r>    -6.5505    14.9639     7.7798 </r>
       <r>    -6.5041    14.8092     8.4667 </r>
       <r>    -6.4577    13.7375     9.1040 </r>
       <r>    -6.4113    12.4386     9.6810 </r>
       <r>    -6.3649    11.7155    10.2245 </r>
       <r>    -6.3185    12.0998    10.7857 </r>
       <r>    -6.2721    13.5485    11.4142 </r>
       <r>    -6.2258    15.4158    12.1293 </r>
       <r>    -6.1794    16.7551    12.9066 </r>
       <r>    -6.1330    16.7899    13.6854 </r>
       <r>    -6.0866    15.2785    14.3942 </r>
       <r>    -6.0402    12.5620    14.9769 </r>
       <r>    -5.9938     9.3210    15.4093 </r>
       <r>    -5.9474     6.2513    15.6993 </r>
       <r>    -5.9010     3.8692    15.8788 </r>
       <r>    -5.8547     2.4782    15.9937 </r>
       <r>    -5.8083     2.1944    16.0955 </r>
       <r>    -5.7619     2.9484    16.2323 </r>
       <r>    -5.7155     4.4745    16.4399 </r>
       <r>    -5.6691     6.3395    16.7339 </r>
       <r>    -5.6227     8.0333    17.1066 </r>
       <r>    -5.5763     9.1196    17.5296 </r>
       <r>    -5.5299     9.4214    17.9667 </r>
       <r>    -5.4835     9.1512    18.3912 </r>
       <r>    -5.4372     8.8534    18.8019 </r>
       <r>    -5.3908     9.1255    19.2252 </r>
       <r>    -5.3444    10.2962    19.7028 </r>
       <r>    -5.2980    12.3088    20.2738 </r>
       <r>    -5.2516    14.8569    20.9630 </r>
       <r>    -5.2052    17.5602    21.7776 </r>
       <r>    -5.1588    19.9917    22.7049 </r>
       <r>    -5.1124    21.6421    23.7089 </r>
       <r>    -5.0661    22.0531    24.7319 </r>
       <r>    -5.0197    21.1255    25.7119 </r>
       <r>    -4.9733    19.2984    26.6071 </r>
       <r>    -4.9269    17.3346    27.4112 </r>
       <r>    -4.8805    15.8368    28.1458 </r>
       <r>    -4.8341    14.9112    28.8375 </r>
       <r>    -4.7877    14.2521    29.4987 </r>
       <r>    -4.7413    13.5143    30.1256 </r>
       <r>    -4.6949    12.6179    30.7109 </r>
       <r>    -4.6486    11.7747    31.2571 </r>
       <r>    -4.6022    11.3240    31.7824 </r>
       <r>    -4.5558    11.5784    32.3195 </r>
       <r>    -4.5094    12.7550    32.9112 </r>
       <r>    -4.4630    14.9139    33.6030 </r>
       <r>    -4.4166    17.8580    34.4314 </r>
       <r>    -4.3702    21.0856    35.4095 </r>
       <r>    -4.3238    23.9122    36.5188 </r>
       <r>    -4.2775    25.7271    37.7122 </r>
       <r>    -4.2311    26.2156    38.9283 </r>
       <r>    -4.1847    25.4242    40.1077 </r>
       <r>    -4.1383    23.7095    41.2075 </r>
       <r>    -4.0919    21.6721    42.2129 </r>
       <r>    -4.0455    20.0706    43.1439 </r>
       <r>    -3.9991    19.6196    44.0540 </r>
       <r>    -3.9527    20.6695    45.0128 </r>
       <r>    -3.9063    22.9519    46.0775 </r>
       <r>    -3.8600    25.6154    47.2658 </r>
       <r>    -3.8136    27.5718    48.5448 </r>
       <r>    -3.7672    27.9389    49.8408 </r>
       <r>    -3.7208    26.3258    51.0620 </r>
       <r>    -3.6744    22.8703    52.1230 </r>
       <r>    -3.6280    18.1139    52.9632 </r>
       <r>    -3.5816    12.8267    53.5582 </r>
       <r>    -3.5352     7.8234    53.9212 </r>
       <r>    -3.4889     3.7652    54.0958 </r>
       <r>    -3.4425     0.9923    54.1418 </r>
       <r>    -3.3961    -0.5265    54.1174 </r>
       <r>    -3.3497    -1.0833    54.0672 </r>
       <r>    -3.3033    -1.0236    54.0197 </r>
       <r>    -3.2569    -0.5761    53.9930 </r>
       <r>    -3.2105     0.1781    54.0012 </r>
       <r>    -3.1641     1.1960    54.0567 </r>
       <r>    -3.1177     2.3277    54.1647 </r>
       <r>    -3.0714     3.2736    54.3165 </r>
       <r>    -3.0250     3.7168    54.4890 </r>
       <r>    -2.9786     3.5591    54.6541 </r>
       <r>    -2.9322     3.0796    54.7969 </r>
       <r>    -2.8858     2.8593    54.9296 </r>
       <r>    -2.8394     3.4754    55.0908 </r>
       <r>    -2.7930     5.1368    55.3291 </r>
       <r>    -2.7466     7.4886    55.6764 </r>
       <r>    -2.7003     9.7171    56.1272 </r>
       <r>    -2.6539    10.9194    56.6337 </r>
       <r>    -2.6075    10.5525    57.1232 </r>
       <r>    -2.5611     8.7175    57.5276 </r>
       <r>    -2.5147     6.1176    57.8114 </r>
       <r>    -2.4683     3.7085    57.9834 </r>
       <r>    -2.4219     2.2429    58.0875 </r>
       <r>    -2.3755     1.9663    58.1787 </r>
       <r>    -2.3291     2.6098    58.2998 </r>
       <r>    -2.2828     3.6411    58.4687 </r>
       <r>    -2.2364     4.5822    58.6812 </r>
       <r>    -2.1900     5.1873    58.9219 </r>
       <r>    -2.1436     5.4098    59.1728 </r>
       <r>    -2.0972     5.2602    59.4168 </r>
       <r>    -2.0508     4.7270    59.6361 </r>
       <r>    -2.0044     3.8247    59.8135 </r>
       <r>    -1.9580     2.6793    59.9378 </r>
       <r>    -1.9117     1.5262    60.0086 </r>
       <r>    -1.8653     0.6025    60.0366 </r>
       <r>    -1.8189     0.0311    60.0380 </r>
       <r>    -1.7725    -0.2122    60.0282 </r>
       <r>    -1.7261    -0.2420    60.0169 </r>
       <r>    -1.6797    -0.1813    60.0085 </r>
       <r>    -1.6333    -0.1128    60.0033 </r>
       <r>    -1.5869    -0.0740    59.9999 </r>
       <r>    -1.5405    -0.0755    59.9964 </r>
       <r>    -1.4942    -0.1163    59.9910 </r>
       <r>    -1.4478    -0.1818    59.9825 </r>
       <r>    -1.4014    -0.2269    59.9720 </r>
       <r>    -1.3550    -0.1570    59.9647 </r>
       <r>    -1.3086     0.1606    59.9722 </r>
       <r>    -1.2622     0.8336    60.0108 </r>
       <r>    -1.2158     1.8433    60.0963 </r>
       <r>    -1.1694     2.9729    60.2343 </r>
       <r>    -1.1231     3.8494    60.4128 </r>
       <r>    -1.0767     4.1165    60.6038 </r>
       <r>    -1.0303     3.6390    60.7726 </r>
       <r>    -0.9839     2.5990    60.8931 </r>
       <r>    -0.9375     1.4149    60.9588 </r>
       <r>    -0.8911     0.5500    60.9843 </r>
       <r>    -0.8447     0.3337    60.9998 </r>
       <r>    -0.7983     0.8685    61.0401 </r>
       <r>    -0.7519     2.0248    61.1340 </r>
       <r>    -0.7056     3.4970    61.2962 </r>
       <r>    -0.6592     4.9056    61.5238 </r>
       <r>    -0.6128     5.9272    61.7987 </r>
       <r>    -0.5664     6.4058    62.0959 </r>
       <r>    -0.5200     6.3974    62.3926 </r>
       <r>    -0.4736     6.1285    62.6769 </r>
       <r>    -0.4272     5.8828    62.9498 </r>
       <r>    -0.3808     5.8639    63.2218 </r>
       <r>    -0.3345     6.1020    63.5049 </r>
       <r>    -0.2881     6.4608    63.8046 </r>
       <r>    -0.2417     6.7442    64.1175 </r>
       <r>    -0.1953     6.8231    64.4340 </r>
       <r>    -0.1489     6.6864    64.7441 </r>
       <r>    -0.1025     6.3838    65.0403 </r>
       <r>    -0.0561     5.9273    65.3152 </r>
       <r>    -0.0097     5.2571    65.5591 </r>
       <r>     0.0367     4.3128    65.7592 </r>
       <r>     0.0830     3.1390    65.9048 </r>
       <r>     0.1294     1.9157    65.9936 </r>
       <r>     0.1758     0.8740    66.0342 </r>
       <r>     0.2222     0.1713    66.0421 </r>
       <r>     0.2686    -0.1756    66.0340 </r>
       <r>     0.3150    -0.2618    66.0218 </r>
       <r>     0.3614    -0.2156    66.0118 </r>
       <r>     0.4078    -0.1356    66.0055 </r>
       <r>     0.4541    -0.0705    66.0023 </r>
       <r>     0.5005    -0.0312    66.0008 </r>
       <r>     0.5469    -0.0120    66.0003 </r>
       <r>     0.5933    -0.0040    66.0001 </r>
       <r>     0.6397    -0.0012    66.0000 </r>
       <r>     0.6861    -0.0003    66.0000 </r>
       <r>     0.7325    -0.0001    66.0000 </r>
       <r>     0.7789    -0.0000    66.0000 </r>
       <r>     0.8253    -0.0000    66.0000 </r>
       <r>     0.8716    -0.0000    66.0000 </r>
       <r>     0.9180    -0.0000    66.0000 </r>
       <r>     0.9644    -0.0000    66.0000 </r>
       <r>     1.0108    -0.0000    66.0000 </r>
       <r>     1.0572    -0.0000    66.0000 </r>
       <r>     1.1036    -0.0000    66.0000 </r>
       <r>     1.1500    -0.0000    66.0000 </r>
       <r>     1.1964    -0.0000    66.0000 </r>
       <r>     1.2427    -0.0000    66.0000 </r>
       <r>     1.2891     0.0000    66.0000 </r>
       <r>     1.3355     0.0000    66.0000 </r>
       <r>     1.3819     0.0000    66.0000 </r>
       <r>     1.4283     0.0000    66.0000 </r>
       <r>     1.4747     0.0000    66.0000 </r>
       <r>     1.5211     0.0000    66.0000 </r>
       <r>     1.5675     0.0000    66.0000 </r>
       <r>     1.6139     0.0000    66.0000 </r>
       <r>     1.6602     0.0000    66.0000 </r>
       <r>     1.7066     0.0000    66.0000 </r>
       <r>     1.7530     0.0000    66.0000 </r>
       <r>     1.7994     0.0000    66.0000 </r>
       <r>     1.8458     0.0000    66.0000 </r>
       <r>     1.8922     0.0000    66.0000 </r>
       <r>     1.9386     0.0000    66.0000 </r>
       <r>     1.9850     0.0000    66.0000 </r>
      </set>
     </set>
    </array>
   </total>
  </dos>
 </calculation>
 <structure name="finalpos" >
  <crystal>
   <varray name="basis" >
    <v>      21.59997248       0.00000000       0.00000000 </v>
    <v>       0.00000000      23.71834846       0.00000000 </v>
    <v>       0.00000000       0.00000000      23.14084013 </v>
   </varray>
   <i name="volume">  11855.41510686 </i>
   <varray name="rec_basis" >
    <v>       0.04629636       0.00000000       0.00000000 </v>
    <v>       0.00000000       0.04216145       0.00000000 </v>
    <v>       0.00000000       0.00000000       0.04321364 </v>
   </varray>
  </crystal>
  <varray name="positions" >
   <v>       0.43754401       0.46977408       0.45524111 </v>
   <v>       0.52213549       0.50191780       0.40381313 </v>
   <v>       0.45376491       0.56767869       0.44049448 </v>
   <v>       0.53336002       0.41885766       0.45766668 </v>
   <v>       0.41670179       0.53472019       0.53005292 </v>
   <v>       0.56111714       0.59012268       0.43137781 </v>
   <v>       0.50263706       0.47318053       0.53500190 </v>
   <v>       0.58713950       0.50420158       0.47903599 </v>
   <v>       0.51876031       0.57028101       0.52044273 </v>
   <v>       0.48410614       0.53663167       0.60743116 </v>
  </varray>
 </structure>
</modeling>
