unknown system                          
            1
    21.599972    0.000000    0.000000
     0.000000   23.718348    0.000000
     0.000000    0.000000   23.140840
   Ni
    10
Direct configuration=     1
   0.45353409  0.47363965  0.45576908
   0.52170603  0.50792231  0.38283720
   0.45421106  0.57270338  0.43836806
   0.53483487  0.40844456  0.46243916
   0.41491346  0.53309442  0.53178175
   0.56262792  0.59183564  0.42892073
   0.50427090  0.46787640  0.54755969
   0.57371823  0.50049286  0.47281374
   0.51795632  0.57135815  0.52423664
   0.47949349  0.53999851  0.61583186
Direct configuration=     2
   0.45462580  0.47447528  0.45620872
   0.52145804  0.50830076  0.38539360
   0.45540790  0.57128172  0.43924334
   0.53420146  0.41052952  0.46323448
   0.41699473  0.53299919  0.53128460
   0.56165200  0.59051697  0.42986647
   0.50409107  0.46891142  0.54607309
   0.57215686  0.50071977  0.47209511
   0.51697903  0.57004802  0.52364352
   0.47969947  0.53958323  0.61351499
Direct configuration=     3
   0.45527583  0.47497283  0.45647048
   0.52131038  0.50852610  0.38691573
   0.45612052  0.57043523  0.43976450
   0.53382432  0.41177095  0.46370803
   0.41823395  0.53294249  0.53098859
   0.56107092  0.58973181  0.43042958
   0.50398400  0.46952768  0.54518794
   0.57122719  0.50085488  0.47166721
   0.51639713  0.56926794  0.52329037
   0.47982212  0.53933597  0.61213548
Direct configuration=     4
   0.45443104  0.47485999  0.45646829
   0.52108094  0.50830289  0.38710809
   0.45586343  0.57021871  0.44001847
   0.53361204  0.41234360  0.46427543
   0.41806153  0.53287011  0.53050124
   0.56125329  0.58985686  0.43108675
   0.50422822  0.46938817  0.54485743
   0.57179805  0.50113019  0.47181615
   0.51673164  0.56923190  0.52310775
   0.48020618  0.53916345  0.61131830
Direct configuration=     5
   0.45189666  0.47452149  0.45646173
   0.52039262  0.50763326  0.38768520
   0.45509217  0.56956917  0.44078039
   0.53297522  0.41406154  0.46597763
   0.41754426  0.53265296  0.52903922
   0.56180040  0.59023199  0.43305827
   0.50496089  0.46896965  0.54386589
   0.57351061  0.50195614  0.47226295
   0.51773518  0.56912378  0.52255990
   0.48135836  0.53864590  0.60886673
Direct configuration=     6
   0.45034206  0.47357384  0.45596081
   0.52023264  0.50736139  0.38922142
   0.45513393  0.56956753  0.44048537
   0.53292890  0.41416404  0.46611699
   0.41698493  0.53287182  0.52905176
   0.56196358  0.59072349  0.43360318
   0.50503810  0.46909117  0.54341448
   0.57483393  0.50214982  0.47191816
   0.51803155  0.56944344  0.52228729
   0.48177675  0.53841934  0.60849846
Direct configuration=     7
   0.44829122  0.47232368  0.45530000
   0.52002160  0.50700272  0.39124801
   0.45518902  0.56956537  0.44009616
   0.53286779  0.41429926  0.46630084
   0.41624705  0.53316054  0.52906830
   0.56217884  0.59137187  0.43432204
   0.50513996  0.46925148  0.54281897
   0.57657967  0.50240534  0.47146330
   0.51842253  0.56986514  0.52192766
   0.48232869  0.53812047  0.60801262
Direct configuration=     8
   0.44718513  0.47179040  0.45525048
   0.51996471  0.50665659  0.39240240
   0.45522170  0.56938048  0.44007377
   0.53290337  0.41442431  0.46599894
   0.41643354  0.53327230  0.52903982
   0.56231799  0.59187223  0.43441427
   0.50495121  0.46984157  0.54205548
   0.57750512  0.50235434  0.47162759
   0.51829604  0.56976010  0.52173259
   0.48248755  0.53801355  0.60796256
Direct configuration=     9
   0.44386687  0.47019058  0.45510193
   0.51979404  0.50561819  0.39586558
   0.45531976  0.56882578  0.44000660
   0.53301014  0.41479945  0.46509325
   0.41699299  0.53360758  0.52895440
   0.56273544  0.59337332  0.43469096
   0.50438495  0.47161184  0.53976499
   0.58028146  0.50220132  0.47212044
   0.51791658  0.56944500  0.52114736
   0.48296413  0.53769281  0.60781240
Direct configuration=    10
   0.43723036  0.46699094  0.45480483
   0.51945271  0.50354140  0.40279193
   0.45551587  0.56771639  0.43987226
   0.53322367  0.41554974  0.46328186
   0.41811190  0.53427813  0.52878356
   0.56357034  0.59637550  0.43524434
   0.50325242  0.47515237  0.53518400
   0.58583413  0.50189529  0.47310616
   0.51715766  0.56881480  0.51997690
   0.48391728  0.53705132  0.60751206
Direct configuration=    11
   0.44222037  0.46939675  0.45502822
   0.51970936  0.50510294  0.39758400
   0.45536841  0.56855054  0.43997327
   0.53306312  0.41498560  0.46464385
   0.41727059  0.53377394  0.52891201
   0.56294258  0.59411816  0.43482825
   0.50410397  0.47249024  0.53862845
   0.58165907  0.50212540  0.47236500
   0.51772830  0.56928865  0.52085697
   0.48320060  0.53753366  0.60773788
Direct configuration=    12
   0.44075968  0.46881468  0.45517709
   0.51991909  0.50410372  0.39915945
   0.45512683  0.56838055  0.44003957
   0.53291307  0.41584714  0.46341910
   0.41750045  0.53383663  0.52891100
   0.56267424  0.59388357  0.43481903
   0.50364611  0.47310098  0.53713955
   0.58336758  0.50251812  0.47343904
   0.51803599  0.56939854  0.52036759
   0.48332332  0.53748195  0.60808649
Direct configuration=    13
   0.43945626  0.46829527  0.45530992
   0.52010625  0.50321207  0.40056528
   0.45491126  0.56822885  0.44009873
   0.53277918  0.41661592  0.46232621
   0.41770556  0.53389258  0.52891010
   0.56243479  0.59367424  0.43481081
   0.50323754  0.47364597  0.53581095
   0.58489215  0.50286855  0.47439746
   0.51831055  0.56949661  0.51993089
   0.48343283  0.53743581  0.60839756
Direct configuration=    14
   0.43684942  0.46725646  0.45557560
   0.52048055  0.50142877  0.40337694
   0.45448010  0.56792546  0.44021704
   0.53251140  0.41815350  0.46014044
   0.41811578  0.53400447  0.52890830
   0.56195589  0.59325558  0.43479436
   0.50242040  0.47473595  0.53315374
   0.58794128  0.50356943  0.47631428
   0.51885968  0.56969273  0.51905751
   0.48365185  0.53734353  0.60901971
Direct configuration=    15
   0.43666239  0.46814707  0.45494279
   0.52105179  0.50181864  0.40399435
   0.45417152  0.56761548  0.43978839
   0.53308613  0.41782196  0.45906302
   0.41705790  0.53448695  0.52974604
   0.56197385  0.59218474  0.43326677
   0.50290863  0.47417959  0.53509853
   0.58760716  0.50395050  0.47646223
   0.51885378  0.57010680  0.52124648
   0.48389319  0.53705416  0.60694932
Direct configuration=    16
   0.43668797  0.46802528  0.45502932
   0.52097368  0.50176532  0.40390992
   0.45421372  0.56765787  0.43984701
   0.53300754  0.41786729  0.45921035
   0.41720256  0.53442097  0.52963148
   0.56197139  0.59233117  0.43347566
   0.50284187  0.47425567  0.53483258
   0.58765285  0.50389839  0.47644200
   0.51885459  0.57005018  0.52094715
   0.48386019  0.53709373  0.60723244
Direct configuration=    17
   0.43708735  0.46896177  0.45510277
   0.52133580  0.50191754  0.40414206
   0.45412657  0.56743522  0.44018028
   0.53313450  0.41832297  0.45863555
   0.41658840  0.53459769  0.52954594
   0.56145845  0.59110250  0.43277674
   0.50317971  0.47325731  0.53487283
   0.58723899  0.50421419  0.47723567
   0.51921576  0.57054695  0.52083077
   0.48390083  0.53700973  0.60723529
Direct configuration=    18
   0.43717581  0.46916919  0.45511904
   0.52141600  0.50195126  0.40419348
   0.45410727  0.56738591  0.44025410
   0.53316262  0.41842390  0.45850824
   0.41645236  0.53463683  0.52952699
   0.56134483  0.59083036  0.43262193
   0.50325455  0.47303618  0.53488175
   0.58714732  0.50428414  0.47741146
   0.51929576  0.57065698  0.52080499
   0.48390983  0.53699112  0.60723592
Direct configuration=    19
   0.43745942  0.46976085  0.45542541
   0.52174214  0.50182150  0.40376092
   0.45380920  0.56752042  0.44071876
   0.53329344  0.41866973  0.45791145
   0.41669625  0.53464851  0.52957083
   0.56110645  0.59021769  0.43187477
   0.50305156  0.47309372  0.53494326
   0.58711199  0.50437066  0.47860992
   0.51908388  0.57047063  0.52074795
   0.48391204  0.53679217  0.60699463
Direct configuration=    20
   0.43748494  0.46981410  0.45545299
   0.52177149  0.50180982  0.40372199
   0.45378238  0.56753252  0.44076058
   0.53330521  0.41869185  0.45785774
   0.41671820  0.53464956  0.52957477
   0.56108499  0.59016255  0.43180753
   0.50303329  0.47309890  0.53494880
   0.58710881  0.50437845  0.47871778
   0.51906481  0.57045386  0.52074281
   0.48391224  0.53677427  0.60697292
Direct configuration=    21
   0.43752026  0.46970254  0.45536619
   0.52200315  0.50177388  0.40369688
   0.45374124  0.56771174  0.44063376
   0.53331807  0.41885783  0.45772813
   0.41667190  0.53468767  0.52986459
   0.56109072  0.59014369  0.43155157
   0.50290170  0.47313994  0.53492398
   0.58707814  0.50426536  0.47896149
   0.51898732  0.57037895  0.52057368
   0.48395388  0.53670428  0.60725763
Direct configuration=    22
   0.43752793  0.46967831  0.45534734
   0.52205345  0.50176608  0.40369143
   0.45373230  0.56775065  0.44060622
   0.53332086  0.41889387  0.45769999
   0.41666185  0.53469595  0.52992753
   0.56109196  0.59013959  0.43149600
   0.50287312  0.47314885  0.53491859
   0.58707148  0.50424080  0.47901441
   0.51897049  0.57036268  0.52053695
   0.48396292  0.53668909  0.60731945
Direct configuration=    23
   0.43754092  0.46975570  0.45526150
   0.52211975  0.50188868  0.40378978
   0.45375865  0.56769250  0.44051592
   0.53335250  0.41886461  0.45767307
   0.41669413  0.53471554  0.53002885
   0.56111231  0.59012593  0.43140050
   0.50268237  0.47317445  0.53498591
   0.58712644  0.50420910  0.47903185
   0.51880065  0.57029669  0.52046081
   0.48407865  0.53664269  0.60740972
Direct configuration=    24
   0.43754401  0.46977408  0.45524111
   0.52213549  0.50191780  0.40381313
   0.45376491  0.56767869  0.44049448
   0.53336002  0.41885766  0.45766668
   0.41670179  0.53472019  0.53005292
   0.56111714  0.59012268  0.43137781
   0.50263706  0.47318053  0.53500190
   0.58713950  0.50420158  0.47903599
   0.51876031  0.57028101  0.52044273
   0.48410614  0.53663167  0.60743116
