   5   5   0   0
  0.1941817E+04  0.2173358E-08  0.2072858E-08  0.2155150E-08  0.5000000E-15
   1.0000000000000000E-004
  CAR 
 unknown system                          
      1.86479337     -9.69858171  301     -3.89703022      1.00000000
     -9.699  0.0000E+00  0.0000E+00  0.0000E+00  0.0000E+00
     -9.660  0.0000E+00  0.0000E+00  0.0000E+00  0.0000E+00
     -9.621  0.0000E+00  0.0000E+00  0.0000E+00  0.0000E+00
     -9.583  0.0000E+00  0.0000E+00  0.0000E+00  0.0000E+00
     -9.544  0.0000E+00  0.0000E+00  0.0000E+00  0.0000E+00
     -9.506  0.0000E+00  0.0000E+00  0.0000E+00  0.0000E+00
     -9.467  0.0000E+00  0.0000E+00  0.0000E+00  0.0000E+00
     -9.429  0.0000E+00  0.0000E+00  0.0000E+00  0.0000E+00
     -9.390  0.0000E+00  0.0000E+00  0.0000E+00  0.0000E+00
     -9.352  0.0000E+00  0.0000E+00  0.0000E+00  0.0000E+00
     -9.313 -0.2942E-29  0.0000E+00 -0.1134E-30  0.0000E+00
     -9.275 -0.5920E-28  0.0000E+00 -0.2395E-29  0.0000E+00
     -9.236 -0.1156E-26 -0.1489E-29 -0.4694E-28 -0.5738E-31
     -9.198 -0.2093E-25 -0.3048E-28 -0.8536E-27 -0.1232E-29
     -9.159 -0.3514E-24 -0.6049E-27 -0.1440E-25 -0.2455E-28
     -9.120 -0.5474E-23 -0.1114E-25 -0.2254E-24 -0.4538E-27
     -9.082 -0.7906E-22 -0.1902E-24 -0.3273E-23 -0.7783E-26
     -9.043 -0.1059E-20 -0.3011E-23 -0.4409E-22 -0.1238E-24
     -9.005 -0.1315E-19 -0.4422E-22 -0.5509E-21 -0.1828E-23
     -8.966 -0.1514E-18 -0.6022E-21 -0.6385E-20 -0.2504E-22
     -8.928 -0.1615E-17 -0.7603E-20 -0.6865E-19 -0.3181E-21
     -8.889 -0.1598E-16 -0.8900E-19 -0.6846E-18 -0.3749E-20
     -8.851 -0.1422E-15 -0.9658E-18 -0.6165E-17 -0.4098E-19
     -8.812 -0.1204E-14 -0.9715E-17 -0.5258E-16 -0.4154E-18
     -8.774 -0.9458E-14 -0.8768E-16 -0.4171E-15 -0.3795E-17
     -8.735 -0.6878E-13 -0.7579E-15 -0.3068E-14 -0.3301E-16
     -8.696 -0.4630E-12 -0.6050E-14 -0.2091E-13 -0.2662E-15
     -8.658 -0.2885E-11 -0.4474E-13 -0.1321E-12 -0.1991E-14
     -8.619 -0.1663E-10 -0.3064E-12 -0.7732E-12 -0.1380E-13
     -8.581 -0.8870E-10 -0.1942E-11 -0.4192E-11 -0.8865E-13
     -8.542 -0.4373E-09 -0.1139E-10 -0.2105E-10 -0.5276E-12
     -8.504 -0.1992E-08 -0.6178E-10 -0.9783E-10 -0.2909E-11
     -8.465 -0.8380E-08 -0.3099E-09 -0.4208E-09 -0.1485E-10
     -8.427 -0.3253E-07 -0.1437E-08 -0.1675E-08 -0.7023E-10
     -8.388 -0.1164E-06 -0.6151E-08 -0.6162E-08 -0.3073E-09
     -8.350 -0.3837E-06 -0.2431E-07 -0.2095E-07 -0.1244E-08
     -8.311 -0.1163E-05 -0.8857E-07 -0.6577E-07 -0.4658E-08
     -8.272 -0.3233E-05 -0.2973E-06 -0.1904E-06 -0.1612E-07
     -8.234 -0.8231E-05 -0.9177E-06 -0.5077E-06 -0.5149E-07
     -8.195 -0.1911E-04 -0.2601E-05 -0.1244E-05 -0.1518E-06
     -8.157 -0.4028E-04 -0.6754E-05 -0.2797E-05 -0.4121E-06
     -8.118 -0.7645E-04 -0.1601E-04 -0.5744E-05 -0.1029E-05
     -8.080 -0.1289E-03 -0.3449E-04 -0.1071E-04 -0.2358E-05
     -8.041 -0.1887E-03 -0.6703E-04 -0.1799E-04 -0.4942E-05
     -8.003 -0.2271E-03 -0.1162E-03 -0.2674E-04 -0.9422E-05
     -7.964 -0.1896E-03 -0.1760E-03 -0.3405E-04 -0.1621E-04
     -7.926 -0.9366E-07 -0.2229E-03 -0.3405E-04 -0.2480E-04
     -7.887  0.4159E-03 -0.2080E-03 -0.1802E-04 -0.3281E-04
     -7.848  0.1092E-02 -0.5891E-04  0.2406E-04 -0.3509E-04
     -7.810  0.1979E-02  0.3023E-03  0.1003E-03 -0.2343E-04
     -7.771  0.2930E-02  0.9221E-03  0.2133E-03  0.1211E-04
     -7.733  0.3726E-02  0.1773E-02  0.3569E-03  0.8044E-04
     -7.694  0.4149E-02  0.2729E-02  0.5169E-03  0.1856E-03
     -7.656  0.4069E-02  0.3584E-02  0.6737E-03  0.3238E-03
     -7.617  0.3498E-02  0.4115E-02  0.8085E-03  0.4824E-03
     -7.579  0.2587E-02  0.4170E-02  0.9082E-03  0.6431E-03
     -7.540  0.1570E-02  0.3733E-02  0.9687E-03  0.7870E-03
     -7.502  0.6839E-03  0.2930E-02  0.9951E-03  0.9000E-03
     -7.463  0.1090E-03  0.1976E-02  0.9993E-03  0.9761E-03
     -7.424 -0.5592E-04  0.1088E-02  0.9971E-03  0.1018E-02
     -7.386  0.2050E-03  0.4114E-03  0.1005E-02  0.1034E-02
     -7.347  0.8290E-03 -0.7799E-05  0.1037E-02  0.1034E-02
     -7.309  0.1680E-02 -0.2065E-03  0.1102E-02  0.1026E-02
     -7.270  0.2570E-02 -0.2654E-03  0.1201E-02  0.1015E-02
     -7.232  0.3314E-02 -0.2695E-03  0.1329E-02  0.1005E-02
     -7.193  0.3809E-02 -0.2841E-03  0.1475E-02  0.9941E-03
     -7.155  0.4099E-02 -0.3441E-03  0.1633E-02  0.9808E-03
     -7.116  0.4366E-02 -0.4479E-03  0.1802E-02  0.9636E-03
     -7.078  0.4832E-02 -0.5479E-03  0.1988E-02  0.9425E-03
     -7.039  0.5612E-02 -0.5393E-03  0.2204E-02  0.9217E-03
     -7.000  0.6598E-02 -0.2612E-03  0.2459E-02  0.9116E-03
     -6.962  0.7473E-02  0.4743E-03  0.2747E-02  0.9299E-03
     -6.923  0.7848E-02  0.1815E-02  0.3049E-02  0.9999E-03
     -6.885  0.7474E-02  0.3779E-02  0.3337E-02  0.1146E-02
     -6.846  0.6388E-02  0.6175E-02  0.3583E-02  0.1384E-02
     -6.808  0.4932E-02  0.8599E-02  0.3774E-02  0.1715E-02
     -6.769  0.3622E-02  0.1053E-01  0.3913E-02  0.2121E-02
     -6.731  0.2945E-02  0.1149E-01  0.4027E-02  0.2564E-02
     -6.692  0.3195E-02  0.1128E-01  0.4150E-02  0.2999E-02
     -6.654  0.4399E-02  0.1001E-01  0.4319E-02  0.3384E-02
     -6.615  0.6353E-02  0.8129E-02  0.4564E-02  0.3698E-02
     -6.576  0.8713E-02  0.6200E-02  0.4900E-02  0.3937E-02
     -6.538  0.1108E-01  0.4695E-02  0.5327E-02  0.4118E-02
     -6.499  0.1309E-01  0.3841E-02  0.5832E-02  0.4266E-02
     -6.461  0.1443E-01  0.3597E-02  0.6388E-02  0.4404E-02
     -6.422  0.1489E-01  0.3761E-02  0.6962E-02  0.4549E-02
     -6.384  0.1444E-01  0.4128E-02  0.7519E-02  0.4708E-02
     -6.345  0.1321E-01  0.4602E-02  0.8028E-02  0.4886E-02
     -6.307  0.1148E-01  0.5213E-02  0.8471E-02  0.5087E-02
     -6.268  0.9611E-02  0.6056E-02  0.8841E-02  0.5320E-02
     -6.230  0.7872E-02  0.7203E-02  0.9144E-02  0.5598E-02
     -6.191  0.6399E-02  0.8615E-02  0.9391E-02  0.5930E-02
     -6.152  0.5168E-02  0.1012E-01  0.9590E-02  0.6320E-02
     -6.114  0.4068E-02  0.1140E-01  0.9747E-02  0.6759E-02
     -6.075  0.3004E-02  0.1213E-01  0.9863E-02  0.7227E-02
     -6.037  0.1973E-02  0.1201E-01  0.9939E-02  0.7690E-02
     -5.998  0.1072E-02  0.1098E-01  0.9980E-02  0.8113E-02
     -5.960  0.4502E-03  0.9235E-02  0.9998E-02  0.8469E-02
     -5.921  0.2404E-03  0.7206E-02  0.1001E-01  0.8747E-02
     -5.883  0.4990E-03  0.5427E-02  0.1003E-01  0.8956E-02
     -5.844  0.1182E-02  0.4332E-02  0.1007E-01  0.9123E-02
     -5.806  0.2158E-02  0.4093E-02  0.1015E-01  0.9281E-02
     -5.767  0.3258E-02  0.4576E-02  0.1028E-01  0.9457E-02
     -5.728  0.4333E-02  0.5412E-02  0.1045E-01  0.9666E-02
     -5.690  0.5297E-02  0.6155E-02  0.1065E-01  0.9903E-02
     -5.651  0.6127E-02  0.6459E-02  0.1089E-01  0.1015E-01
     -5.613  0.6827E-02  0.6196E-02  0.1115E-01  0.1039E-01
     -5.574  0.7379E-02  0.5491E-02  0.1144E-01  0.1060E-01
     -5.536  0.7741E-02  0.4659E-02  0.1173E-01  0.1078E-01
     -5.497  0.7884E-02  0.4070E-02  0.1204E-01  0.1094E-01
     -5.459  0.7853E-02  0.3997E-02  0.1234E-01  0.1109E-01
     -5.420  0.7782E-02  0.4500E-02  0.1264E-01  0.1127E-01
     -5.382  0.7831E-02  0.5406E-02  0.1294E-01  0.1147E-01
     -5.343  0.8061E-02  0.6405E-02  0.1325E-01  0.1172E-01
     -5.304  0.8350E-02  0.7201E-02  0.1357E-01  0.1200E-01
     -5.266  0.8414E-02  0.7665E-02  0.1390E-01  0.1229E-01
     -5.227  0.7956E-02  0.7866E-02  0.1421E-01  0.1260E-01
     -5.189  0.6852E-02  0.7993E-02  0.1447E-01  0.1291E-01
     -5.150  0.5288E-02  0.8186E-02  0.1467E-01  0.1322E-01
     -5.112  0.3735E-02  0.8406E-02  0.1482E-01  0.1355E-01
     -5.073  0.2789E-02  0.8437E-02  0.1493E-01  0.1387E-01
     -5.035  0.2931E-02  0.8015E-02  0.1504E-01  0.1418E-01
     -4.996  0.4328E-02  0.7025E-02  0.1520E-01  0.1445E-01
     -4.958  0.6742E-02  0.5634E-02  0.1546E-01  0.1467E-01
     -4.919  0.9612E-02  0.4272E-02  0.1584E-01  0.1483E-01
     -4.881  0.1225E-01  0.3469E-02  0.1631E-01  0.1497E-01
     -4.842  0.1407E-01  0.3638E-02  0.1685E-01  0.1511E-01
     -4.803  0.1478E-01  0.4901E-02  0.1742E-01  0.1529E-01
     -4.765  0.1441E-01  0.7040E-02  0.1798E-01  0.1557E-01
     -4.726  0.1323E-01  0.9579E-02  0.1848E-01  0.1594E-01
     -4.688  0.1161E-01  0.1195E-01  0.1893E-01  0.1640E-01
     -4.649  0.1000E-01  0.1367E-01  0.1932E-01  0.1692E-01
     -4.611  0.8810E-02  0.1446E-01  0.1966E-01  0.1748E-01
     -4.572  0.8414E-02  0.1431E-01  0.1998E-01  0.1803E-01
     -4.534  0.9078E-02  0.1340E-01  0.2033E-01  0.1855E-01
     -4.495  0.1085E-01  0.1204E-01  0.2075E-01  0.1901E-01
     -4.457  0.1349E-01  0.1059E-01  0.2127E-01  0.1942E-01
     -4.418  0.1642E-01  0.9329E-02  0.2190E-01  0.1978E-01
     -4.379  0.1889E-01  0.8451E-02  0.2263E-01  0.2011E-01
     -4.341  0.2014E-01  0.7973E-02  0.2341E-01  0.2041E-01
     -4.302  0.1971E-01  0.7780E-02  0.2417E-01  0.2071E-01
     -4.264  0.1755E-01  0.7703E-02  0.2484E-01  0.2101E-01
     -4.225  0.1407E-01  0.7626E-02  0.2539E-01  0.2130E-01
     -4.187  0.9993E-02  0.7551E-02  0.2577E-01  0.2160E-01
     -4.148  0.6077E-02  0.7568E-02  0.2601E-01  0.2189E-01
     -4.110  0.2909E-02  0.7756E-02  0.2612E-01  0.2219E-01
     -4.071  0.7532E-03  0.8092E-02  0.2615E-01  0.2250E-01
     -4.033 -0.4286E-03  0.8433E-02  0.2613E-01  0.2282E-01
     -3.994 -0.8721E-03  0.8616E-02  0.2610E-01  0.2316E-01
     -3.955 -0.8712E-03  0.8574E-02  0.2606E-01  0.2349E-01
     -3.917 -0.6759E-03  0.8390E-02  0.2604E-01  0.2381E-01
     -3.878 -0.4477E-03  0.8228E-02  0.2602E-01  0.2413E-01
     -3.840 -0.2631E-03  0.8190E-02  0.2601E-01  0.2444E-01
     -3.801 -0.1420E-03  0.8219E-02  0.2600E-01  0.2476E-01
     -3.763 -0.7698E-04  0.8102E-02  0.2600E-01  0.2507E-01
     -3.724 -0.5535E-04  0.7598E-02  0.2600E-01  0.2536E-01
     -3.686 -0.6948E-04  0.6586E-02  0.2600E-01  0.2562E-01
     -3.647 -0.1187E-03  0.5143E-02  0.2599E-01  0.2582E-01
     -3.609 -0.2039E-03  0.3511E-02  0.2598E-01  0.2595E-01
     -3.570 -0.3157E-03  0.1980E-02  0.2597E-01  0.2603E-01
     -3.531 -0.4164E-03  0.7663E-03  0.2596E-01  0.2606E-01
     -3.493 -0.4235E-03 -0.4791E-04  0.2594E-01  0.2606E-01
     -3.454 -0.2066E-03 -0.5076E-03  0.2593E-01  0.2604E-01
     -3.416  0.3865E-03 -0.7186E-03  0.2595E-01  0.2601E-01
     -3.377  0.1468E-02 -0.7708E-03  0.2600E-01  0.2598E-01
     -3.339  0.3027E-02 -0.6804E-03  0.2612E-01  0.2595E-01
     -3.300  0.4875E-02 -0.3739E-03  0.2631E-01  0.2594E-01
     -3.262  0.6647E-02  0.2795E-03  0.2656E-01  0.2595E-01
     -3.223  0.7907E-02  0.1393E-02  0.2687E-01  0.2600E-01
     -3.185  0.8309E-02  0.2967E-02  0.2719E-01  0.2612E-01
     -3.146  0.7734E-02  0.4824E-02  0.2749E-01  0.2630E-01
     -3.107  0.6348E-02  0.6608E-02  0.2773E-01  0.2656E-01
     -3.069  0.4524E-02  0.7887E-02  0.2791E-01  0.2686E-01
     -3.030  0.2692E-02  0.8309E-02  0.2801E-01  0.2718E-01
     -2.992  0.1183E-02  0.7748E-02  0.2806E-01  0.2748E-01
     -2.953  0.1515E-03  0.6362E-02  0.2806E-01  0.2773E-01
     -2.915 -0.4203E-03  0.4519E-02  0.2804E-01  0.2790E-01
     -2.876 -0.6421E-03  0.2650E-02  0.2802E-01  0.2800E-01
     -2.838 -0.6277E-03  0.1098E-02  0.2800E-01  0.2804E-01
     -2.799 -0.4357E-03  0.4465E-04  0.2798E-01  0.2805E-01
     -2.761 -0.5998E-04 -0.4824E-03  0.2798E-01  0.2803E-01
     -2.722  0.5343E-03 -0.5384E-03  0.2800E-01  0.2801E-01
     -2.683  0.1351E-02 -0.1962E-03  0.2805E-01  0.2800E-01
     -2.645  0.2314E-02  0.4770E-03  0.2814E-01  0.2802E-01
     -2.606  0.3251E-02  0.1398E-02  0.2826E-01  0.2807E-01
     -2.568  0.3945E-02  0.2430E-02  0.2842E-01  0.2816E-01
     -2.529  0.4208E-02  0.3377E-02  0.2858E-01  0.2829E-01
     -2.491  0.3966E-02  0.4018E-02  0.2873E-01  0.2845E-01
     -2.452  0.3291E-02  0.4191E-02  0.2886E-01  0.2861E-01
     -2.414  0.2371E-02  0.3855E-02  0.2895E-01  0.2876E-01
     -2.375  0.1433E-02  0.3114E-02  0.2900E-01  0.2888E-01
     -2.337  0.6597E-03  0.2173E-02  0.2903E-01  0.2896E-01
     -2.298  0.1382E-03  0.1257E-02  0.2904E-01  0.2901E-01
     -2.259 -0.1356E-03  0.5311E-03  0.2903E-01  0.2903E-01
     -2.221 -0.2250E-03  0.6340E-04  0.2902E-01  0.2903E-01
     -2.182 -0.2094E-03 -0.1663E-03  0.2901E-01  0.2903E-01
     -2.144 -0.1534E-03 -0.2279E-03  0.2901E-01  0.2902E-01
     -2.105 -0.9597E-04 -0.1995E-03  0.2900E-01  0.2901E-01
     -2.067 -0.5295E-04 -0.1410E-03  0.2900E-01  0.2901E-01
     -2.028 -0.2621E-04 -0.8577E-04  0.2900E-01  0.2900E-01
     -1.990 -0.1182E-04 -0.4622E-04  0.2900E-01  0.2900E-01
     -1.951 -0.5110E-05 -0.2238E-04  0.2900E-01  0.2900E-01
     -1.913 -0.2801E-05 -0.9833E-05  0.2900E-01  0.2900E-01
     -1.874 -0.3479E-05 -0.3966E-05  0.2900E-01  0.2900E-01
     -1.835 -0.7579E-05 -0.1567E-05  0.2900E-01  0.2900E-01
     -1.797 -0.1741E-04 -0.9058E-06  0.2900E-01  0.2900E-01
     -1.758 -0.3703E-04 -0.1422E-05  0.2900E-01  0.2900E-01
     -1.720 -0.7118E-04 -0.3556E-05  0.2899E-01  0.2900E-01
     -1.681 -0.1219E-03 -0.8890E-05  0.2899E-01  0.2900E-01
     -1.643 -0.1819E-03 -0.2046E-04  0.2898E-01  0.2900E-01
     -1.604 -0.2253E-03 -0.4276E-04  0.2897E-01  0.2900E-01
     -1.566 -0.2010E-03 -0.8044E-04  0.2897E-01  0.2899E-01
     -1.527 -0.3514E-04 -0.1344E-03  0.2897E-01  0.2899E-01
     -1.489  0.3480E-03 -0.1947E-03  0.2898E-01  0.2898E-01
     -1.450  0.9875E-03 -0.2313E-03  0.2902E-01  0.2897E-01
     -1.411  0.1843E-02 -0.1892E-03  0.2909E-01  0.2897E-01
     -1.373  0.2775E-02  0.5507E-05  0.2919E-01  0.2897E-01
     -1.334  0.3567E-02  0.4212E-03  0.2933E-01  0.2898E-01
     -1.296  0.3999E-02  0.1081E-02  0.2949E-01  0.2902E-01
     -1.257  0.3940E-02  0.1928E-02  0.2964E-01  0.2910E-01
     -1.219  0.3421E-02  0.2815E-02  0.2977E-01  0.2921E-01
     -1.180  0.2635E-02  0.3552E-02  0.2987E-01  0.2934E-01
     -1.142  0.1876E-02  0.3981E-02  0.2994E-01  0.2950E-01
     -1.103  0.1423E-02  0.4058E-02  0.3000E-01  0.2965E-01
     -1.065  0.1441E-02  0.3884E-02  0.3005E-01  0.2980E-01
     -1.026  0.1927E-02  0.3648E-02  0.3013E-01  0.2994E-01
     -0.988  0.2728E-02  0.3533E-02  0.3023E-01  0.3008E-01
     -0.949  0.3619E-02  0.3623E-02  0.3037E-01  0.3022E-01
     -0.910  0.4398E-02  0.3874E-02  0.3054E-01  0.3037E-01
     -0.872  0.4952E-02  0.4173E-02  0.3073E-01  0.3053E-01
     -0.833  0.5263E-02  0.4421E-02  0.3094E-01  0.3070E-01
     -0.795  0.5357E-02  0.4585E-02  0.3114E-01  0.3088E-01
     -0.756  0.5246E-02  0.4683E-02  0.3135E-01  0.3106E-01
     -0.718  0.4910E-02  0.4726E-02  0.3153E-01  0.3124E-01
     -0.679  0.4321E-02  0.4669E-02  0.3170E-01  0.3142E-01
     -0.641  0.3493E-02  0.4423E-02  0.3184E-01  0.3159E-01
     -0.602  0.2510E-02  0.3909E-02  0.3193E-01  0.3174E-01
     -0.564  0.1512E-02  0.3128E-02  0.3199E-01  0.3186E-01
     -0.525  0.6431E-03  0.2176E-02  0.3202E-01  0.3194E-01
     -0.486  0.1315E-04  0.1219E-02  0.3202E-01  0.3199E-01
     -0.448 -0.3198E-03  0.4253E-03  0.3200E-01  0.3201E-01
     -0.409 -0.3331E-03 -0.7293E-04  0.3199E-01  0.3200E-01
     -0.371 -0.2124E-04 -0.2009E-03  0.3199E-01  0.3200E-01
     -0.332  0.6026E-03  0.6502E-04  0.3201E-01  0.3200E-01
     -0.294  0.1481E-02  0.6971E-03  0.3207E-01  0.3203E-01
     -0.255  0.2483E-02  0.1604E-02  0.3217E-01  0.3209E-01
     -0.217  0.3408E-02  0.2621E-02  0.3230E-01  0.3219E-01
     -0.178  0.4033E-02  0.3522E-02  0.3245E-01  0.3233E-01
     -0.140  0.4191E-02  0.4084E-02  0.3261E-01  0.3248E-01
     -0.101  0.3844E-02  0.4158E-02  0.3276E-01  0.3264E-01
     -0.062  0.3096E-02  0.3730E-02  0.3288E-01  0.3279E-01
     -0.024  0.2154E-02  0.2932E-02  0.3296E-01  0.3290E-01
      0.015  0.1240E-02  0.1980E-02  0.3301E-01  0.3298E-01
      0.053  0.5191E-03  0.1092E-02  0.3303E-01  0.3302E-01
      0.092  0.5661E-04  0.4159E-03  0.3303E-01  0.3303E-01
      0.130 -0.1689E-03 -0.7228E-07  0.3303E-01  0.3303E-01
      0.169 -0.2280E-03 -0.1896E-03  0.3302E-01  0.3303E-01
      0.207 -0.1985E-03 -0.2271E-03  0.3301E-01  0.3302E-01
      0.246 -0.1397E-03 -0.1887E-03  0.3301E-01  0.3301E-01
      0.284 -0.8481E-04 -0.1289E-03  0.3300E-01  0.3301E-01
      0.323 -0.4560E-04 -0.7645E-04  0.3300E-01  0.3300E-01
      0.362 -0.2204E-04 -0.4028E-04  0.3300E-01  0.3300E-01
      0.400 -0.9653E-05 -0.1911E-04  0.3300E-01  0.3300E-01
      0.439 -0.3854E-05 -0.8231E-05  0.3300E-01  0.3300E-01
      0.477 -0.1408E-05 -0.3233E-05  0.3300E-01  0.3300E-01
      0.516 -0.4718E-06 -0.1163E-05  0.3300E-01  0.3300E-01
      0.554 -0.1453E-06 -0.3837E-06  0.3300E-01  0.3300E-01
      0.593 -0.4122E-07 -0.1164E-06  0.3300E-01  0.3300E-01
      0.631 -0.1077E-07 -0.3253E-07  0.3300E-01  0.3300E-01
      0.670 -0.2598E-08 -0.8380E-08  0.3300E-01  0.3300E-01
      0.708 -0.5786E-09 -0.1992E-08  0.3300E-01  0.3300E-01
      0.747 -0.1190E-09 -0.4373E-09  0.3300E-01  0.3300E-01
      0.786 -0.2264E-10 -0.8870E-10  0.3300E-01  0.3300E-01
      0.824 -0.3983E-11 -0.1663E-10  0.3300E-01  0.3300E-01
      0.863 -0.6483E-12 -0.2885E-11  0.3300E-01  0.3300E-01
      0.901 -0.9765E-13 -0.4630E-12  0.3300E-01  0.3300E-01
      0.940 -0.1362E-13 -0.6877E-13  0.3300E-01  0.3300E-01
      0.978 -0.1757E-14 -0.9459E-14  0.3300E-01  0.3300E-01
      1.017 -0.2074E-15 -0.1204E-14  0.3300E-01  0.3300E-01
      1.055 -0.2880E-16 -0.1440E-15  0.3300E-01  0.3300E-01
      1.094  0.0000E+00 -0.1728E-16  0.3300E-01  0.3300E-01
      1.132  0.0000E+00  0.0000E+00  0.3300E-01  0.3300E-01
      1.171  0.0000E+00  0.0000E+00  0.3300E-01  0.3300E-01
      1.210  0.0000E+00  0.0000E+00  0.3300E-01  0.3300E-01
      1.248  0.0000E+00  0.0000E+00  0.3300E-01  0.3300E-01
      1.287  0.0000E+00  0.0000E+00  0.3300E-01  0.3300E-01
      1.325  0.0000E+00  0.0000E+00  0.3300E-01  0.3300E-01
      1.364  0.0000E+00  0.0000E+00  0.3300E-01  0.3300E-01
      1.402  0.0000E+00  0.0000E+00  0.3300E-01  0.3300E-01
      1.441  0.0000E+00  0.0000E+00  0.3300E-01  0.3300E-01
      1.479  0.0000E+00  0.0000E+00  0.3300E-01  0.3300E-01
      1.518  0.0000E+00  0.0000E+00  0.3300E-01  0.3300E-01
      1.556  0.0000E+00  0.0000E+00  0.3300E-01  0.3300E-01
      1.595  0.0000E+00  0.0000E+00  0.3300E-01  0.3300E-01
      1.634  0.0000E+00  0.0000E+00  0.3300E-01  0.3300E-01
      1.672  0.0000E+00  0.0000E+00  0.3300E-01  0.3300E-01
      1.711  0.0000E+00  0.0000E+00  0.3300E-01  0.3300E-01
      1.749  0.0000E+00  0.0000E+00  0.3300E-01  0.3300E-01
      1.788  0.0000E+00  0.0000E+00  0.3300E-01  0.3300E-01
      1.826  0.0000E+00  0.0000E+00  0.3300E-01  0.3300E-01
      1.865  0.0000E+00  0.0000E+00  0.3300E-01  0.3300E-01
