    5    5 1000    2
  0.1941817E+04  0.2173358E-08  0.2072858E-08  0.2155150E-08  0.5000000E-15
   1.0000000000000000E-004
  CAR 
 unknown system                          
     50      1     33
 
  0.1262379E-14  0.1262379E-14  0.1262379E-14  0.1000000E+01
    1       -7.698582     -7.613012   1.000000   1.000000
    2       -7.203120     -6.792819   1.000000   1.000000
    3       -6.943815     -6.728562   1.000000   1.000000
    4       -6.914895     -6.695111   1.000000   1.000000
    5       -6.605555     -6.430899   1.000000   1.000000
    6       -6.515075     -6.236358   1.000000   1.000000
    7       -6.430410     -6.116435   1.000000   1.000000
    8       -6.411578     -6.033188   1.000000   1.000000
    9       -6.326249     -6.011724   1.000000   1.000000
   10       -6.153880     -5.732190   1.000000   1.000000
   11       -5.725958     -5.615181   1.000000   1.000000
   12       -5.550730     -5.350491   1.000000   1.000000
   13       -5.462776     -5.268602   1.000000   1.000000
   14       -5.250906     -5.059047   1.000000   1.000000
   15       -5.249465     -5.050899   1.000000   1.000000
   16       -4.874036     -4.737326   1.000000   1.000000
   17       -4.871414     -4.656692   1.000000   1.000001
   18       -4.856063     -4.644641   1.000000   1.000001
   19       -4.704621     -4.534498   1.000000   1.000032
   20       -4.672917     -4.471935   1.000000   1.000185
   21       -4.492991     -4.303524   1.000105   1.007188
   22       -4.417185     -4.224012   1.000730   1.021460
   23       -4.334554     -4.015951   1.004164   0.917578
   24       -4.333179     -4.007730   1.004271   0.898055
   25       -4.330642     -3.796787   1.004476   0.129234
   26       -4.262963     -3.727938   1.013317  -0.000781
   27       -3.224779     -3.069450  -0.000011  -0.000000
   28       -3.189805     -3.035028  -0.000003  -0.000000
   29       -2.547868     -2.478680  -0.000000  -0.000000
   30       -1.295527     -1.149287  -0.000000  -0.000000
   31       -0.922850     -0.878733  -0.000000  -0.000000
   32       -0.719348     -0.653402  -0.000000  -0.000000
   33       -0.166781     -0.135207  -0.000000  -0.000000
