       N       E                     dE             d eps       ncg     rms          rms(c)
DAV:   1     0.407286160595E+03    0.40729E+03   -0.67253E+03   132   0.637E+02
DAV:   2     0.259366143324E+03   -0.14792E+03   -0.14168E+03   262   0.596E+01
DAV:   3     0.719184496487E+02   -0.18745E+03   -0.17737E+03   248   0.599E+01
DAV:   4    -0.563538111578E+01   -0.77554E+02   -0.73606E+02   200   0.544E+01
DAV:   5    -0.169025389488E+02   -0.11267E+02   -0.10231E+02   174   0.218E+01    0.133E+01
DAV:   6    -0.141473660229E+02    0.27552E+01   -0.18120E+01   142   0.144E+01    0.618E+00
DAV:   7    -0.116502676490E+02    0.24971E+01   -0.19399E+00   140   0.951E+00    0.411E+00
DAV:   8    -0.120506111179E+02   -0.40034E+00   -0.78902E-01   135   0.923E+00    0.252E+00
DAV:   9    -0.126701542216E+02   -0.61954E+00   -0.36670E-01   144   0.634E+00    0.191E+00
DAV:  10    -0.134886811572E+02   -0.81853E+00   -0.25370E-01   166   0.400E+00    0.116E+00
DAV:  11    -0.140605099292E+02   -0.57183E+00   -0.12213E-01   134   0.289E+00    0.691E-01
DAV:  12    -0.145014202009E+02   -0.44091E+00   -0.66037E-02   140   0.144E+00    0.385E-01
DAV:  13    -0.149985114335E+02   -0.49709E+00   -0.66036E-02   143   0.841E-01    0.302E-01
DAV:  14    -0.154281207600E+02   -0.42961E+00   -0.53073E-02   140   0.980E-01    0.333E-01
DAV:  15    -0.156698552392E+02   -0.24173E+00   -0.23814E-02   148   0.799E-01    0.156E-01
DAV:  16    -0.159198599641E+02   -0.25000E+00   -0.14722E-02   148   0.410E-01    0.940E-02
DAV:  17    -0.160829165982E+02   -0.16306E+00   -0.59842E-03   140   0.234E-01    0.717E-02
DAV:  18    -0.161872609901E+02   -0.10434E+00   -0.29813E-03   149   0.199E-01    0.479E-02
DAV:  19    -0.162392312445E+02   -0.51970E-01   -0.10682E-03   149   0.131E-01    0.301E-02
DAV:  20    -0.162671926724E+02   -0.27961E-01   -0.49712E-04   133   0.736E-02    0.173E-02
DAV:  21    -0.162779231110E+02   -0.10730E-01   -0.21022E-04   104   0.438E-02    0.106E-02
DAV:  22    -0.162839084331E+02   -0.59853E-02   -0.18900E-04   110   0.393E-02    0.648E-03
DAV:  23    -0.162853531473E+02   -0.14447E-02   -0.52855E-05    96   0.247E-02    0.430E-03
DAV:  24    -0.162859248367E+02   -0.57169E-03   -0.69509E-05    88   0.213E-02    0.331E-03
DAV:  25    -0.162862779806E+02   -0.35314E-03   -0.34870E-05    88   0.166E-02    0.213E-03
DAV:  26    -0.162865585387E+02   -0.28056E-03   -0.22055E-05    88   0.136E-02    0.146E-03
DAV:  27    -0.162867755048E+02   -0.21697E-03   -0.19195E-05    88   0.102E-02    0.817E-04
DAV:  28    -0.162868894460E+02   -0.11394E-03   -0.82311E-06   104   0.782E-03    0.627E-04
DAV:  29    -0.162869286043E+02   -0.39158E-04   -0.45613E-06    88   0.523E-03
   1 F= -.16286929E+02 E0= -.16292461E+02  d E =-.162869E+02  mag=     2.0553
       N       E                     dE             d eps       ncg     rms          rms(c)
DAV:   1    -0.163136184128E+02   -0.26729E-01   -0.85011E+01   132   0.424E+01    0.252E+00
DAV:   2    -0.164038558528E+02   -0.90237E-01   -0.12516E+00   132   0.621E+00    0.130E+00
DAV:   3    -0.164075867863E+02   -0.37309E-02   -0.59506E-02   134   0.136E+00    0.816E-01
DAV:   4    -0.164095396279E+02   -0.19528E-02   -0.87907E-03   135   0.982E-01    0.445E-01
DAV:   5    -0.164104417467E+02   -0.90212E-03   -0.68649E-03   158   0.128E+00    0.368E-01
DAV:   6    -0.164099543252E+02    0.48742E-03   -0.21435E-03   143   0.655E-01    0.717E-02
DAV:   7    -0.164103692457E+02   -0.41492E-03   -0.54669E-04   142   0.202E-01    0.511E-02
DAV:   8    -0.164104933455E+02   -0.12410E-03   -0.13028E-04    88   0.117E-01    0.167E-02
DAV:   9    -0.164106220609E+02   -0.12872E-03   -0.31544E-05    96   0.475E-02    0.151E-02
DAV:  10    -0.164107164491E+02   -0.94388E-04   -0.10504E-05    88   0.281E-02
   2 F= -.16410716E+02 E0= -.16412144E+02  d E =-.123788E+00  mag=     2.0545
       N       E                     dE             d eps       ncg     rms          rms(c)
DAV:   1    -0.164108804310E+02   -0.25837E-03   -0.39585E-01   134   0.286E+00    0.161E-01
DAV:   2    -0.164113150894E+02   -0.43466E-03   -0.64438E-03   136   0.435E-01    0.777E-02
DAV:   3    -0.164114596614E+02   -0.14457E-03   -0.33338E-04   120   0.141E-01    0.651E-02
DAV:   4    -0.164115406348E+02   -0.80973E-04   -0.10710E-04    88   0.162E-01
   3 F= -.16411541E+02 E0= -.16413351E+02  d E =-.124612E+00  mag=     2.0542
