 vasp.6.1.2 22Jul20 (build Feb  1 2022 14:42:14) gamma-only                      
 executed on             LinuxPGI date 2022.02.04  01:09:37
 running on    8 total cores
 distrk:  each k-point on    8 cores,    1 groups
 distr:  one band on NCORE=   8 cores,    1 groups


--------------------------------------------------------------------------------------------------------


 INCAR:
 POTCAR:    PAW_PBE Pd 04Jan2005                  
 -----------------------------------------------------------------------------
|                                                                             |
|           W    W    AA    RRRRR   N    N  II  N    N   GGGG   !!!           |
|           W    W   A  A   R    R  NN   N  II  NN   N  G    G  !!!           |
|           W    W  A    A  R    R  N N  N  II  N N  N  G       !!!           |
|           W WW W  AAAAAA  RRRRR   N  N N  II  N  N N  G  GGG   !            |
|           WW  WW  A    A  R   R   N   NN  II  N   NN  G    G                |
|           W    W  A    A  R    R  N    N  II  N    N   GGGG   !!!           |
|                                                                             |
|     You use a magnetic or noncollinear calculation, but did not specify     |
|     the initial magnetic moment with the MAGMOM tag. Note that a            |
|     default of 1 will be used for all atoms. This ferromagnetic setup       |
|     may break the symmetry of the crystal, in particular it may rule        |
|     out finding an antiferromagnetic solution. Thence, we recommend         |
|     setting the initial magnetic moment manually or verifying carefully     |
|     that this magnetic setup is desired.                                    |
|                                                                             |
 -----------------------------------------------------------------------------

 -----------------------------------------------------------------------------
|                                                                             |
|           W    W    AA    RRRRR   N    N  II  N    N   GGGG   !!!           |
|           W    W   A  A   R    R  NN   N  II  NN   N  G    G  !!!           |
|           W    W  A    A  R    R  N N  N  II  N N  N  G       !!!           |
|           W WW W  AAAAAA  RRRRR   N  N N  II  N  N N  G  GGG   !            |
|           WW  WW  A    A  R   R   N   NN  II  N   NN  G    G                |
|           W    W  A    A  R    R  N    N  II  N    N   GGGG   !!!           |
|                                                                             |
|     For optimal performance we recommend to set                             |
|       NCORE = 4 - approx SQRT(number of cores).                             |
|     NCORE specifies how many cores store one orbital (NPAR=cpu/NCORE).      |
|     This setting can greatly improve the performance of VASP for DFT.       |
|     The default, NCORE=1 might be grossly inefficient on modern             |
|     multi-core architectures or massively parallel machines. Do your        |
|     own testing!!!!                                                         |
|     Unfortunately you need to use the default for GW and RPA                |
|     calculations (for HF NCORE is supported but not extensively tested      |
|     yet).                                                                   |
|                                                                             |
 -----------------------------------------------------------------------------

 POTCAR:    PAW_PBE Pd 04Jan2005                  
   SHA256 =  dd6f6f02930356371984e2b707ff5e456046761dc76b07c1eba30abd15eb3c39 Pd/POTCAR             
   COPYR  = (c) Copyright 04Jan2005 Georg Kresse                                                    
   COPYR  = This file is part of the software VASP. Any use, copying, and all other rights are regul
   COPYR  = If you do not have a valid VASP license, you may not use, copy or distribute this file. 
   VRHFIN =Pd : s1 d9                                                                               
   LEXCH  = PE                                                                                      
   EATOM  =   809.7530 eV,   59.5152 Ry                                                             
                                                                                                    
   TITEL  = PAW_PBE Pd 04Jan2005                                                                    
   LULTRA =        F    use ultrasoft PP ?                                                          
   IUNSCR =        1    unscreen: 0-lin 1-nonlin 2-no                                               
   RPACOR =    2.000    partial core radius                                                         
   POMASS =  106.420; ZVAL   =   10.000    mass and valenz                                          
   RCORE  =    2.600    outmost cutoff radius                                                       
   RWIGS  =    2.710; RWIGS  =    1.434    wigner-seitz radius (au A)                               
   ENMAX  =  250.925; ENMIN  =  188.194 eV                                                          
   ICORE  =        3    local potential                                                             
   LCOR   =        T    correct aug charges                                                         
   LPAW   =        T    paw PP                                                                      
   EAUG   =  416.230                                                                                
   DEXC   =    0.000                                                                                
   RMAX   =    2.653    core radius for proj-oper                                                   
   RAUG   =    1.300    factor for augmentation sphere                                              
   RDEP   =    2.734    radius for radial grids                                                     
   RDEPT  =    2.103    core radius for aug-charge                                                  
                                                                                                    
   Atomic configuration                                                                             
   12 entries                                                                                       
     n  l   j            E        occ.                                                              
     1  0  0.50    -24164.6631   2.0000                                                             
     2  0  0.50     -3530.9218   2.0000                                                             
     2  1  1.50     -3165.6822   6.0000                                                             
     3  0  0.50      -639.4577   2.0000                                                             
     3  1  1.50      -519.4532   6.0000                                                             
     3  2  2.50      -328.9757  10.0000                                                             
     4  0  0.50       -88.7014   2.0000                                                             
     4  1  1.50       -54.4540   6.0000                                                             
     4  2  2.50        -6.6878   9.0000                                                             
     5  0  0.50        -4.3543   1.0000                                                             
     5  1  0.50        -1.3606   0.0000                                                             
     4  3  2.50        -1.3606   0.0000                                                             
   Description                                                                                      
     l       E           TYP  RCUT    TYP  RCUT                                                     
     2     -6.6878251     23  2.400                                                                 
     2     -8.0484077     23  2.400                                                                 
     0     -4.3542939     23  2.400                                                                 
     0      4.3406793     23  2.400                                                                 
     1     -4.0817478     23  2.600                                                                 
     1     15.8380318     23  2.600                                                                 
     3     -4.0817478     23  2.400                                                                 
  local pseudopotential read in
  partial core-charges read in
  partial kinetic energy density read in
  atomic valenz-charges read in
  non local Contribution for L=            2  read in
    real space projection operators read in
  non local Contribution for L=            2  read in
    real space projection operators read in
  non local Contribution for L=            0  read in
    real space projection operators read in
  non local Contribution for L=            0  read in
    real space projection operators read in
  non local Contribution for L=            1  read in
    real space projection operators read in
  non local Contribution for L=            1  read in
    real space projection operators read in
    PAW grid and wavefunctions read in
 
   number of l-projection  operators is LMAX  =            6
   number of lm-projection operators is LMMAX =           18
 
  PAW_PBE Pd 04Jan2005                  :
 energy of atom  1       EATOM= -809.7530
 kinetic energy error for atom=    0.0091 (will be added to EATOM!!)
 
 
 POSCAR: Pd
  positions in cartesian coordinates
  No initial velocities read in
 exchange correlation table for  LEXCH =        8
   RHO(1)=    0.500       N(1)  =     2000
   RHO(2)=  100.500       N(2)  =     4000
 


--------------------------------------------------------------------------------------------------------


 ion  position               nearest neighbor table
   1  0.568  0.548  0.492-   4 2.50   5 2.50   3 2.56
   2  0.436  0.452  0.483-   4 2.50   5 2.50   3 2.56
   3  0.548  0.428  0.511-   2 2.56   5 2.56   4 2.56   1 2.56
   4  0.519  0.483  0.408-   1 2.50   2 2.50   3 2.56
   5  0.487  0.515  0.568-   1 2.50   2 2.50   3 2.56
 

IMPORTANT INFORMATION: All symmetrisations will be switched off!
NOSYMM: (Re-)initialisation of all symmetry stuff for point group C_1.


----------------------------------------------------------------------------------------

                                     Primitive cell                                     

  volume of cell :    9709.0831

  direct lattice vectors                    reciprocal lattice vectors
    21.733575993  0.000000000  0.000000000     0.046011756  0.000000000  0.000000000
     0.000000000 20.728580971  0.000000000     0.000000000  0.048242569  0.000000000
     0.000000000  0.000000000 21.551497780     0.000000000  0.000000000  0.046400487

  length of vectors
    21.733575993 20.728580971 21.551497780     0.046011756  0.048242569  0.046400487

  position of ions in fractional coordinates (direct lattice)
     0.567895617  0.547989742  0.492155767
     0.436112686  0.452110987  0.482796513
     0.548010498  0.427593828  0.510629028
     0.519283749  0.482574801  0.408223358
     0.486830867  0.514588702  0.567894027

  ion indices of the primitive-cell ions
   primitive index   ion index
                 1           1
                 2           2
                 3           3
                 4           4
                 5           5

----------------------------------------------------------------------------------------

 
 
 KPOINTS: KPOINTS created by Atomic Simulation Env

Automatic generation of k-mesh.
Space group operators:
 irot       det(A)        alpha          n_x          n_y          n_z        tau_x        tau_y        tau_z
    1     1.000000     0.000000     1.000000     0.000000     0.000000     0.000000     0.000000     0.000000
 
 Subroutine IBZKPT returns following result:
 ===========================================
 
 Found      1 irreducible k-points:
 
 Following reciprocal coordinates:
            Coordinates               Weight
  0.000000  0.000000  0.000000      1.000000
 
 Following cartesian coordinates:
            Coordinates               Weight
  0.000000  0.000000  0.000000      1.000000
 


--------------------------------------------------------------------------------------------------------




 Dimension of arrays:
   k-points           NKPTS =      1   k-points in BZ     NKDIM =      1   number of bands    NBANDS=     33
   number of dos      NEDOS =    301   number of ions     NIONS =      5
   non local maximal  LDIM  =      6   non local SUM 2l+1 LMDIM =     18
   total plane-waves  NPLWV = ******
   max r-space proj   IRMAX =      1   max aug-charges    IRDMAX=   6493
   dimension x,y,z NGX =   108 NGY =  108 NGZ =  108
   dimension x,y,z NGXF=   216 NGYF=  216 NGZF=  216
   support grid    NGXF=   216 NGYF=  216 NGZF=  216
   ions per type =               5
   NGX,Y,Z   is equivalent  to a cutoff of   8.26,  8.66,  8.33 a.u.
   NGXF,Y,Z  is equivalent  to a cutoff of  16.52, 17.32, 16.66 a.u.

 SYSTEM =  unknown system                          
 POSCAR =  Pd                                      

 Startparameter for this run:
   NWRITE =      2    write-flag & timer
   PREC   = normal    normal or accurate (medium, high low for compatibility)
   ISTART =      0    job   : 0-new  1-cont  2-samecut
   ICHARG =      2    charge: 1-file 2-atom 10-const
   ISPIN  =      2    spin polarized calculation?
   LNONCOLLINEAR =      F non collinear calculations
   LSORBIT =      F    spin-orbit coupling
   INIWAV =      1    electr: 0-lowe 1-rand  2-diag
   LASPH  =      F    aspherical Exc in radial PAW
   METAGGA=      F    non-selfconsistent MetaGGA calc.

 Electronic Relaxation 1
   ENCUT  =  400.0 eV  29.40 Ry    5.42 a.u.  35.44 33.80 35.15*2*pi/ulx,y,z
   ENINI  =  400.0     initial cutoff
   ENAUG  =  416.2 eV  augmentation charge cutoff
   NELM   =     60;   NELMIN=  2; NELMDL=  0     # of ELM steps 
   EDIFF  = 0.1E-03   stopping-criterion for ELM
   LREAL  =      F    real-space projection
   NLSPLINE    = F    spline interpolate recip. space projectors
   LCOMPAT=      F    compatible to vasp.4.4
   GGA_COMPAT  = T    GGA compatible to vasp.4.4-vasp.4.6
   LMAXPAW     = -100 max onsite density
   LMAXMIX     =    2 max onsite mixed and CHGCAR
   VOSKOWN=      0    Vosko Wilk Nusair interpolation
   ROPT   =    0.00000
 Ionic relaxation
   EDIFFG = 0.1E-02   stopping-criterion for IOM
   NSW    =   1000    number of steps for IOM
   NBLOCK =      1;   KBLOCK =   1000    inner block; outer block 
   IBRION =      2    ionic relax: 0-MD 1-quasi-New 2-CG
   NFREE  =      1    steps in history (QN), initial steepest desc. (CG)
   ISIF   =      0    stress and relaxation
   IWAVPR =     11    prediction:  0-non 1-charg 2-wave 3-comb
   ISYM   =      0    0-nonsym 1-usesym 2-fastsym
   LCORR  =      T    Harris-Foulkes like correction to forces

   POTIM  = 0.5000    time-step for ionic-motion
   TEIN   =    0.0    initial temperature
   TEBEG  =    0.0;   TEEND  =   0.0 temperature during run
   SMASS  =  -3.00    Nose mass-parameter (am)
   estimated Nose-frequenzy (Omega)   =  0.10E-29 period in steps = 0.13E+47 mass=  -0.108E-25a.u.
   SCALEE = 1.0000    scale energy and forces
   NPACO  =    256;   APACO  = 16.0  distance and # of slots for P.C.
   PSTRESS=    0.0 pullay stress

  Mass of Ions in am
   POMASS = 106.42
  Ionic Valenz
   ZVAL   =  10.00
  Atomic Wigner-Seitz radii
   RWIGS  =  -1.00
  virtual crystal weights 
   VCA    =   1.00
   NELECT =      50.0000    total number of electrons
   NUPDOWN=      -1.0000    fix difference up-down

 DOS related values:
   EMIN   =  10.00;   EMAX   =-10.00  energy-range for DOS
   EFERMI =   0.00
   ISMEAR =     1;   SIGMA  =   0.20  broadening in eV -4-tet -1-fermi 0-gaus

 Electronic relaxation 2 (details)
   IALGO  =     38    algorithm
   LDIAG  =      T    sub-space diagonalisation (order eigenvalues)
   LSUBROT=      F    optimize rotation matrix (better conditioning)
   TURBO    =      0    0=normal 1=particle mesh
   IRESTART =      0    0=no restart 2=restart with 2 vectors
   NREBOOT  =      0    no. of reboots
   NMIN     =      0    reboot dimension
   EREF     =   0.00    reference energy to select bands
   IMIX   =      4    mixing-type and parameters
     AMIX     =   0.40;   BMIX     =  1.00
     AMIX_MAG =   1.60;   BMIX_MAG =  1.00
     AMIN     =   0.10
     WC   =   100.;   INIMIX=   1;  MIXPRE=   1;  MAXMIX= -45

 Intra band minimization:
   WEIMIN = 0.0010     energy-eigenvalue tresh-hold
   EBREAK =  0.76E-06  absolut break condition
   DEPER  =   0.30     relativ break condition  

   TIME   =   0.40     timestep for ELM

  volume/ion in A,a.u.               =    1941.82     13104.03
  Fermi-wavevector in a.u.,A,eV,Ry     =   0.282708  0.534241  1.087433  0.079924
  Thomas-Fermi vector in A             =   1.133766
 
 Write flags
   LWAVE        =      F    write WAVECAR
   LDOWNSAMPLE  =      F    k-point downsampling of WAVECAR
   LCHARG       =      F    write CHGCAR
   LVTOT        =      F    write LOCPOT, total local potential
   LVHAR        =      F    write LOCPOT, Hartree potential only
   LELF         =      F    write electronic localiz. function (ELF)
   LORBIT       =      0    0 simple, 1 ext, 2 COOP (PROOUT), +10 PAW based schemes


 Dipole corrections
   LMONO  =      F    monopole corrections only (constant potential shift)
   LDIPOL =      F    correct potential (dipole corrections)
   IDIPOL =      0    1-x, 2-y, 3-z, 4-all directions 
   EPSILON=  1.0000000 bulk dielectric constant

 Exchange correlation treatment:
   GGA     =    PE    GGA type
   LEXCH   =     8    internal setting for exchange type
   VOSKOWN=      0    Vosko Wilk Nusair interpolation
   LHFCALC =     F    Hartree Fock is set to
   LHFONE  =     F    Hartree Fock one center treatment
   AEXX    =    0.0000 exact exchange contribution

 Linear response parameters
   LEPSILON=     F    determine dielectric tensor
   LRPA    =     F    only Hartree local field effects (RPA)
   LNABLA  =     F    use nabla operator in PAW spheres
   LVEL    =     F    velocity operator in full k-point grid
   LINTERFAST=   F  fast interpolation
   KINTER  =     0    interpolate to denser k-point grid
   CSHIFT  =0.1000    complex shift for real part using Kramers Kronig
   OMEGAMAX=  -1.0    maximum frequency
   DEG_THRESHOLD= 0.2000000E-02 threshold for treating states as degnerate
   RTIME   =   -0.100 relaxation time in fs
  (WPLASMAI=    0.000 imaginary part of plasma frequency in eV, 0.658/RTIME)
   DFIELD  = 0.0000000 0.0000000 0.0000000 field for delta impulse in time
 
 Orbital magnetization related:
   ORBITALMAG=     F  switch on orbital magnetization
   LCHIMAG   =     F  perturbation theory with respect to B field
   DQ        =  0.001000  dq finite difference perturbation B field
   LLRAUG    =     F  two centre corrections for induced B field



--------------------------------------------------------------------------------------------------------


 conjugate gradient relaxation of ions
 charge density and potential will be updated during run
 spin polarized calculation
 Variant of blocked Davidson
 Davidson routine will perform the subspace rotation
 perform sub-space diagonalisation
    after iterative eigenvector-optimisation
 modified Broyden-mixing scheme, WC =      100.0
 initial mixing is a Kerker type mixing with AMIX =  0.4000 and BMIX =      1.0000
 Hartree-type preconditioning will be used
 using additional bands             8
 reciprocal scheme for non local part
 use partial core corrections
 calculate Harris-corrections to forces 
   (improved forces if not selfconsistent)
 use gradient corrections 
 use of overlap-Matrix (Vanderbilt PP)
 Methfessel and Paxton  Order N= 1 SIGMA  =   0.20


--------------------------------------------------------------------------------------------------------


  energy-cutoff  :      400.00
  volume of cell :     9709.08
      direct lattice vectors                 reciprocal lattice vectors
    21.733575993  0.000000000  0.000000000     0.046011756  0.000000000  0.000000000
     0.000000000 20.728580971  0.000000000     0.000000000  0.048242569  0.000000000
     0.000000000  0.000000000 21.551497780     0.000000000  0.000000000  0.046400487

  length of vectors
    21.733575993 20.728580971 21.551497780     0.046011756  0.048242569  0.046400487


 
 k-points in units of 2pi/SCALE and weight: KPOINTS created by Atomic Simulation Env
   0.00000000  0.00000000  0.00000000       1.000
 
 k-points in reciprocal lattice and weights: KPOINTS created by Atomic Simulation Env
   0.00000000  0.00000000  0.00000000       1.000
 
 position of ions in fractional coordinates (direct lattice) 
   0.56789562  0.54798974  0.49215577
   0.43611269  0.45211099  0.48279651
   0.54801050  0.42759383  0.51062903
   0.51928375  0.48257480  0.40822336
   0.48683087  0.51458870  0.56789403
 
 position of ions in cartesian coordinates  (Angst):
  12.34240254 11.35904973 10.60669392
   9.47828820  9.37161920 10.40498797
  11.91022780  8.86341329 11.00482037
  11.28589282 10.00309085  8.79782480
  10.58057564 10.66669357 12.23896686
 


--------------------------------------------------------------------------------------------------------


 use parallel FFT for orbitals z direction half grid
 k-point   1 :   0.0000 0.0000 0.0000  plane waves:   88154

 maximum and minimum number of plane-waves per node :     11020    11019

 maximum number of plane-waves:     88154
 maximum index in each direction: 
   IXMAX=   35   IYMAX=   33   IZMAX=   35
   IXMIN=  -35   IYMIN=  -33   IZMIN=    0


 parallel 3D FFT for wavefunctions:
    minimum data exchange during FFTs selected (reduces bandwidth)
 parallel 3D FFT for charge:
    minimum data exchange during FFTs selected (reduces bandwidth)


 total amount of memory used by VASP MPI-rank0   194721. kBytes
=======================================================================

   base      :      30000. kBytes
   nonl-proj :       2468. kBytes
   fftplans  :      46129. kBytes
   grid      :     104464. kBytes
   one-center:         15. kBytes
   wavefun   :      11645. kBytes
 
     INWAV:  cpu time    0.0000: real time    0.0000
 Broyden mixing: mesh for mixing (old mesh)
   NGX = 71   NGY = 67   NGZ = 71
  (NGX  =216   NGY  =216   NGZ  =216)
  gives a total of 337747 points

 initial charge density was supplied:
 charge density of overlapping atoms calculated
 number of electron      50.0000000 magnetization       5.0000000
 keeping initial charge density in first step


--------------------------------------------------------------------------------------------------------


 Maximum index for augmentation-charges           808 (set IRDMAX)


--------------------------------------------------------------------------------------------------------


 First call to EWALD:  gamma=   0.083
 Maximum number of real-space cells 3x 3x 3
 Maximum number of reciprocal cells 3x 3x 3

    FEWALD:  cpu time    0.0028: real time    0.0028


--------------------------------------- Iteration      1(   1)  ---------------------------------------


    POTLOK:  cpu time    3.7775: real time    3.7960
    SETDIJ:  cpu time    0.0264: real time    0.0264
     EDDAV:  cpu time    3.3779: real time    3.3904
       DOS:  cpu time    0.0040: real time    0.0040
    --------------------------------------------
      LOOP:  cpu time    7.1858: real time    7.2168

 eigenvalue-minimisations  :   132
 total energy-change (2. order) : 0.4072862E+03  (-0.6725336E+03)
 number of electron      50.0000000 magnetization       5.0000000
 augmentation part       50.0000000 magnetization       5.0000000

 Free energy of the ion-electron system (eV)
  ---------------------------------------------------
  alpha Z        PSCENC =         1.67820236
  Ewald energy   TEWEN  =      3001.34219654
  -Hartree energ DENC   =     -6849.81505967
  -exchange      EXHF   =         0.00000000
  -V(xc)+E(xc)   XCENC  =      -152.04644790
  PAW double counting   =      4033.23964144    -3722.16140761
  entropy T*S    EENTRO =        -0.01617148
  eigenvalues    EBANDS =        46.34574402
  atomic energy  EATOM  =      4048.71946290
  Solvation  Ediel_sol  =         0.00000000
  ---------------------------------------------------
  free energy    TOTEN  =       407.28616060 eV

  energy without entropy =      407.30233208  energy(sigma->0) =      407.29155109


--------------------------------------------------------------------------------------------------------




--------------------------------------- Iteration      1(   2)  ---------------------------------------


     EDDAV:  cpu time    5.6335: real time    5.6474
       DOS:  cpu time    0.0100: real time    0.0100
    --------------------------------------------
      LOOP:  cpu time    5.6435: real time    5.6575

 eigenvalue-minimisations  :   262
 total energy-change (2. order) :-0.1479200E+03  (-0.1416826E+03)
 number of electron      50.0000000 magnetization       5.0000000
 augmentation part       50.0000000 magnetization       5.0000000

 Free energy of the ion-electron system (eV)
  ---------------------------------------------------
  alpha Z        PSCENC =         1.67820236
  Ewald energy   TEWEN  =      3001.34219654
  -Hartree energ DENC   =     -6849.81505967
  -exchange      EXHF   =         0.00000000
  -V(xc)+E(xc)   XCENC  =      -152.04644790
  PAW double counting   =      4033.23964144    -3722.16140761
  entropy T*S    EENTRO =        -0.15104709
  eigenvalues    EBANDS =      -101.43939764
  atomic energy  EATOM  =      4048.71946290
  Solvation  Ediel_sol  =         0.00000000
  ---------------------------------------------------
  free energy    TOTEN  =       259.36614332 eV

  energy without entropy =      259.51719042  energy(sigma->0) =      259.41649236


--------------------------------------------------------------------------------------------------------




--------------------------------------- Iteration      1(   3)  ---------------------------------------


     EDDAV:  cpu time    5.8712: real time    5.8813
       DOS:  cpu time    0.0041: real time    0.0041
    --------------------------------------------
      LOOP:  cpu time    5.8753: real time    5.8854

 eigenvalue-minimisations  :   248
 total energy-change (2. order) :-0.1874477E+03  (-0.1773665E+03)
 number of electron      50.0000000 magnetization       5.0000000
 augmentation part       50.0000000 magnetization       5.0000000

 Free energy of the ion-electron system (eV)
  ---------------------------------------------------
  alpha Z        PSCENC =         1.67820236
  Ewald energy   TEWEN  =      3001.34219654
  -Hartree energ DENC   =     -6849.81505967
  -exchange      EXHF   =         0.00000000
  -V(xc)+E(xc)   XCENC  =      -152.04644790
  PAW double counting   =      4033.23964144    -3722.16140761
  entropy T*S    EENTRO =        -0.02013317
  eigenvalues    EBANDS =      -289.01800524
  atomic energy  EATOM  =      4048.71946290
  Solvation  Ediel_sol  =         0.00000000
  ---------------------------------------------------
  free energy    TOTEN  =        71.91844965 eV

  energy without entropy =       71.93858281  energy(sigma->0) =       71.92516070


--------------------------------------------------------------------------------------------------------




--------------------------------------- Iteration      1(   4)  ---------------------------------------


     EDDAV:  cpu time    4.8328: real time    4.8435
       DOS:  cpu time    0.0040: real time    0.0041
    --------------------------------------------
      LOOP:  cpu time    4.8369: real time    4.8475

 eigenvalue-minimisations  :   200
 total energy-change (2. order) :-0.7755383E+02  (-0.7360578E+02)
 number of electron      50.0000000 magnetization       5.0000000
 augmentation part       50.0000000 magnetization       5.0000000

 Free energy of the ion-electron system (eV)
  ---------------------------------------------------
  alpha Z        PSCENC =         1.67820236
  Ewald energy   TEWEN  =      3001.34219654
  -Hartree energ DENC   =     -6849.81505967
  -exchange      EXHF   =         0.00000000
  -V(xc)+E(xc)   XCENC  =      -152.04644790
  PAW double counting   =      4033.23964144    -3722.16140761
  entropy T*S    EENTRO =         0.00085679
  eigenvalues    EBANDS =      -366.59282596
  atomic energy  EATOM  =      4048.71946290
  Solvation  Ediel_sol  =         0.00000000
  ---------------------------------------------------
  free energy    TOTEN  =        -5.63538112 eV

  energy without entropy =       -5.63623790  energy(sigma->0) =       -5.63566671


--------------------------------------------------------------------------------------------------------




--------------------------------------- Iteration      1(   5)  ---------------------------------------


     EDDAV:  cpu time    4.5143: real time    4.5248
       DOS:  cpu time    0.0048: real time    0.0048
    CHARGE:  cpu time    0.5063: real time    0.5069
    MIXING:  cpu time    0.0460: real time    0.0460
    --------------------------------------------
      LOOP:  cpu time    5.0713: real time    5.0826

 eigenvalue-minimisations  :   174
 total energy-change (2. order) :-0.1126716E+02  (-0.1023063E+02)
 number of electron      50.0000009 magnetization       4.6414433
 augmentation part       21.7916525 magnetization       3.7240345

 Broyden mixing:
  rms(total) = 0.13291E+01    rms(broyden)= 0.13289E+01
  rms(prec ) = 0.13731E+01
  weight for this iteration     100.00

 Free energy of the ion-electron system (eV)
  ---------------------------------------------------
  alpha Z        PSCENC =         1.67820236
  Ewald energy   TEWEN  =      3001.34219654
  -Hartree energ DENC   =     -6849.81505967
  -exchange      EXHF   =         0.00000000
  -V(xc)+E(xc)   XCENC  =      -152.04644790
  PAW double counting   =      4033.23964144    -3722.16140761
  entropy T*S    EENTRO =         0.01058281
  eigenvalues    EBANDS =      -377.86970981
  atomic energy  EATOM  =      4048.71946290
  Solvation  Ediel_sol  =         0.00000000
  ---------------------------------------------------
  free energy    TOTEN  =       -16.90253895 eV

  energy without entropy =      -16.91312176  energy(sigma->0) =      -16.90606655


--------------------------------------------------------------------------------------------------------




--------------------------------------- Iteration      1(   6)  ---------------------------------------


    POTLOK:  cpu time    3.5914: real time    3.6024
    SETDIJ:  cpu time    0.0344: real time    0.0344
     EDDAV:  cpu time    3.7916: real time    3.7978
       DOS:  cpu time    0.0034: real time    0.0034
    CHARGE:  cpu time    0.4829: real time    0.4838
    MIXING:  cpu time    0.0860: real time    0.0879
    --------------------------------------------
      LOOP:  cpu time    7.9898: real time    8.0097

 eigenvalue-minimisations  :   142
 total energy-change (2. order) : 0.2755173E+01  (-0.1811961E+01)
 number of electron      50.0000010 magnetization       4.2988267
 augmentation part       21.6876369 magnetization       3.1795653

 Broyden mixing:
  rms(total) = 0.61836E+00    rms(broyden)= 0.61830E+00
  rms(prec ) = 0.64441E+00
  weight for this iteration     100.00

 eigenvalues of (default mixing * dielectric matrix)
  average eigenvalue GAMMA=   0.7916
  0.7916

 Free energy of the ion-electron system (eV)
  ---------------------------------------------------
  alpha Z        PSCENC =         1.67820236
  Ewald energy   TEWEN  =      3001.34219654
  -Hartree energ DENC   =     -6888.77593689
  -exchange      EXHF   =         0.00000000
  -V(xc)+E(xc)   XCENC  =      -149.94563803
  PAW double counting   =      4370.68556424    -4060.82770043
  entropy T*S    EENTRO =        -0.03624888
  eigenvalues    EBANDS =      -336.98726782
  atomic energy  EATOM  =      4048.71946290
  Solvation  Ediel_sol  =         0.00000000
  ---------------------------------------------------
  free energy    TOTEN  =       -14.14736602 eV

  energy without entropy =      -14.11111714  energy(sigma->0) =      -14.13528306


--------------------------------------------------------------------------------------------------------




--------------------------------------- Iteration      1(   7)  ---------------------------------------


    POTLOK:  cpu time    3.8326: real time    3.8398
    SETDIJ:  cpu time    0.0358: real time    0.0359
     EDDAV:  cpu time    3.5061: real time    3.5151
       DOS:  cpu time    0.0020: real time    0.0020
    CHARGE:  cpu time    0.5855: real time    0.5882
    MIXING:  cpu time    0.0943: real time    0.0945
    --------------------------------------------
      LOOP:  cpu time    8.0564: real time    8.0755

 eigenvalue-minimisations  :   140
 total energy-change (2. order) : 0.2497098E+01  (-0.1939925E+00)
 number of electron      50.0000010 magnetization       4.0361421
 augmentation part       21.6015579 magnetization       2.8611248

 Broyden mixing:
  rms(total) = 0.41066E+00    rms(broyden)= 0.41060E+00
  rms(prec ) = 0.43488E+00
  weight for this iteration     100.00

 eigenvalues of (default mixing * dielectric matrix)
  average eigenvalue GAMMA=   0.9389
  1.2678  0.6100

 Free energy of the ion-electron system (eV)
  ---------------------------------------------------
  alpha Z        PSCENC =         1.67820236
  Ewald energy   TEWEN  =      3001.34219654
  -Hartree energ DENC   =     -6912.64842286
  -exchange      EXHF   =         0.00000000
  -V(xc)+E(xc)   XCENC  =      -147.41152893
  PAW double counting   =      4498.53905065    -4189.11073098
  entropy T*S    EENTRO =         0.03310741
  eigenvalues    EBANDS =      -312.79160474
  atomic energy  EATOM  =      4048.71946290
  Solvation  Ediel_sol  =         0.00000000
  ---------------------------------------------------
  free energy    TOTEN  =       -11.65026765 eV

  energy without entropy =      -11.68337506  energy(sigma->0) =      -11.66130345


--------------------------------------------------------------------------------------------------------




--------------------------------------- Iteration      1(   8)  ---------------------------------------


    POTLOK:  cpu time    3.9075: real time    3.9199
    SETDIJ:  cpu time    0.0424: real time    0.0424
     EDDAV:  cpu time   25.3256: real time   28.7415
       DOS:  cpu time    0.0060: real time    0.0060
    CHARGE:  cpu time    0.6291: real time    0.6299
    MIXING:  cpu time    0.0749: real time    0.0750
    --------------------------------------------
      LOOP:  cpu time   29.9854: real time   33.4147

 eigenvalue-minimisations  :   135
 total energy-change (2. order) :-0.4003435E+00  (-0.7890200E-01)
 number of electron      50.0000010 magnetization       3.8376101
 augmentation part       21.5380865 magnetization       2.7527438

 Broyden mixing:
  rms(total) = 0.25244E+00    rms(broyden)= 0.25238E+00
  rms(prec ) = 0.27380E+00
  weight for this iteration     100.00

 eigenvalues of (default mixing * dielectric matrix)
  average eigenvalue GAMMA=   0.8676
  1.4555  0.6725  0.4748

 Free energy of the ion-electron system (eV)
  ---------------------------------------------------
  alpha Z        PSCENC =         1.67820236
  Ewald energy   TEWEN  =      3001.34219654
  -Hartree energ DENC   =     -6925.84311908
  -exchange      EXHF   =         0.00000000
  -V(xc)+E(xc)   XCENC  =      -147.50390419
  PAW double counting   =      4562.50461291    -4253.26332878
  entropy T*S    EENTRO =        -0.02429325
  eigenvalues    EBANDS =      -299.66044052
  atomic energy  EATOM  =      4048.71946290
  Solvation  Ediel_sol  =         0.00000000
  ---------------------------------------------------
  free energy    TOTEN  =       -12.05061112 eV

  energy without entropy =      -12.02631787  energy(sigma->0) =      -12.04251337


--------------------------------------------------------------------------------------------------------




--------------------------------------- Iteration      1(   9)  ---------------------------------------


    POTLOK:  cpu time    3.7470: real time    3.7563
    SETDIJ:  cpu time    0.0246: real time    0.0246
     EDDAV:  cpu time    3.4050: real time    3.4119
       DOS:  cpu time    0.0071: real time    0.0071
    CHARGE:  cpu time    0.6290: real time    0.6299
    MIXING:  cpu time    0.0861: real time    0.0863
    --------------------------------------------
      LOOP:  cpu time    7.8988: real time    7.9162

 eigenvalue-minimisations  :   144
 total energy-change (2. order) :-0.6195431E+00  (-0.3666956E-01)
 number of electron      50.0000011 magnetization       3.5669557
 augmentation part       21.5428533 magnetization       2.5020034

 Broyden mixing:
  rms(total) = 0.19099E+00    rms(broyden)= 0.19092E+00
  rms(prec ) = 0.20701E+00
  weight for this iteration     100.00

 eigenvalues of (default mixing * dielectric matrix)
  average eigenvalue GAMMA=   0.9096
  1.7192  0.9550  0.6405  0.3236

 Free energy of the ion-electron system (eV)
  ---------------------------------------------------
  alpha Z        PSCENC =         1.67820236
  Ewald energy   TEWEN  =      3001.34219654
  -Hartree energ DENC   =     -6930.89430750
  -exchange      EXHF   =         0.00000000
  -V(xc)+E(xc)   XCENC  =      -147.93951164
  PAW double counting   =      4585.39603467    -4276.27188452
  entropy T*S    EENTRO =         0.03107213
  eigenvalues    EBANDS =      -294.73141916
  atomic energy  EATOM  =      4048.71946290
  Solvation  Ediel_sol  =         0.00000000
  ---------------------------------------------------
  free energy    TOTEN  =       -12.67015422 eV

  energy without entropy =      -12.70122635  energy(sigma->0) =      -12.68051160


--------------------------------------------------------------------------------------------------------




--------------------------------------- Iteration      1(  10)  ---------------------------------------


    POTLOK:  cpu time    3.5999: real time    3.6074
    SETDIJ:  cpu time    0.0388: real time    0.0388
     EDDAV:  cpu time    3.7584: real time    3.7675
       DOS:  cpu time    0.0029: real time    0.0029
    CHARGE:  cpu time    0.4596: real time    0.4602
    MIXING:  cpu time    0.0627: real time    0.0629
    --------------------------------------------
      LOOP:  cpu time    7.9224: real time    7.9396

 eigenvalue-minimisations  :   166
 total energy-change (2. order) :-0.8185269E+00  (-0.2536964E-01)
 number of electron      50.0000010 magnetization       3.3640808
 augmentation part       21.5386933 magnetization       2.3484455

 Broyden mixing:
  rms(total) = 0.11576E+00    rms(broyden)= 0.11572E+00
  rms(prec ) = 0.12687E+00
  weight for this iteration     100.00

 eigenvalues of (default mixing * dielectric matrix)
  average eigenvalue GAMMA=   0.9267
  1.9678  1.2183  0.6605  0.4655  0.3214

 Free energy of the ion-electron system (eV)
  ---------------------------------------------------
  alpha Z        PSCENC =         1.67820236
  Ewald energy   TEWEN  =      3001.34219654
  -Hartree energ DENC   =     -6936.17769218
  -exchange      EXHF   =         0.00000000
  -V(xc)+E(xc)   XCENC  =      -148.52232664
  PAW double counting   =      4601.40479698    -4292.37664332
  entropy T*S    EENTRO =         0.02579006
  eigenvalues    EBANDS =      -289.58246786
  atomic energy  EATOM  =      4048.71946290
  Solvation  Ediel_sol  =         0.00000000
  ---------------------------------------------------
  free energy    TOTEN  =       -13.48868116 eV

  energy without entropy =      -13.51447122  energy(sigma->0) =      -13.49727784


--------------------------------------------------------------------------------------------------------




--------------------------------------- Iteration      1(  11)  ---------------------------------------


    POTLOK:  cpu time    3.5374: real time    3.5508
    SETDIJ:  cpu time    0.0261: real time    0.0261
     EDDAV:  cpu time    3.6503: real time    3.6604
       DOS:  cpu time    0.0021: real time    0.0021
    CHARGE:  cpu time    0.6632: real time    0.6643
    MIXING:  cpu time    0.1005: real time    0.1008
    --------------------------------------------
      LOOP:  cpu time    7.9796: real time    8.0045

 eigenvalue-minimisations  :   134
 total energy-change (2. order) :-0.5718288E+00  (-0.1221266E-01)
 number of electron      50.0000011 magnetization       3.1856433
 augmentation part       21.5374398 magnetization       2.2058475

 Broyden mixing:
  rms(total) = 0.69114E-01    rms(broyden)= 0.69074E-01
  rms(prec ) = 0.75961E-01
  weight for this iteration     100.00

 eigenvalues of (default mixing * dielectric matrix)
  average eigenvalue GAMMA=   0.9522
  2.2070  1.4512  0.6843  0.6843  0.3870  0.2995

 Free energy of the ion-electron system (eV)
  ---------------------------------------------------
  alpha Z        PSCENC =         1.67820236
  Ewald energy   TEWEN  =      3001.34219654
  -Hartree energ DENC   =     -6939.20339101
  -exchange      EXHF   =         0.00000000
  -V(xc)+E(xc)   XCENC  =      -148.94361117
  PAW double counting   =      4603.70566268    -4294.71754682
  entropy T*S    EENTRO =         0.00776812
  eigenvalues    EBANDS =      -286.64925353
  atomic energy  EATOM  =      4048.71946290
  Solvation  Ediel_sol  =         0.00000000
  ---------------------------------------------------
  free energy    TOTEN  =       -14.06050993 eV

  energy without entropy =      -14.06827805  energy(sigma->0) =      -14.06309930


--------------------------------------------------------------------------------------------------------




--------------------------------------- Iteration      1(  12)  ---------------------------------------


    POTLOK:  cpu time    3.8921: real time    3.9009
    SETDIJ:  cpu time    0.0255: real time    0.0272
     EDDAV:  cpu time    3.6050: real time    3.6101
       DOS:  cpu time    0.0031: real time    0.0031
    CHARGE:  cpu time    0.6617: real time    0.6626
    MIXING:  cpu time    0.1165: real time    0.1167
    --------------------------------------------
      LOOP:  cpu time    8.3040: real time    8.3207

 eigenvalue-minimisations  :   140
 total energy-change (2. order) :-0.4409103E+00  (-0.6603748E-02)
 number of electron      50.0000011 magnetization       2.9566644
 augmentation part       21.5372929 magnetization       2.0072644

 Broyden mixing:
  rms(total) = 0.38543E-01    rms(broyden)= 0.38535E-01
  rms(prec ) = 0.43076E-01
  weight for this iteration     100.00

 eigenvalues of (default mixing * dielectric matrix)
  average eigenvalue GAMMA=   0.9835
  2.2765  1.6271  0.8448  0.8448  0.6273  0.3649  0.2991

 Free energy of the ion-electron system (eV)
  ---------------------------------------------------
  alpha Z        PSCENC =         1.67820236
  Ewald energy   TEWEN  =      3001.34219654
  -Hartree energ DENC   =     -6941.15634044
  -exchange      EXHF   =         0.00000000
  -V(xc)+E(xc)   XCENC  =      -149.28548802
  PAW double counting   =      4598.82772120    -4289.86323170
  entropy T*S    EENTRO =         0.01598855
  eigenvalues    EBANDS =      -284.77993158
  atomic energy  EATOM  =      4048.71946290
  Solvation  Ediel_sol  =         0.00000000
  ---------------------------------------------------
  free energy    TOTEN  =       -14.50142020 eV

  energy without entropy =      -14.51740875  energy(sigma->0) =      -14.50674972


--------------------------------------------------------------------------------------------------------




--------------------------------------- Iteration      1(  13)  ---------------------------------------


    POTLOK:  cpu time    3.9242: real time    3.9335
    SETDIJ:  cpu time    0.0222: real time    0.0222
     EDDAV:  cpu time    3.4340: real time    3.4385
       DOS:  cpu time    0.0008: real time    0.0008
    CHARGE:  cpu time    0.6255: real time    0.6266
    MIXING:  cpu time    0.1093: real time    0.1094
    --------------------------------------------
      LOOP:  cpu time    8.1160: real time    8.1310

 eigenvalue-minimisations  :   143
 total energy-change (2. order) :-0.4970912E+00  (-0.6603572E-02)
 number of electron      50.0000011 magnetization       2.7184916
 augmentation part       21.5337276 magnetization       1.7974017

 Broyden mixing:
  rms(total) = 0.30167E-01    rms(broyden)= 0.30164E-01
  rms(prec ) = 0.33559E-01
  weight for this iteration     100.00

 eigenvalues of (default mixing * dielectric matrix)
  average eigenvalue GAMMA=   1.0534
  2.1865  2.1865  1.2480  0.8556  0.6883  0.5939  0.3691  0.2990

 Free energy of the ion-electron system (eV)
  ---------------------------------------------------
  alpha Z        PSCENC =         1.67820236
  Ewald energy   TEWEN  =      3001.34219654
  -Hartree energ DENC   =     -6943.10813261
  -exchange      EXHF   =         0.00000000
  -V(xc)+E(xc)   XCENC  =      -149.69137025
  PAW double counting   =      4589.00097919    -4280.05893325
  entropy T*S    EENTRO =         0.01698538
  eigenvalues    EBANDS =      -282.89790167
  atomic energy  EATOM  =      4048.71946290
  Solvation  Ediel_sol  =         0.00000000
  ---------------------------------------------------
  free energy    TOTEN  =       -14.99851143 eV

  energy without entropy =      -15.01549681  energy(sigma->0) =      -15.00417323


--------------------------------------------------------------------------------------------------------




--------------------------------------- Iteration      1(  14)  ---------------------------------------


    POTLOK:  cpu time    3.5381: real time    3.5501
    SETDIJ:  cpu time    0.0258: real time    0.0258
     EDDAV:  cpu time    3.7518: real time    3.7577
       DOS:  cpu time    0.0025: real time    0.0025
    CHARGE:  cpu time    0.6683: real time    0.6695
    MIXING:  cpu time    0.1338: real time    0.1341
    --------------------------------------------
      LOOP:  cpu time    8.1203: real time    8.1397

 eigenvalue-minimisations  :   140
 total energy-change (2. order) :-0.4296093E+00  (-0.5307291E-02)
 number of electron      50.0000011 magnetization       2.5391126
 augmentation part       21.5320636 magnetization       1.6388273

 Broyden mixing:
  rms(total) = 0.33290E-01    rms(broyden)= 0.33282E-01
  rms(prec ) = 0.36306E-01
  weight for this iteration     100.00

 eigenvalues of (default mixing * dielectric matrix)
  average eigenvalue GAMMA=   1.1017
  2.6781  2.5932  1.4256  0.8152  0.7943  0.6180  0.3636  0.2995  0.3278

 Free energy of the ion-electron system (eV)
  ---------------------------------------------------
  alpha Z        PSCENC =         1.67820236
  Ewald energy   TEWEN  =      3001.34219654
  -Hartree energ DENC   =     -6944.64683049
  -exchange      EXHF   =         0.00000000
  -V(xc)+E(xc)   XCENC  =      -150.06173160
  PAW double counting   =      4579.12841427    -4270.21019229
  entropy T*S    EENTRO =         0.01620378
  eigenvalues    EBANDS =      -281.39384622
  atomic energy  EATOM  =      4048.71946290
  Solvation  Ediel_sol  =         0.00000000
  ---------------------------------------------------
  free energy    TOTEN  =       -15.42812076 eV

  energy without entropy =      -15.44432454  energy(sigma->0) =      -15.43352202


--------------------------------------------------------------------------------------------------------




--------------------------------------- Iteration      1(  15)  ---------------------------------------


    POTLOK:  cpu time    3.7455: real time    3.7592
    SETDIJ:  cpu time    0.0226: real time    0.0226
     EDDAV:  cpu time    3.8498: real time    3.8579
       DOS:  cpu time    0.0027: real time    0.0027
    CHARGE:  cpu time    0.6561: real time    0.6573
    MIXING:  cpu time    0.1422: real time    0.1425
    --------------------------------------------
      LOOP:  cpu time    8.4189: real time    8.4422

 eigenvalue-minimisations  :   148
 total energy-change (2. order) :-0.2417345E+00  (-0.2381410E-02)
 number of electron      50.0000011 magnetization       2.3793153
 augmentation part       21.5341960 magnetization       1.4937536

 Broyden mixing:
  rms(total) = 0.15638E-01    rms(broyden)= 0.15629E-01
  rms(prec ) = 0.17150E-01
  weight for this iteration     100.00

 eigenvalues of (default mixing * dielectric matrix)
  average eigenvalue GAMMA=   1.2074
  4.0209  2.4379  1.5230  0.9154  0.9154  0.6488  0.6488  0.3703  0.2998  0.2937

 Free energy of the ion-electron system (eV)
  ---------------------------------------------------
  alpha Z        PSCENC =         1.67820236
  Ewald energy   TEWEN  =      3001.34219654
  -Hartree energ DENC   =     -6945.58880338
  -exchange      EXHF   =         0.00000000
  -V(xc)+E(xc)   XCENC  =      -150.27982616
  PAW double counting   =      4572.56413952    -4263.66291959
  entropy T*S    EENTRO =         0.01592284
  eigenvalues    EBANDS =      -280.45823026
  atomic energy  EATOM  =      4048.71946290
  Solvation  Ediel_sol  =         0.00000000
  ---------------------------------------------------
  free energy    TOTEN  =       -15.66985524 eV

  energy without entropy =      -15.68577808  energy(sigma->0) =      -15.67516285


--------------------------------------------------------------------------------------------------------




--------------------------------------- Iteration      1(  16)  ---------------------------------------


    POTLOK:  cpu time    3.7256: real time    3.7333
    SETDIJ:  cpu time    0.0253: real time    0.0253
     EDDAV:  cpu time    3.7245: real time    3.7338
       DOS:  cpu time    0.0046: real time    0.0046
    CHARGE:  cpu time    0.6586: real time    0.6615
    MIXING:  cpu time    0.1557: real time    0.1560
    --------------------------------------------
      LOOP:  cpu time    8.2943: real time    8.3146

 eigenvalue-minimisations  :   148
 total energy-change (2. order) :-0.2500047E+00  (-0.1472174E-02)
 number of electron      50.0000011 magnetization       2.2699628
 augmentation part       21.5346153 magnetization       1.3957523

 Broyden mixing:
  rms(total) = 0.94031E-02    rms(broyden)= 0.94018E-02
  rms(prec ) = 0.10409E-01
  weight for this iteration     100.00

 eigenvalues of (default mixing * dielectric matrix)
  average eigenvalue GAMMA=   1.2554
  4.7128  2.3965  1.6547  1.1341  0.8369  0.8369  0.6498  0.6225  0.3702  0.2995
  0.2948

 Free energy of the ion-electron system (eV)
  ---------------------------------------------------
  alpha Z        PSCENC =         1.67820236
  Ewald energy   TEWEN  =      3001.34219654
  -Hartree energ DENC   =     -6946.26520446
  -exchange      EXHF   =         0.00000000
  -V(xc)+E(xc)   XCENC  =      -150.52148368
  PAW double counting   =      4569.67985344    -4260.78492621
  entropy T*S    EENTRO =         0.01674604
  eigenvalues    EBANDS =      -279.78470690
  atomic energy  EATOM  =      4048.71946290
  Solvation  Ediel_sol  =         0.00000000
  ---------------------------------------------------
  free energy    TOTEN  =       -15.91985996 eV

  energy without entropy =      -15.93660601  energy(sigma->0) =      -15.92544198


--------------------------------------------------------------------------------------------------------




--------------------------------------- Iteration      1(  17)  ---------------------------------------


    POTLOK:  cpu time    3.5701: real time    3.5765
    SETDIJ:  cpu time    0.0253: real time    0.0253
     EDDAV:  cpu time    3.8440: real time    3.8513
       DOS:  cpu time    0.0026: real time    0.0026
    CHARGE:  cpu time    0.6514: real time    0.6578
    MIXING:  cpu time    0.1744: real time    0.1747
    --------------------------------------------
      LOOP:  cpu time    8.2678: real time    8.2882

 eigenvalue-minimisations  :   140
 total energy-change (2. order) :-0.1630566E+00  (-0.5984199E-03)
 number of electron      50.0000011 magnetization       2.1837555
 augmentation part       21.5323033 magnetization       1.3163483

 Broyden mixing:
  rms(total) = 0.71697E-02    rms(broyden)= 0.71686E-02
  rms(prec ) = 0.79374E-02
  weight for this iteration     100.00

 eigenvalues of (default mixing * dielectric matrix)
  average eigenvalue GAMMA=   1.3120
  5.3724  2.2438  2.0209  1.3846  0.9461  0.9461  0.6533  0.6533  0.5571  0.3702
  0.2999  0.2956

 Free energy of the ion-electron system (eV)
  ---------------------------------------------------
  alpha Z        PSCENC =         1.67820236
  Ewald energy   TEWEN  =      3001.34219654
  -Hartree energ DENC   =     -6946.68586099
  -exchange      EXHF   =         0.00000000
  -V(xc)+E(xc)   XCENC  =      -150.68099984
  PAW double counting   =      4570.06373046    -4261.16673269
  entropy T*S    EENTRO =         0.01692032
  eigenvalues    EBANDS =      -279.36983566
  atomic energy  EATOM  =      4048.71946290
  Solvation  Ediel_sol  =         0.00000000
  ---------------------------------------------------
  free energy    TOTEN  =       -16.08291660 eV

  energy without entropy =      -16.09983692  energy(sigma->0) =      -16.08855671


--------------------------------------------------------------------------------------------------------




--------------------------------------- Iteration      1(  18)  ---------------------------------------


    POTLOK:  cpu time    3.8954: real time    3.9083
    SETDIJ:  cpu time    0.0272: real time    0.0272
     EDDAV:  cpu time    3.6666: real time    3.6720
       DOS:  cpu time    0.0021: real time    0.0021
    CHARGE:  cpu time    0.6243: real time    0.6250
    MIXING:  cpu time    0.1696: real time    0.1699
    --------------------------------------------
      LOOP:  cpu time    8.3851: real time    8.4044

 eigenvalue-minimisations  :   149
 total energy-change (2. order) :-0.1043444E+00  (-0.2981323E-03)
 number of electron      50.0000011 magnetization       2.1337351
 augmentation part       21.5323802 magnetization       1.2709602

 Broyden mixing:
  rms(total) = 0.47907E-02    rms(broyden)= 0.47901E-02
  rms(prec ) = 0.53874E-02
  weight for this iteration     100.00

 eigenvalues of (default mixing * dielectric matrix)
  average eigenvalue GAMMA=   1.3429
  5.8306  2.3560  2.3560  1.4891  0.9739  0.9739  0.7231  0.6865  0.6226  0.4807
  0.3702  0.2998  0.2954

 Free energy of the ion-electron system (eV)
  ---------------------------------------------------
  alpha Z        PSCENC =         1.67820236
  Ewald energy   TEWEN  =      3001.34219654
  -Hartree energ DENC   =     -6946.83640326
  -exchange      EXHF   =         0.00000000
  -V(xc)+E(xc)   XCENC  =      -150.78551225
  PAW double counting   =      4570.80248631    -4261.90327223
  entropy T*S    EENTRO =         0.01677514
  eigenvalues    EBANDS =      -279.22119650
  atomic energy  EATOM  =      4048.71946290
  Solvation  Ediel_sol  =         0.00000000
  ---------------------------------------------------
  free energy    TOTEN  =       -16.18726099 eV

  energy without entropy =      -16.20403613  energy(sigma->0) =      -16.19285270


--------------------------------------------------------------------------------------------------------




--------------------------------------- Iteration      1(  19)  ---------------------------------------


    POTLOK:  cpu time    3.4482: real time    3.4555
    SETDIJ:  cpu time    0.0363: real time    0.0363
     EDDAV:  cpu time    3.8493: real time    3.8591
       DOS:  cpu time    0.0062: real time    0.0062
    CHARGE:  cpu time    0.6367: real time    0.6380
    MIXING:  cpu time    0.2041: real time    0.2043
    --------------------------------------------
      LOOP:  cpu time    8.1808: real time    8.1994

 eigenvalue-minimisations  :   149
 total energy-change (2. order) :-0.5197025E-01  (-0.1068242E-03)
 number of electron      50.0000011 magnetization       2.1009460
 augmentation part       21.5328212 magnetization       1.2399568

 Broyden mixing:
  rms(total) = 0.30059E-02    rms(broyden)= 0.30051E-02
  rms(prec ) = 0.34605E-02
  weight for this iteration     100.00

 eigenvalues of (default mixing * dielectric matrix)
  average eigenvalue GAMMA=   1.3920
  6.3261  2.8548  2.4384  1.5470  1.0053  1.0053  0.9618  0.6989  0.6299  0.6299
  0.3702  0.2997  0.2953  0.4247

 Free energy of the ion-electron system (eV)
  ---------------------------------------------------
  alpha Z        PSCENC =         1.67820236
  Ewald energy   TEWEN  =      3001.34219654
  -Hartree energ DENC   =     -6946.79612538
  -exchange      EXHF   =         0.00000000
  -V(xc)+E(xc)   XCENC  =      -150.84030962
  PAW double counting   =      4571.35830452    -4262.45708948
  entropy T*S    EENTRO =         0.01667617
  eigenvalues    EBANDS =      -279.26054926
  atomic energy  EATOM  =      4048.71946290
  Solvation  Ediel_sol  =         0.00000000
  ---------------------------------------------------
  free energy    TOTEN  =       -16.23923124 eV

  energy without entropy =      -16.25590741  energy(sigma->0) =      -16.24478997


--------------------------------------------------------------------------------------------------------




--------------------------------------- Iteration      1(  20)  ---------------------------------------


    POTLOK:  cpu time    3.3404: real time    3.3480
    SETDIJ:  cpu time    0.0265: real time    0.0265
     EDDAV:  cpu time    3.2310: real time    3.2370
       DOS:  cpu time    0.0073: real time    0.0073
    CHARGE:  cpu time    0.6339: real time    0.6348
    MIXING:  cpu time    0.2117: real time    0.2121
    --------------------------------------------
      LOOP:  cpu time    7.4507: real time    7.4657

 eigenvalue-minimisations  :   133
 total energy-change (2. order) :-0.2796143E-01  (-0.4971228E-04)
 number of electron      50.0000011 magnetization       2.0831050
 augmentation part       21.5329658 magnetization       1.2223185

 Broyden mixing:
  rms(total) = 0.17293E-02    rms(broyden)= 0.17291E-02
  rms(prec ) = 0.20975E-02
  weight for this iteration     100.00

 eigenvalues of (default mixing * dielectric matrix)
  average eigenvalue GAMMA=   1.4444
  7.0793  3.2940  2.3709  1.6367  1.1272  1.1272  0.8599  0.8504  0.6659  0.6659
  0.6082  0.3702  0.2998  0.2953  0.4154

 Free energy of the ion-electron system (eV)
  ---------------------------------------------------
  alpha Z        PSCENC =         1.67820236
  Ewald energy   TEWEN  =      3001.34219654
  -Hartree energ DENC   =     -6946.69645954
  -exchange      EXHF   =         0.00000000
  -V(xc)+E(xc)   XCENC  =      -150.87171667
  PAW double counting   =      4571.73633239    -4262.83305791
  entropy T*S    EENTRO =         0.01671189
  eigenvalues    EBANDS =      -279.35886464
  atomic energy  EATOM  =      4048.71946290
  Solvation  Ediel_sol  =         0.00000000
  ---------------------------------------------------
  free energy    TOTEN  =       -16.26719267 eV

  energy without entropy =      -16.28390457  energy(sigma->0) =      -16.27276330


--------------------------------------------------------------------------------------------------------




--------------------------------------- Iteration      1(  21)  ---------------------------------------


    POTLOK:  cpu time    3.0573: real time    3.0646
    SETDIJ:  cpu time    0.0259: real time    0.0260
     EDDAV:  cpu time    2.1799: real time    2.1846
       DOS:  cpu time    0.0020: real time    0.0020
    CHARGE:  cpu time    0.4733: real time    0.4791
    MIXING:  cpu time    0.1578: real time    0.1580
    --------------------------------------------
      LOOP:  cpu time    5.8962: real time    5.9143

 eigenvalue-minimisations  :   104
 total energy-change (2. order) :-0.1073044E-01  (-0.2102239E-04)
 number of electron      50.0000011 magnetization       2.0701836
 augmentation part       21.5332545 magnetization       1.2098090

 Broyden mixing:
  rms(total) = 0.10602E-02    rms(broyden)= 0.10600E-02
  rms(prec ) = 0.13792E-02
  weight for this iteration     100.00

 eigenvalues of (default mixing * dielectric matrix)
  average eigenvalue GAMMA=   1.4703
  7.4270  3.4608  2.3707  1.6631  1.3470  1.1463  1.1463  0.8310  0.8310  0.6553
  0.6553  0.6091  0.3702  0.2998  0.2953  0.4172

 Free energy of the ion-electron system (eV)
  ---------------------------------------------------
  alpha Z        PSCENC =         1.67820236
  Ewald energy   TEWEN  =      3001.34219654
  -Hartree energ DENC   =     -6946.61964064
  -exchange      EXHF   =         0.00000000
  -V(xc)+E(xc)   XCENC  =      -150.88407603
  PAW double counting   =      4571.66103118    -4262.75707383
  entropy T*S    EENTRO =         0.01667944
  eigenvalues    EBANDS =      -279.43470502
  atomic energy  EATOM  =      4048.71946290
  Solvation  Ediel_sol  =         0.00000000
  ---------------------------------------------------
  free energy    TOTEN  =       -16.27792311 eV

  energy without entropy =      -16.29460255  energy(sigma->0) =      -16.28348292


--------------------------------------------------------------------------------------------------------




--------------------------------------- Iteration      1(  22)  ---------------------------------------


    POTLOK:  cpu time    3.0731: real time    3.0761
    SETDIJ:  cpu time    0.0305: real time    0.0305
     EDDAV:  cpu time    2.2382: real time    2.2427
       DOS:  cpu time    0.0021: real time    0.0021
    CHARGE:  cpu time    0.4762: real time    0.4768
    MIXING:  cpu time    0.1667: real time    0.1669
    --------------------------------------------
      LOOP:  cpu time    5.9867: real time    5.9951

 eigenvalue-minimisations  :   110
 total energy-change (2. order) :-0.5985322E-02  (-0.1890043E-04)
 number of electron      50.0000011 magnetization       2.0654653
 augmentation part       21.5332574 magnetization       1.2054452

 Broyden mixing:
  rms(total) = 0.64775E-03    rms(broyden)= 0.64758E-03
  rms(prec ) = 0.87867E-03
  weight for this iteration     100.00

 eigenvalues of (default mixing * dielectric matrix)
  average eigenvalue GAMMA=   1.4808
  7.5747  3.7413  2.3233  1.9949  1.6111  1.1232  1.1232  0.8628  0.8628  0.6793
  0.6793  0.6070  0.6070  0.3702  0.2998  0.2953  0.4191

 Free energy of the ion-electron system (eV)
  ---------------------------------------------------
  alpha Z        PSCENC =         1.67820236
  Ewald energy   TEWEN  =      3001.34219654
  -Hartree energ DENC   =     -6946.54135509
  -exchange      EXHF   =         0.00000000
  -V(xc)+E(xc)   XCENC  =      -150.89107879
  PAW double counting   =      4571.53286246    -4262.62851205
  entropy T*S    EENTRO =         0.01660161
  eigenvalues    EBANDS =      -279.51228838
  atomic energy  EATOM  =      4048.71946290
  Solvation  Ediel_sol  =         0.00000000
  ---------------------------------------------------
  free energy    TOTEN  =       -16.28390843 eV

  energy without entropy =      -16.30051004  energy(sigma->0) =      -16.28944230


--------------------------------------------------------------------------------------------------------




--------------------------------------- Iteration      1(  23)  ---------------------------------------


    POTLOK:  cpu time    3.2960: real time    3.3058
    SETDIJ:  cpu time    0.0235: real time    0.0235
     EDDAV:  cpu time    2.9324: real time    2.9442
       DOS:  cpu time    0.0021: real time    0.0021
    CHARGE:  cpu time    0.6573: real time    0.6584
    MIXING:  cpu time    0.2735: real time    0.2739
    --------------------------------------------
      LOOP:  cpu time    7.1848: real time    7.2080

 eigenvalue-minimisations  :    96
 total energy-change (2. order) :-0.1444714E-02  (-0.5285473E-05)
 number of electron      50.0000011 magnetization       2.0610546
 augmentation part       21.5332667 magnetization       1.2010617

 Broyden mixing:
  rms(total) = 0.42967E-03    rms(broyden)= 0.42961E-03
  rms(prec ) = 0.60263E-03
  weight for this iteration     100.00

 eigenvalues of (default mixing * dielectric matrix)
  average eigenvalue GAMMA=   1.5180
  7.7110  4.1092  2.4273  2.4273  1.6187  1.1973  1.1973  0.9436  0.9436  0.8149
  0.6974  0.6286  0.6286  0.5940  0.2998  0.2953  0.3702  0.4197

 Free energy of the ion-electron system (eV)
  ---------------------------------------------------
  alpha Z        PSCENC =         1.67820236
  Ewald energy   TEWEN  =      3001.34219654
  -Hartree energ DENC   =     -6946.48280929
  -exchange      EXHF   =         0.00000000
  -V(xc)+E(xc)   XCENC  =      -150.89325875
  PAW double counting   =      4571.49618363    -4262.59163818
  entropy T*S    EENTRO =         0.01662763
  eigenvalues    EBANDS =      -279.57031999
  atomic energy  EATOM  =      4048.71946290
  Solvation  Ediel_sol  =         0.00000000
  ---------------------------------------------------
  free energy    TOTEN  =       -16.28535315 eV

  energy without entropy =      -16.30198078  energy(sigma->0) =      -16.29089569


--------------------------------------------------------------------------------------------------------




--------------------------------------- Iteration      1(  24)  ---------------------------------------


    POTLOK:  cpu time    3.7675: real time    5.3906
    SETDIJ:  cpu time    0.0354: real time    0.0355
     EDDAV:  cpu time    2.8133: real time    2.8250
       DOS:  cpu time    0.0031: real time    0.0031
    CHARGE:  cpu time    0.6269: real time    0.6279
    MIXING:  cpu time    0.2534: real time    0.2540
    --------------------------------------------
      LOOP:  cpu time    7.4996: real time    9.1361

 eigenvalue-minimisations  :    88
 total energy-change (2. order) :-0.5716893E-03  (-0.6950947E-05)
 number of electron      50.0000011 magnetization       2.0587887
 augmentation part       21.5334230 magnetization       1.1989450

 Broyden mixing:
  rms(total) = 0.33119E-03    rms(broyden)= 0.33112E-03
  rms(prec ) = 0.43705E-03
  weight for this iteration     100.00

 eigenvalues of (default mixing * dielectric matrix)
  average eigenvalue GAMMA=   1.5169
  7.7798  4.2992  2.5972  2.4343  1.7248  1.2477  1.2477  0.9321  0.9321  0.8590
  0.8590  0.6544  0.6544  0.6069  0.6069  0.2998  0.2953  0.3702  0.4197

 Free energy of the ion-electron system (eV)
  ---------------------------------------------------
  alpha Z        PSCENC =         1.67820236
  Ewald energy   TEWEN  =      3001.34219654
  -Hartree energ DENC   =     -6946.42179501
  -exchange      EXHF   =         0.00000000
  -V(xc)+E(xc)   XCENC  =      -150.89467323
  PAW double counting   =      4571.42875843    -4262.52431183
  entropy T*S    EENTRO =         0.01663882
  eigenvalues    EBANDS =      -279.63040381
  atomic energy  EATOM  =      4048.71946290
  Solvation  Ediel_sol  =         0.00000000
  ---------------------------------------------------
  free energy    TOTEN  =       -16.28592484 eV

  energy without entropy =      -16.30256366  energy(sigma->0) =      -16.29147111


--------------------------------------------------------------------------------------------------------




--------------------------------------- Iteration      1(  25)  ---------------------------------------


    POTLOK:  cpu time    3.4260: real time    3.4316
    SETDIJ:  cpu time    0.0446: real time    0.0447
     EDDAV:  cpu time    2.8614: real time    2.8659
       DOS:  cpu time    0.0064: real time    0.0064
    CHARGE:  cpu time    0.6586: real time    0.6596
    MIXING:  cpu time    0.2933: real time    0.2956
    --------------------------------------------
      LOOP:  cpu time    7.2903: real time    7.3037

 eigenvalue-minimisations  :    88
 total energy-change (2. order) :-0.3531439E-03  (-0.3487037E-05)
 number of electron      50.0000011 magnetization       2.0574915
 augmentation part       21.5333586 magnetization       1.1977594

 Broyden mixing:
  rms(total) = 0.21316E-03    rms(broyden)= 0.21308E-03
  rms(prec ) = 0.28700E-03
  weight for this iteration     100.00

 eigenvalues of (default mixing * dielectric matrix)
  average eigenvalue GAMMA=   1.5277
  7.7738  4.6248  2.8312  2.1815  2.1815  1.2959  1.1597  1.1597  0.9723  0.9723
  0.7673  0.7673  0.2998  0.2953  0.3702  0.6334  0.6334  0.6071  0.6071  0.4198

 Free energy of the ion-electron system (eV)
  ---------------------------------------------------
  alpha Z        PSCENC =         1.67820236
  Ewald energy   TEWEN  =      3001.34219654
  -Hartree energ DENC   =     -6946.39215420
  -exchange      EXHF   =         0.00000000
  -V(xc)+E(xc)   XCENC  =      -150.89542643
  PAW double counting   =      4571.42005338    -4262.51557897
  entropy T*S    EENTRO =         0.01661052
  eigenvalues    EBANDS =      -279.65964406
  atomic energy  EATOM  =      4048.71946290
  Solvation  Ediel_sol  =         0.00000000
  ---------------------------------------------------
  free energy    TOTEN  =       -16.28627798 eV

  energy without entropy =      -16.30288850  energy(sigma->0) =      -16.29181482


--------------------------------------------------------------------------------------------------------




--------------------------------------- Iteration      1(  26)  ---------------------------------------


    POTLOK:  cpu time    3.7582: real time    3.7677
    SETDIJ:  cpu time    0.0235: real time    0.0235
     EDDAV:  cpu time    2.7824: real time    2.7871
       DOS:  cpu time    0.0024: real time    0.0024
    CHARGE:  cpu time    0.6274: real time    0.6283
    MIXING:  cpu time    0.3210: real time    0.3219
    --------------------------------------------
      LOOP:  cpu time    7.5149: real time    7.5309

 eigenvalue-minimisations  :    88
 total energy-change (2. order) :-0.2805581E-03  (-0.2205500E-05)
 number of electron      50.0000011 magnetization       2.0563492
 augmentation part       21.5333997 magnetization       1.1966888

 Broyden mixing:
  rms(total) = 0.14629E-03    rms(broyden)= 0.14626E-03
  rms(prec ) = 0.19291E-03
  weight for this iteration     100.00

 eigenvalues of (default mixing * dielectric matrix)
  average eigenvalue GAMMA=   1.5448
  7.8232  4.9174  3.0918  2.3129  2.3129  1.4878  1.1746  1.1746  0.9330  0.9330
  0.8588  0.8588  0.2998  0.2953  0.3702  0.4198  0.6889  0.6519  0.6519  0.6034
  0.5802

 Free energy of the ion-electron system (eV)
  ---------------------------------------------------
  alpha Z        PSCENC =         1.67820236
  Ewald energy   TEWEN  =      3001.34219654
  -Hartree energ DENC   =     -6946.36316693
  -exchange      EXHF   =         0.00000000
  -V(xc)+E(xc)   XCENC  =      -150.89616903
  PAW double counting   =      4571.44583905    -4262.54122926
  entropy T*S    EENTRO =         0.01660960
  eigenvalues    EBANDS =      -279.68830377
  atomic energy  EATOM  =      4048.71946290
  Solvation  Ediel_sol  =         0.00000000
  ---------------------------------------------------
  free energy    TOTEN  =       -16.28655854 eV

  energy without entropy =      -16.30316814  energy(sigma->0) =      -16.29209507


--------------------------------------------------------------------------------------------------------




--------------------------------------- Iteration      1(  27)  ---------------------------------------


    POTLOK:  cpu time    3.9734: real time    3.9891
    SETDIJ:  cpu time    0.0378: real time    0.0378
     EDDAV:  cpu time    2.5758: real time    2.5817
       DOS:  cpu time    0.0069: real time    0.0069
    CHARGE:  cpu time    0.6705: real time    0.6716
    MIXING:  cpu time    0.3376: real time    0.3381
    --------------------------------------------
      LOOP:  cpu time    7.6020: real time    7.6252

 eigenvalue-minimisations  :    88
 total energy-change (2. order) :-0.2169661E-03  (-0.1919504E-05)
 number of electron      50.0000011 magnetization       2.0558045
 augmentation part       21.5334581 magnetization       1.1962118

 Broyden mixing:
  rms(total) = 0.81690E-04    rms(broyden)= 0.81668E-04
  rms(prec ) = 0.11174E-03
  weight for this iteration     100.00

 eigenvalues of (default mixing * dielectric matrix)
  average eigenvalue GAMMA=   1.5813
  7.8259  5.5037  3.4255  2.4831  2.4831  1.5806  1.2142  1.2142  1.0053  1.0053
  0.8852  0.8852  0.2998  0.2953  0.3702  0.4198  0.7024  0.7024  0.6518  0.6518
  0.5917  0.5917

 Free energy of the ion-electron system (eV)
  ---------------------------------------------------
  alpha Z        PSCENC =         1.67820236
  Ewald energy   TEWEN  =      3001.34219654
  -Hartree energ DENC   =     -6946.34123367
  -exchange      EXHF   =         0.00000000
  -V(xc)+E(xc)   XCENC  =      -150.89680002
  PAW double counting   =      4571.44881136    -4262.54408283
  entropy T*S    EENTRO =         0.01661142
  eigenvalues    EBANDS =      -279.70994355
  atomic energy  EATOM  =      4048.71946290
  Solvation  Ediel_sol  =         0.00000000
  ---------------------------------------------------
  free energy    TOTEN  =       -16.28677550 eV

  energy without entropy =      -16.30338693  energy(sigma->0) =      -16.29231265


--------------------------------------------------------------------------------------------------------




--------------------------------------- Iteration      1(  28)  ---------------------------------------


    POTLOK:  cpu time    3.6609: real time    3.6661
    SETDIJ:  cpu time    0.0314: real time    0.0315
     EDDAV:  cpu time    2.6880: real time    2.6933
       DOS:  cpu time    0.0052: real time    0.0052
    CHARGE:  cpu time    0.6408: real time    0.6416
    MIXING:  cpu time    0.3329: real time    0.3335
    --------------------------------------------
      LOOP:  cpu time    7.3592: real time    7.3712

 eigenvalue-minimisations  :   104
 total energy-change (2. order) :-0.1139412E-03  (-0.8231108E-06)
 number of electron      50.0000011 magnetization       2.0555244
 augmentation part       21.5334710 magnetization       1.1959818

 Broyden mixing:
  rms(total) = 0.62669E-04    rms(broyden)= 0.62651E-04
  rms(prec ) = 0.79615E-04
  weight for this iteration     100.00

 eigenvalues of (default mixing * dielectric matrix)
  average eigenvalue GAMMA=   1.6133
  7.8171  6.2881  3.7188  2.7497  2.3533  1.7498  1.2232  1.2232  1.1078  1.1078
  0.8681  0.8681  0.2998  0.2953  0.3702  0.7950  0.7950  0.4198  0.6420  0.6330
  0.6330  0.5742  0.5742

 Free energy of the ion-electron system (eV)
  ---------------------------------------------------
  alpha Z        PSCENC =         1.67820236
  Ewald energy   TEWEN  =      3001.34219654
  -Hartree energ DENC   =     -6946.32850212
  -exchange      EXHF   =         0.00000000
  -V(xc)+E(xc)   XCENC  =      -150.89714945
  PAW double counting   =      4571.46152689    -4262.55663967
  entropy T*S    EENTRO =         0.01660044
  eigenvalues    EBANDS =      -279.72258733
  atomic energy  EATOM  =      4048.71946290
  Solvation  Ediel_sol  =         0.00000000
  ---------------------------------------------------
  free energy    TOTEN  =       -16.28688945 eV

  energy without entropy =      -16.30348989  energy(sigma->0) =      -16.29242293


--------------------------------------------------------------------------------------------------------




--------------------------------------- Iteration      1(  29)  ---------------------------------------


    POTLOK:  cpu time    3.6971: real time    3.7097
    SETDIJ:  cpu time    0.0364: real time    0.0364
     EDDAV:  cpu time    2.4387: real time    2.4426
       DOS:  cpu time    0.0034: real time    0.0034
    --------------------------------------------
      LOOP:  cpu time    6.1756: real time    6.1922

 eigenvalue-minimisations  :    88
 total energy-change (2. order) :-0.3915826E-04  (-0.4561291E-06)
 number of electron      50.0000011 magnetization       2.0555244
 augmentation part       21.5334710 magnetization       1.1959818

 Free energy of the ion-electron system (eV)
  ---------------------------------------------------
  alpha Z        PSCENC =         1.67820236
  Ewald energy   TEWEN  =      3001.34219654
  -Hartree energ DENC   =     -6946.32372485
  -exchange      EXHF   =         0.00000000
  -V(xc)+E(xc)   XCENC  =      -150.89727438
  PAW double counting   =      4571.47095703    -4262.56595315
  entropy T*S    EENTRO =         0.01659861
  eigenvalues    EBANDS =      -279.72739366
  atomic energy  EATOM  =      4048.71946290
  Solvation  Ediel_sol  =         0.00000000
  ---------------------------------------------------
  free energy    TOTEN  =       -16.28692860 eV

  energy without entropy =      -16.30352722  energy(sigma->0) =      -16.29246148


--------------------------------------------------------------------------------------------------------




 average (electrostatic) potential at core
  the test charge radii are     1.1199
  (the norm of the test charge is              1.0000)
       1 -83.3055       2 -83.3094       3 -83.2576       4 -83.3073       5 -83.3054
 
 
 
 E-fermi :  -3.8051     XC(G=0):  -0.2865     alpha+bet : -0.1268


 spin component 1

 k-point     1 :       0.0000    0.0000    0.0000
  band No.  band energies     occupation 
      1      -8.0378      1.00000
      2      -7.4621      1.00000
      3      -7.2252      1.00000
      4      -7.1903      1.00000
      5      -6.7779      1.00000
      6      -6.7257      1.00000
      7      -6.5975      1.00000
      8      -6.5719      1.00000
      9      -6.5336      1.00000
     10      -6.3823      1.00000
     11      -5.8632      1.00000
     12      -5.6476      1.00000
     13      -5.5474      1.00000
     14      -5.3022      1.00000
     15      -5.2989      1.00000
     16      -4.9015      1.00000
     17      -4.8829      1.00000
     18      -4.8739      1.00000
     19      -4.6870      1.00000
     20      -4.6620      1.00000
     21      -4.4623      1.00002
     22      -4.3678      1.00026
     23      -4.2457      1.00393
     24      -4.2447      1.00401
     25      -4.2393      1.00443
     26      -4.1621      1.01501
     27      -3.2125     -0.00011
     28      -3.1769     -0.00004
     29      -2.5137     -0.00000
     30      -1.2153     -0.00000
     31      -0.9006     -0.00000
     32      -0.6914     -0.00000
     33      -0.1166     -0.00000

 spin component 2

 k-point     1 :       0.0000    0.0000    0.0000
  band No.  band energies     occupation 
      1      -7.9491      1.00000
      2      -7.0758      1.00000
      3      -7.0309      1.00000
      4      -6.9912      1.00000
      5      -6.6184      1.00000
      6      -6.4233      1.00000
      7      -6.3086      1.00000
      8      -6.1900      1.00000
      9      -6.1639      1.00000
     10      -5.9486      1.00000
     11      -5.7574      1.00000
     12      -5.4436      1.00000
     13      -5.3502      1.00000
     14      -5.1071      1.00000
     15      -5.1026      1.00000
     16      -4.7424      1.00000
     17      -4.6792      1.00000
     18      -4.6668      1.00000
     19      -4.5116      1.00000
     20      -4.4653      1.00002
     21      -4.2691      1.00249
     22      -4.1712      1.01330
     23      -3.9434      0.95682
     24      -3.9311      0.93293
     25      -3.6786      0.06579
     26      -3.6378      0.00115
     27      -3.0581     -0.00000
     28      -3.0227     -0.00000
     29      -2.4516     -0.00000
     30      -1.0686     -0.00000
     31      -0.8593     -0.00000
     32      -0.6239     -0.00000
     33      -0.0893     -0.00000


[...]
  rms(total) = 0.77716E-02    rms(broyden)= 0.77690E-02
  rms(prec ) = 0.78887E-02
  weight for this iteration     100.00

 eigenvalues of (default mixing * dielectric matrix)
  average eigenvalue GAMMA=   0.9130
  0.9130

 Free energy of the ion-electron system (eV)
  ---------------------------------------------------
  alpha Z        PSCENC =         1.67820236
  Ewald energy   TEWEN  =      2858.24369043
  -Hartree energ DENC   =     -6809.23321874
  -exchange      EXHF   =         0.00000000
  -V(xc)+E(xc)   XCENC  =      -151.39292710
  PAW double counting   =      4463.64586255    -4153.25605525
  entropy T*S    EENTRO =         0.00538038
  eigenvalues    EBANDS =      -274.82171262
  atomic energy  EATOM  =      4048.71946290
  Solvation  Ediel_sol  =         0.00000000
  ---------------------------------------------------
  free energy    TOTEN  =       -16.41131509 eV

  energy without entropy =      -16.41669547  energy(sigma->0) =      -16.41310855


--------------------------------------------------------------------------------------------------------




--------------------------------------- Iteration      3(   3)  ---------------------------------------


    POTLOK:  cpu time    3.7344: real time    3.7440
    SETDIJ:  cpu time    0.0337: real time    0.0338
     EDDAV:  cpu time    3.3707: real time    3.3800
       DOS:  cpu time    0.0022: real time    0.0022
    CHARGE:  cpu time    0.6643: real time    0.6654
    MIXING:  cpu time    0.0820: real time    0.0821
    --------------------------------------------
      LOOP:  cpu time    7.8873: real time    7.9076

 eigenvalue-minimisations  :   120
 total energy-change (2. order) :-0.1445720E-03  (-0.3333839E-04)
 number of electron      50.0000046 magnetization       2.0542806
 augmentation part       21.5768487 magnetization       1.1942921

 Broyden mixing:
  rms(total) = 0.65100E-02    rms(broyden)= 0.65088E-02
  rms(prec ) = 0.67581E-02
  weight for this iteration     100.00

 eigenvalues of (default mixing * dielectric matrix)
  average eigenvalue GAMMA=   0.9316
  1.3207  0.5425

 Free energy of the ion-electron system (eV)
  ---------------------------------------------------
  alpha Z        PSCENC =         1.67820236
  Ewald energy   TEWEN  =      2858.24369043
  -Hartree energ DENC   =     -6809.13815606
  -exchange      EXHF   =         0.00000000
  -V(xc)+E(xc)   XCENC  =      -151.39376211
  PAW double counting   =      4465.07240182    -4154.70501194
  entropy T*S    EENTRO =         0.00457541
  eigenvalues    EBANDS =      -274.89286246
  atomic energy  EATOM  =      4048.71946290
  Solvation  Ediel_sol  =         0.00000000
  ---------------------------------------------------
  free energy    TOTEN  =       -16.41145966 eV

  energy without entropy =      -16.41603507  energy(sigma->0) =      -16.41298480


--------------------------------------------------------------------------------------------------------




--------------------------------------- Iteration      3(   4)  ---------------------------------------


    POTLOK:  cpu time    4.0846: real time    4.0934
    SETDIJ:  cpu time    0.0377: real time    0.0377
     EDDAV:  cpu time    2.7481: real time    2.7529
       DOS:  cpu time    0.0061: real time    0.0061
    --------------------------------------------
      LOOP:  cpu time    6.8765: real time    6.8902

 eigenvalue-minimisations  :    88
 total energy-change (2. order) :-0.8097340E-04  (-0.1071040E-04)
 number of electron      50.0000046 magnetization       2.0542806
 augmentation part       21.5768487 magnetization       1.1942921

 Free energy of the ion-electron system (eV)
  ---------------------------------------------------
  alpha Z        PSCENC =         1.67820236
  Ewald energy   TEWEN  =      2858.24369043
  -Hartree energ DENC   =     -6809.10553675
  -exchange      EXHF   =         0.00000000
  -V(xc)+E(xc)   XCENC  =      -151.39462559
  PAW double counting   =      4466.02732298    -4155.67399566
  entropy T*S    EENTRO =         0.00543255
  eigenvalues    EBANDS =      -274.91149385
  atomic energy  EATOM  =      4048.71946290
  Solvation  Ediel_sol  =         0.00000000
  ---------------------------------------------------
  free energy    TOTEN  =       -16.41154063 eV

  energy without entropy =      -16.41697318  energy(sigma->0) =      -16.41335148


--------------------------------------------------------------------------------------------------------




 average (electrostatic) potential at core
  the test charge radii are     1.1199
  (the norm of the test charge is              1.0000)
       1 -83.2470       2 -83.2488       3 -83.1819       4 -83.2517       5 -83.2419
 
 
 
 E-fermi :  -3.8970     XC(G=0):  -0.2735     alpha+bet : -0.1268


 spin component 1

 k-point     1 :       0.0000    0.0000    0.0000
  band No.  band energies     occupation 
      1      -7.6986      1.00000
      2      -7.2031      1.00000
      3      -6.9438      1.00000
      4      -6.9149      1.00000
      5      -6.6056      1.00000
      6      -6.5151      1.00000
      7      -6.4304      1.00000
      8      -6.4116      1.00000
      9      -6.3262      1.00000
     10      -6.1539      1.00000
     11      -5.7260      1.00000
     12      -5.5507      1.00000
     13      -5.4628      1.00000
     14      -5.2509      1.00000
     15      -5.2495      1.00000
     16      -4.8740      1.00000
     17      -4.8714      1.00000
     18      -4.8561      1.00000
     19      -4.7046      1.00000
     20      -4.6729      1.00000
     21      -4.4930      1.00010
     22      -4.4172      1.00073
     23      -4.3346      1.00416
     24      -4.3332      1.00427
     25      -4.3306      1.00448
     26      -4.2630      1.01332
     27      -3.2248     -0.00001
     28      -3.1898     -0.00000
     29      -2.5479     -0.00000
     30      -1.2955     -0.00000
     31      -0.9229     -0.00000
     32      -0.7193     -0.00000
     33      -0.1668     -0.00000

 spin component 2

 k-point     1 :       0.0000    0.0000    0.0000
  band No.  band energies     occupation 
      1      -7.6130      1.00000
      2      -6.7928      1.00000
      3      -6.7286      1.00000
      4      -6.6951      1.00000
      5      -6.4309      1.00000
      6      -6.2364      1.00000
      7      -6.1164      1.00000
      8      -6.0332      1.00000
      9      -6.0117      1.00000
     10      -5.7322      1.00000
     11      -5.6152      1.00000
     12      -5.3505      1.00000
     13      -5.2686      1.00000
     14      -5.0590      1.00000
     15      -5.0509      1.00000
     16      -4.7373      1.00000
     17      -4.6567      1.00000
     18      -4.6446      1.00000
     19      -4.5345      1.00003
     20      -4.4719      1.00019
     21      -4.3035      1.00719
     22      -4.2240      1.02146
     23      -4.0160      0.91758
     24      -4.0077      0.89805
     25      -3.7968      0.12923
     26      -3.7279     -0.00078
     27      -3.0694     -0.00000
     28      -3.0350     -0.00000
     29      -2.4787     -0.00000
     30      -1.1493     -0.00000
     31      -0.8787     -0.00000
     32      -0.6534     -0.00000
     33      -0.1352     -0.00000


--------------------------------------------------------------------------------------------------------


 soft charge-density along one line, spin component            1
         0         1         2         3         4         5         6         7         8         9
 total charge-density along one line
 
 soft charge-density along one line, spin component            2
         0         1         2         3         4         5         6         7         8         9
 total charge-density along one line
 
 pseudopotential strength for first ion, spin component:            1
 -8.347  -0.001   0.023  -0.019  -0.012  -8.325  -0.001   0.022
 -0.001  -8.435  -0.049  -0.098   0.017  -0.001  -8.409  -0.047
  0.023  -0.049  -8.438   0.005  -0.032   0.022  -0.047  -8.412
 -0.019  -0.098   0.005  -8.493   0.066  -0.018  -0.094   0.005
 -0.012   0.017  -0.032   0.066  -8.373  -0.012   0.016  -0.031
 -8.325  -0.001   0.022  -0.018  -0.012  -8.280  -0.001   0.021
 -0.001  -8.409  -0.047  -0.094   0.016  -0.001  -8.361  -0.045
  0.022  -0.047  -8.412   0.005  -0.031   0.021  -0.045  -8.363
 -0.018  -0.094   0.005  -8.465   0.063  -0.017  -0.090   0.004
 -0.012   0.016  -0.031   0.063  -8.350  -0.011   0.015  -0.030
  0.028   0.013   0.021  -0.014  -0.003   0.027   0.013   0.020
  0.047   0.022   0.035  -0.024  -0.005   0.046   0.022   0.034
  0.023  -0.002  -0.018  -0.000  -0.031   0.022  -0.002  -0.018
 -0.000   0.029  -0.003   0.020   0.001  -0.000   0.028  -0.002
  0.030  -0.000  -0.015   0.000   0.023   0.029  -0.000  -0.014
  0.025  -0.002  -0.021  -0.001  -0.034   0.024  -0.002  -0.020
 -0.001   0.032  -0.003   0.022   0.001  -0.000   0.031  -0.003
  0.034  -0.001  -0.017   0.000   0.026   0.033  -0.000  -0.016
 pseudopotential strength for first ion, spin component:            2
 -8.219   0.024   0.054  -0.019   0.003  -8.203   0.023   0.051
  0.024  -8.268  -0.007  -0.036   0.019   0.023  -8.249  -0.006
  0.054  -0.007  -8.283   0.013  -0.003   0.051  -0.006  -8.263
 -0.019  -0.036   0.013  -8.251   0.015  -0.018  -0.034   0.012
  0.003   0.019  -0.003   0.015  -8.217   0.003   0.018  -0.003
 -8.203   0.023   0.051  -0.018   0.003  -8.163   0.022   0.049
  0.023  -8.249  -0.006  -0.034   0.018   0.022  -8.208  -0.006
  0.051  -0.006  -8.263   0.012  -0.003   0.049  -0.006  -8.221
 -0.018  -0.034   0.012  -8.233   0.014  -0.017  -0.033   0.012
  0.003   0.018  -0.003   0.014  -8.201   0.003   0.017  -0.003
  0.020   0.007   0.009  -0.009  -0.004   0.020   0.007   0.008
  0.035   0.012   0.015  -0.014  -0.007   0.034   0.011   0.014
  0.024  -0.002  -0.019   0.000  -0.033   0.023  -0.002  -0.018
  0.000   0.033  -0.001   0.025   0.000   0.000   0.031  -0.001
  0.032   0.000  -0.014  -0.001   0.026   0.031   0.000  -0.013
  0.027  -0.002  -0.022   0.000  -0.038   0.026  -0.002  -0.021
  0.000   0.038  -0.001   0.030   0.000   0.000   0.036  -0.001
  0.037   0.000  -0.016  -0.002   0.030   0.035   0.000  -0.015
 total augmentation occupancy for first ion, spin component:            1
  2.078  -0.108  -0.234  -0.025  -0.090  -0.574   0.051   0.213   0.013   0.061  -0.866   0.210   0.138  -0.007   0.122   0.020
 -0.108   2.007  -0.141  -0.014  -0.039   0.043  -0.680  -0.024  -0.284   0.038  -0.182   0.057   0.013   0.122   0.005  -0.002
 -0.234  -0.141   1.872  -0.053  -0.019   0.203  -0.022  -0.490   0.037  -0.130  -0.157   0.063  -0.047   0.001  -0.022  -0.017
 -0.025  -0.014  -0.053   1.590   0.142   0.013  -0.271   0.031  -0.492   0.055   0.311  -0.081  -0.018   0.105  -0.026  -0.002
 -0.090  -0.039  -0.019   0.142   2.023   0.055   0.037  -0.121   0.057  -0.655   0.341  -0.064  -0.132  -0.008   0.060  -0.030
 -0.574   0.043   0.203   0.013   0.055   0.990  -0.018  -0.208  -0.007  -0.049   0.524  -0.062  -0.182  -0.004  -0.191   0.021
  0.051  -0.680  -0.022  -0.271   0.037  -0.018   1.200   0.114   0.455  -0.038   0.091  -0.001  -0.009  -0.231  -0.009   0.000
  0.213  -0.024  -0.490   0.031  -0.121  -0.208   0.114   0.967  -0.024   0.216   0.064   0.014   0.091  -0.022   0.027  -0.013
  0.013  -0.284   0.037  -0.492   0.057  -0.007   0.455  -0.024   1.124  -0.166  -0.185   0.016   0.001  -0.232   0.056   0.000
  0.061   0.038  -0.130   0.055  -0.655  -0.049  -0.038   0.216  -0.166   1.157  -0.252   0.038   0.219   0.028  -0.118  -0.025
 -0.866  -0.182  -0.157   0.311   0.341   0.524   0.091   0.064  -0.185  -0.252   1.574  -0.239  -0.263   0.010  -0.198   0.016
  0.210   0.057   0.063  -0.081  -0.064  -0.062  -0.001   0.014   0.016   0.038  -0.239   0.047   0.036  -0.002   0.024  -0.001
  0.138   0.013  -0.047  -0.018  -0.132  -0.182  -0.009   0.091   0.001   0.219  -0.263   0.036   0.092   0.004   0.024  -0.010
 -0.007   0.122   0.001   0.105  -0.008  -0.004  -0.231  -0.022  -0.232   0.028   0.010  -0.002   0.004   0.085  -0.008  -0.000
  0.122   0.005  -0.022  -0.026   0.060  -0.191  -0.009   0.027   0.056  -0.118  -0.198   0.024   0.024  -0.008   0.069  -0.003
  0.020  -0.002  -0.017  -0.002  -0.030   0.021   0.000  -0.013   0.000  -0.025   0.016  -0.001  -0.010  -0.000  -0.003   0.003
 -0.001   0.027  -0.005   0.015   0.004   0.001   0.025   0.002   0.025  -0.003  -0.001   0.000  -0.000  -0.008   0.001  -0.000
  0.031   0.000  -0.019   0.005   0.032   0.023   0.001  -0.005  -0.006   0.012   0.012   0.000  -0.003   0.001  -0.007   0.001
 total augmentation occupancy for first ion, spin component:            2
  0.124   0.106   0.132   0.009   0.059  -0.039  -0.048  -0.061  -0.004  -0.025  -0.050   0.026  -0.005   0.007   0.004  -0.000
  0.106   0.381   0.214   0.344  -0.023  -0.039  -0.159  -0.090  -0.149   0.016  -0.042   0.023   0.001   0.035   0.000  -0.001
  0.132   0.214   0.314   0.029   0.128  -0.048  -0.091  -0.124  -0.014  -0.046  -0.073   0.042  -0.006   0.014   0.011  -0.004
  0.009   0.344   0.029   0.751  -0.262  -0.004  -0.162  -0.007  -0.318   0.115   0.033  -0.019   0.014   0.054  -0.016   0.004
  0.059  -0.023   0.128  -0.262   0.253  -0.018   0.019  -0.052   0.112  -0.090  -0.019   0.011  -0.007  -0.015   0.009  -0.006
 -0.039  -0.039  -0.048  -0.004  -0.018  -0.018   0.015   0.020   0.000   0.005   0.008  -0.001   0.003  -0.001   0.002  -0.000
 -0.048  -0.159  -0.091  -0.162   0.019   0.015   0.029   0.031   0.059  -0.011   0.004  -0.002  -0.001  -0.010   0.001   0.000
 -0.061  -0.090  -0.124  -0.007  -0.052   0.020   0.031   0.012   0.003   0.014   0.004  -0.003   0.001  -0.003  -0.003   0.002
 -0.004  -0.149  -0.014  -0.318   0.112   0.000   0.059   0.003   0.084  -0.040  -0.002   0.001  -0.005  -0.014   0.004  -0.002
 -0.025   0.016  -0.046   0.115  -0.090   0.005  -0.011   0.014  -0.040  -0.004   0.002  -0.003  -0.002   0.006   0.000   0.003
 -0.050  -0.042  -0.073   0.033  -0.019   0.008   0.004   0.004  -0.002   0.002  -0.017  -0.007   0.006  -0.000   0.005   0.001
  0.026   0.023   0.042  -0.019   0.011  -0.001  -0.002  -0.003   0.001  -0.003  -0.007   0.007  -0.002   0.000  -0.001  -0.000
 -0.005   0.001  -0.006   0.014  -0.007   0.003  -0.001   0.001  -0.005  -0.002   0.006  -0.002  -0.001   0.001  -0.001   0.000
  0.007   0.035   0.014   0.054  -0.015  -0.001  -0.010  -0.003  -0.014   0.006  -0.000   0.000   0.001   0.002  -0.001   0.000
  0.004   0.000   0.011  -0.016   0.009   0.002   0.001  -0.003   0.004   0.000   0.005  -0.001  -0.001  -0.001  -0.001  -0.000
 -0.000  -0.001  -0.004   0.004  -0.006  -0.000   0.000   0.002  -0.002   0.003   0.001  -0.000   0.000   0.000  -0.000   0.000
  0.002   0.011   0.004   0.015  -0.003  -0.001  -0.005  -0.001  -0.007   0.001  -0.000   0.000   0.000   0.001  -0.000   0.000
  0.003   0.000   0.002  -0.004   0.005  -0.001   0.000  -0.001   0.002  -0.002  -0.001   0.001  -0.000  -0.000   0.000  -0.000


------------------------ aborting loop because EDIFF is reached ----------------------------------------


    CHARGE:  cpu time    0.6256: real time    0.6283
    FORLOC:  cpu time    0.0556: real time    0.0557
    FORNL :  cpu time    0.7789: real time    0.7798
    FORCOR:  cpu time    3.6974: real time    3.7080
    FORHAR:  cpu time    0.4427: real time    0.4434
    MIXING:  cpu time    0.0791: real time    0.0810
    OFIELD:  cpu time    0.0000: real time    0.0000

 VOLUME and BASIS-vectors are now :
 -----------------------------------------------------------------------------
  energy-cutoff  :      400.00
  volume of cell :     9709.08
      direct lattice vectors                 reciprocal lattice vectors
    21.733575993  0.000000000  0.000000000     0.046011756  0.000000000  0.000000000
     0.000000000 20.728580971  0.000000000     0.000000000  0.048242569  0.000000000
     0.000000000  0.000000000 21.551497780     0.000000000  0.000000000  0.046400487

  length of vectors
    21.733575993 20.728580971 21.551497780     0.046011756  0.048242569  0.046400487


 FORCES acting on ions
    electron-ion (+dipol)            ewald-force                    non-local-force                 convergence-correction
 -----------------------------------------------------------------------------------------------
   -.375E+03 -.446E+03 0.952E+01   0.370E+03 0.440E+03 -.942E+01   0.468E+01 0.595E+01 -.188E+00   -.236E-01 0.402E-01 0.911E-01
   0.547E+03 0.191E+03 0.752E+02   -.539E+03 -.188E+03 -.742E+02   -.717E+01 -.223E+01 -.104E+01   -.440E-01 0.265E-01 0.894E-01
   -.323E+03 0.483E+03 -.160E+03   0.319E+03 -.477E+03 0.158E+03   0.404E+01 -.601E+01 0.198E+01   -.420E-01 0.421E-01 0.736E-01
   -.355E+02 -.891E+01 0.583E+03   0.352E+02 0.862E+01 -.576E+03   0.331E+00 0.293E+00 -.761E+01   -.210E-01 0.152E-01 0.347E-01
   0.188E+03 -.220E+03 -.508E+03   -.186E+03 0.217E+03 0.501E+03   -.257E+01 0.304E+01 0.651E+01   -.306E-01 0.274E-01 0.486E-01
 -----------------------------------------------------------------------------------------------
   0.850E+00 -.120E+01 0.712E-02   0.000E+00 -.284E-13 -.568E-13   -.686E+00 0.104E+01 -.352E+00   -.161E+00 0.151E+00 0.337E+00
 
 
 POSITION                                       TOTAL-FORCE (eV/Angst)
 -----------------------------------------------------------------------------------
     12.36781     11.39552     10.60569        -0.006842      0.000316      0.009661
      9.43515      9.36169     10.39827        -0.001194      0.017573      0.003259
     11.94553      8.81263     11.02145         0.045456     -0.047898      0.016638
     11.28504     10.00728      8.75425        -0.026567      0.019068      0.015614
     10.56386     10.68675     12.27363        -0.010853      0.010941     -0.045172
 -----------------------------------------------------------------------------------
    total drift:                                0.002833     -0.001925     -0.007626


--------------------------------------------------------------------------------------------------------



  FREE ENERGIE OF THE ION-ELECTRON SYSTEM (eV)
  ---------------------------------------------------
  free  energy   TOTEN  =       -16.41154063 eV

  energy  without entropy=      -16.41697318  energy(sigma->0) =      -16.41335148
 
 d Force = 0.4980998E-03[-0.166E-03, 0.116E-02]  d Energy = 0.8241857E-03-0.326E-03
 d Force =-0.1024361E+02[-0.103E+02,-0.102E+02]  d Ewald  =-0.1024359E+02-0.205E-04


--------------------------------------------------------------------------------------------------------


    POTLOK:  cpu time    3.8999: real time    3.9112


--------------------------------------------------------------------------------------------------------




--------------------------------------------------------------------------------------------------------


  
 reached required accuracy - stopping structural energy minimisation
     LOOP+:  cpu time   40.9792: real time   41.1699
    4ORBIT:  cpu time    0.0000: real time    0.0000

 total amount of memory used by VASP MPI-rank0   194721. kBytes
=======================================================================

   base      :      30000. kBytes
   nonl-proj :       2468. kBytes
   fftplans  :      46129. kBytes
   grid      :     104464. kBytes
   one-center:         15. kBytes
   wavefun   :      11645. kBytes
 
  
  
 General timing and accounting informations for this job:
 ========================================================
  
                  Total CPU time used (sec):      403.446
                            User time (sec):      398.440
                          System time (sec):        5.006
                         Elapsed time (sec):      421.221
  
                   Maximum memory used (kb):      395320.
                   Average memory used (kb):           0.
  
                          Minor page faults:      1241780
                          Major page faults:         7005
                 Voluntary context switches:         4210
