unknown system                          
            1
    21.733576    0.000000    0.000000
     0.000000   20.728581    0.000000
     0.000000    0.000000   21.551498
   Pd
     5
Direct configuration=     1
   0.56789562  0.54798974  0.49215577
   0.43611269  0.45211099  0.48279651
   0.54801050  0.42759383  0.51062903
   0.51928375  0.48257480  0.40822336
   0.48683087  0.51458870  0.56789403
Direct configuration=     2
   0.56915107  0.54987918  0.49210584
   0.43398133  0.45159669  0.48246189
   0.54975477  0.42496306  0.51145773
   0.51924138  0.48279169  0.40605219
   0.48600486  0.51562744  0.56962103
Direct configuration=     3
   0.56906483  0.54974940  0.49210927
   0.43412773  0.45163202  0.48248488
   0.54963496  0.42514377  0.51140081
   0.51924429  0.48277679  0.40620133
   0.48606160  0.51555609  0.56950241
