  10  10   0   0
  0.1242953E+04  0.2290913E-08  0.2533460E-08  0.2141569E-08  0.5000000E-15
   1.0000000000000000E-004
  CAR 
 unknown system                          
      1.85470630    -11.93078989  301     -4.12730171      1.00000000
    -11.931  0.0000E+00  0.0000E+00  0.0000E+00  0.0000E+00
    -11.885  0.0000E+00  0.0000E+00  0.0000E+00  0.0000E+00
    -11.839  0.0000E+00  0.0000E+00  0.0000E+00  0.0000E+00
    -11.793  0.0000E+00  0.0000E+00  0.0000E+00  0.0000E+00
    -11.747  0.0000E+00  0.0000E+00  0.0000E+00  0.0000E+00
    -11.701  0.0000E+00  0.0000E+00  0.0000E+00  0.0000E+00
    -11.655  0.0000E+00  0.0000E+00  0.0000E+00  0.0000E+00
    -11.609  0.0000E+00  0.0000E+00  0.0000E+00  0.0000E+00
    -11.563 -0.5867E-27  0.0000E+00 -0.2696E-28  0.0000E+00
    -11.517 -0.2242E-25  0.0000E+00 -0.1057E-26  0.0000E+00
    -11.471 -0.7884E-24 -0.4803E-26 -0.3728E-25 -0.2207E-27
    -11.425 -0.2491E-22 -0.1725E-24 -0.1182E-23 -0.8147E-26
    -11.379 -0.7072E-21 -0.5706E-23 -0.3368E-22 -0.2704E-24
    -11.333 -0.1804E-19 -0.1697E-21 -0.8628E-21 -0.8066E-23
    -11.287 -0.4135E-18 -0.4532E-20 -0.1986E-19 -0.2163E-21
    -11.242 -0.8514E-17 -0.1088E-18 -0.4111E-18 -0.5215E-20
    -11.196 -0.1574E-15 -0.2345E-17 -0.7645E-17 -0.1130E-18
    -11.150 -0.2614E-14 -0.4542E-16 -0.1278E-15 -0.2200E-17
    -11.104 -0.3776E-13 -0.7900E-15 -0.1863E-14 -0.3850E-16
    -11.058 -0.5058E-12 -0.1234E-13 -0.2510E-13 -0.6054E-15
    -11.012 -0.6050E-11 -0.1669E-12 -0.3031E-12 -0.8276E-14
    -10.966 -0.6498E-10 -0.2105E-11 -0.3289E-11 -0.1050E-12
    -10.920 -0.6256E-09 -0.2370E-10 -0.3204E-10 -0.1194E-11
    -10.874 -0.5397E-08 -0.2391E-09 -0.2800E-09 -0.1218E-10
    -10.828 -0.4169E-07 -0.2163E-08 -0.2196E-08 -0.1116E-09
    -10.782 -0.2882E-06 -0.1752E-07 -0.1544E-07 -0.9168E-09
    -10.736 -0.1782E-05 -0.1271E-06 -0.9730E-07 -0.6757E-08
    -10.690 -0.9837E-05 -0.8244E-06 -0.5493E-06 -0.4464E-07
    -10.644 -0.4845E-04 -0.4780E-05 -0.2776E-05 -0.2643E-06
    -10.598 -0.2126E-03 -0.2473E-04 -0.1254E-04 -0.1401E-05
    -10.552 -0.8289E-03 -0.1141E-03 -0.5063E-04 -0.6643E-05
    -10.506 -0.2864E-02 -0.4682E-03 -0.1822E-03 -0.2816E-04
    -10.460 -0.8734E-02 -0.1705E-02 -0.5836E-03 -0.1065E-03
    -10.414 -0.2337E-01 -0.5489E-02 -0.1657E-02 -0.3587E-03
    -10.368 -0.5434E-01 -0.1555E-01 -0.4155E-02 -0.1073E-02
    -10.322 -0.1081E+00 -0.3847E-01 -0.9122E-02 -0.2841E-02
    -10.277 -0.1783E+00 -0.8207E-01 -0.1731E-01 -0.6612E-02
    -10.231 -0.2260E+00 -0.1475E+00 -0.2770E-01 -0.1339E-01
    -10.185 -0.1626E+00 -0.2127E+00 -0.3517E-01 -0.2316E-01
    -10.139  0.1397E+00 -0.2113E+00 -0.2875E-01 -0.3287E-01
    -10.093  0.7893E+00 -0.2820E-01  0.7520E-02 -0.3417E-01
    -10.047  0.1778E+01  0.4638E+00  0.8920E-01 -0.1286E-01
    -10.001  0.2908E+01  0.1319E+01  0.2229E+00  0.4773E-01
     -9.955  0.3832E+01  0.2424E+01  0.3989E+00  0.1591E+00
     -9.909  0.4200E+01  0.3484E+01  0.5919E+00  0.3193E+00
     -9.863  0.3864E+01  0.4126E+01  0.7695E+00  0.5088E+00
     -9.817  0.2961E+01  0.4093E+01  0.9056E+00  0.6969E+00
     -9.771  0.1831E+01  0.3400E+01  0.9897E+00  0.8532E+00
     -9.725  0.8298E+00  0.2320E+01  0.1028E+01  0.9598E+00
     -9.679  0.1624E+00  0.1227E+01  0.1035E+01  0.1016E+01
     -9.633 -0.1547E+00  0.4039E+00  0.1028E+01  0.1035E+01
     -9.587 -0.2264E+00 -0.5590E-01  0.1018E+01  0.1032E+01
     -9.541 -0.1816E+00 -0.2169E+00  0.1009E+01  0.1022E+01
     -9.495 -0.1112E+00 -0.2081E+00  0.1004E+01  0.1013E+01
     -9.449 -0.5638E-01 -0.1410E+00  0.1002E+01  0.1006E+01
     -9.403 -0.2442E-01 -0.7712E-01  0.1001E+01  0.1003E+01
     -9.357 -0.9189E-02 -0.3564E-01  0.1000E+01  0.1001E+01
     -9.312 -0.3052E-02 -0.1423E-01  0.1000E+01  0.1000E+01
     -9.266 -0.9830E-03 -0.4962E-02  0.1000E+01  0.1000E+01
     -9.220 -0.6453E-03 -0.1524E-02  0.1000E+01  0.1000E+01
     -9.174 -0.1589E-02 -0.4140E-03  0.9999E+00  0.1000E+01
     -9.128 -0.5011E-02 -0.1011E-03  0.9997E+00  0.1000E+01
     -9.082 -0.1433E-01 -0.2904E-04  0.9990E+00  0.1000E+01
     -9.036 -0.3586E-01 -0.4238E-04  0.9974E+00  0.1000E+01
     -8.990 -0.7751E-01 -0.1717E-03  0.9938E+00  0.1000E+01
     -8.944 -0.1416E+00 -0.6790E-03  0.9873E+00  0.1000E+01
     -8.898 -0.2089E+00 -0.2390E-02  0.9777E+00  0.9998E+00
     -8.852 -0.2181E+00 -0.7431E-02  0.9677E+00  0.9995E+00
     -8.806 -0.5911E-01 -0.2029E-01  0.9650E+00  0.9986E+00
     -8.760  0.3935E+00 -0.4825E-01  0.9830E+00  0.9964E+00
     -8.714  0.1197E+01 -0.9843E-01  0.1038E+01  0.9918E+00
     -8.668  0.2248E+01 -0.1676E+00  0.1141E+01  0.9841E+00
     -8.622  0.3262E+01 -0.2231E+00  0.1291E+01  0.9739E+00
     -8.576  0.3884E+01 -0.1845E+00  0.1470E+01  0.9654E+00
     -8.530  0.3906E+01  0.7235E-01  0.1649E+01  0.9687E+00
     -8.484  0.3425E+01  0.6636E+00  0.1807E+01  0.9992E+00
     -8.438  0.2822E+01  0.1602E+01  0.1936E+01  0.1073E+01
     -8.393  0.2517E+01  0.2718E+01  0.2052E+01  0.1198E+01
     -8.347  0.2692E+01  0.3667E+01  0.2176E+01  0.1366E+01
     -8.301  0.3165E+01  0.4084E+01  0.2321E+01  0.1554E+01
     -8.255  0.3540E+01  0.3784E+01  0.2484E+01  0.1728E+01
     -8.209  0.3511E+01  0.2897E+01  0.2645E+01  0.1861E+01
     -8.163  0.3118E+01  0.1832E+01  0.2788E+01  0.1945E+01
     -8.117  0.2751E+01  0.1079E+01  0.2915E+01  0.1995E+01
     -8.071  0.2916E+01  0.9851E+00  0.3049E+01  0.2040E+01
     -8.025  0.3913E+01  0.1590E+01  0.3229E+01  0.2113E+01
     -7.979  0.5638E+01  0.2612E+01  0.3488E+01  0.2233E+01
     -7.933  0.7603E+01  0.3567E+01  0.3837E+01  0.2397E+01
     -7.887  0.9166E+01  0.3994E+01  0.4258E+01  0.2581E+01
     -7.841  0.9874E+01  0.3672E+01  0.4712E+01  0.2749E+01
     -7.795  0.9763E+01  0.2718E+01  0.5161E+01  0.2874E+01
     -7.749  0.9396E+01  0.1515E+01  0.5592E+01  0.2944E+01
     -7.703  0.9559E+01  0.5355E+00  0.6032E+01  0.2968E+01
     -7.657  0.1075E+02  0.1623E+00  0.6525E+01  0.2976E+01
     -7.611  0.1280E+02  0.6041E+00  0.7114E+01  0.3004E+01
     -7.565  0.1499E+02  0.1876E+01  0.7802E+01  0.3090E+01
     -7.519  0.1648E+02  0.3810E+01  0.8559E+01  0.3265E+01
     -7.473  0.1676E+02  0.6069E+01  0.9329E+01  0.3544E+01
     -7.428  0.1578E+02  0.8181E+01  0.1005E+02  0.3920E+01
     -7.382  0.1378E+02  0.9637E+01  0.1069E+02  0.4362E+01
     -7.336  0.1111E+02  0.1005E+02  0.1120E+02  0.4824E+01
     -7.290  0.8238E+01  0.9328E+01  0.1158E+02  0.5253E+01
     -7.244  0.5798E+01  0.7785E+01  0.1184E+02  0.5611E+01
     -7.198  0.4445E+01  0.6015E+01  0.1205E+02  0.5887E+01
     -7.152  0.4577E+01  0.4616E+01  0.1226E+02  0.6099E+01
     -7.106  0.6070E+01  0.3912E+01  0.1254E+02  0.6279E+01
     -7.060  0.8288E+01  0.3871E+01  0.1292E+02  0.6457E+01
     -7.014  0.1037E+02  0.4275E+01  0.1339E+02  0.6653E+01
     -6.968  0.1159E+02  0.4962E+01  0.1393E+02  0.6881E+01
     -6.922  0.1165E+02  0.5946E+01  0.1446E+02  0.7154E+01
     -6.876  0.1067E+02  0.7322E+01  0.1495E+02  0.7491E+01
     -6.830  0.9131E+01  0.9104E+01  0.1537E+02  0.7909E+01
     -6.784  0.7657E+01  0.1113E+02  0.1572E+02  0.8421E+01
     -6.738  0.6802E+01  0.1308E+02  0.1604E+02  0.9022E+01
     -6.692  0.6850E+01  0.1460E+02  0.1635E+02  0.9693E+01
     -6.646  0.7759E+01  0.1534E+02  0.1671E+02  0.1040E+02
     -6.600  0.9288E+01  0.1503E+02  0.1713E+02  0.1109E+02
     -6.554  0.1120E+02  0.1353E+02  0.1765E+02  0.1171E+02
     -6.508  0.1335E+02  0.1100E+02  0.1826E+02  0.1222E+02
     -6.463  0.1562E+02  0.7959E+01  0.1898E+02  0.1258E+02
     -6.417  0.1772E+02  0.5286E+01  0.1979E+02  0.1282E+02
     -6.371  0.1924E+02  0.3917E+01  0.2068E+02  0.1300E+02
     -6.325  0.1979E+02  0.4464E+01  0.2159E+02  0.1321E+02
     -6.279  0.1917E+02  0.6941E+01  0.2247E+02  0.1353E+02
     -6.233  0.1755E+02  0.1076E+02  0.2328E+02  0.1402E+02
     -6.187  0.1541E+02  0.1498E+02  0.2398E+02  0.1471E+02
     -6.141  0.1335E+02  0.1861E+02  0.2460E+02  0.1557E+02
     -6.095  0.1185E+02  0.2093E+02  0.2514E+02  0.1653E+02
     -6.049  0.1110E+02  0.2162E+02  0.2565E+02  0.1752E+02
     -6.003  0.1093E+02  0.2083E+02  0.2615E+02  0.1848E+02
     -5.957  0.1099E+02  0.1906E+02  0.2666E+02  0.1935E+02
     -5.911  0.1098E+02  0.1695E+02  0.2716E+02  0.2013E+02
     -5.865  0.1082E+02  0.1507E+02  0.2766E+02  0.2083E+02
     -5.819  0.1068E+02  0.1374E+02  0.2815E+02  0.2146E+02
     -5.773  0.1079E+02  0.1303E+02  0.2865E+02  0.2206E+02
     -5.727  0.1136E+02  0.1280E+02  0.2917E+02  0.2264E+02
     -5.681  0.1236E+02  0.1285E+02  0.2974E+02  0.2324E+02
     -5.635  0.1363E+02  0.1305E+02  0.3036E+02  0.2384E+02
     -5.589  0.1496E+02  0.1333E+02  0.3105E+02  0.2445E+02
     -5.544  0.1623E+02  0.1359E+02  0.3180E+02  0.2507E+02
     -5.498  0.1754E+02  0.1365E+02  0.3260E+02  0.2570E+02
     -5.452  0.1909E+02  0.1323E+02  0.3348E+02  0.2631E+02
     -5.406  0.2105E+02  0.1217E+02  0.3445E+02  0.2687E+02
     -5.360  0.2344E+02  0.1063E+02  0.3553E+02  0.2735E+02
     -5.314  0.2615E+02  0.9145E+01  0.3673E+02  0.2778E+02
     -5.268  0.2888E+02  0.8397E+01  0.3805E+02  0.2816E+02
     -5.222  0.3121E+02  0.8820E+01  0.3949E+02  0.2857E+02
     -5.176  0.3264E+02  0.1032E+02  0.4099E+02  0.2904E+02
     -5.130  0.3276E+02  0.1235E+02  0.4249E+02  0.2961E+02
     -5.084  0.3148E+02  0.1419E+02  0.4394E+02  0.3026E+02
     -5.038  0.2908E+02  0.1533E+02  0.4528E+02  0.3096E+02
     -4.992  0.2610E+02  0.1555E+02  0.4648E+02  0.3168E+02
     -4.946  0.2306E+02  0.1495E+02  0.4754E+02  0.3237E+02
     -4.900  0.2032E+02  0.1379E+02  0.4847E+02  0.3300E+02
     -4.854  0.1810E+02  0.1251E+02  0.4930E+02  0.3357E+02
     -4.808  0.1645E+02  0.1161E+02  0.5006E+02  0.3411E+02
     -4.762  0.1522E+02  0.1161E+02  0.5076E+02  0.3464E+02
     -4.716  0.1400E+02  0.1279E+02  0.5140E+02  0.3523E+02
     -4.670  0.1235E+02  0.1501E+02  0.5197E+02  0.3592E+02
     -4.624  0.9989E+01  0.1770E+02  0.5243E+02  0.3673E+02
     -4.579  0.7122E+01  0.2004E+02  0.5275E+02  0.3765E+02
     -4.533  0.4322E+01  0.2146E+02  0.5295E+02  0.3864E+02
     -4.487  0.2266E+01  0.2180E+02  0.5306E+02  0.3964E+02
     -4.441  0.1377E+01  0.2135E+02  0.5312E+02  0.4062E+02
     -4.395  0.1616E+01  0.2050E+02  0.5319E+02  0.4156E+02
     -4.349  0.2524E+01  0.1950E+02  0.5331E+02  0.4246E+02
     -4.303  0.3451E+01  0.1842E+02  0.5347E+02  0.4331E+02
     -4.257  0.3857E+01  0.1720E+02  0.5364E+02  0.4410E+02
     -4.211  0.3538E+01  0.1585E+02  0.5381E+02  0.4483E+02
     -4.165  0.2653E+01  0.1454E+02  0.5393E+02  0.4549E+02
     -4.119  0.1573E+01  0.1361E+02  0.5400E+02  0.4612E+02
     -4.073  0.6515E+00  0.1348E+02  0.5403E+02  0.4674E+02
     -4.027  0.6786E-01  0.1435E+02  0.5403E+02  0.4740E+02
     -3.981 -0.1859E+00  0.1601E+02  0.5403E+02  0.4813E+02
     -3.935 -0.2233E+00  0.1783E+02  0.5402E+02  0.4895E+02
     -3.889 -0.1674E+00  0.1904E+02  0.5401E+02  0.4983E+02
     -3.843 -0.9822E-01  0.1913E+02  0.5400E+02  0.5071E+02
     -3.797 -0.4812E-01  0.1799E+02  0.5400E+02  0.5153E+02
     -3.751 -0.2024E-01  0.1589E+02  0.5400E+02  0.5226E+02
     -3.705 -0.7452E-02  0.1322E+02  0.5400E+02  0.5287E+02
     -3.659 -0.2599E-02  0.1030E+02  0.5400E+02  0.5334E+02
     -3.614 -0.1554E-02  0.7415E+01  0.5400E+02  0.5369E+02
     -3.568 -0.3301E-02  0.4779E+01  0.5400E+02  0.5390E+02
     -3.522 -0.9950E-02  0.2600E+01  0.5400E+02  0.5402E+02
     -3.476 -0.2775E-01  0.1021E+01  0.5400E+02  0.5407E+02
     -3.430 -0.6825E-01  0.6546E-01  0.5399E+02  0.5407E+02
     -3.384 -0.1461E+00 -0.3649E+00  0.5399E+02  0.5406E+02
     -3.338 -0.2676E+00 -0.4472E+00  0.5398E+02  0.5404E+02
     -3.292 -0.4043E+00 -0.3628E+00  0.5396E+02  0.5402E+02
     -3.246 -0.4581E+00 -0.2448E+00  0.5394E+02  0.5401E+02
     -3.200 -0.2412E+00 -0.1658E+00  0.5393E+02  0.5400E+02
     -3.154  0.4890E+00 -0.1539E+00  0.5395E+02  0.5399E+02
     -3.108  0.1920E+01 -0.2112E+00  0.5404E+02  0.5398E+02
     -3.062  0.4034E+01 -0.3136E+00  0.5422E+02  0.5397E+02
     -3.016  0.6505E+01 -0.3891E+00  0.5452E+02  0.5395E+02
     -2.970  0.8751E+01 -0.2941E+00  0.5492E+02  0.5394E+02
     -2.924  0.1014E+02  0.1737E+00  0.5539E+02  0.5395E+02
     -2.878  0.1029E+02  0.1194E+01  0.5586E+02  0.5400E+02
     -2.832  0.9227E+01  0.2785E+01  0.5629E+02  0.5413E+02
     -2.786  0.7418E+01  0.4703E+01  0.5663E+02  0.5435E+02
     -2.740  0.5555E+01  0.6472E+01  0.5688E+02  0.5464E+02
     -2.695  0.4236E+01  0.7605E+01  0.5708E+02  0.5499E+02
     -2.649  0.3692E+01  0.7882E+01  0.5725E+02  0.5535E+02
     -2.603  0.3712E+01  0.7489E+01  0.5742E+02  0.5570E+02
     -2.557  0.3825E+01  0.6899E+01  0.5759E+02  0.5602E+02
     -2.511  0.3604E+01  0.6554E+01  0.5776E+02  0.5632E+02
     -2.465  0.2913E+01  0.6591E+01  0.5789E+02  0.5662E+02
     -2.419  0.1922E+01  0.6789E+01  0.5798E+02  0.5693E+02
     -2.373  0.9378E+00  0.6750E+01  0.5802E+02  0.5724E+02
     -2.327  0.1969E+00  0.6170E+01  0.5803E+02  0.5753E+02
     -2.281 -0.2352E+00  0.5008E+01  0.5802E+02  0.5776E+02
     -2.235 -0.4234E+00  0.3495E+01  0.5800E+02  0.5792E+02
     -2.189 -0.4519E+00  0.1989E+01  0.5798E+02  0.5801E+02
     -2.143 -0.3351E+00  0.7906E+00  0.5797E+02  0.5804E+02
     -2.097 -0.8985E-03  0.2890E-01  0.5797E+02  0.5805E+02
     -2.051  0.6474E+00 -0.3441E+00  0.5800E+02  0.5803E+02
     -2.005  0.1634E+01 -0.4669E+00  0.5807E+02  0.5801E+02
     -1.959  0.2846E+01 -0.4593E+00  0.5820E+02  0.5799E+02
     -1.913  0.4061E+01 -0.3483E+00  0.5839E+02  0.5797E+02
     -1.867  0.5048E+01 -0.6199E-01  0.5862E+02  0.5797E+02
     -1.821  0.5662E+01  0.5056E+00  0.5888E+02  0.5799E+02
     -1.775  0.5853E+01  0.1385E+01  0.5915E+02  0.5805E+02
     -1.730  0.5616E+01  0.2448E+01  0.5941E+02  0.5817E+02
     -1.684  0.4957E+01  0.3422E+01  0.5963E+02  0.5832E+02
     -1.638  0.3934E+01  0.4040E+01  0.5982E+02  0.5851E+02
     -1.592  0.2701E+01  0.4221E+01  0.5994E+02  0.5870E+02
     -1.546  0.1491E+01  0.4133E+01  0.6001E+02  0.5889E+02
     -1.500  0.5163E+00  0.4045E+01  0.6003E+02  0.5908E+02
     -1.454 -0.1197E+00  0.4097E+01  0.6003E+02  0.5927E+02
     -1.408 -0.4315E+00  0.4169E+01  0.6001E+02  0.5946E+02
     -1.362 -0.4745E+00  0.3985E+01  0.5998E+02  0.5964E+02
     -1.316 -0.2634E+00  0.3357E+01  0.5997E+02  0.5980E+02
     -1.270  0.2419E+00  0.2366E+01  0.5998E+02  0.5991E+02
     -1.224  0.1063E+01  0.1347E+01  0.6003E+02  0.5997E+02
     -1.178  0.2102E+01  0.7084E+00  0.6013E+02  0.6000E+02
     -1.132  0.3118E+01  0.7167E+00  0.6027E+02  0.6003E+02
     -1.086  0.3830E+01  0.1366E+01  0.6045E+02  0.6010E+02
     -1.040  0.4106E+01  0.2380E+01  0.6064E+02  0.6021E+02
     -0.994  0.4073E+01  0.3342E+01  0.6082E+02  0.6036E+02
     -0.948  0.4048E+01  0.3911E+01  0.6101E+02  0.6054E+02
     -0.902  0.4330E+01  0.4002E+01  0.6121E+02  0.6072E+02
     -0.856  0.5004E+01  0.3815E+01  0.6144E+02  0.6090E+02
     -0.810  0.5925E+01  0.3679E+01  0.6171E+02  0.6107E+02
     -0.765  0.6823E+01  0.3843E+01  0.6202E+02  0.6124E+02
     -0.719  0.7450E+01  0.4372E+01  0.6237E+02  0.6144E+02
     -0.673  0.7654E+01  0.5200E+01  0.6272E+02  0.6168E+02
     -0.627  0.7417E+01  0.6206E+01  0.6306E+02  0.6197E+02
     -0.581  0.6882E+01  0.7214E+01  0.6338E+02  0.6230E+02
     -0.535  0.6354E+01  0.7938E+01  0.6367E+02  0.6266E+02
     -0.489  0.6189E+01  0.8048E+01  0.6395E+02  0.6303E+02
     -0.443  0.6574E+01  0.7390E+01  0.6425E+02  0.6337E+02
     -0.397  0.7334E+01  0.6208E+01  0.6459E+02  0.6366E+02
     -0.351  0.7955E+01  0.5122E+01  0.6496E+02  0.6389E+02
     -0.305  0.7871E+01  0.4782E+01  0.6532E+02  0.6411E+02
     -0.259  0.6819E+01  0.5425E+01  0.6563E+02  0.6436E+02
     -0.213  0.5009E+01  0.6660E+01  0.6586E+02  0.6467E+02
     -0.167  0.2980E+01  0.7677E+01  0.6600E+02  0.6502E+02
     -0.121  0.1271E+01  0.7744E+01  0.6606E+02  0.6538E+02
     -0.075  0.1745E+00  0.6633E+01  0.6607E+02  0.6568E+02
     -0.029 -0.3231E+00  0.4705E+01  0.6605E+02  0.6590E+02
      0.017 -0.4162E+00  0.2627E+01  0.6603E+02  0.6602E+02
      0.063 -0.3242E+00  0.9749E+00  0.6602E+02  0.6606E+02
      0.109 -0.1968E+00 -0.6177E-02  0.6601E+02  0.6606E+02
      0.154 -0.9977E-01 -0.3928E+00  0.6600E+02  0.6605E+02
      0.200 -0.4346E-01 -0.4160E+00  0.6600E+02  0.6603E+02
      0.246 -0.1652E-01 -0.2972E+00  0.6600E+02  0.6601E+02
      0.292 -0.5522E-02 -0.1694E+00  0.6600E+02  0.6601E+02
      0.338 -0.1634E-02 -0.8132E-01  0.6600E+02  0.6600E+02
      0.384 -0.4293E-03 -0.3367E-01  0.6600E+02  0.6600E+02
      0.430 -0.1005E-03 -0.1218E-01  0.6600E+02  0.6600E+02
      0.476 -0.2098E-04 -0.3881E-02  0.6600E+02  0.6600E+02
      0.522 -0.3913E-05 -0.1095E-02  0.6600E+02  0.6600E+02
      0.568 -0.6530E-06 -0.2743E-03  0.6600E+02  0.6600E+02
      0.614 -0.9756E-07 -0.6121E-04  0.6600E+02  0.6600E+02
      0.660 -0.1306E-07 -0.1219E-04  0.6600E+02  0.6600E+02
      0.706 -0.1567E-08 -0.2169E-05  0.6600E+02  0.6600E+02
      0.752 -0.1685E-09 -0.3452E-06  0.6600E+02  0.6600E+02
      0.798 -0.1627E-10 -0.4920E-07  0.6600E+02  0.6600E+02
      0.844 -0.1411E-11 -0.6283E-08  0.6600E+02  0.6600E+02
      0.890 -0.1063E-12 -0.7192E-09  0.6600E+02  0.6600E+02
      0.936 -0.9664E-14 -0.7385E-10  0.6600E+02  0.6600E+02
      0.982  0.0000E+00 -0.6804E-11  0.6600E+02  0.6600E+02
      1.028  0.0000E+00 -0.5605E-12  0.6600E+02  0.6600E+02
      1.074  0.0000E+00 -0.4349E-13  0.6600E+02  0.6600E+02
      1.119  0.0000E+00 -0.4832E-14  0.6600E+02  0.6600E+02
      1.165  0.0000E+00  0.0000E+00  0.6600E+02  0.6600E+02
      1.211  0.0000E+00  0.0000E+00  0.6600E+02  0.6600E+02
      1.257  0.0000E+00  0.0000E+00  0.6600E+02  0.6600E+02
      1.303  0.0000E+00  0.0000E+00  0.6600E+02  0.6600E+02
      1.349  0.0000E+00  0.0000E+00  0.6600E+02  0.6600E+02
      1.395  0.0000E+00  0.0000E+00  0.6600E+02  0.6600E+02
      1.441  0.0000E+00  0.0000E+00  0.6600E+02  0.6600E+02
      1.487  0.0000E+00  0.0000E+00  0.6600E+02  0.6600E+02
      1.533  0.0000E+00  0.0000E+00  0.6600E+02  0.6600E+02
      1.579  0.0000E+00  0.0000E+00  0.6600E+02  0.6600E+02
      1.625  0.0000E+00  0.0000E+00  0.6600E+02  0.6600E+02
      1.671  0.0000E+00  0.0000E+00  0.6600E+02  0.6600E+02
      1.717  0.0000E+00  0.0000E+00  0.6600E+02  0.6600E+02
      1.763  0.0000E+00  0.0000E+00  0.6600E+02  0.6600E+02
      1.809  0.0000E+00  0.0000E+00  0.6600E+02  0.6600E+02
      1.855  0.0000E+00  0.0000E+00  0.6600E+02  0.6600E+02
