   10   10    1    2
  0.1242953E+04  0.2290913E-08  0.2533460E-08  0.2141569E-08  0.5000000E-15
   1.0000000000000000E-004
  CAR 
 unknown system                          
    100      1     66
 
  0.1262379E-14  0.1262379E-14  0.1262379E-14  0.1000000E+01
    1       -9.930790     -9.865053   1.000000   1.000000
    2       -8.574549     -8.315481   1.000000   1.000000
    3       -8.254755     -7.906533   1.000000   1.000000
    4       -7.962545     -7.468076   1.000000   1.000000
    5       -7.832920     -7.350749   1.000000   1.000000
    6       -7.825359     -7.298864   1.000000   1.000000
    7       -7.597385     -7.049565   1.000000   1.000000
    8       -7.566366     -6.867981   1.000000   1.000000
    9       -7.564142     -6.758304   1.000000   1.000000
   10       -7.472133     -6.709390   1.000000   1.000000
   11       -7.368950     -6.641961   1.000000   1.000000
   12       -7.350734     -6.547226   1.000000   1.000000
   13       -7.066882     -6.535600   1.000000   1.000000
   14       -7.016633     -6.235423   1.000000   1.000000
   15       -6.921126     -6.209079   1.000000   1.000000
   16       -6.842391     -6.116196   1.000000   1.000000
   17       -6.644316     -6.094316   1.000000   1.000000
   18       -6.588683     -6.071205   1.000000   1.000000
   19       -6.465814     -6.022023   1.000000   1.000000
   20       -6.427143     -5.938516   1.000000   1.000000
   21       -6.372078     -5.914619   1.000000   1.000000
   22       -6.344435     -5.784937   1.000000   1.000000
   23       -6.271176     -5.761576   1.000000   1.000000
   24       -6.239462     -5.636131   1.000000   1.000000
   25       -6.164591     -5.606217   1.000000   1.000000
   26       -6.037666     -5.494957   1.000000   1.000000
   27       -5.977027     -5.420201   1.000000   1.000000
   28       -5.887874     -5.398886   1.000000   1.000000
   29       -5.789290     -5.196346   1.000000   1.000000
   30       -5.695147     -5.125255   1.000000   1.000000
   31       -5.610853     -5.082557   1.000000   1.000000
   32       -5.568423     -4.979194   1.000000   1.000000
   33       -5.528887     -4.971637   1.000000   1.000000
   34       -5.415545     -4.862149   1.000000   1.000001
   35       -5.401796     -4.793551   1.000000   1.000013
   36       -5.380469     -4.663091   1.000000   1.000502
   37       -5.310931     -4.607639   1.000000   1.001776
   38       -5.287140     -4.592948   1.000000   1.002409
   39       -5.248791     -4.552706   1.000000   1.005192
   40       -5.202357     -4.516378   1.000000   1.009499
   41       -5.177972     -4.430814   1.000000   1.026862
   42       -5.159644     -4.396507   1.000000   1.033546
   43       -5.141406     -4.353408   1.000000   1.033908
   44       -5.113520     -4.299393   1.000000   1.003938
   45       -5.080525     -4.225621   1.000000   0.865448
   46       -5.041086     -4.173366   1.000000   0.689297
   47       -4.969195     -4.110299   1.000000   0.428341
   48       -4.953592     -3.975375   1.000000   0.021012
   49       -4.910312     -3.941027   1.000000  -0.016462
   50       -4.852602     -3.915229   1.000002  -0.030311
   51       -4.745235     -3.878148   1.000056  -0.035392
   52       -4.706588     -3.782416   1.000165  -0.017496
   53       -4.645957     -3.756943   1.000756  -0.012521
   54       -4.288103     -3.642309   0.991065  -0.001609
   55       -2.989367     -2.738326  -0.000000  -0.000000
   56       -2.924233     -2.661204  -0.000000  -0.000000
   57       -2.829128     -2.464824  -0.000000  -0.000000
   58       -2.566477     -2.337035  -0.000000  -0.000000
   59       -1.893151     -1.648440  -0.000000  -0.000000
   60       -1.708702     -1.390851  -0.000000  -0.000000
   61       -1.084896     -0.966679  -0.000000  -0.000000
   62       -0.838697     -0.710392  -0.000000  -0.000000
   63       -0.699127     -0.526351  -0.000000  -0.000000
   64       -0.577881     -0.462197  -0.000000  -0.000000
   65       -0.367480     -0.183976  -0.000000  -0.000000
   66       -0.311140     -0.145294  -0.000000  -0.000000
