       N       E                     dE             d eps       ncg     rms          rms(c)
DAV:   1     0.738090623964E+03    0.73809E+03   -0.15545E+04   264   0.684E+02
DAV:   2     0.258779673008E+03   -0.47931E+03   -0.44337E+03   480   0.115E+02
DAV:   3     0.244125270479E+02   -0.23437E+03   -0.22152E+03   384   0.127E+02
DAV:   4    -0.375795167617E+02   -0.61992E+02   -0.52539E+02   384   0.570E+01
DAV:   5    -0.441532754622E+02   -0.65738E+01   -0.61060E+01   302   0.250E+01    0.268E+01
DAV:   6    -0.575680082195E+02   -0.13415E+02   -0.10109E+02   290   0.165E+02    0.543E+01
DAV:   7    -0.404341233756E+02    0.17134E+02   -0.61520E+01   330   0.739E+01    0.251E+01
DAV:   8    -0.386547467258E+02    0.17794E+01   -0.20876E+01   354   0.781E+01    0.290E+01
DAV:   9    -0.388963700008E+02   -0.24162E+00   -0.23145E+01   366   0.685E+01    0.352E+01
DAV:  10    -0.378981290682E+02    0.99824E+00   -0.10556E+01   358   0.392E+01    0.234E+01
DAV:  11    -0.360938983266E+02    0.18042E+01   -0.60317E+00   326   0.465E+01    0.169E+01
DAV:  12    -0.360750197508E+02    0.18879E-01   -0.72870E+00   366   0.299E+01    0.123E+01
DAV:  13    -0.362939982327E+02   -0.21898E+00   -0.18047E+00   336   0.186E+01    0.936E+00
DAV:  14    -0.363351433986E+02   -0.41145E-01   -0.66270E-01   334   0.156E+01    0.709E+00
DAV:  15    -0.364718087509E+02   -0.13667E+00   -0.52400E-01   340   0.101E+01    0.429E+00
DAV:  16    -0.366924783503E+02   -0.22067E+00   -0.34554E-01   328   0.108E+01    0.580E+00
DAV:  17    -0.367398177480E+02   -0.47339E-01   -0.30925E-01   292   0.941E+00    0.314E+00
DAV:  18    -0.369336404680E+02   -0.19382E+00   -0.82899E-02   348   0.371E+00    0.239E+00
DAV:  19    -0.371232064223E+02   -0.18957E+00   -0.63579E-02   364   0.303E+00    0.117E+00
DAV:  20    -0.372826176156E+02   -0.15941E+00   -0.25611E-02   326   0.135E+00    0.121E+00
DAV:  21    -0.374132956173E+02   -0.13068E+00   -0.11342E-02   340   0.125E+00    0.552E-01
DAV:  22    -0.375665516453E+02   -0.15326E+00   -0.64047E-03   330   0.633E-01    0.339E-01
DAV:  23    -0.376996322498E+02   -0.13308E+00   -0.49751E-03   300   0.417E-01    0.165E-01
DAV:  24    -0.378014031830E+02   -0.10177E+00   -0.24227E-03   266   0.221E-01    0.128E-01
DAV:  25    -0.379012745211E+02   -0.99871E-01   -0.21848E-03   266   0.204E-01    0.964E-02
DAV:  26    -0.380018023610E+02   -0.10053E+00   -0.26815E-03   258   0.191E-01    0.100E-01
DAV:  27    -0.380542030315E+02   -0.52401E-01   -0.86952E-04   252   0.134E-01    0.620E-02
DAV:  28    -0.380943173034E+02   -0.40114E-01   -0.52258E-04   244   0.107E-01    0.612E-02
DAV:  29    -0.381292191423E+02   -0.34902E-01   -0.88056E-04   284   0.119E-01    0.447E-02
DAV:  30    -0.381468684917E+02   -0.17649E-01   -0.26807E-04   220   0.788E-02    0.281E-02
DAV:  31    -0.381572682007E+02   -0.10400E-01   -0.16374E-04   208   0.568E-02    0.186E-02
DAV:  32    -0.381636516682E+02   -0.63835E-02   -0.12183E-04   202   0.388E-02    0.176E-02
DAV:  33    -0.381673071997E+02   -0.36555E-02   -0.67429E-05   194   0.364E-02    0.104E-02
DAV:  34    -0.381699700562E+02   -0.26629E-02   -0.50626E-05   190   0.253E-02    0.992E-03
DAV:  35    -0.381714210177E+02   -0.14510E-02   -0.29881E-05   178   0.218E-02    0.749E-03
DAV:  36    -0.381723855300E+02   -0.96451E-03   -0.26472E-05   186   0.169E-02    0.580E-03
DAV:  37    -0.381732697456E+02   -0.88422E-03   -0.17680E-05   178   0.143E-02    0.565E-03
DAV:  38    -0.381742248227E+02   -0.95508E-03   -0.29054E-05   186   0.148E-02    0.609E-03
DAV:  39    -0.381748622119E+02   -0.63739E-03   -0.16335E-05   182   0.159E-02    0.375E-03
DAV:  40    -0.381751437644E+02   -0.28155E-03   -0.10645E-05   170   0.117E-02    0.297E-03
DAV:  41    -0.381753185449E+02   -0.17478E-03   -0.51668E-06   174   0.894E-03    0.199E-03
DAV:  42    -0.381754577778E+02   -0.13923E-03   -0.33688E-06   170   0.596E-03    0.144E-03
DAV:  43    -0.381755468382E+02   -0.89060E-04   -0.18917E-06   162   0.442E-03
   1 F= -.38175547E+02 E0= -.38189051E+02  d E =0.405140E-01  mag=     7.9869
