 vasp.6.1.2 22Jul20 (build Aug  2 2021 21:04:21) gamma-only                      
 executed on             LinuxPGI date 2022.01.19  23:29:48
 running on   16 total cores
 distrk:  each k-point on   16 cores,    1 groups
 distr:  one band on NCORE=   8 cores,    2 groups


--------------------------------------------------------------------------------------------------------


 INCAR:
 POTCAR:    PAW_PBE Ni 02Aug2007                  
 POTCAR:    PAW_PBE Pd 04Jan2005                  
 -----------------------------------------------------------------------------
|                                                                             |
|           W    W    AA    RRRRR   N    N  II  N    N   GGGG   !!!           |
|           W    W   A  A   R    R  NN   N  II  NN   N  G    G  !!!           |
|           W    W  A    A  R    R  N N  N  II  N N  N  G       !!!           |
|           W WW W  AAAAAA  RRRRR   N  N N  II  N  N N  G  GGG   !            |
|           WW  WW  A    A  R   R   N   NN  II  N   NN  G    G                |
|           W    W  A    A  R    R  N    N  II  N    N   GGGG   !!!           |
|                                                                             |
|     You use a magnetic or noncollinear calculation, but did not specify     |
|     the initial magnetic moment with the MAGMOM tag. Note that a            |
|     default of 1 will be used for all atoms. This ferromagnetic setup       |
|     may break the symmetry of the crystal, in particular it may rule        |
|     out finding an antiferromagnetic solution. Thence, we recommend         |
|     setting the initial magnetic moment manually or verifying carefully     |
|     that this magnetic setup is desired.                                    |
|                                                                             |
 -----------------------------------------------------------------------------

 POTCAR:    PAW_PBE Ni 02Aug2007                  
   SHA256 =  0534bc51ca8003dfef23f56753fef9fdd3e22eac8d719fccacb59f3e6b7a69c7 Ni/POTCAR             
   COPYR  = (c) Copyright 02Aug2007 Georg Kresse                                                    
   COPYR  = This file is part of the software VASP. Any use, copying, and all other rights are regul
   COPYR  = If you do not have a valid VASP license, you may not use, copy or distribute this file. 
   VRHFIN =Ni:                                                                                      
   LEXCH  = PE                                                                                      
   EATOM  =  1077.6739 eV,   79.2068 Ry                                                             
                                                                                                    
   TITEL  = PAW_PBE Ni 02Aug2007                                                                    
   LULTRA =        F    use ultrasoft PP ?                                                          
   IUNSCR =        1    unscreen: 0-lin 1-nonlin 2-no                                               
   RPACOR =    2.000    partial core radius                                                         
   POMASS =   58.690; ZVAL   =   10.000    mass and valenz                                          
   RCORE  =    2.300    outmost cutoff radius                                                       
   RWIGS  =    2.430; RWIGS  =    1.286    wigner-seitz radius (au A)                               
   ENMAX  =  269.532; ENMIN  =  202.149 eV                                                          
   RCLOC  =    1.201    cutoff for local pot                                                        
   LCOR   =        T    correct aug charges                                                         
   LPAW   =        T    paw PP                                                                      
   EAUG   =  544.565                                                                                
   DEXC   =    0.000                                                                                
   RMAX   =    2.357    core radius for proj-oper                                                   
   RAUG   =    1.300    factor for augmentation sphere                                              
   RDEP   =    2.390    radius for radial grids                                                     
   RDEPT  =    1.838    core radius for aug-charge                                                  
                                                                                                    
   Atomic configuration                                                                             
    9 entries                                                                                       
     n  l   j            E        occ.                                                              
     1  0  0.50     -8206.4253   2.0000                                                             
     2  0  0.50      -976.1748   2.0000                                                             
     2  1  1.50      -839.0571   6.0000                                                             
     3  0  0.50      -105.9991   2.0000                                                             
     3  1  1.50       -66.4603   6.0000                                                             
     3  2  2.50        -4.6458   9.0000                                                             
     4  0  0.50        -4.4926   1.0000                                                             
     4  1  1.50        -4.0817   0.0000                                                             
     4  3  2.50        -1.3606   0.0000                                                             
   Description                                                                                      
     l       E           TYP  RCUT    TYP  RCUT                                                     
     2     -4.6457903     23  2.300                                                                 
     2     -6.0063729     23  2.300                                                                 
     0     -4.4925590     23  2.300                                                                 
     0      5.0102601     23  2.300                                                                 
     1     -2.7211652     23  2.300                                                                 
     1     16.5183231     23  2.300                                                                 
  local pseudopotential read in
  partial core-charges read in
  partial kinetic energy density read in
  atomic valenz-charges read in
  non local Contribution for L=            2  read in
    real space projection operators read in
  non local Contribution for L=            2  read in
    real space projection operators read in
  non local Contribution for L=            0  read in
    real space projection operators read in
  non local Contribution for L=            0  read in
    real space projection operators read in
  non local Contribution for L=            1  read in
    real space projection operators read in
  non local Contribution for L=            1  read in
    real space projection operators read in
    PAW grid and wavefunctions read in
 
   number of l-projection  operators is LMAX  =            6
   number of lm-projection operators is LMMAX =           18
 
 POTCAR:    PAW_PBE Pd 04Jan2005                  
   SHA256 =  dd6f6f02930356371984e2b707ff5e456046761dc76b07c1eba30abd15eb3c39 Pd/POTCAR             
   COPYR  = (c) Copyright 04Jan2005 Georg Kresse                                                    
   COPYR  = This file is part of the software VASP. Any use, copying, and all other rights are regul
   COPYR  = If you do not have a valid VASP license, you may not use, copy or distribute this file. 
   VRHFIN =Pd : s1 d9                                                                               
   LEXCH  = PE                                                                                      
   EATOM  =   809.7530 eV,   59.5152 Ry                                                             
                                                                                                    
   TITEL  = PAW_PBE Pd 04Jan2005                                                                    
   LULTRA =        F    use ultrasoft PP ?                                                          
   IUNSCR =        1    unscreen: 0-lin 1-nonlin 2-no                                               
   RPACOR =    2.000    partial core radius                                                         
   POMASS =  106.420; ZVAL   =   10.000    mass and valenz                                          
   RCORE  =    2.600    outmost cutoff radius                                                       
   RWIGS  =    2.710; RWIGS  =    1.434    wigner-seitz radius (au A)                               
   ENMAX  =  250.925; ENMIN  =  188.194 eV                                                          
   ICORE  =        3    local potential                                                             
   LCOR   =        T    correct aug charges                                                         
   LPAW   =        T    paw PP                                                                      
   EAUG   =  416.230                                                                                
   DEXC   =    0.000                                                                                
   RMAX   =    2.653    core radius for proj-oper                                                   
   RAUG   =    1.300    factor for augmentation sphere                                              
   RDEP   =    2.734    radius for radial grids                                                     
   RDEPT  =    2.103    core radius for aug-charge                                                  
                                                                                                    
   Atomic configuration                                                                             
   12 entries                                                                                       
     n  l   j            E        occ.                                                              
     1  0  0.50    -24164.6631   2.0000                                                             
     2  0  0.50     -3530.9218   2.0000                                                             
     2  1  1.50     -3165.6822   6.0000                                                             
     3  0  0.50      -639.4577   2.0000                                                             
     3  1  1.50      -519.4532   6.0000                                                             
     3  2  2.50      -328.9757  10.0000                                                             
     4  0  0.50       -88.7014   2.0000                                                             
     4  1  1.50       -54.4540   6.0000                                                             
     4  2  2.50        -6.6878   9.0000                                                             
     5  0  0.50        -4.3543   1.0000                                                             
     5  1  0.50        -1.3606   0.0000                                                             
     4  3  2.50        -1.3606   0.0000                                                             
   Description                                                                                      
     l       E           TYP  RCUT    TYP  RCUT                                                     
     2     -6.6878251     23  2.400                                                                 
     2     -8.0484077     23  2.400                                                                 
     0     -4.3542939     23  2.400                                                                 
     0      4.3406793     23  2.400                                                                 
     1     -4.0817478     23  2.600                                                                 
     1     15.8380318     23  2.600                                                                 
     3     -4.0817478     23  2.400                                                                 
  local pseudopotential read in
  partial core-charges read in
  partial kinetic energy density read in
  atomic valenz-charges read in
  non local Contribution for L=            2  read in
    real space projection operators read in
  non local Contribution for L=            2  read in
    real space projection operators read in
  non local Contribution for L=            0  read in
    real space projection operators read in
  non local Contribution for L=            0  read in
    real space projection operators read in
  non local Contribution for L=            1  read in
    real space projection operators read in
  non local Contribution for L=            1  read in
    real space projection operators read in
    PAW grid and wavefunctions read in
 
   number of l-projection  operators is LMAX  =            6
   number of lm-projection operators is LMMAX =           18
 
  PAW_PBE Ni 02Aug2007                  :
 energy of atom  1       EATOM=-1077.6739
 kinetic energy error for atom=    0.0101 (will be added to EATOM!!)
  PAW_PBE Pd 04Jan2005                  :
 energy of atom  2       EATOM= -809.7530
 kinetic energy error for atom=    0.0091 (will be added to EATOM!!)
 
 
 POSCAR: Ni Pd
  positions in cartesian coordinates
  No initial velocities read in
 exchange correlation table for  LEXCH =        8
   RHO(1)=    0.500       N(1)  =     2000
   RHO(2)=  100.500       N(2)  =     4000
 


--------------------------------------------------------------------------------------------------------


 ion  position               nearest neighbor table
   1  0.541  0.494  0.487-   6 2.31   2 2.32   4 2.32   5 2.34   3 2.39  10 2.50   9 2.57
   2  0.483  0.450  0.414-   3 2.30   1 2.32   9 2.47   7 2.50  10 2.50
   3  0.455  0.534  0.444-   2 2.30   6 2.31   4 2.32   1 2.39   7 2.50   8 2.54   9 2.63
   4  0.458  0.506  0.547-   1 2.32   3 2.32   5 2.36  10 2.48   8 2.50   7 2.50
   5  0.542  0.557  0.566-   1 2.34   4 2.36   6 2.36   8 2.45
   6  0.539  0.582  0.460-   3 2.31   1 2.31   5 2.36   9 2.49   8 2.49
   7  0.391  0.458  0.475-   2 2.50   4 2.50   3 2.50  10 2.68
   8  0.455  0.603  0.530-   5 2.45   6 2.49   4 2.50   3 2.54
   9  0.546  0.520  0.371-   2 2.47   6 2.49   1 2.57   3 2.63
  10  0.487  0.414  0.522-   4 2.48   2 2.50   1 2.50   7 2.68
 

IMPORTANT INFORMATION: All symmetrisations will be switched off!
NOSYMM: (Re-)initialisation of all symmetry stuff for point group C_1.


----------------------------------------------------------------------------------------

                                     Primitive cell                                     

  volume of cell :   12429.5299

  direct lattice vectors                    reciprocal lattice vectors
    22.909131347  0.000000000  0.000000000     0.043650717  0.000000000  0.000000000
     0.000000000 25.334602667  0.000000000     0.000000000  0.039471706  0.000000000
     0.000000000  0.000000000 21.415685695     0.000000000  0.000000000  0.046694746

  length of vectors
    22.909131347 25.334602667 21.415685695     0.043650717  0.039471706  0.046694746

  position of ions in fractional coordinates (direct lattice)
     0.541127762  0.493798351  0.486524744
     0.483113966  0.450169933  0.414118692
     0.455205175  0.533706709  0.444082775
     0.458212903  0.505698630  0.547402781
     0.542288254  0.556995712  0.566400403
     0.539073966  0.582149820  0.460368132
     0.390529930  0.458390370  0.474900741
     0.454855427  0.603069071  0.529616298
     0.546135444  0.520327573  0.370584614
     0.486600037  0.413686380  0.522498840

  ion indices of the primitive-cell ions
   primitive index   ion index
                 1           1
                 2           2
                 3           3
                 4           4
                 5           5
                 6           6
                 7           7
                 8           8
                 9           9
                10          10

----------------------------------------------------------------------------------------

 
 
 KPOINTS: KPOINTS created by Atomic Simulation Env

Automatic generation of k-mesh.
Space group operators:
 irot       det(A)        alpha          n_x          n_y          n_z        tau_x        tau_y        tau_z
    1     1.000000     0.000000     1.000000     0.000000     0.000000     0.000000     0.000000     0.000000
 
 Subroutine IBZKPT returns following result:
 ===========================================
 
 Found      1 irreducible k-points:
 
 Following reciprocal coordinates:
            Coordinates               Weight
  0.000000  0.000000  0.000000      1.000000
 
 Following cartesian coordinates:
            Coordinates               Weight
  0.000000  0.000000  0.000000      1.000000
 


--------------------------------------------------------------------------------------------------------




 Dimension of arrays:
   k-points           NKPTS =      1   k-points in BZ     NKDIM =      1   number of bands    NBANDS=     66
   number of dos      NEDOS =    301   number of ions     NIONS =     10
   non local maximal  LDIM  =      6   non local SUM 2l+1 LMDIM =     18
   total plane-waves  NPLWV = ******
   max r-space proj   IRMAX =      1   max aug-charges    IRDMAX=   6147
   dimension x,y,z NGX =   112 NGY =  126 NGZ =  108
   dimension x,y,z NGXF=   224 NGYF=  252 NGZF=  216
   support grid    NGXF=   224 NGYF=  252 NGZF=  216
   ions per type =               6   4
   NGX,Y,Z   is equivalent  to a cutoff of   8.13,  8.27,  8.38 a.u.
   NGXF,Y,Z  is equivalent  to a cutoff of  16.26, 16.54, 16.77 a.u.

 SYSTEM =  unknown system                          
 POSCAR =  Ni Pd                                   

 Startparameter for this run:
   NWRITE =      2    write-flag & timer
   PREC   = normal    normal or accurate (medium, high low for compatibility)
   ISTART =      0    job   : 0-new  1-cont  2-samecut
   ICHARG =      2    charge: 1-file 2-atom 10-const
   ISPIN  =      2    spin polarized calculation?
   LNONCOLLINEAR =      F non collinear calculations
   LSORBIT =      F    spin-orbit coupling
   INIWAV =      1    electr: 0-lowe 1-rand  2-diag
   LASPH  =      F    aspherical Exc in radial PAW
   METAGGA=      F    non-selfconsistent MetaGGA calc.

 Electronic Relaxation 1
   ENCUT  =  400.0 eV  29.40 Ry    5.42 a.u.  37.36 41.31 34.92*2*pi/ulx,y,z
   ENINI  =  400.0     initial cutoff
   ENAUG  =  544.6 eV  augmentation charge cutoff
   NELM   =     60;   NELMIN=  2; NELMDL=  0     # of ELM steps 
   EDIFF  = 0.1E-03   stopping-criterion for ELM
   LREAL  =      F    real-space projection
   NLSPLINE    = F    spline interpolate recip. space projectors
   LCOMPAT=      F    compatible to vasp.4.4
   GGA_COMPAT  = T    GGA compatible to vasp.4.4-vasp.4.6
   LMAXPAW     = -100 max onsite density
   LMAXMIX     =    2 max onsite mixed and CHGCAR
   VOSKOWN=      0    Vosko Wilk Nusair interpolation
   ROPT   =    0.00000   0.00000
 Ionic relaxation
   EDIFFG = 0.1E-02   stopping-criterion for IOM
   NSW    =      0    number of steps for IOM
   NBLOCK =      1;   KBLOCK =      1    inner block; outer block 
   IBRION =     -1    ionic relax: 0-MD 1-quasi-New 2-CG
   NFREE  =      0    steps in history (QN), initial steepest desc. (CG)
   ISIF   =      0    stress and relaxation
   IWAVPR =     10    prediction:  0-non 1-charg 2-wave 3-comb
   ISYM   =      0    0-nonsym 1-usesym 2-fastsym
   LCORR  =      T    Harris-Foulkes like correction to forces

   POTIM  = 0.5000    time-step for ionic-motion
   TEIN   =    0.0    initial temperature
   TEBEG  =    0.0;   TEEND  =   0.0 temperature during run
   SMASS  =  -3.00    Nose mass-parameter (am)
   estimated Nose-frequenzy (Omega)   =  0.10E-29 period in steps = 0.13E+47 mass=  -0.120E-25a.u.
   SCALEE = 1.0000    scale energy and forces
   NPACO  =    256;   APACO  = 16.0  distance and # of slots for P.C.
   PSTRESS=    0.0 pullay stress

  Mass of Ions in am
   POMASS =  58.69106.42
  Ionic Valenz
   ZVAL   =  10.00 10.00
  Atomic Wigner-Seitz radii
   RWIGS  =  -1.00 -1.00
  virtual crystal weights 
   VCA    =   1.00  1.00
   NELECT =     100.0000    total number of electrons
   NUPDOWN=      -1.0000    fix difference up-down

 DOS related values:
   EMIN   =  10.00;   EMAX   =-10.00  energy-range for DOS
   EFERMI =   0.00
   ISMEAR =     1;   SIGMA  =   0.20  broadening in eV -4-tet -1-fermi 0-gaus

 Electronic relaxation 2 (details)
   IALGO  =     38    algorithm
   LDIAG  =      T    sub-space diagonalisation (order eigenvalues)
   LSUBROT=      F    optimize rotation matrix (better conditioning)
   TURBO    =      0    0=normal 1=particle mesh
   IRESTART =      0    0=no restart 2=restart with 2 vectors
   NREBOOT  =      0    no. of reboots
   NMIN     =      0    reboot dimension
   EREF     =   0.00    reference energy to select bands
   IMIX   =      4    mixing-type and parameters
     AMIX     =   0.40;   BMIX     =  1.00
     AMIX_MAG =   1.60;   BMIX_MAG =  1.00
     AMIN     =   0.10
     WC   =   100.;   INIMIX=   1;  MIXPRE=   1;  MAXMIX= -45

 Intra band minimization:
   WEIMIN = 0.0000     energy-eigenvalue tresh-hold
   EBREAK =  0.38E-06  absolut break condition
   DEPER  =   0.30     relativ break condition  

   TIME   =   0.40     timestep for ELM

  volume/ion in A,a.u.               =    1242.95      8387.86
  Fermi-wavevector in a.u.,A,eV,Ry     =   0.328037  0.619901  1.464102  0.107608
  Thomas-Fermi vector in A             =   1.221281
 
 Write flags
   LWAVE        =      F    write WAVECAR
   LDOWNSAMPLE  =      F    k-point downsampling of WAVECAR
   LCHARG       =      F    write CHGCAR
   LVTOT        =      F    write LOCPOT, total local potential
   LVHAR        =      F    write LOCPOT, Hartree potential only
   LELF         =      F    write electronic localiz. function (ELF)
   LORBIT       =      0    0 simple, 1 ext, 2 COOP (PROOUT), +10 PAW based schemes


 Dipole corrections
   LMONO  =      F    monopole corrections only (constant potential shift)
   LDIPOL =      F    correct potential (dipole corrections)
   IDIPOL =      0    1-x, 2-y, 3-z, 4-all directions 
   EPSILON=  1.0000000 bulk dielectric constant

 Exchange correlation treatment:
   GGA     =    PE    GGA type
   LEXCH   =     8    internal setting for exchange type
   VOSKOWN=      0    Vosko Wilk Nusair interpolation
   LHFCALC =     F    Hartree Fock is set to
   LHFONE  =     F    Hartree Fock one center treatment
   AEXX    =    0.0000 exact exchange contribution

 Linear response parameters
   LEPSILON=     F    determine dielectric tensor
   LRPA    =     F    only Hartree local field effects (RPA)
   LNABLA  =     F    use nabla operator in PAW spheres
   LVEL    =     F    velocity operator in full k-point grid
   LINTERFAST=   F  fast interpolation
   KINTER  =     0    interpolate to denser k-point grid
   CSHIFT  =0.1000    complex shift for real part using Kramers Kronig
   OMEGAMAX=  -1.0    maximum frequency
   DEG_THRESHOLD= 0.2000000E-02 threshold for treating states as degnerate
   RTIME   =   -0.100 relaxation time in fs
  (WPLASMAI=    0.000 imaginary part of plasma frequency in eV, 0.658/RTIME)
   DFIELD  = 0.0000000 0.0000000 0.0000000 field for delta impulse in time
 
 Orbital magnetization related:
   ORBITALMAG=     F  switch on orbital magnetization
   LCHIMAG   =     F  perturbation theory with respect to B field
   DQ        =  0.001000  dq finite difference perturbation B field
   LLRAUG    =     F  two centre corrections for induced B field



--------------------------------------------------------------------------------------------------------


 Static calculation
 charge density and potential will be updated during run
 spin polarized calculation
 Variant of blocked Davidson
 Davidson routine will perform the subspace rotation
 perform sub-space diagonalisation
    after iterative eigenvector-optimisation
 modified Broyden-mixing scheme, WC =      100.0
 initial mixing is a Kerker type mixing with AMIX =  0.4000 and BMIX =      1.0000
 Hartree-type preconditioning will be used
 using additional bands            16
 reciprocal scheme for non local part
 use partial core corrections
 calculate Harris-corrections to forces 
   (improved forces if not selfconsistent)
 use gradient corrections 
 use of overlap-Matrix (Vanderbilt PP)
 Methfessel and Paxton  Order N= 1 SIGMA  =   0.20


--------------------------------------------------------------------------------------------------------


  energy-cutoff  :      400.00
  volume of cell :    12429.53
      direct lattice vectors                 reciprocal lattice vectors
    22.909131347  0.000000000  0.000000000     0.043650717  0.000000000  0.000000000
     0.000000000 25.334602667  0.000000000     0.000000000  0.039471706  0.000000000
     0.000000000  0.000000000 21.415685695     0.000000000  0.000000000  0.046694746

  length of vectors
    22.909131347 25.334602667 21.415685695     0.043650717  0.039471706  0.046694746


 
 k-points in units of 2pi/SCALE and weight: KPOINTS created by Atomic Simulation Env
   0.00000000  0.00000000  0.00000000       1.000
 
 k-points in reciprocal lattice and weights: KPOINTS created by Atomic Simulation Env
   0.00000000  0.00000000  0.00000000       1.000
 
 position of ions in fractional coordinates (direct lattice) 
   0.54112776  0.49379835  0.48652474
   0.48311397  0.45016993  0.41411869
   0.45520518  0.53370671  0.44408277
   0.45821290  0.50569863  0.54740278
   0.54228825  0.55699571  0.56640040
   0.53907397  0.58214982  0.46036813
   0.39052993  0.45839037  0.47490074
   0.45485543  0.60306907  0.52961630
   0.54613544  0.52032757  0.37058461
   0.48660004  0.41368638  0.52249884
 
 position of ions in cartesian coordinates  (Angst):
  12.39676698 12.51018503 10.41926100
  11.06772130 11.40487638  8.86863575
  10.42835515 13.52124741  9.51033712
  10.49725958 12.81167386 11.72300590
  12.42335283 14.11126505 12.12985300
  12.34971630 14.74853439  9.85909922
   8.94670146 11.61313788 10.17032501
  10.42034272 15.27851529 11.34209617
  12.51148863 13.18229233  7.93632363
  11.14758416 10.48058006 11.18967093
 


--------------------------------------------------------------------------------------------------------


 use parallel FFT for orbitals z direction half grid
 k-point   1 :   0.0000 0.0000 0.0000  plane waves:  112975

 maximum and minimum number of plane-waves per node :     14126    14114

 maximum number of plane-waves:    112975
 maximum index in each direction: 
   IXMAX=   37   IYMAX=   41   IZMAX=   34
   IXMIN=  -37   IYMIN=  -41   IZMIN=    0


 parallel 3D FFT for wavefunctions:
    minimum data exchange during FFTs selected (reduces bandwidth)
 parallel 3D FFT for charge:
    minimum data exchange during FFTs selected (reduces bandwidth)


 total amount of memory used by VASP MPI-rank0   157882. kBytes
=======================================================================

   base      :      30000. kBytes
   nonl-proj :       6326. kBytes
   fftplans  :      29874. kBytes
   grid      :      76720. kBytes
   one-center:         31. kBytes
   wavefun   :      14931. kBytes
 
     INWAV:  cpu time    0.0001: real time    0.0003
 Broyden mixing: mesh for mixing (old mesh)
   NGX = 75   NGY = 83   NGZ = 69
  (NGX  =224   NGY  =252   NGZ  =216)
  gives a total of 429525 points

 initial charge density was supplied:
 charge density of overlapping atoms calculated
 number of electron     100.0000000 magnetization      10.0000000
 keeping initial charge density in first step


--------------------------------------------------------------------------------------------------------


 Maximum index for augmentation-charges           367 (set IRDMAX)


--------------------------------------------------------------------------------------------------------


 First call to EWALD:  gamma=   0.077
 Maximum number of real-space cells 3x 3x 3
 Maximum number of reciprocal cells 3x 3x 3

    FEWALD:  cpu time    0.0559: real time    0.0559


--------------------------------------- Iteration      1(   1)  ---------------------------------------


    POTLOK:  cpu time    2.7094: real time    2.7158
    SETDIJ:  cpu time    0.0254: real time    0.0254
     EDDAV:  cpu time    6.5190: real time    6.5249
       DOS:  cpu time    0.0073: real time    0.0073
    --------------------------------------------
      LOOP:  cpu time    9.2611: real time    9.2734

 eigenvalue-minimisations  :   264
 total energy-change (2. order) : 0.7380906E+03  (-0.1554546E+04)
 number of electron     100.0000000 magnetization      10.0000000
 augmentation part      100.0000000 magnetization      10.0000000

 Free energy of the ion-electron system (eV)
  ---------------------------------------------------
  alpha Z        PSCENC =         4.55928189
  Ewald energy   TEWEN  =     13232.75512789
  -Hartree energ DENC   =    -22201.16490448
  -exchange      EXHF   =         0.00000000
  -V(xc)+E(xc)   XCENC  =        63.30572921
  PAW double counting   =      9003.59075477    -9155.75339974
  entropy T*S    EENTRO =         0.01346490
  eigenvalues    EBANDS =        85.82597644
  atomic energy  EATOM  =      9704.95859309
  Solvation  Ediel_sol  =         0.00000000
  ---------------------------------------------------
  free energy    TOTEN  =       738.09062396 eV

  energy without entropy =      738.07715906  energy(sigma->0) =      738.08613566


--------------------------------------------------------------------------------------------------------




--------------------------------------- Iteration      1(   2)  ---------------------------------------


     EDDAV:  cpu time   10.3017: real time   10.3122
       DOS:  cpu time    0.0071: real time    0.0071
    --------------------------------------------
      LOOP:  cpu time   10.3088: real time   10.3193

 eigenvalue-minimisations  :   480
 total energy-change (2. order) :-0.4793110E+03  (-0.4433708E+03)
 number of electron     100.0000000 magnetization      10.0000000
 augmentation part      100.0000000 magnetization      10.0000000

 Free energy of the ion-electron system (eV)
  ---------------------------------------------------
  alpha Z        PSCENC =         4.55928189
  Ewald energy   TEWEN  =     13232.75512789
  -Hartree energ DENC   =    -22201.16490448
  -exchange      EXHF   =         0.00000000
  -V(xc)+E(xc)   XCENC  =        63.30572921
  PAW double counting   =      9003.59075477    -9155.75339974
  entropy T*S    EENTRO =        -0.00784970
  eigenvalues    EBANDS =      -393.46365991
  atomic energy  EATOM  =      9704.95859309
  Solvation  Ediel_sol  =         0.00000000
  ---------------------------------------------------
  free energy    TOTEN  =       258.77967301 eV

  energy without entropy =      258.78752271  energy(sigma->0) =      258.78228958


--------------------------------------------------------------------------------------------------------




--------------------------------------- Iteration      1(   3)  ---------------------------------------


     EDDAV:  cpu time    8.6191: real time    8.6312
       DOS:  cpu time    0.0071: real time    0.0071
    --------------------------------------------
      LOOP:  cpu time    8.6263: real time    8.6383

 eigenvalue-minimisations  :   384
 total energy-change (2. order) :-0.2343671E+03  (-0.2215172E+03)
 number of electron     100.0000000 magnetization      10.0000000
 augmentation part      100.0000000 magnetization      10.0000000

 Free energy of the ion-electron system (eV)
  ---------------------------------------------------
  alpha Z        PSCENC =         4.55928189
  Ewald energy   TEWEN  =     13232.75512789
  -Hartree energ DENC   =    -22201.16490448
  -exchange      EXHF   =         0.00000000
  -V(xc)+E(xc)   XCENC  =        63.30572921
  PAW double counting   =      9003.59075477    -9155.75339974
  entropy T*S    EENTRO =         0.01003869
  eigenvalues    EBANDS =      -627.84869427
  atomic energy  EATOM  =      9704.95859309
  Solvation  Ediel_sol  =         0.00000000
  ---------------------------------------------------
  free energy    TOTEN  =        24.41252705 eV

  energy without entropy =       24.40248836  energy(sigma->0) =       24.40918082


--------------------------------------------------------------------------------------------------------




--------------------------------------- Iteration      1(   4)  ---------------------------------------


     EDDAV:  cpu time    8.6320: real time    8.6425
       DOS:  cpu time    0.0073: real time    0.0073
    --------------------------------------------
      LOOP:  cpu time    8.6393: real time    8.6498

 eigenvalue-minimisations  :   384
 total energy-change (2. order) :-0.6199204E+02  (-0.5253894E+02)
 number of electron     100.0000000 magnetization      10.0000000
 augmentation part      100.0000000 magnetization      10.0000000

 Free energy of the ion-electron system (eV)
  ---------------------------------------------------
  alpha Z        PSCENC =         4.55928189
  Ewald energy   TEWEN  =     13232.75512789
  -Hartree energ DENC   =    -22201.16490448
  -exchange      EXHF   =         0.00000000
  -V(xc)+E(xc)   XCENC  =        63.30572921
  PAW double counting   =      9003.59075477    -9155.75339974
  entropy T*S    EENTRO =        -0.04649702
  eigenvalues    EBANDS =      -689.78420237
  atomic energy  EATOM  =      9704.95859309
  Solvation  Ediel_sol  =         0.00000000
  ---------------------------------------------------
  free energy    TOTEN  =       -37.57951676 eV

  energy without entropy =      -37.53301974  energy(sigma->0) =      -37.56401776


--------------------------------------------------------------------------------------------------------




--------------------------------------- Iteration      1(   5)  ---------------------------------------


     EDDAV:  cpu time    7.1048: real time    7.1115
       DOS:  cpu time    0.0071: real time    0.0071
    CHARGE:  cpu time    0.7094: real time    0.7101
    MIXING:  cpu time    0.0400: real time    0.0401
    --------------------------------------------
      LOOP:  cpu time    7.8613: real time    7.8687

 eigenvalue-minimisations  :   302
 total energy-change (2. order) :-0.6573759E+01  (-0.6106038E+01)
 number of electron     100.0000230 magnetization       9.8221139
 augmentation part       52.1380743 magnetization       7.9565682

 Broyden mixing:
  rms(total) = 0.26814E+01    rms(broyden)= 0.26803E+01
  rms(prec ) = 0.27883E+01
  weight for this iteration     100.00

 Free energy of the ion-electron system (eV)
  ---------------------------------------------------
  alpha Z        PSCENC =         4.55928189
  Ewald energy   TEWEN  =     13232.75512789
  -Hartree energ DENC   =    -22201.16490448
  -exchange      EXHF   =         0.00000000
  -V(xc)+E(xc)   XCENC  =        63.30572921
  PAW double counting   =      9003.59075477    -9155.75339974
  entropy T*S    EENTRO =         0.00286448
  eigenvalues    EBANDS =      -696.40732256
  atomic energy  EATOM  =      9704.95859309
  Solvation  Ediel_sol  =         0.00000000
  ---------------------------------------------------
  free energy    TOTEN  =       -44.15327546 eV

  energy without entropy =      -44.15613994  energy(sigma->0) =      -44.15423029


--------------------------------------------------------------------------------------------------------




--------------------------------------- Iteration      1(   6)  ---------------------------------------


    POTLOK:  cpu time    2.7017: real time    2.7092
    SETDIJ:  cpu time    0.0248: real time    0.0249
     EDDAV:  cpu time    6.9464: real time    6.9526
       DOS:  cpu time    0.0041: real time    0.0041
    CHARGE:  cpu time    0.7074: real time    0.7080
    MIXING:  cpu time    0.0508: real time    0.0508
    --------------------------------------------
      LOOP:  cpu time   10.4351: real time   10.4495

 eigenvalue-minimisations  :   290
 total energy-change (2. order) :-0.1341473E+02  (-0.1010924E+02)
 number of electron     100.0000326 magnetization       9.6248448
 augmentation part       56.6030693 magnetization       9.0060105

 Broyden mixing:
  rms(total) = 0.54284E+01    rms(broyden)= 0.54280E+01
  rms(prec ) = 0.57541E+01
  weight for this iteration     100.00

 eigenvalues of (default mixing * dielectric matrix)
  average eigenvalue GAMMA=   0.2924
  0.2924

 Free energy of the ion-electron system (eV)
  ---------------------------------------------------
  alpha Z        PSCENC =         4.55928189
  Ewald energy   TEWEN  =     13232.75512789
  -Hartree energ DENC   =    -22121.90798820
  -exchange      EXHF   =         0.00000000
  -V(xc)+E(xc)   XCENC  =        60.08474034
  PAW double counting   =      9487.00620727    -9614.29313024
  entropy T*S    EENTRO =        -0.01177126
  eigenvalues    EBANDS =      -810.71906899
  atomic energy  EATOM  =      9704.95859309
  Solvation  Ediel_sol  =         0.00000000
  ---------------------------------------------------
  free energy    TOTEN  =       -57.56800822 eV

  energy without entropy =      -57.55623696  energy(sigma->0) =      -57.56408447


--------------------------------------------------------------------------------------------------------




--------------------------------------- Iteration      1(   7)  ---------------------------------------


    POTLOK:  cpu time    2.7014: real time    2.7049
    SETDIJ:  cpu time    0.0245: real time    0.0245
     EDDAV:  cpu time    7.6140: real time    7.6226
       DOS:  cpu time    0.0040: real time    0.0040
    CHARGE:  cpu time    0.7165: real time    0.7172
    MIXING:  cpu time    0.0468: real time    0.0468
    --------------------------------------------
      LOOP:  cpu time   11.1072: real time   11.1200

 eigenvalue-minimisations  :   330
 total energy-change (2. order) : 0.1713388E+02  (-0.6151963E+01)
 number of electron     100.0000272 magnetization       9.5922084
 augmentation part       54.7881177 magnetization       6.9631475

 Broyden mixing:
  rms(total) = 0.25140E+01    rms(broyden)= 0.25131E+01
  rms(prec ) = 0.26392E+01
  weight for this iteration     100.00

 eigenvalues of (default mixing * dielectric matrix)
  average eigenvalue GAMMA=   0.2681
  0.2681  0.2681

 Free energy of the ion-electron system (eV)
  ---------------------------------------------------
  alpha Z        PSCENC =         4.55928189
  Ewald energy   TEWEN  =     13232.75512789
  -Hartree energ DENC   =    -22182.43157532
  -exchange      EXHF   =         0.00000000
  -V(xc)+E(xc)   XCENC  =        61.30880925
  PAW double counting   =      9632.91263238    -9782.85241637
  entropy T*S    EENTRO =         0.04532482
  eigenvalues    EBANDS =      -711.68990100
  atomic energy  EATOM  =      9704.95859309
  Solvation  Ediel_sol  =         0.00000000
  ---------------------------------------------------
  free energy    TOTEN  =       -40.43412338 eV

  energy without entropy =      -40.47944819  energy(sigma->0) =      -40.44923165


--------------------------------------------------------------------------------------------------------




--------------------------------------- Iteration      1(   8)  ---------------------------------------


    POTLOK:  cpu time    2.7104: real time    2.7137
    SETDIJ:  cpu time    0.0247: real time    0.0247
     EDDAV:  cpu time    8.1640: real time    8.1712
       DOS:  cpu time    0.0061: real time    0.0061
    CHARGE:  cpu time    0.6971: real time    0.6977
    MIXING:  cpu time    0.0502: real time    0.0502
    --------------------------------------------
      LOOP:  cpu time   11.6524: real time   11.6635

 eigenvalue-minimisations  :   354
 total energy-change (2. order) : 0.1779377E+01  (-0.2087605E+01)
 number of electron     100.0000256 magnetization       9.4698402
 augmentation part       55.1470210 magnetization       7.4656479

 Broyden mixing:
  rms(total) = 0.28979E+01    rms(broyden)= 0.28974E+01
  rms(prec ) = 0.30443E+01
  weight for this iteration     100.00

 eigenvalues of (default mixing * dielectric matrix)
  average eigenvalue GAMMA=   0.3678
  0.6814  0.2110  0.2110

 Free energy of the ion-electron system (eV)
  ---------------------------------------------------
  alpha Z        PSCENC =         4.55928189
  Ewald energy   TEWEN  =     13232.75512789
  -Hartree energ DENC   =    -22187.43493249
  -exchange      EXHF   =         0.00000000
  -V(xc)+E(xc)   XCENC  =        61.28874190
  PAW double counting   =      9718.62983004    -9869.90495599
  entropy T*S    EENTRO =        -0.01099904
  eigenvalues    EBANDS =      -703.49543401
  atomic energy  EATOM  =      9704.95859309
  Solvation  Ediel_sol  =         0.00000000
  ---------------------------------------------------
  free energy    TOTEN  =       -38.65474673 eV

  energy without entropy =      -38.64374768  energy(sigma->0) =      -38.65108038


--------------------------------------------------------------------------------------------------------




--------------------------------------- Iteration      1(   9)  ---------------------------------------


    POTLOK:  cpu time    2.6898: real time    2.6964
    SETDIJ:  cpu time    0.0245: real time    0.0245
     EDDAV:  cpu time    8.4914: real time    8.4987
       DOS:  cpu time    0.0068: real time    0.0068
    CHARGE:  cpu time    0.7099: real time    0.7105
    MIXING:  cpu time    0.0539: real time    0.0539
    --------------------------------------------
      LOOP:  cpu time   11.9764: real time   11.9909

 eigenvalue-minimisations  :   366
 total energy-change (2. order) :-0.2416233E+00  (-0.2314526E+01)
 number of electron     100.0000244 magnetization       9.4340151
 augmentation part       54.3762960 magnetization       7.2207093

 Broyden mixing:
  rms(total) = 0.35230E+01    rms(broyden)= 0.35225E+01
  rms(prec ) = 0.37327E+01
  weight for this iteration     100.00

 eigenvalues of (default mixing * dielectric matrix)
  average eigenvalue GAMMA=   0.3222
  0.7427  0.2255  0.2255  0.0951

 Free energy of the ion-electron system (eV)
  ---------------------------------------------------
  alpha Z        PSCENC =         4.55928189
  Ewald energy   TEWEN  =     13232.75512789
  -Hartree energ DENC   =    -22223.46945158
  -exchange      EXHF   =         0.00000000
  -V(xc)+E(xc)   XCENC  =        62.46375371
  PAW double counting   =      9893.23537958   -10052.26080848
  entropy T*S    EENTRO =        -0.00862640
  eigenvalues    EBANDS =      -661.12961969
  atomic energy  EATOM  =      9704.95859309
  Solvation  Ediel_sol  =         0.00000000
  ---------------------------------------------------
  free energy    TOTEN  =       -38.89637000 eV

  energy without entropy =      -38.88774360  energy(sigma->0) =      -38.89349453


--------------------------------------------------------------------------------------------------------




--------------------------------------- Iteration      1(  10)  ---------------------------------------


    POTLOK:  cpu time    2.6812: real time    2.6858
    SETDIJ:  cpu time    0.0245: real time    0.0245
     EDDAV:  cpu time    8.1137: real time    8.1247
       DOS:  cpu time    0.0076: real time    0.0076
    CHARGE:  cpu time    0.7013: real time    0.7019
    MIXING:  cpu time    0.0579: real time    0.0579
    --------------------------------------------
      LOOP:  cpu time   11.5862: real time   11.6024

 eigenvalue-minimisations  :   358
 total energy-change (2. order) : 0.9982409E+00  (-0.1055649E+01)
 number of electron     100.0000275 magnetization       9.3450428
 augmentation part       54.2419028 magnetization       7.1193657

 Broyden mixing:
  rms(total) = 0.23351E+01    rms(broyden)= 0.23344E+01
  rms(prec ) = 0.24420E+01
  weight for this iteration     100.00

 eigenvalues of (default mixing * dielectric matrix)
  average eigenvalue GAMMA=   0.3535
  0.9755  0.2814  0.2814  0.1145  0.1145

 Free energy of the ion-electron system (eV)
  ---------------------------------------------------
  alpha Z        PSCENC =         4.55928189
  Ewald energy   TEWEN  =     13232.75512789
  -Hartree energ DENC   =    -22227.51090494
  -exchange      EXHF   =         0.00000000
  -V(xc)+E(xc)   XCENC  =        62.29342098
  PAW double counting   =      9935.00183567   -10094.44120113
  entropy T*S    EENTRO =        -0.01843830
  eigenvalues    EBANDS =      -655.49584420
  atomic energy  EATOM  =      9704.95859309
  Solvation  Ediel_sol  =         0.00000000
  ---------------------------------------------------
  free energy    TOTEN  =       -37.89812907 eV

  energy without entropy =      -37.87969077  energy(sigma->0) =      -37.89198297


--------------------------------------------------------------------------------------------------------




--------------------------------------- Iteration      1(  11)  ---------------------------------------


    POTLOK:  cpu time    2.6944: real time    2.6982
    SETDIJ:  cpu time    0.0248: real time    0.0248
     EDDAV:  cpu time    7.6174: real time    7.6242
       DOS:  cpu time    0.0008: real time    0.0008
    CHARGE:  cpu time    0.7081: real time    0.7088
    MIXING:  cpu time    0.0628: real time    0.0629
    --------------------------------------------
      LOOP:  cpu time   11.1084: real time   11.1196

 eigenvalue-minimisations  :   326
 total energy-change (2. order) : 0.1804231E+01  (-0.6031730E+00)
 number of electron     100.0000256 magnetization       9.2891819
 augmentation part       54.3474065 magnetization       7.0089040

 Broyden mixing:
  rms(total) = 0.16913E+01    rms(broyden)= 0.16901E+01
  rms(prec ) = 0.17701E+01
  weight for this iteration     100.00

 eigenvalues of (default mixing * dielectric matrix)
  average eigenvalue GAMMA=   0.3588
  1.0653  0.4308  0.2652  0.1807  0.1053  0.1053

 Free energy of the ion-electron system (eV)
  ---------------------------------------------------
  alpha Z        PSCENC =         4.55928189
  Ewald energy   TEWEN  =     13232.75512789
  -Hartree energ DENC   =    -22237.23513695
  -exchange      EXHF   =         0.00000000
  -V(xc)+E(xc)   XCENC  =        62.43170572
  PAW double counting   =     10030.47395911   -10192.48128114
  entropy T*S    EENTRO =        -0.02499738
  eigenvalues    EBANDS =      -641.53115055
  atomic energy  EATOM  =      9704.95859309
  Solvation  Ediel_sol  =         0.00000000
  ---------------------------------------------------
  free energy    TOTEN  =       -36.09389833 eV

  energy without entropy =      -36.06890095  energy(sigma->0) =      -36.08556587


--------------------------------------------------------------------------------------------------------




--------------------------------------- Iteration      1(  12)  ---------------------------------------


    POTLOK:  cpu time    2.6922: real time    2.6976
    SETDIJ:  cpu time    0.0245: real time    0.0245
     EDDAV:  cpu time    8.3152: real time    8.3227
       DOS:  cpu time    0.0011: real time    0.0011
    CHARGE:  cpu time    0.7123: real time    0.7129
    MIXING:  cpu time    0.0716: real time    0.0716
    --------------------------------------------
      LOOP:  cpu time   11.8169: real time   11.8305

 eigenvalue-minimisations  :   366
 total energy-change (2. order) : 0.1887858E-01  (-0.7286977E+00)
 number of electron     100.0000252 magnetization       9.2101460
 augmentation part       54.4091171 magnetization       7.0381549

 Broyden mixing:
  rms(total) = 0.12258E+01    rms(broyden)= 0.12249E+01
  rms(prec ) = 0.12819E+01
  weight for this iteration     100.00

 eigenvalues of (default mixing * dielectric matrix)
  average eigenvalue GAMMA=   0.3807
  1.1154  0.4628  0.4628  0.2781  0.1484  0.0988  0.0988

 Free energy of the ion-electron system (eV)
  ---------------------------------------------------
  alpha Z        PSCENC =         4.55928189
  Ewald energy   TEWEN  =     13232.75512789
  -Hartree energ DENC   =    -22239.41112221
  -exchange      EXHF   =         0.00000000
  -V(xc)+E(xc)   XCENC  =        62.34376644
  PAW double counting   =     10076.82731185   -10239.23577810
  entropy T*S    EENTRO =        -0.01383904
  eigenvalues    EBANDS =      -638.85836156
  atomic energy  EATOM  =      9704.95859309
  Solvation  Ediel_sol  =         0.00000000
  ---------------------------------------------------
  free energy    TOTEN  =       -36.07501975 eV

  energy without entropy =      -36.06118071  energy(sigma->0) =      -36.07040674


--------------------------------------------------------------------------------------------------------




--------------------------------------- Iteration      1(  13)  ---------------------------------------


    POTLOK:  cpu time    2.6897: real time    2.6975
    SETDIJ:  cpu time    0.0252: real time    0.0253
     EDDAV:  cpu time    7.7169: real time    7.7235
       DOS:  cpu time    0.0008: real time    0.0008
    CHARGE:  cpu time    0.7157: real time    0.7163
    MIXING:  cpu time    0.0764: real time    0.0765
    --------------------------------------------
      LOOP:  cpu time   11.2247: real time   11.2398

 eigenvalue-minimisations  :   336
 total energy-change (2. order) :-0.2189785E+00  (-0.1804685E+00)
 number of electron     100.0000251 magnetization       9.1742789
 augmentation part       54.2818326 magnetization       7.0167849

 Broyden mixing:
  rms(total) = 0.93604E+00    rms(broyden)= 0.93526E+00
  rms(prec ) = 0.97902E+00
  weight for this iteration     100.00

 eigenvalues of (default mixing * dielectric matrix)
  average eigenvalue GAMMA=   0.3905
  1.1995  0.5418  0.5418  0.2512  0.2512  0.1307  0.1038  0.1038

 Free energy of the ion-electron system (eV)
  ---------------------------------------------------
  alpha Z        PSCENC =         4.55928189
  Ewald energy   TEWEN  =     13232.75512789
  -Hartree energ DENC   =    -22244.95665309
  -exchange      EXHF   =         0.00000000
  -V(xc)+E(xc)   XCENC  =        62.11129982
  PAW double counting   =     10120.12749254   -10283.74167598
  entropy T*S    EENTRO =         0.00379094
  eigenvalues    EBANDS =      -632.11125532
  atomic energy  EATOM  =      9704.95859309
  Solvation  Ediel_sol  =         0.00000000
  ---------------------------------------------------
  free energy    TOTEN  =       -36.29399823 eV

  energy without entropy =      -36.29778917  energy(sigma->0) =      -36.29526188


--------------------------------------------------------------------------------------------------------




--------------------------------------- Iteration      1(  14)  ---------------------------------------


    POTLOK:  cpu time    2.6924: real time    2.6956
    SETDIJ:  cpu time    0.0246: real time    0.0246
     EDDAV:  cpu time    7.6685: real time    7.6774
       DOS:  cpu time    0.0007: real time    0.0007
    CHARGE:  cpu time    0.7101: real time    0.7107
    MIXING:  cpu time    0.0840: real time    0.0841
    --------------------------------------------
      LOOP:  cpu time   11.1804: real time   11.1931

 eigenvalue-minimisations  :   334
 total energy-change (2. order) :-0.4114517E-01  (-0.6627000E-01)
 number of electron     100.0000250 magnetization       9.0768912
 augmentation part       54.2602068 magnetization       6.9557226

 Broyden mixing:
  rms(total) = 0.70884E+00    rms(broyden)= 0.70839E+00
  rms(prec ) = 0.74455E+00
  weight for this iteration     100.00

 eigenvalues of (default mixing * dielectric matrix)
  average eigenvalue GAMMA=   0.4464
  1.4052  0.7527  0.7527  0.3138  0.3138  0.1016  0.1016  0.1409  0.1355

 Free energy of the ion-electron system (eV)
  ---------------------------------------------------
  alpha Z        PSCENC =         4.55928189
  Ewald energy   TEWEN  =     13232.75512789
  -Hartree energ DENC   =    -22247.51714061
  -exchange      EXHF   =         0.00000000
  -V(xc)+E(xc)   XCENC  =        62.04724642
  PAW double counting   =     10134.90425635   -10299.01683299
  entropy T*S    EENTRO =         0.01412832
  eigenvalues    EBANDS =      -629.03980375
  atomic energy  EATOM  =      9704.95859309
  Solvation  Ediel_sol  =         0.00000000
  ---------------------------------------------------
  free energy    TOTEN  =       -36.33514340 eV

  energy without entropy =      -36.34927172  energy(sigma->0) =      -36.33985284


--------------------------------------------------------------------------------------------------------




--------------------------------------- Iteration      1(  15)  ---------------------------------------


    POTLOK:  cpu time    2.6852: real time    2.6901
    SETDIJ:  cpu time    0.0251: real time    0.0251
     EDDAV:  cpu time    7.7320: real time    7.7389
       DOS:  cpu time    0.0007: real time    0.0007
    CHARGE:  cpu time    0.6951: real time    0.6957
    MIXING:  cpu time    0.0884: real time    0.0885
    --------------------------------------------
      LOOP:  cpu time   11.2265: real time   11.2389

 eigenvalue-minimisations  :   340
 total energy-change (2. order) :-0.1366654E+00  (-0.5239990E-01)
 number of electron     100.0000251 magnetization       8.9959184
 augmentation part       54.3441122 magnetization       6.9129272

 Broyden mixing:
  rms(total) = 0.42851E+00    rms(broyden)= 0.42802E+00
  rms(prec ) = 0.44959E+00
  weight for this iteration     100.00

 eigenvalues of (default mixing * dielectric matrix)
  average eigenvalue GAMMA=   0.4713
  1.5612  0.7972  0.7972  0.3939  0.3939  0.2953  0.1022  0.1022  0.1460  0.1237

 Free energy of the ion-electron system (eV)
  ---------------------------------------------------
  alpha Z        PSCENC =         4.55928189
  Ewald energy   TEWEN  =     13232.75512789
  -Hartree energ DENC   =    -22249.78902662
  -exchange      EXHF   =         0.00000000
  -V(xc)+E(xc)   XCENC  =        61.83540312
  PAW double counting   =     10163.60026755   -10327.77413474
  entropy T*S    EENTRO =         0.03587020
  eigenvalues    EBANDS =      -626.65319113
  atomic energy  EATOM  =      9704.95859309
  Solvation  Ediel_sol  =         0.00000000
  ---------------------------------------------------
  free energy    TOTEN  =       -36.47180875 eV

  energy without entropy =      -36.50767895  energy(sigma->0) =      -36.48376548


--------------------------------------------------------------------------------------------------------




--------------------------------------- Iteration      1(  16)  ---------------------------------------


    POTLOK:  cpu time    2.7011: real time    2.7062
    SETDIJ:  cpu time    0.0251: real time    0.0251
     EDDAV:  cpu time    7.6506: real time    7.6595
       DOS:  cpu time    0.0063: real time    0.0063
    CHARGE:  cpu time    0.7200: real time    0.7207
    MIXING:  cpu time    0.0964: real time    0.0965
    --------------------------------------------
      LOOP:  cpu time   11.1994: real time   11.2141

 eigenvalue-minimisations  :   328
 total energy-change (2. order) :-0.2206696E+00  (-0.3455354E-01)
 number of electron     100.0000255 magnetization       8.9430368
 augmentation part       54.3995821 magnetization       6.8812643

 Broyden mixing:
  rms(total) = 0.58041E+00    rms(broyden)= 0.58012E+00
  rms(prec ) = 0.60698E+00
  weight for this iteration     100.00

 eigenvalues of (default mixing * dielectric matrix)
  average eigenvalue GAMMA=   0.4676
  1.6760  0.8260  0.8260  0.5365  0.3607  0.3040  0.1023  0.1023  0.1491  0.1388
  0.1224

 Free energy of the ion-electron system (eV)
  ---------------------------------------------------
  alpha Z        PSCENC =         4.55928189
  Ewald energy   TEWEN  =     13232.75512789
  -Hartree energ DENC   =    -22252.39870696
  -exchange      EXHF   =         0.00000000
  -V(xc)+E(xc)   XCENC  =        61.66599034
  PAW double counting   =     10176.62703820   -10340.87863501
  entropy T*S    EENTRO =         0.01521605
  eigenvalues    EBANDS =      -623.99638383
  atomic energy  EATOM  =      9704.95859309
  Solvation  Ediel_sol  =         0.00000000
  ---------------------------------------------------
  free energy    TOTEN  =       -36.69247835 eV

  energy without entropy =      -36.70769440  energy(sigma->0) =      -36.69755037


--------------------------------------------------------------------------------------------------------




--------------------------------------- Iteration      1(  17)  ---------------------------------------


    POTLOK:  cpu time    2.6949: real time    2.6997
    SETDIJ:  cpu time    0.0242: real time    0.0242
     EDDAV:  cpu time    7.0653: real time    7.0758
       DOS:  cpu time    0.0057: real time    0.0057
    CHARGE:  cpu time    0.7210: real time    0.7254
    MIXING:  cpu time    0.1121: real time    0.1121
    --------------------------------------------
      LOOP:  cpu time   10.6231: real time   10.6430

 eigenvalue-minimisations  :   292
 total energy-change (2. order) :-0.4733940E-01  (-0.3092480E-01)
 number of electron     100.0000254 magnetization       8.8479677
 augmentation part       54.4235679 magnetization       6.8153650

 Broyden mixing:
  rms(total) = 0.31359E+00    rms(broyden)= 0.31324E+00
  rms(prec ) = 0.32931E+00
  weight for this iteration     100.00

 eigenvalues of (default mixing * dielectric matrix)
  average eigenvalue GAMMA=   0.5081
  1.8158  0.8907  0.7774  0.7774  0.5914  0.3220  0.3220  0.1022  0.1022  0.1479
  0.1238  0.1238

 Free energy of the ion-electron system (eV)
  ---------------------------------------------------
  alpha Z        PSCENC =         4.55928189
  Ewald energy   TEWEN  =     13232.75512789
  -Hartree energ DENC   =    -22254.74912387
  -exchange      EXHF   =         0.00000000
  -V(xc)+E(xc)   XCENC  =        61.57377519
  PAW double counting   =     10183.08258883   -10347.49440934
  entropy T*S    EENTRO =         0.03589223
  eigenvalues    EBANDS =      -621.46154366
  atomic energy  EATOM  =      9704.95859309
  Solvation  Ediel_sol  =         0.00000000
  ---------------------------------------------------
  free energy    TOTEN  =       -36.73981775 eV

  energy without entropy =      -36.77570998  energy(sigma->0) =      -36.75178183


--------------------------------------------------------------------------------------------------------




--------------------------------------- Iteration      1(  18)  ---------------------------------------


    POTLOK:  cpu time    2.7170: real time    2.7220
    SETDIJ:  cpu time    0.0241: real time    0.0241
     EDDAV:  cpu time    7.9906: real time    7.9983
       DOS:  cpu time    0.0058: real time    0.0058
    CHARGE:  cpu time    0.7035: real time    0.7041
    MIXING:  cpu time    0.1087: real time    0.1088
    --------------------------------------------
      LOOP:  cpu time   11.5497: real time   11.5631

 eigenvalue-minimisations  :   348
 total energy-change (2. order) :-0.1938227E+00  (-0.8289853E-02)
 number of electron     100.0000256 magnetization       8.7562657
 augmentation part       54.4065738 magnetization       6.7174737

 Broyden mixing:
  rms(total) = 0.23921E+00    rms(broyden)= 0.23905E+00
  rms(prec ) = 0.25015E+00
  weight for this iteration     100.00

 eigenvalues of (default mixing * dielectric matrix)
  average eigenvalue GAMMA=   0.5607
  2.1307  1.2617  0.7869  0.7869  0.5319  0.5319  0.3413  0.3167  0.1023  0.1023
  0.1488  0.1242  0.1242

 Free energy of the ion-electron system (eV)
  ---------------------------------------------------
  alpha Z        PSCENC =         4.55928189
  Ewald energy   TEWEN  =     13232.75512789
  -Hartree energ DENC   =    -22259.61324717
  -exchange      EXHF   =         0.00000000
  -V(xc)+E(xc)   XCENC  =        61.46107448
  PAW double counting   =     10186.51687230   -10351.31412566
  entropy T*S    EENTRO =         0.03178773
  eigenvalues    EBANDS =      -616.28900502
  atomic energy  EATOM  =      9704.95859309
  Solvation  Ediel_sol  =         0.00000000
  ---------------------------------------------------
  free energy    TOTEN  =       -36.93364047 eV

  energy without entropy =      -36.96542820  energy(sigma->0) =      -36.94423638


--------------------------------------------------------------------------------------------------------




--------------------------------------- Iteration      1(  19)  ---------------------------------------


    POTLOK:  cpu time    2.6907: real time    2.6975
    SETDIJ:  cpu time    0.0263: real time    0.0263
     EDDAV:  cpu time    8.2360: real time    8.2451
       DOS:  cpu time    0.0063: real time    0.0063
    CHARGE:  cpu time    0.7007: real time    0.7014
    MIXING:  cpu time    0.1235: real time    0.1237
    --------------------------------------------
      LOOP:  cpu time   11.7835: real time   11.8002

 eigenvalue-minimisations  :   364
 total energy-change (2. order) :-0.1895660E+00  (-0.6357899E-02)
 number of electron     100.0000255 magnetization       8.6878352
 augmentation part       54.4076083 magnetization       6.6719762

 Broyden mixing:
  rms(total) = 0.11694E+00    rms(broyden)= 0.11661E+00
  rms(prec ) = 0.12190E+00
  weight for this iteration     100.00

 eigenvalues of (default mixing * dielectric matrix)
  average eigenvalue GAMMA=   0.5954
  2.4374  1.4799  0.7636  0.7636  0.5829  0.5829  0.4724  0.3252  0.3252  0.1023
  0.1023  0.1487  0.1243  0.1243

 Free energy of the ion-electron system (eV)
  ---------------------------------------------------
  alpha Z        PSCENC =         4.55928189
  Ewald energy   TEWEN  =     13232.75512789
  -Hartree energ DENC   =    -22263.54255207
  -exchange      EXHF   =         0.00000000
  -V(xc)+E(xc)   XCENC  =        61.34307070
  PAW double counting   =     10186.86328155   -10351.81139046
  entropy T*S    EENTRO =         0.03453389
  eigenvalues    EBANDS =      -612.28315290
  atomic energy  EATOM  =      9704.95859309
  Solvation  Ediel_sol  =         0.00000000
  ---------------------------------------------------
  free energy    TOTEN  =       -37.12320642 eV

  energy without entropy =      -37.15774031  energy(sigma->0) =      -37.13471772


--------------------------------------------------------------------------------------------------------




--------------------------------------- Iteration      1(  20)  ---------------------------------------


    POTLOK:  cpu time    2.6964: real time    2.7077
    SETDIJ:  cpu time    0.0242: real time    0.0242
     EDDAV:  cpu time    7.5155: real time    7.5252
       DOS:  cpu time    0.0064: real time    0.0065
    CHARGE:  cpu time    0.7021: real time    0.7027
    MIXING:  cpu time    0.1267: real time    0.1268
    --------------------------------------------
      LOOP:  cpu time   11.0713: real time   11.0931

 eigenvalue-minimisations  :   326
 total energy-change (2. order) :-0.1594112E+00  (-0.2561102E-02)
 number of electron     100.0000254 magnetization       8.6398143
 augmentation part       54.4050883 magnetization       6.6297287

 Broyden mixing:
  rms(total) = 0.12111E+00    rms(broyden)= 0.12098E+00
  rms(prec ) = 0.12700E+00
  weight for this iteration     100.00

 eigenvalues of (default mixing * dielectric matrix)
  average eigenvalue GAMMA=   0.6241
  2.5667  1.5157  0.8061  0.8061  0.7058  0.7058  0.5519  0.4483  0.3266  0.3266
  0.1023  0.1023  0.1487  0.1243  0.1243

 Free energy of the ion-electron system (eV)
  ---------------------------------------------------
  alpha Z        PSCENC =         4.55928189
  Ewald energy   TEWEN  =     13232.75512789
  -Hartree energ DENC   =    -22265.85425912
  -exchange      EXHF   =         0.00000000
  -V(xc)+E(xc)   XCENC  =        61.22819533
  PAW double counting   =     10182.28416604   -10347.23675226
  entropy T*S    EENTRO =         0.03355455
  eigenvalues    EBANDS =      -610.01052503
  atomic energy  EATOM  =      9704.95859309
  Solvation  Ediel_sol  =         0.00000000
  ---------------------------------------------------
  free energy    TOTEN  =       -37.28261762 eV

  energy without entropy =      -37.31617217  energy(sigma->0) =      -37.29380247


--------------------------------------------------------------------------------------------------------




--------------------------------------- Iteration      1(  21)  ---------------------------------------


    POTLOK:  cpu time    2.6774: real time    2.6853
    SETDIJ:  cpu time    0.0245: real time    0.0246
     EDDAV:  cpu time    7.7878: real time    7.7948
       DOS:  cpu time    0.0072: real time    0.0072
    CHARGE:  cpu time    0.6638: real time    0.6643
    MIXING:  cpu time    0.1401: real time    0.1403
    --------------------------------------------
      LOOP:  cpu time   11.3009: real time   11.3165

 eigenvalue-minimisations  :   340
 total energy-change (2. order) :-0.1306780E+00  (-0.1134178E-02)
 number of electron     100.0000254 magnetization       8.5755339
 augmentation part       54.4014343 magnetization       6.5827503

 Broyden mixing:
  rms(total) = 0.55208E-01    rms(broyden)= 0.55177E-01
  rms(prec ) = 0.58504E-01
  weight for this iteration     100.00

 eigenvalues of (default mixing * dielectric matrix)
  average eigenvalue GAMMA=   0.6478
  2.6357  1.6286  0.7761  0.7761  0.7865  0.7865  0.6819  0.5748  0.4679  0.3248
  0.3248  0.1023  0.1023  0.1487  0.1243  0.1243

 Free energy of the ion-electron system (eV)
  ---------------------------------------------------
  alpha Z        PSCENC =         4.55928189
  Ewald energy   TEWEN  =     13232.75512789
  -Hartree energ DENC   =    -22267.13861579
  -exchange      EXHF   =         0.00000000
  -V(xc)+E(xc)   XCENC  =        61.11478722
  PAW double counting   =     10178.14017144   -10343.06508835
  entropy T*S    EENTRO =         0.03622292
  eigenvalues    EBANDS =      -608.77377592
  atomic energy  EATOM  =      9704.95859309
  Solvation  Ediel_sol  =         0.00000000
  ---------------------------------------------------
  free energy    TOTEN  =       -37.41329562 eV

  energy without entropy =      -37.44951853  energy(sigma->0) =      -37.42536992


--------------------------------------------------------------------------------------------------------




--------------------------------------- Iteration      1(  22)  ---------------------------------------


    POTLOK:  cpu time    2.6900: real time    2.6966
    SETDIJ:  cpu time    0.0242: real time    0.0242
     EDDAV:  cpu time    7.6940: real time    7.7011
       DOS:  cpu time    0.0020: real time    0.0020
    CHARGE:  cpu time    0.7103: real time    0.7128
    MIXING:  cpu time    0.1447: real time    0.1448
    --------------------------------------------
      LOOP:  cpu time   11.2652: real time   11.2815

 eigenvalue-minimisations  :   330
 total energy-change (2. order) :-0.1532560E+00  (-0.6404658E-03)
 number of electron     100.0000255 magnetization       8.5075998
 augmentation part       54.4017639 magnetization       6.5243050

 Broyden mixing:
  rms(total) = 0.33884E-01    rms(broyden)= 0.33852E-01
  rms(prec ) = 0.36188E-01
  weight for this iteration     100.00

 eigenvalues of (default mixing * dielectric matrix)
  average eigenvalue GAMMA=   0.6799
  2.8542  1.6600  0.9635  0.9635  0.7595  0.7595  0.6793  0.6793  0.5382  0.4483
  0.3255  0.3255  0.1023  0.1023  0.1487  0.1243  0.1243

 Free energy of the ion-electron system (eV)
  ---------------------------------------------------
  alpha Z        PSCENC =         4.55928189
  Ewald energy   TEWEN  =     13232.75512789
  -Hartree energ DENC   =    -22268.81774457
  -exchange      EXHF   =         0.00000000
  -V(xc)+E(xc)   XCENC  =        60.98462484
  PAW double counting   =     10172.43348619   -10337.31875184
  entropy T*S    EENTRO =         0.03763527
  eigenvalues    EBANDS =      -607.15880441
  atomic energy  EATOM  =      9704.95859309
  Solvation  Ediel_sol  =         0.00000000
  ---------------------------------------------------
  free energy    TOTEN  =       -37.56655165 eV

  energy without entropy =      -37.60418691  energy(sigma->0) =      -37.57909674


--------------------------------------------------------------------------------------------------------




--------------------------------------- Iteration      1(  23)  ---------------------------------------


    POTLOK:  cpu time    2.6882: real time    2.6921
    SETDIJ:  cpu time    0.0245: real time    0.0246
     EDDAV:  cpu time    7.1379: real time    7.1444
       DOS:  cpu time    0.0020: real time    0.0020
    CHARGE:  cpu time    0.7100: real time    0.7106
    MIXING:  cpu time    0.1611: real time    0.1613
    --------------------------------------------
      LOOP:  cpu time   10.7237: real time   10.7350

 eigenvalue-minimisations  :   300
 total energy-change (2. order) :-0.1330806E+00  (-0.4975118E-03)
 number of electron     100.0000254 magnetization       8.4505038
 augmentation part       54.3997606 magnetization       6.4764828

 Broyden mixing:
  rms(total) = 0.16526E-01    rms(broyden)= 0.16486E-01
  rms(prec ) = 0.18260E-01
  weight for this iteration     100.00

 eigenvalues of (default mixing * dielectric matrix)
  average eigenvalue GAMMA=   0.7022
  2.9347  1.7031  1.1147  1.1147  0.7697  0.7697  0.6880  0.6880  0.6225  0.5258
  0.4560  0.3252  0.3252  0.1023  0.1023  0.1487  0.1243  0.1243

 Free energy of the ion-electron system (eV)
  ---------------------------------------------------
  alpha Z        PSCENC =         4.55928189
  Ewald energy   TEWEN  =     13232.75512789
  -Hartree energ DENC   =    -22270.52514881
  -exchange      EXHF   =         0.00000000
  -V(xc)+E(xc)   XCENC  =        60.87507894
  PAW double counting   =     10168.62134534   -10333.51134317
  entropy T*S    EENTRO =         0.03933507
  eigenvalues    EBANDS =      -605.47190247
  atomic energy  EATOM  =      9704.95859309
  Solvation  Ediel_sol  =         0.00000000
  ---------------------------------------------------
  free energy    TOTEN  =       -37.69963225 eV

  energy without entropy =      -37.73896732  energy(sigma->0) =      -37.71274394


--------------------------------------------------------------------------------------------------------




--------------------------------------- Iteration      1(  24)  ---------------------------------------


    POTLOK:  cpu time    2.6845: real time    2.6908
    SETDIJ:  cpu time    0.0245: real time    0.0245
     EDDAV:  cpu time    6.4537: real time    6.4595
       DOS:  cpu time    0.0020: real time    0.0020
    CHARGE:  cpu time    0.6828: real time    0.6834
    MIXING:  cpu time    0.1643: real time    0.1644
    --------------------------------------------
      LOOP:  cpu time   10.0118: real time   10.0247

 eigenvalue-minimisations  :   266
 total energy-change (2. order) :-0.1017709E+00  (-0.2422715E-03)
 number of electron     100.0000254 magnetization       8.3847443
 augmentation part       54.4002810 magnetization       6.4173757

 Broyden mixing:
  rms(total) = 0.12768E-01    rms(broyden)= 0.12752E-01
  rms(prec ) = 0.14234E-01
  weight for this iteration     100.00

 eigenvalues of (default mixing * dielectric matrix)
  average eigenvalue GAMMA=   0.7222
  3.0194  1.7474  1.1795  0.9358  0.9358  0.7661  0.7661  0.7897  0.7897  0.6043
  0.4680  0.4680  0.3253  0.3253  0.1023  0.1023  0.1487  0.1243  0.1243

 Free energy of the ion-electron system (eV)
  ---------------------------------------------------
  alpha Z        PSCENC =         4.55928189
  Ewald energy   TEWEN  =     13232.75512789
  -Hartree energ DENC   =    -22271.63841020
  -exchange      EXHF   =         0.00000000
  -V(xc)+E(xc)   XCENC  =        60.78434598
  PAW double counting   =     10165.45885329   -10330.34302074
  entropy T*S    EENTRO =         0.03982829
  eigenvalues    EBANDS =      -604.37600267
  atomic energy  EATOM  =      9704.95859309
  Solvation  Ediel_sol  =         0.00000000
  ---------------------------------------------------
  free energy    TOTEN  =       -37.80140318 eV

  energy without entropy =      -37.84123147  energy(sigma->0) =      -37.81467928


--------------------------------------------------------------------------------------------------------




--------------------------------------- Iteration      1(  25)  ---------------------------------------


    POTLOK:  cpu time    2.6695: real time    2.6736
    SETDIJ:  cpu time    0.0242: real time    0.0243
     EDDAV:  cpu time    6.5417: real time    6.5478
       DOS:  cpu time    0.0008: real time    0.0008
    CHARGE:  cpu time    0.7134: real time    0.7140
    MIXING:  cpu time    0.1920: real time    0.1922
    --------------------------------------------
      LOOP:  cpu time   10.1417: real time   10.1527

 eigenvalue-minimisations  :   266
 total energy-change (2. order) :-0.9987134E-01  (-0.2184767E-03)
 number of electron     100.0000255 magnetization       8.2960806
 augmentation part       54.3995524 magnetization       6.3352860

 Broyden mixing:
  rms(total) = 0.96409E-02    rms(broyden)= 0.96301E-02
  rms(prec ) = 0.10751E-01
  weight for this iteration     100.00

 eigenvalues of (default mixing * dielectric matrix)
  average eigenvalue GAMMA=   0.7643
  3.2107  1.9319  1.6593  0.9700  0.9700  0.7625  0.7625  0.7897  0.7259  0.7259
  0.5837  0.4860  0.4560  0.3253  0.3253  0.1023  0.1023  0.1487  0.1243  0.1243

 Free energy of the ion-electron system (eV)
  ---------------------------------------------------
  alpha Z        PSCENC =         4.55928189
  Ewald energy   TEWEN  =     13232.75512789
  -Hartree energ DENC   =    -22272.76221669
  -exchange      EXHF   =         0.00000000
  -V(xc)+E(xc)   XCENC  =        60.69325993
  PAW double counting   =     10162.45064793   -10327.33147767
  entropy T*S    EENTRO =         0.03994375
  eigenvalues    EBANDS =      -603.26443463
  atomic energy  EATOM  =      9704.95859309
  Solvation  Ediel_sol  =         0.00000000
  ---------------------------------------------------
  free energy    TOTEN  =       -37.90127452 eV

  energy without entropy =      -37.94121827  energy(sigma->0) =      -37.91458910


--------------------------------------------------------------------------------------------------------




--------------------------------------- Iteration      1(  26)  ---------------------------------------


    POTLOK:  cpu time    2.6957: real time    2.7029
    SETDIJ:  cpu time    0.0252: real time    0.0252
     EDDAV:  cpu time    6.4001: real time    6.4059
       DOS:  cpu time    0.0020: real time    0.0020
    CHARGE:  cpu time    0.6999: real time    0.7005
    MIXING:  cpu time    0.1976: real time    0.1979
    --------------------------------------------
      LOOP:  cpu time   10.0204: real time   10.0343

 eigenvalue-minimisations  :   258
 total energy-change (2. order) :-0.1005278E+00  (-0.2681524E-03)
 number of electron     100.0000255 magnetization       8.2368310
 augmentation part       54.4008908 magnetization       6.2839906

 Broyden mixing:
  rms(total) = 0.10046E-01    rms(broyden)= 0.10039E-01
  rms(prec ) = 0.10804E-01
  weight for this iteration     100.00

 eigenvalues of (default mixing * dielectric matrix)
  average eigenvalue GAMMA=   0.8160
  3.6436  2.1414  1.9667  1.0372  1.0372  0.7609  0.7609  0.7433  0.7433  0.7777
  0.7777  0.5634  0.4656  0.4656  0.3253  0.3253  0.1023  0.1023  0.1487  0.1243
  0.1243

 Free energy of the ion-electron system (eV)
  ---------------------------------------------------
  alpha Z        PSCENC =         4.55928189
  Ewald energy   TEWEN  =     13232.75512789
  -Hartree energ DENC   =    -22274.19262847
  -exchange      EXHF   =         0.00000000
  -V(xc)+E(xc)   XCENC  =        60.60194233
  PAW double counting   =     10159.43516484   -10324.31483611
  entropy T*S    EENTRO =         0.04027198
  eigenvalues    EBANDS =      -601.84471980
  atomic energy  EATOM  =      9704.95859309
  Solvation  Ediel_sol  =         0.00000000
  ---------------------------------------------------
  free energy    TOTEN  =       -38.00180236 eV

  energy without entropy =      -38.04207434  energy(sigma->0) =      -38.01522635


--------------------------------------------------------------------------------------------------------




--------------------------------------- Iteration      1(  27)  ---------------------------------------


    POTLOK:  cpu time    2.6820: real time    2.6862
    SETDIJ:  cpu time    0.0244: real time    0.0244
     EDDAV:  cpu time    6.3321: real time    6.3385
       DOS:  cpu time    0.0020: real time    0.0020
    CHARGE:  cpu time    0.7040: real time    0.7045
    MIXING:  cpu time    0.1992: real time    0.2014
    --------------------------------------------
      LOOP:  cpu time    9.9437: real time    9.9570

 eigenvalue-minimisations  :   252
 total energy-change (2. order) :-0.5240067E-01  (-0.8695243E-04)
 number of electron     100.0000255 magnetization       8.1857244
 augmentation part       54.3989454 magnetization       6.2377639

 Broyden mixing:
  rms(total) = 0.61996E-02    rms(broyden)= 0.61946E-02
  rms(prec ) = 0.66521E-02
  weight for this iteration     100.00

 eigenvalues of (default mixing * dielectric matrix)
  average eigenvalue GAMMA=   0.8475
  3.8393  2.5744  1.8718  1.1349  1.1349  0.8870  0.8870  0.7622  0.7622  0.7039
  0.7039  0.6012  0.6012  0.4641  0.4641  0.3253  0.3253  0.1023  0.1023  0.1487
  0.1243  0.1243

 Free energy of the ion-electron system (eV)
  ---------------------------------------------------
  alpha Z        PSCENC =         4.55928189
  Ewald energy   TEWEN  =     13232.75512789
  -Hartree energ DENC   =    -22275.07907620
  -exchange      EXHF   =         0.00000000
  -V(xc)+E(xc)   XCENC  =        60.55511022
  PAW double counting   =     10158.49805690   -10323.38975674
  entropy T*S    EENTRO =         0.04035976
  eigenvalues    EBANDS =      -600.95189985
  atomic energy  EATOM  =      9704.95859309
  Solvation  Ediel_sol  =         0.00000000
  ---------------------------------------------------
  free energy    TOTEN  =       -38.05420303 eV

  energy without entropy =      -38.09456280  energy(sigma->0) =      -38.06765629


--------------------------------------------------------------------------------------------------------




--------------------------------------- Iteration      1(  28)  ---------------------------------------


    POTLOK:  cpu time    2.6819: real time    2.6869
    SETDIJ:  cpu time    0.0244: real time    0.0244
     EDDAV:  cpu time    6.1572: real time    6.1667
       DOS:  cpu time    0.0075: real time    0.0075
    CHARGE:  cpu time    0.7111: real time    0.7117
    MIXING:  cpu time    0.2166: real time    0.2167
    --------------------------------------------
      LOOP:  cpu time    9.7987: real time    9.8140

 eigenvalue-minimisations  :   244
 total energy-change (2. order) :-0.4011427E-01  (-0.5225789E-04)
 number of electron     100.0000255 magnetization       8.1302875
 augmentation part       54.4000934 magnetization       6.1861301

 Broyden mixing:
  rms(total) = 0.61158E-02    rms(broyden)= 0.61126E-02
  rms(prec ) = 0.64980E-02
  weight for this iteration     100.00

 eigenvalues of (default mixing * dielectric matrix)
  average eigenvalue GAMMA=   0.8970
[...]


    POTLOK:  cpu time    2.6730: real time    2.6793
    SETDIJ:  cpu time    0.0244: real time    0.0244
     EDDAV:  cpu time    4.6828: real time    4.6871
       DOS:  cpu time    0.0102: real time    0.0102
    --------------------------------------------
      LOOP:  cpu time    7.3903: real time    7.4010

 eigenvalue-minimisations  :   162
 total energy-change (2. order) :-0.8906042E-04  (-0.1891737E-06)
 number of electron     100.0000255 magnetization       7.9877258
 augmentation part       54.3991616 magnetization       6.0585861

 Free energy of the ion-electron system (eV)
  ---------------------------------------------------
  alpha Z        PSCENC =         4.55928189
  Ewald energy   TEWEN  =     13232.75512789
  -Hartree energ DENC   =    -22276.37648781
  -exchange      EXHF   =         0.00000000
  -V(xc)+E(xc)   XCENC  =        60.43575091
  PAW double counting   =     10158.41162789   -10323.30051445
  entropy T*S    EENTRO =         0.04051397
  eigenvalues    EBANDS =      -599.65944023
  atomic energy  EATOM  =      9704.95859309
  Solvation  Ediel_sol  =         0.00000000
  ---------------------------------------------------
  free energy    TOTEN  =       -38.17554684 eV

  energy without entropy =      -38.21606081  energy(sigma->0) =      -38.18905150


--------------------------------------------------------------------------------------------------------




 average (electrostatic) potential at core
  the test charge radii are     0.9791  1.1199
  (the norm of the test charge is              1.0000)
       1 -95.5399       2 -95.1978       3 -95.4701       4 -95.3559       5 -95.1848
       6 -95.2285       7 -83.6433       8 -83.8438       9 -83.6043      10 -83.7061
 
 
 
 E-fermi :  -4.1273     XC(G=0):  -0.3133     alpha+bet : -0.1657


 spin component 1

 k-point     1 :       0.0000    0.0000    0.0000
  band No.  band energies     occupation 
      1      -9.9308      1.00000
      2      -8.5745      1.00000
      3      -8.2548      1.00000
      4      -7.9625      1.00000
      5      -7.8329      1.00000
      6      -7.8254      1.00000
      7      -7.5974      1.00000
      8      -7.5664      1.00000
      9      -7.5641      1.00000
     10      -7.4721      1.00000
     11      -7.3690      1.00000
     12      -7.3507      1.00000
     13      -7.0669      1.00000
     14      -7.0166      1.00000
     15      -6.9211      1.00000
     16      -6.8424      1.00000
     17      -6.6443      1.00000
     18      -6.5887      1.00000
     19      -6.4658      1.00000
     20      -6.4271      1.00000
     21      -6.3721      1.00000
     22      -6.3444      1.00000
     23      -6.2712      1.00000
     24      -6.2395      1.00000
     25      -6.1646      1.00000
     26      -6.0377      1.00000
     27      -5.9770      1.00000
     28      -5.8879      1.00000
     29      -5.7893      1.00000
     30      -5.6951      1.00000
     31      -5.6109      1.00000
     32      -5.5684      1.00000
     33      -5.5289      1.00000
     34      -5.4155      1.00000
     35      -5.4018      1.00000
     36      -5.3805      1.00000
     37      -5.3109      1.00000
     38      -5.2871      1.00000
     39      -5.2488      1.00000
     40      -5.2024      1.00000
     41      -5.1780      1.00000
     42      -5.1596      1.00000
     43      -5.1414      1.00000
     44      -5.1135      1.00000
     45      -5.0805      1.00000
     46      -5.0411      1.00000
     47      -4.9692      1.00000
     48      -4.9536      1.00000
     49      -4.9103      1.00000
     50      -4.8526      1.00000
     51      -4.7452      1.00006
     52      -4.7066      1.00016
     53      -4.6460      1.00076
     54      -4.2881      0.99107
     55      -2.9894     -0.00000
     56      -2.9242     -0.00000
     57      -2.8291     -0.00000
     58      -2.5665     -0.00000
     59      -1.8932     -0.00000
     60      -1.7087     -0.00000
     61      -1.0849     -0.00000
     62      -0.8387     -0.00000
     63      -0.6991     -0.00000
     64      -0.5779     -0.00000
     65      -0.3675     -0.00000
     66      -0.3111     -0.00000

 spin component 2

 k-point     1 :       0.0000    0.0000    0.0000
  band No.  band energies     occupation 
      1      -9.8651      1.00000
      2      -8.3155      1.00000
      3      -7.9065      1.00000
      4      -7.4681      1.00000
      5      -7.3507      1.00000
      6      -7.2989      1.00000
      7      -7.0496      1.00000
      8      -6.8680      1.00000
      9      -6.7583      1.00000
     10      -6.7094      1.00000
     11      -6.6420      1.00000
     12      -6.5472      1.00000
     13      -6.5356      1.00000
     14      -6.2354      1.00000
     15      -6.2091      1.00000
     16      -6.1162      1.00000
     17      -6.0943      1.00000
     18      -6.0712      1.00000
     19      -6.0220      1.00000
     20      -5.9385      1.00000
     21      -5.9146      1.00000
     22      -5.7849      1.00000
     23      -5.7616      1.00000
     24      -5.6361      1.00000
     25      -5.6062      1.00000
     26      -5.4950      1.00000
     27      -5.4202      1.00000
     28      -5.3989      1.00000
     29      -5.1963      1.00000
     30      -5.1253      1.00000
     31      -5.0826      1.00000
     32      -4.9792      1.00000
     33      -4.9716      1.00000
     34      -4.8621      1.00000
     35      -4.7936      1.00001
     36      -4.6631      1.00050
     37      -4.6076      1.00178
     38      -4.5929      1.00241
     39      -4.5527      1.00519
     40      -4.5164      1.00950
     41      -4.4308      1.02686
     42      -4.3965      1.03355
     43      -4.3534      1.03391
     44      -4.2994      1.00394
     45      -4.2256      0.86545
     46      -4.1734      0.68930
     47      -4.1103      0.42834
     48      -3.9754      0.02101
     49      -3.9410     -0.01646
     50      -3.9152     -0.03031
     51      -3.8781     -0.03539
     52      -3.7824     -0.01750
     53      -3.7569     -0.01252
     54      -3.6423     -0.00161
     55      -2.7383     -0.00000
     56      -2.6612     -0.00000
     57      -2.4648     -0.00000
     58      -2.3370     -0.00000
     59      -1.6484     -0.00000
     60      -1.3909     -0.00000
     61      -0.9667     -0.00000
     62      -0.7104     -0.00000
     63      -0.5264     -0.00000
     64      -0.4622     -0.00000
     65      -0.1840     -0.00000
     66      -0.1453     -0.00000


--------------------------------------------------------------------------------------------------------


 soft charge-density along one line, spin component            1
         0         1         2         3         4         5         6         7         8         9
 total charge-density along one line
 
 soft charge-density along one line, spin component            2
         0         1         2         3         4         5         6         7         8         9
 total charge-density along one line
 
 pseudopotential strength for first ion, spin component:            1
-10.343  -0.053   0.002  -0.016   0.135 -10.610  -0.050   0.002
 -0.053 -10.454  -0.110  -0.077   0.002  -0.050 -10.715  -0.105
  0.002  -0.110 -10.318   0.056  -0.092   0.002  -0.105 -10.585
 -0.016  -0.077   0.056 -10.403   0.058  -0.015  -0.073   0.053
  0.135   0.002  -0.092   0.058 -10.465   0.129   0.001  -0.088
-10.610  -0.050   0.002  -0.015   0.129 -10.822  -0.048   0.001
 -0.050 -10.715  -0.105  -0.073   0.001  -0.048 -10.922  -0.101
  0.002  -0.105 -10.585   0.053  -0.088   0.001  -0.101 -10.798
 -0.015  -0.073   0.053 -10.668   0.055  -0.015  -0.070   0.051
  0.129   0.001  -0.088   0.055 -10.726   0.124   0.001  -0.084
  0.013   0.009  -0.001  -0.005  -0.019   0.013   0.009  -0.001
  0.023   0.016  -0.001  -0.010  -0.033   0.022   0.015  -0.001
  0.011   0.003  -0.001   0.000   0.001   0.009   0.002  -0.001
  0.000   0.000   0.006   0.009   0.001   0.000   0.001   0.006
  0.003   0.000  -0.005   0.005   0.007   0.003   0.000  -0.004
  0.011   0.003  -0.002   0.001   0.000   0.009   0.003  -0.002
  0.001   0.002   0.007   0.009   0.001   0.000   0.002   0.006
  0.006   0.001  -0.004   0.005   0.006   0.005   0.000  -0.004
 pseudopotential strength for first ion, spin component:            2
 -9.573   0.038   0.040  -0.032  -0.062  -9.877   0.037   0.038
  0.038  -9.556   0.024  -0.004   0.034   0.037  -9.860   0.023
  0.040   0.024  -9.554  -0.021  -0.025   0.038   0.023  -9.858
 -0.032  -0.004  -0.021  -9.464  -0.017  -0.031  -0.004  -0.020
 -0.062   0.034  -0.025  -0.017  -9.515  -0.060   0.032  -0.023
 -9.877   0.037   0.038  -0.031  -0.060 -10.124   0.035   0.037
  0.037  -9.860   0.023  -0.004   0.032   0.035 -10.108   0.022
  0.038   0.023  -9.858  -0.020  -0.023   0.037   0.022 -10.106
 -0.031  -0.004  -0.020  -9.772  -0.016  -0.030  -0.003  -0.019
 -0.060   0.032  -0.023  -0.016  -9.820  -0.058   0.031  -0.022
  0.006   0.004   0.000  -0.002  -0.008   0.006   0.004   0.000
  0.010   0.006   0.001  -0.003  -0.013   0.010   0.006   0.001
  0.013   0.005   0.001  -0.000   0.001   0.012   0.005   0.001
 -0.000  -0.002   0.006   0.013  -0.000  -0.000  -0.001   0.005
 -0.002  -0.000  -0.008   0.005   0.013  -0.002  -0.000  -0.007
  0.014   0.006   0.001  -0.000   0.001   0.013   0.006   0.000
 -0.000  -0.002   0.006   0.014  -0.000  -0.000  -0.001   0.006
 -0.002  -0.000  -0.009   0.006   0.015  -0.002  -0.000  -0.008
 total augmentation occupancy for first ion, spin component:            1
  3.568  -0.243  -0.045  -0.057   0.518  -1.611   0.105   0.021   0.043  -0.192  -0.161  -0.039   0.321   0.003  -0.013  -0.017
 -0.243   3.023  -0.525  -0.371  -0.159   0.097  -1.379   0.247   0.179   0.091  -0.053   0.002  -0.013  -0.188   0.005   0.000
 -0.045  -0.525   3.367   0.198  -0.287   0.024   0.248  -1.475  -0.095   0.109  -0.077  -0.038   0.010   0.129  -0.137  -0.000
 -0.057  -0.371   0.198   2.927   0.193   0.043   0.184  -0.101  -1.262  -0.093   0.001   0.017   0.006   0.302   0.033  -0.001
  0.518  -0.159  -0.287   0.193   3.073  -0.195   0.088   0.120  -0.089  -1.401   0.233   0.024   0.176   0.027   0.203  -0.014
 -1.611   0.097   0.024   0.043  -0.195   1.475  -0.019  -0.018  -0.020   0.012   0.192   0.017  -0.336   0.001   0.056   0.031
  0.105  -1.379   0.248   0.184   0.088  -0.019   1.456  -0.069  -0.055  -0.045   0.080  -0.003   0.002   0.203  -0.003   0.001
  0.021   0.247  -1.475  -0.101   0.120  -0.018  -0.069   1.392   0.054  -0.001   0.085   0.020  -0.025  -0.122   0.153   0.003
  0.043   0.179  -0.095  -1.262  -0.089  -0.020  -0.055   0.054   1.303   0.037   0.006  -0.013  -0.003  -0.331  -0.029   0.000
 -0.192   0.091   0.109  -0.093  -1.401   0.012  -0.045  -0.001   0.037   1.432  -0.266  -0.002  -0.181  -0.019  -0.251   0.019
 -0.161  -0.053  -0.077   0.001   0.233   0.192   0.080   0.085   0.006  -0.266   2.070  -0.229   0.134  -0.039  -0.280  -0.022
 -0.039   0.002  -0.038   0.017   0.024   0.017  -0.003   0.020  -0.013  -0.002  -0.229   0.036  -0.025   0.011   0.054   0.003
  0.321  -0.013   0.010   0.006   0.176  -0.336   0.002  -0.025  -0.003  -0.181   0.134  -0.025   0.263   0.004   0.031  -0.024
  0.003  -0.188   0.129   0.302   0.027   0.001   0.203  -0.122  -0.331  -0.019  -0.039   0.011   0.004   0.263  -0.004  -0.000
 -0.013   0.005  -0.137   0.033   0.203   0.056  -0.003   0.153  -0.029  -0.251  -0.280   0.054   0.031  -0.004   0.190  -0.001
 -0.017   0.000  -0.000  -0.001  -0.014   0.031   0.001   0.003   0.000   0.019  -0.022   0.003  -0.024  -0.000  -0.001   0.002
 -0.002   0.010  -0.007  -0.019  -0.001   0.001  -0.018   0.011   0.033   0.001   0.009  -0.001  -0.000  -0.023  -0.000  -0.000
 -0.004  -0.002   0.004  -0.002  -0.006  -0.004   0.001  -0.013   0.004   0.022   0.049  -0.007  -0.001  -0.000  -0.021  -0.000
 total augmentation occupancy for first ion, spin component:            2
  0.856   0.290   0.065   0.004  -0.582  -0.410  -0.153  -0.018  -0.012   0.278  -0.072  -0.029   0.002  -0.016  -0.039   0.006
  0.290   1.444   0.483   0.313   0.115  -0.143  -0.751  -0.256  -0.175  -0.067  -0.019  -0.005   0.027  -0.002  -0.007   0.000
  0.065   0.483   0.874  -0.209   0.309  -0.023  -0.255  -0.427   0.090  -0.167  -0.035  -0.019   0.007  -0.008  -0.013   0.001
  0.004   0.313  -0.209   1.437  -0.288  -0.014  -0.180   0.100  -0.718   0.162  -0.009   0.000  -0.002   0.004  -0.005  -0.001
 -0.582   0.115   0.309  -0.288   1.465   0.284  -0.062  -0.185   0.159  -0.726   0.054   0.024  -0.016  -0.008   0.038   0.001
 -0.410  -0.143  -0.023  -0.014   0.284   0.111   0.069   0.006   0.009  -0.118   0.036   0.016   0.007   0.009   0.012  -0.004
 -0.153  -0.751  -0.255  -0.180  -0.062   0.069   0.290   0.120   0.090   0.036   0.003   0.003  -0.014  -0.005   0.005   0.000
 -0.018  -0.256  -0.427   0.100  -0.185   0.006   0.120   0.121  -0.036   0.088   0.020   0.009   0.001   0.005   0.002  -0.000
 -0.012  -0.175   0.090  -0.718   0.159   0.009   0.090  -0.036   0.265  -0.085   0.009  -0.001   0.000   0.009   0.005   0.000
  0.278  -0.067  -0.167   0.162  -0.726  -0.118   0.036   0.088  -0.085   0.262  -0.021  -0.015   0.014   0.004  -0.008  -0.001
 -0.072  -0.019  -0.035  -0.009   0.054   0.036   0.003   0.020   0.009  -0.021  -0.113   0.059  -0.024   0.011   0.045   0.002
 -0.029  -0.005  -0.019   0.000   0.024   0.016   0.003   0.009  -0.001  -0.015   0.059  -0.007   0.001   0.000  -0.003  -0.001
  0.002   0.027   0.007  -0.002  -0.016   0.007  -0.014   0.001   0.000   0.014  -0.024   0.001  -0.016  -0.006  -0.005   0.003
 -0.016  -0.002  -0.008   0.004  -0.008   0.009  -0.005   0.005   0.009   0.004   0.011   0.000  -0.006  -0.010   0.003   0.000
 -0.039  -0.007  -0.013  -0.005   0.038   0.012   0.005   0.002   0.005  -0.008   0.045  -0.003  -0.005   0.003  -0.002   0.000
  0.006   0.000   0.001  -0.001   0.001  -0.004   0.000  -0.000   0.000  -0.001   0.002  -0.001   0.003   0.000   0.000  -0.000
 -0.001  -0.003   0.002   0.005   0.000   0.000   0.002  -0.002  -0.004  -0.001  -0.001   0.000   0.000   0.003  -0.000   0.000
 -0.003  -0.001  -0.004   0.001   0.005   0.001   0.000   0.002  -0.001  -0.003  -0.004   0.001   0.000  -0.000   0.002  -0.000


------------------------ aborting loop because EDIFF is reached ----------------------------------------


    CHARGE:  cpu time    0.7134: real time    0.7141
    FORLOC:  cpu time    0.0906: real time    0.0907
    FORNL :  cpu time    2.8425: real time    2.8442
    FORCOR:  cpu time    2.6172: real time    2.6228
    FORHAR:  cpu time    0.3561: real time    0.3564
    MIXING:  cpu time    0.4847: real time    0.4852
    OFIELD:  cpu time    0.0000: real time    0.0000

 VOLUME and BASIS-vectors are now :
 -----------------------------------------------------------------------------
  energy-cutoff  :      400.00
  volume of cell :    12429.53
      direct lattice vectors                 reciprocal lattice vectors
    22.909131347  0.000000000  0.000000000     0.043650717  0.000000000  0.000000000
     0.000000000 25.334602667  0.000000000     0.000000000  0.039471706  0.000000000
     0.000000000  0.000000000 21.415685695     0.000000000  0.000000000  0.046694746

  length of vectors
    22.909131347 25.334602667 21.415685695     0.043650717  0.039471706  0.046694746


 FORCES acting on ions
    electron-ion (+dipol)            ewald-force                    non-local-force                 convergence-correction
 -----------------------------------------------------------------------------------------------
   -.854E+03 0.388E+03 -.114E+03   0.853E+03 -.387E+03 0.114E+03   0.924E+00 -.194E+00 0.234E+00   0.935E-03 -.223E-04 0.361E-03
   0.501E+02 0.733E+03 0.732E+03   -.500E+02 -.730E+03 -.729E+03   -.731E-01 -.367E+01 -.379E+01   0.781E-03 -.239E-03 0.131E-03
   0.641E+03 -.415E+03 0.563E+03   -.640E+03 0.414E+03 -.562E+03   -.767E+00 0.720E+00 -.926E+00   0.626E-03 0.162E-03 0.160E-03
   0.468E+03 0.113E+03 -.848E+03   -.467E+03 -.113E+03 0.845E+03   -.948E+00 0.113E+00 0.262E+01   0.841E-03 -.261E-04 0.130E-03
   -.593E+03 -.338E+03 -.835E+03   0.588E+03 0.337E+03 0.829E+03   0.492E+01 0.130E+01 0.605E+01   0.778E-03 -.661E-04 0.741E-04
   -.553E+03 -.854E+03 0.303E+03   0.550E+03 0.850E+03 -.302E+03   0.266E+01 0.427E+01 -.103E+01   0.698E-03 -.292E-03 0.427E-03
   0.929E+03 0.388E+03 0.573E+02   -.922E+03 -.386E+03 -.568E+02   -.754E+01 -.193E+01 -.511E+00   -.593E-03 -.342E-03 0.278E-04
   0.471E+03 -.861E+03 -.328E+03   -.466E+03 0.855E+03 0.326E+03   -.462E+01 0.621E+01 0.188E+01   0.207E-03 0.570E-03 0.334E-03
   -.474E+03 -.786E+02 0.881E+03   0.470E+03 0.780E+02 -.874E+03   0.365E+01 0.637E+00 -.715E+01   0.546E-03 -.333E-04 0.121E-03
   -.844E+02 0.925E+03 -.412E+03   0.828E+02 -.918E+03 0.408E+03   0.156E+01 -.680E+01 0.357E+01   0.770E-03 -.322E-03 0.217E-03
 -----------------------------------------------------------------------------------------------
   0.233E+00 -.654E+00 -.932E+00   0.128E-12 0.114E-12 0.171E-12   -.239E+00 0.660E+00 0.942E+00   0.559E-02 -.610E-03 0.198E-02
 
 
 POSITION                                       TOTAL-FORCE (eV/Angst)
 -----------------------------------------------------------------------------------
     12.39677     12.51019     10.41926        -0.024460     -0.019888      0.004715
     11.06772     11.40488      8.86864        -0.015941      0.003009      0.020086
     10.42836     13.52125      9.51034         0.012296     -0.024359      0.014204
     10.49726     12.81167     11.72301        -0.006513      0.034314      0.001037
     12.42335     14.11127     12.12985         0.006269      0.007685      0.000706
     12.34972     14.74853      9.85910         0.018868     -0.023022     -0.021393
      8.94670     11.61314     10.17033         0.004055     -0.014024      0.006322
     10.42034     15.27852     11.34210        -0.018756     -0.009447      0.004906
     12.51149     13.18229      7.93632         0.020771      0.029844     -0.004372
     11.14758     10.48058     11.18967         0.003413      0.015889     -0.026210
 -----------------------------------------------------------------------------------
    total drift:                               -0.000515      0.005994      0.012181


--------------------------------------------------------------------------------------------------------



  FREE ENERGIE OF THE ION-ELECTRON SYSTEM (eV)
  ---------------------------------------------------
  free  energy   TOTEN  =       -38.17554684 eV

  energy  without entropy=      -38.21606081  energy(sigma->0) =      -38.18905150
 


--------------------------------------------------------------------------------------------------------


    POTLOK:  cpu time    2.6997: real time    2.7117


--------------------------------------------------------------------------------------------------------


     LOOP+:  cpu time  441.1769: real time  441.7990
    4ORBIT:  cpu time    0.0000: real time    0.0000

 total amount of memory used by VASP MPI-rank0   157882. kBytes
=======================================================================

   base      :      30000. kBytes
   nonl-proj :       6326. kBytes
   fftplans  :      29874. kBytes
   grid      :      76720. kBytes
   one-center:         31. kBytes
   wavefun   :      14931. kBytes
 
  
  
 General timing and accounting informations for this job:
 ========================================================
  
                  Total CPU time used (sec):      447.845
                            User time (sec):      443.606
                          System time (sec):        4.239
                         Elapsed time (sec):      455.767
  
                   Maximum memory used (kb):      320388.
                   Average memory used (kb):           0.
  
                          Minor page faults:      1341010
                          Major page faults:        13138
                 Voluntary context switches:         7496
