unknown system                          
            1
    22.909131    0.000000    0.000000
     0.000000   25.334603    0.000000
     0.000000    0.000000   21.415686
   Ni   Pd
     6     4
Direct configuration=     1
   0.54112776  0.49379835  0.48652474
   0.48311397  0.45016993  0.41411869
   0.45520518  0.53370671  0.44408277
   0.45821290  0.50569863  0.54740278
   0.54228825  0.55699571  0.56640040
   0.53907397  0.58214982  0.46036813
   0.39052993  0.45839037  0.47490074
   0.45485543  0.60306907  0.52961630
   0.54613544  0.52032757  0.37058461
   0.48660004  0.41368638  0.52249884
