  16  16   0   0
  0.8892556E+03  0.2420452E-08  0.2202317E-08  0.2669134E-08  0.5000000E-15
   1.0000000000000000E-004
  CAR 
 unknown system                          
      2.25866596    -10.84422462  301     -4.19251328      1.00000000
    -10.844  0.0000E+00  0.0000E+00  0.0000E+00  0.0000E+00
    -10.801  0.0000E+00  0.0000E+00  0.0000E+00  0.0000E+00
    -10.757  0.0000E+00  0.0000E+00  0.0000E+00  0.0000E+00
    -10.713  0.0000E+00  0.0000E+00  0.0000E+00  0.0000E+00
    -10.670  0.0000E+00  0.0000E+00  0.0000E+00  0.0000E+00
    -10.626  0.0000E+00  0.0000E+00  0.0000E+00  0.0000E+00
    -10.582  0.0000E+00  0.0000E+00  0.0000E+00  0.0000E+00
    -10.538  0.0000E+00  0.0000E+00  0.0000E+00  0.0000E+00
    -10.495  0.0000E+00  0.0000E+00  0.0000E+00  0.0000E+00
    -10.451 -0.4781E-29  0.0000E+00 -0.2088E-30  0.0000E+00
    -10.407 -0.1434E-27 -0.2124E-29 -0.6474E-29 -0.9275E-31
    -10.364 -0.4025E-26 -0.6519E-28 -0.1823E-27 -0.2940E-29
    -10.320 -0.1026E-24 -0.1871E-26 -0.4662E-26 -0.8465E-28
    -10.276 -0.2372E-23 -0.4875E-25 -0.1083E-24 -0.2214E-26
    -10.233 -0.4982E-22 -0.1153E-23 -0.2284E-23 -0.5259E-25
    -10.189 -0.9495E-21 -0.2477E-22 -0.4375E-22 -0.1134E-23
    -10.145 -0.1642E-19 -0.4828E-21 -0.7611E-21 -0.2222E-22
    -10.102 -0.2578E-18 -0.8543E-20 -0.1202E-19 -0.3953E-21
    -10.058 -0.3672E-17 -0.1372E-18 -0.1724E-18 -0.6386E-20
    -10.014 -0.4617E-16 -0.1998E-17 -0.2189E-17 -0.9366E-19
     -9.971 -0.5382E-15 -0.2514E-16 -0.2570E-16 -0.1192E-17
     -9.927 -0.5709E-14 -0.3077E-15 -0.2750E-15 -0.1463E-16
     -9.883 -0.5483E-13 -0.3327E-14 -0.2670E-14 -0.1599E-15
     -9.840 -0.4770E-12 -0.3270E-13 -0.2350E-13 -0.1588E-14
     -9.796 -0.3759E-11 -0.2911E-12 -0.1877E-12 -0.1430E-13
     -9.752 -0.2681E-10 -0.2347E-11 -0.1359E-11 -0.1168E-12
     -9.709 -0.1730E-09 -0.1714E-10 -0.8913E-11 -0.8652E-12
     -9.665 -0.1009E-08 -0.1132E-09 -0.5297E-10 -0.5808E-11
     -9.621 -0.5315E-08 -0.6757E-09 -0.2851E-09 -0.3532E-10
     -9.578 -0.2527E-07 -0.3646E-08 -0.1389E-08 -0.1945E-09
     -9.534 -0.1083E-06 -0.1775E-07 -0.6117E-08 -0.9699E-09
     -9.490 -0.4173E-06 -0.7793E-07 -0.2434E-07 -0.4373E-08
     -9.447 -0.1444E-05 -0.3079E-06 -0.8742E-07 -0.1782E-07
     -9.403 -0.4475E-05 -0.1093E-05 -0.2829E-06 -0.6556E-07
     -9.359 -0.1236E-04 -0.3476E-05 -0.8228E-06 -0.2174E-06
     -9.316 -0.3027E-04 -0.9865E-05 -0.2145E-05 -0.6482E-06
     -9.272 -0.6507E-04 -0.2486E-04 -0.4987E-05 -0.1734E-05
     -9.228 -0.1209E-03 -0.5514E-04 -0.1027E-04 -0.4142E-05
     -9.185 -0.1881E-03 -0.1062E-03 -0.1848E-04 -0.8780E-05
     -9.141 -0.2270E-03 -0.1729E-03 -0.2840E-04 -0.1633E-04
     -9.097 -0.1564E-03 -0.2241E-03 -0.3523E-04 -0.2612E-04
     -9.053  0.1355E-03 -0.1882E-03 -0.2931E-04 -0.3434E-04
     -9.010  0.7414E-03  0.4233E-04  0.3071E-05 -0.3249E-04
     -8.966  0.1658E-02  0.5713E-03  0.7550E-04 -0.7538E-05
     -8.922  0.2728E-02  0.1426E-02  0.1947E-03  0.5474E-04
     -8.879  0.3653E-02  0.2488E-02  0.3542E-03  0.1634E-03
     -8.835  0.4110E-02  0.3490E-02  0.5337E-03  0.3159E-03
     -8.791  0.3905E-02  0.4109E-02  0.7043E-03  0.4953E-03
     -8.748  0.3081E-02  0.4116E-02  0.8389E-03  0.6751E-03
     -8.704  0.1906E-02  0.3500E-02  0.9221E-03  0.8280E-03
     -8.660  0.7626E-03  0.2466E-02  0.9555E-03  0.9357E-03
     -8.617  0.1209E-04  0.1325E-02  0.9560E-03  0.9935E-03
     -8.573 -0.8609E-04  0.3462E-03  0.9522E-03  0.1009E-02
     -8.529  0.5994E-03 -0.3189E-03  0.9784E-03  0.9947E-03
     -8.486  0.2078E-02 -0.6160E-03  0.1069E-02  0.9678E-03
     -8.442  0.4249E-02 -0.5118E-03  0.1255E-02  0.9455E-03
     -8.398  0.6923E-02  0.5397E-04  0.1557E-02  0.9478E-03
     -8.355  0.9852E-02  0.1142E-02  0.1987E-02  0.9977E-03
     -8.311  0.1275E-01  0.2738E-02  0.2544E-02  0.1117E-02
     -8.267  0.1530E-01  0.4704E-02  0.3213E-02  0.1323E-02
     -8.224  0.1717E-01  0.6809E-02  0.3963E-02  0.1620E-02
     -8.180  0.1806E-01  0.8838E-02  0.4752E-02  0.2006E-02
     -8.136  0.1782E-01  0.1068E-01  0.5530E-02  0.2473E-02
     -8.093  0.1655E-01  0.1231E-01  0.6253E-02  0.3010E-02
     -8.049  0.1466E-01  0.1369E-01  0.6893E-02  0.3608E-02
     -8.005  0.1273E-01  0.1470E-01  0.7450E-02  0.4250E-02
     -7.962  0.1130E-01  0.1515E-01  0.7943E-02  0.4912E-02
     -7.918  0.1065E-01  0.1489E-01  0.8408E-02  0.5562E-02
     -7.874  0.1078E-01  0.1402E-01  0.8879E-02  0.6175E-02
     -7.831  0.1145E-01  0.1283E-01  0.9379E-02  0.6735E-02
     -7.787  0.1238E-01  0.1169E-01  0.9920E-02  0.7246E-02
     -7.743  0.1332E-01  0.1087E-01  0.1050E-01  0.7720E-02
     -7.700  0.1413E-01  0.1040E-01  0.1112E-01  0.8174E-02
     -7.656  0.1474E-01  0.1016E-01  0.1176E-01  0.8618E-02
     -7.612  0.1511E-01  0.1003E-01  0.1242E-01  0.9056E-02
     -7.569  0.1534E-01  0.1003E-01  0.1309E-01  0.9494E-02
     -7.525  0.1555E-01  0.1034E-01  0.1377E-01  0.9946E-02
     -7.481  0.1584E-01  0.1107E-01  0.1446E-01  0.1043E-01
     -7.437  0.1623E-01  0.1214E-01  0.1517E-01  0.1096E-01
     -7.394  0.1663E-01  0.1323E-01  0.1590E-01  0.1154E-01
     -7.350  0.1691E-01  0.1404E-01  0.1664E-01  0.1215E-01
     -7.306  0.1695E-01  0.1449E-01  0.1738E-01  0.1278E-01
     -7.263  0.1671E-01  0.1482E-01  0.1811E-01  0.1343E-01
     -7.219  0.1615E-01  0.1536E-01  0.1881E-01  0.1410E-01
     -7.175  0.1536E-01  0.1624E-01  0.1948E-01  0.1481E-01
     -7.132  0.1452E-01  0.1726E-01  0.2012E-01  0.1557E-01
     -7.088  0.1395E-01  0.1807E-01  0.2073E-01  0.1635E-01
     -7.044  0.1395E-01  0.1836E-01  0.2134E-01  0.1716E-01
     -7.001  0.1463E-01  0.1803E-01  0.2198E-01  0.1794E-01
     -6.957  0.1583E-01  0.1722E-01  0.2267E-01  0.1870E-01
     -6.913  0.1717E-01  0.1613E-01  0.2342E-01  0.1940E-01
     -6.870  0.1826E-01  0.1497E-01  0.2422E-01  0.2005E-01
     -6.826  0.1888E-01  0.1402E-01  0.2504E-01  0.2067E-01
     -6.782  0.1904E-01  0.1356E-01  0.2587E-01  0.2126E-01
     -6.739  0.1889E-01  0.1376E-01  0.2670E-01  0.2186E-01
     -6.695  0.1858E-01  0.1460E-01  0.2751E-01  0.2250E-01
     -6.651  0.1815E-01  0.1583E-01  0.2830E-01  0.2319E-01
     -6.608  0.1762E-01  0.1714E-01  0.2907E-01  0.2394E-01
     -6.564  0.1703E-01  0.1830E-01  0.2981E-01  0.2474E-01
     -6.520  0.1651E-01  0.1916E-01  0.3053E-01  0.2557E-01
     -6.477  0.1625E-01  0.1969E-01  0.3124E-01  0.2643E-01
     -6.433  0.1644E-01  0.1986E-01  0.3196E-01  0.2730E-01
     -6.389  0.1714E-01  0.1958E-01  0.3271E-01  0.2816E-01
     -6.346  0.1816E-01  0.1884E-01  0.3350E-01  0.2898E-01
     -6.302  0.1908E-01  0.1770E-01  0.3434E-01  0.2975E-01
     -6.258  0.1940E-01  0.1645E-01  0.3518E-01  0.3047E-01
     -6.215  0.1880E-01  0.1548E-01  0.3600E-01  0.3115E-01
     -6.171  0.1735E-01  0.1519E-01  0.3676E-01  0.3181E-01
     -6.127  0.1552E-01  0.1576E-01  0.3744E-01  0.3250E-01
     -6.084  0.1396E-01  0.1704E-01  0.3805E-01  0.3324E-01
     -6.040  0.1320E-01  0.1854E-01  0.3863E-01  0.3405E-01
     -5.996  0.1339E-01  0.1962E-01  0.3921E-01  0.3491E-01
     -5.952  0.1433E-01  0.1978E-01  0.3984E-01  0.3577E-01
     -5.909  0.1556E-01  0.1889E-01  0.4052E-01  0.3660E-01
     -5.865  0.1669E-01  0.1728E-01  0.4125E-01  0.3735E-01
     -5.821  0.1750E-01  0.1558E-01  0.4201E-01  0.3803E-01
     -5.778  0.1802E-01  0.1437E-01  0.4280E-01  0.3866E-01
     -5.734  0.1835E-01  0.1394E-01  0.4360E-01  0.3927E-01
     -5.690  0.1860E-01  0.1419E-01  0.4441E-01  0.3989E-01
     -5.647  0.1885E-01  0.1483E-01  0.4523E-01  0.4054E-01
     -5.603  0.1914E-01  0.1562E-01  0.4607E-01  0.4122E-01
     -5.559  0.1954E-01  0.1646E-01  0.4692E-01  0.4194E-01
     -5.516  0.2011E-01  0.1740E-01  0.4780E-01  0.4270E-01
     -5.472  0.2086E-01  0.1847E-01  0.4871E-01  0.4351E-01
     -5.428  0.2171E-01  0.1957E-01  0.4966E-01  0.4436E-01
     -5.385  0.2254E-01  0.2053E-01  0.5065E-01  0.4526E-01
     -5.341  0.2327E-01  0.2115E-01  0.5166E-01  0.4618E-01
     -5.297  0.2393E-01  0.2142E-01  0.5271E-01  0.4712E-01
     -5.254  0.2465E-01  0.2147E-01  0.5378E-01  0.4805E-01
     -5.210  0.2564E-01  0.2155E-01  0.5490E-01  0.4899E-01
     -5.166  0.2707E-01  0.2184E-01  0.5609E-01  0.4995E-01
     -5.123  0.2901E-01  0.2240E-01  0.5735E-01  0.5093E-01
     -5.079  0.3133E-01  0.2316E-01  0.5872E-01  0.5194E-01
     -5.035  0.3364E-01  0.2395E-01  0.6019E-01  0.5299E-01
     -4.992  0.3539E-01  0.2471E-01  0.6174E-01  0.5406E-01
     -4.948  0.3602E-01  0.2545E-01  0.6331E-01  0.5518E-01
     -4.904  0.3524E-01  0.2636E-01  0.6485E-01  0.5633E-01
     -4.861  0.3331E-01  0.2759E-01  0.6630E-01  0.5753E-01
     -4.817  0.3103E-01  0.2922E-01  0.6766E-01  0.5881E-01
     -4.773  0.2940E-01  0.3104E-01  0.6894E-01  0.6016E-01
     -4.730  0.2919E-01  0.3265E-01  0.7022E-01  0.6159E-01
     -4.686  0.3048E-01  0.3351E-01  0.7155E-01  0.6305E-01
     -4.642  0.3262E-01  0.3322E-01  0.7297E-01  0.6450E-01
     -4.599  0.3449E-01  0.3173E-01  0.7448E-01  0.6589E-01
     -4.555  0.3508E-01  0.2942E-01  0.7601E-01  0.6718E-01
     -4.511  0.3386E-01  0.2700E-01  0.7749E-01  0.6835E-01
     -4.467  0.3099E-01  0.2522E-01  0.7884E-01  0.6946E-01
     -4.424  0.2712E-01  0.2452E-01  0.8003E-01  0.7053E-01
     -4.380  0.2299E-01  0.2485E-01  0.8103E-01  0.7161E-01
     -4.336  0.1911E-01  0.2567E-01  0.8187E-01  0.7273E-01
     -4.293  0.1561E-01  0.2622E-01  0.8255E-01  0.7388E-01
     -4.249  0.1239E-01  0.2597E-01  0.8309E-01  0.7501E-01
     -4.205  0.9306E-02  0.2486E-01  0.8350E-01  0.7610E-01
     -4.162  0.6400E-02  0.2336E-01  0.8378E-01  0.7712E-01
     -4.118  0.3902E-02  0.2215E-01  0.8395E-01  0.7809E-01
     -4.074  0.2132E-02  0.2167E-01  0.8404E-01  0.7903E-01
     -4.031  0.1311E-02  0.2174E-01  0.8410E-01  0.7998E-01
     -3.987  0.1410E-02  0.2170E-01  0.8416E-01  0.8093E-01
     -3.943  0.2128E-02  0.2073E-01  0.8425E-01  0.8184E-01
     -3.900  0.3001E-02  0.1841E-01  0.8438E-01  0.8264E-01
     -3.856  0.3622E-02  0.1494E-01  0.8454E-01  0.8329E-01
     -3.812  0.3825E-02  0.1106E-01  0.8471E-01  0.8378E-01
     -3.769  0.3733E-02  0.7648E-02  0.8487E-01  0.8411E-01
     -3.725  0.3623E-02  0.5296E-02  0.8503E-01  0.8434E-01
     -3.681  0.3691E-02  0.4097E-02  0.8519E-01  0.8452E-01
     -3.638  0.3900E-02  0.3766E-02  0.8536E-01  0.8468E-01
     -3.594  0.4006E-02  0.3902E-02  0.8554E-01  0.8485E-01
     -3.550  0.3742E-02  0.4196E-02  0.8570E-01  0.8504E-01
     -3.507  0.3029E-02  0.4453E-02  0.8583E-01  0.8523E-01
     -3.463  0.2042E-02  0.4524E-02  0.8592E-01  0.8543E-01
     -3.419  0.1133E-02  0.4269E-02  0.8597E-01  0.8562E-01
     -3.376  0.6528E-03  0.3610E-02  0.8600E-01  0.8577E-01
     -3.332  0.8014E-03  0.2621E-02  0.8603E-01  0.8589E-01
     -3.288  0.1558E-02  0.1536E-02  0.8610E-01  0.8596E-01
     -3.245  0.2711E-02  0.6783E-03  0.8622E-01  0.8599E-01
     -3.201  0.3956E-02  0.3242E-03  0.8639E-01  0.8600E-01
     -3.157  0.5016E-02  0.6107E-03  0.8661E-01  0.8603E-01
     -3.114  0.5712E-02  0.1495E-02  0.8686E-01  0.8609E-01
     -3.070  0.5970E-02  0.2778E-02  0.8712E-01  0.8621E-01
     -3.026  0.5780E-02  0.4169E-02  0.8738E-01  0.8639E-01
     -2.982  0.5159E-02  0.5370E-02  0.8760E-01  0.8663E-01
     -2.939  0.4169E-02  0.6150E-02  0.8778E-01  0.8690E-01
     -2.895  0.2950E-02  0.6380E-02  0.8791E-01  0.8718E-01
     -2.851  0.1707E-02  0.6028E-02  0.8799E-01  0.8744E-01
     -2.808  0.6543E-03  0.5157E-02  0.8801E-01  0.8767E-01
     -2.764 -0.4736E-04  0.3920E-02  0.8801E-01  0.8784E-01
     -2.720 -0.3118E-03  0.2541E-02  0.8800E-01  0.8795E-01
     -2.677 -0.1116E-03  0.1269E-02  0.8799E-01  0.8800E-01
     -2.633  0.5313E-03  0.3109E-03  0.8802E-01  0.8802E-01
     -2.589  0.1517E-02 -0.2026E-03  0.8808E-01  0.8801E-01
     -2.546  0.2627E-02 -0.2173E-03  0.8820E-01  0.8800E-01
     -2.502  0.3539E-02  0.2592E-03  0.8835E-01  0.8801E-01
     -2.458  0.3933E-02  0.1144E-02  0.8852E-01  0.8806E-01
     -2.415  0.3650E-02  0.2245E-02  0.8868E-01  0.8816E-01
     -2.371  0.2816E-02  0.3254E-02  0.8881E-01  0.8830E-01
     -2.327  0.1827E-02  0.3833E-02  0.8889E-01  0.8847E-01
     -2.284  0.1214E-02  0.3766E-02  0.8894E-01  0.8863E-01
     -2.240  0.1433E-02  0.3105E-02  0.8900E-01  0.8877E-01
     -2.196  0.2676E-02  0.2198E-02  0.8912E-01  0.8886E-01
     -2.153  0.4773E-02  0.1567E-02  0.8933E-01  0.8893E-01
     -2.109  0.7219E-02  0.1691E-02  0.8964E-01  0.8901E-01
     -2.065  0.9348E-02  0.2781E-02  0.9005E-01  0.8913E-01
     -2.022  0.1059E-01  0.4680E-02  0.9051E-01  0.8933E-01
     -1.978  0.1069E-01  0.6909E-02  0.9098E-01  0.8963E-01
     -1.934  0.9824E-02  0.8870E-02  0.9141E-01  0.9002E-01
     -1.891  0.8439E-02  0.1010E-01  0.9178E-01  0.9046E-01
     -1.847  0.7021E-02  0.1042E-01  0.9209E-01  0.9092E-01
     -1.803  0.5845E-02  0.9992E-02  0.9234E-01  0.9135E-01
     -1.760  0.4901E-02  0.9094E-02  0.9255E-01  0.9175E-01
     -1.716  0.4006E-02  0.7988E-02  0.9273E-01  0.9210E-01
     -1.672  0.3005E-02  0.6788E-02  0.9286E-01  0.9240E-01
     -1.629  0.1911E-02  0.5487E-02  0.9294E-01  0.9264E-01
     -1.585  0.9072E-03  0.4073E-02  0.9298E-01  0.9281E-01
     -1.541  0.2473E-03  0.2618E-02  0.9299E-01  0.9293E-01
     -1.497  0.1348E-03  0.1303E-02  0.9300E-01  0.9298E-01
     -1.454  0.6466E-03  0.3530E-03  0.9303E-01  0.9300E-01
     -1.410  0.1707E-02 -0.3737E-04  0.9310E-01  0.9300E-01
     -1.366  0.3103E-02  0.2364E-03  0.9324E-01  0.9301E-01
     -1.323  0.4533E-02  0.1156E-02  0.9344E-01  0.9306E-01
     -1.279  0.5684E-02  0.2566E-02  0.9369E-01  0.9317E-01
     -1.235  0.6319E-02  0.4178E-02  0.9396E-01  0.9335E-01
     -1.192  0.6337E-02  0.5628E-02  0.9424E-01  0.9360E-01
     -1.148  0.5812E-02  0.6575E-02  0.9449E-01  0.9389E-01
     -1.104  0.4980E-02  0.6824E-02  0.9471E-01  0.9418E-01
     -1.061  0.4163E-02  0.6411E-02  0.9489E-01  0.9446E-01
     -1.017  0.3641E-02  0.5598E-02  0.9505E-01  0.9471E-01
     -0.973  0.3531E-02  0.4753E-02  0.9520E-01  0.9492E-01
     -0.930  0.3739E-02  0.4174E-02  0.9537E-01  0.9510E-01
     -0.886  0.4056E-02  0.3960E-02  0.9554E-01  0.9527E-01
     -0.842  0.4300E-02  0.4000E-02  0.9573E-01  0.9545E-01
     -0.799  0.4418E-02  0.4103E-02  0.9593E-01  0.9563E-01
     -0.755  0.4452E-02  0.4150E-02  0.9612E-01  0.9581E-01
     -0.711  0.4444E-02  0.4147E-02  0.9631E-01  0.9599E-01
     -0.668  0.4387E-02  0.4161E-02  0.9651E-01  0.9617E-01
     -0.624  0.4258E-02  0.4217E-02  0.9669E-01  0.9635E-01
     -0.580  0.4095E-02  0.4283E-02  0.9687E-01  0.9654E-01
     -0.537  0.4015E-02  0.4338E-02  0.9705E-01  0.9673E-01
     -0.493  0.4177E-02  0.4446E-02  0.9723E-01  0.9692E-01
     -0.449  0.4729E-02  0.4748E-02  0.9743E-01  0.9713E-01
     -0.406  0.5774E-02  0.5384E-02  0.9769E-01  0.9737E-01
     -0.362  0.7319E-02  0.6411E-02  0.9801E-01  0.9765E-01
     -0.318  0.9205E-02  0.7775E-02  0.9841E-01  0.9799E-01
     -0.275  0.1106E-01  0.9321E-02  0.9889E-01  0.9839E-01
     -0.231  0.1237E-01  0.1082E-01  0.9943E-01  0.9887E-01
     -0.187  0.1273E-01  0.1198E-01  0.9999E-01  0.9939E-01
     -0.144  0.1202E-01  0.1254E-01  0.1005E+00  0.9994E-01
     -0.100  0.1051E-01  0.1230E-01  0.1010E+00  0.1005E+00
     -0.056  0.8727E-02  0.1130E-01  0.1014E+00  0.1010E+00
     -0.013  0.7224E-02  0.9818E-02  0.1017E+00  0.1014E+00
      0.031  0.6355E-02  0.8318E-02  0.1019E+00  0.1018E+00
      0.075  0.6197E-02  0.7274E-02  0.1022E+00  0.1021E+00
      0.119  0.6552E-02  0.6916E-02  0.1025E+00  0.1024E+00
      0.162  0.7037E-02  0.7097E-02  0.1028E+00  0.1027E+00
      0.206  0.7230E-02  0.7365E-02  0.1031E+00  0.1030E+00
      0.250  0.6832E-02  0.7220E-02  0.1034E+00  0.1033E+00
      0.293  0.5786E-02  0.6387E-02  0.1037E+00  0.1036E+00
      0.337  0.4288E-02  0.4940E-02  0.1039E+00  0.1038E+00
      0.381  0.2684E-02  0.3228E-02  0.1040E+00  0.1040E+00
      0.424  0.1307E-02  0.1663E-02  0.1040E+00  0.1040E+00
      0.468  0.3534E-03  0.5260E-03  0.1041E+00  0.1041E+00
      0.512 -0.1567E-03 -0.1130E-03  0.1040E+00  0.1041E+00
      0.555 -0.3278E-03 -0.3497E-03  0.1040E+00  0.1040E+00
      0.599 -0.3067E-03 -0.3478E-03  0.1040E+00  0.1040E+00
      0.643 -0.2159E-03 -0.2520E-03  0.1040E+00  0.1040E+00
      0.686 -0.1263E-03 -0.1503E-03  0.1040E+00  0.1040E+00
      0.730 -0.6368E-04 -0.7699E-04  0.1040E+00  0.1040E+00
      0.774 -0.2818E-04 -0.3455E-04  0.1040E+00  0.1040E+00
      0.817 -0.1106E-04 -0.1374E-04  0.1040E+00  0.1040E+00
      0.861 -0.3868E-05 -0.4870E-05  0.1040E+00  0.1040E+00
      0.905 -0.1212E-05 -0.1546E-05  0.1040E+00  0.1040E+00
      0.948 -0.3409E-06 -0.4410E-06  0.1040E+00  0.1040E+00
      0.992 -0.8630E-07 -0.1132E-06  0.1040E+00  0.1040E+00
      1.036 -0.1969E-07 -0.2621E-07  0.1040E+00  0.1040E+00
      1.079 -0.4054E-08 -0.5475E-08  0.1040E+00  0.1040E+00
      1.123 -0.7539E-09 -0.1034E-08  0.1040E+00  0.1040E+00
      1.167 -0.1267E-09 -0.1764E-09  0.1040E+00  0.1040E+00
      1.210 -0.1927E-10 -0.2724E-10  0.1040E+00  0.1040E+00
      1.254 -0.2652E-11 -0.3809E-11  0.1040E+00  0.1040E+00
      1.298 -0.3305E-12 -0.4822E-12  0.1040E+00  0.1040E+00
      1.341 -0.3730E-13 -0.5531E-13  0.1040E+00  0.1040E+00
      1.385 -0.3818E-14 -0.5755E-14  0.1040E+00  0.1040E+00
      1.429 -0.3508E-15 -0.5389E-15  0.1040E+00  0.1040E+00
      1.472 -0.3559E-16 -0.4575E-16  0.1040E+00  0.1040E+00
      1.516  0.0000E+00 -0.5084E-17  0.1040E+00  0.1040E+00
      1.560  0.0000E+00  0.0000E+00  0.1040E+00  0.1040E+00
      1.604  0.0000E+00  0.0000E+00  0.1040E+00  0.1040E+00
      1.647  0.0000E+00  0.0000E+00  0.1040E+00  0.1040E+00
      1.691  0.0000E+00  0.0000E+00  0.1040E+00  0.1040E+00
      1.735  0.0000E+00  0.0000E+00  0.1040E+00  0.1040E+00
      1.778  0.0000E+00  0.0000E+00  0.1040E+00  0.1040E+00
      1.822  0.0000E+00  0.0000E+00  0.1040E+00  0.1040E+00
      1.866  0.0000E+00  0.0000E+00  0.1040E+00  0.1040E+00
      1.909  0.0000E+00  0.0000E+00  0.1040E+00  0.1040E+00
      1.953  0.0000E+00  0.0000E+00  0.1040E+00  0.1040E+00
      1.997  0.0000E+00  0.0000E+00  0.1040E+00  0.1040E+00
      2.040  0.0000E+00  0.0000E+00  0.1040E+00  0.1040E+00
      2.084  0.0000E+00  0.0000E+00  0.1040E+00  0.1040E+00
      2.128  0.0000E+00  0.0000E+00  0.1040E+00  0.1040E+00
      2.171  0.0000E+00  0.0000E+00  0.1040E+00  0.1040E+00
      2.215  0.0000E+00  0.0000E+00  0.1040E+00  0.1040E+00
      2.259  0.0000E+00  0.0000E+00  0.1040E+00  0.1040E+00
