   16   16 1000    2
  0.8892556E+03  0.2420452E-08  0.2202317E-08  0.2669134E-08  0.5000000E-15
   1.0000000000000000E-004
  CAR 
 unknown system                          
    160      1    104
 
  0.1262379E-14  0.1262379E-14  0.1262379E-14  0.1000000E+01
    1       -8.844225     -8.790400   1.000000   1.000000
    2       -8.394866     -8.227688   1.000000   1.000000
    3       -8.312272     -8.148140   1.000000   1.000000
    4       -8.222074     -8.037106   1.000000   1.000000
    5       -8.207319     -7.973178   1.000000   1.000000
    6       -8.143273     -7.952107   1.000000   1.000000
    7       -8.097261     -7.857406   1.000000   1.000000
    8       -8.018090     -7.766175   1.000000   1.000000
    9       -7.877319     -7.639852   1.000000   1.000000
   10       -7.837179     -7.608118   1.000000   1.000000
   11       -7.737177     -7.434261   1.000000   1.000000
   12       -7.654275     -7.399278   1.000000   1.000000
   13       -7.628494     -7.346155   1.000000   1.000000
   14       -7.551388     -7.274708   1.000000   1.000000
   15       -7.451673     -7.149241   1.000000   1.000000
   16       -7.426497     -7.131273   1.000000   1.000000
   17       -7.365880     -7.095694   1.000000   1.000000
   18       -7.299238     -7.050766   1.000000   1.000000
   19       -7.219373     -6.941427   1.000000   1.000000
   20       -7.198047     -6.906246   1.000000   1.000000
   21       -7.119270     -6.880017   1.000000   1.000000
   22       -7.020283     -6.742252   1.000000   1.000000
   23       -6.948273     -6.676400   1.000000   1.000000
   24       -6.901674     -6.652770   1.000000   1.000000
   25       -6.870183     -6.554890   1.000000   1.000000
   26       -6.807888     -6.535573   1.000000   1.000000
   27       -6.745691     -6.475515   1.000000   1.000000
   28       -6.681544     -6.419658   1.000000   1.000000
   29       -6.657709     -6.354064   1.000000   1.000000
   30       -6.584611     -6.343411   1.000000   1.000000
   31       -6.516853     -6.268190   1.000000   1.000000
   32       -6.475542     -6.195133   1.000000   1.000000
   33       -6.389600     -6.098875   1.000000   1.000000
   34       -6.331325     -6.074163   1.000000   1.000000
   35       -6.275577     -5.993646   1.000000   1.000000
   36       -6.249517     -5.962503   1.000000   1.000000
   37       -6.210488     -5.935124   1.000000   1.000000
   38       -6.145390     -5.892537   1.000000   1.000000
   39       -6.034590     -5.769541   1.000000   1.000000
   40       -5.964778     -5.712489   1.000000   1.000000
   41       -5.892687     -5.647381   1.000000   1.000000
   42       -5.869887     -5.592707   1.000000   1.000000
   43       -5.799258     -5.532091   1.000000   1.000000
   44       -5.725663     -5.446670   1.000000   1.000000
   45       -5.691454     -5.424322   1.000000   1.000000
   46       -5.638845     -5.380103   1.000000   1.000000
   47       -5.581995     -5.329072   1.000000   1.000000
   48       -5.530840     -5.285843   1.000000   1.000000
   49       -5.472597     -5.229634   1.000000   1.000000
   50       -5.444711     -5.198415   1.000000   1.000000
   51       -5.370247     -5.126135   1.000000   1.000000
   52       -5.349188     -5.094606   1.000000   1.000000
   53       -5.337330     -5.059815   1.000000   1.000000
   54       -5.251008     -5.020288   1.000000   1.000000
   55       -5.224507     -4.965898   1.000000   1.000000
   56       -5.187548     -4.936659   1.000000   1.000001
   57       -5.161591     -4.918314   1.000000   1.000002
   58       -5.107876     -4.837999   1.000000   1.000025
   59       -5.075897     -4.826378   1.000000   1.000035
   60       -5.053166     -4.798904   1.000000   1.000078
   61       -5.012738     -4.748185   1.000000   1.000306
   62       -5.001751     -4.727654   1.000000   1.000510
   63       -4.957214     -4.698653   1.000000   1.001008
   64       -4.937755     -4.664499   1.000001   1.002116
   65       -4.917669     -4.650623   1.000002   1.002803
   66       -4.909068     -4.618827   1.000002   1.005108
   67       -4.871292     -4.593478   1.000009   1.007871
   68       -4.843263     -4.563853   1.000021   1.012349
   69       -4.802870     -4.511449   1.000070   1.023312
   70       -4.739367     -4.455299   1.000382   1.034375
   71       -4.692151     -4.423738   1.001167   1.034662
   72       -4.685622     -4.373097   1.001349   1.011900
   73       -4.630299     -4.319265   1.004144   0.934588
   74       -4.619902     -4.303265   1.005011   0.898184
   75       -4.590685     -4.273468   1.008233   0.813417
   76       -4.562790     -4.230097   1.012536   0.655960
   77       -4.553108     -4.224333   1.014317   0.632770
   78       -4.527598     -4.162767   1.019630   0.375662
   79       -4.496918     -4.063579   1.026659   0.060946
   80       -4.443452     -4.030186   1.035325   0.007035
   81       -4.423582     -4.012071   1.034643  -0.011778
   82       -4.337596     -3.947254   0.968433  -0.035458
   83       -4.301584     -3.915066   0.893984  -0.032229
   84       -4.213755     -3.893446   0.589321  -0.027859
   85       -3.869226     -3.658766  -0.022307  -0.000527
   86       -3.596377     -3.439013  -0.000104  -0.000001
   87       -3.179486     -3.003021  -0.000000  -0.000000
   88       -3.001000     -2.842460  -0.000000  -0.000000
   89       -2.468748     -2.323953  -0.000000  -0.000000
   90       -2.092719     -1.960947  -0.000000  -0.000000
   91       -2.032792     -1.907882  -0.000000  -0.000000
   92       -1.949705     -1.794582  -0.000000  -0.000000
   93       -1.756131     -1.650148  -0.000000  -0.000000
   94       -1.307075     -1.199139  -0.000000  -0.000000
   95       -1.157555     -1.071332  -0.000000  -0.000000
   96       -0.895743     -0.827073  -0.000000  -0.000000
   97       -0.671548     -0.594084  -0.000000  -0.000000
   98       -0.445742     -0.382640  -0.000000  -0.000000
   99       -0.267715     -0.246546  -0.000000  -0.000000
  100       -0.225506     -0.180611  -0.000000  -0.000000
  101       -0.182323     -0.095185  -0.000000  -0.000000
  102       -0.039213     -0.030877  -0.000000  -0.000000
  103        0.140736      0.169466  -0.000000  -0.000000
  104        0.251045      0.258666  -0.000000  -0.000000
