       N       E                     dE             d eps       ncg     rms          rms(c)
DAV:   1     0.143062081836E+04    0.14306E+04   -0.27174E+04   416   0.735E+02
DAV:   2     0.736036727005E+03   -0.69458E+03   -0.62000E+03   800   0.889E+01
DAV:   3     0.133593948049E+03   -0.60244E+03   -0.56300E+03   664   0.846E+01
DAV:   4    -0.417618503608E+02   -0.17536E+03   -0.16054E+03   576   0.500E+01
DAV:   5    -0.639134829985E+02   -0.22152E+02   -0.18106E+02   568   0.175E+01    0.263E+01
DAV:   6    -0.564337767847E+02    0.74797E+01   -0.36057E+01   464   0.141E+01    0.149E+01
DAV:   7    -0.532656418012E+02    0.31681E+01   -0.31471E+01   432   0.334E+01    0.229E+01
DAV:   8    -0.483603199956E+02    0.49053E+01   -0.11684E+01   448   0.222E+01    0.135E+01
DAV:   9    -0.475515799968E+02    0.80874E+00   -0.95511E+00   464   0.172E+01    0.118E+01
DAV:  10    -0.481311536868E+02   -0.57957E+00   -0.61247E+00   480   0.126E+01    0.137E+01
DAV:  11    -0.480194793497E+02    0.11167E+00   -0.75914E+00   456   0.909E+00    0.800E+00
DAV:  12    -0.484527932318E+02   -0.43331E+00   -0.14764E+00   448   0.530E+00    0.355E+00
DAV:  13    -0.499778906704E+02   -0.15251E+01   -0.46250E-01   448   0.335E+00    0.286E+00
DAV:  14    -0.522754802771E+02   -0.22976E+01   -0.57661E-01   440   0.282E+00    0.218E+00
DAV:  15    -0.544747015425E+02   -0.21992E+01   -0.67697E-01   432   0.312E+00    0.215E+00
DAV:  16    -0.556808905407E+02   -0.12062E+01   -0.31328E-01   480   0.231E+00    0.209E+00
DAV:  17    -0.561127758041E+02   -0.43189E+00   -0.96534E-02   456   0.158E+00    0.171E+00
DAV:  18    -0.569350479972E+02   -0.82227E+00   -0.12408E-01   424   0.125E+00    0.147E+00
DAV:  19    -0.576141008722E+02   -0.67905E+00   -0.11008E-01   448   0.121E+00    0.101E+00
DAV:  20    -0.580586414017E+02   -0.44454E+00   -0.45339E-02   448   0.802E-01    0.723E-01
DAV:  21    -0.583809483342E+02   -0.32231E+00   -0.14826E-02   472   0.509E-01    0.677E-01
DAV:  22    -0.591624634722E+02   -0.78152E+00   -0.78360E-02   432   0.706E-01    0.588E-01
DAV:  23    -0.596208805103E+02   -0.45842E+00   -0.41614E-02   480   0.673E-01    0.528E-01
DAV:  24    -0.600716592047E+02   -0.45078E+00   -0.40947E-02   440   0.583E-01    0.356E-01
DAV:  25    -0.604728269718E+02   -0.40117E+00   -0.34245E-02   464   0.490E-01    0.337E-01
DAV:  26    -0.607759701975E+02   -0.30314E+00   -0.13259E-02   456   0.415E-01    0.254E-01
DAV:  27    -0.610731811442E+02   -0.29721E+00   -0.10583E-02   472   0.289E-01    0.199E-01
DAV:  28    -0.612280988035E+02   -0.15492E+00   -0.42140E-03   504   0.231E-01    0.167E-01
DAV:  29    -0.613422380290E+02   -0.11414E+00   -0.28082E-03   472   0.187E-01    0.110E-01
DAV:  30    -0.614146425954E+02   -0.72405E-01   -0.16544E-03   480   0.128E-01    0.883E-02
DAV:  31    -0.614575262234E+02   -0.42884E-01   -0.71483E-04   392   0.102E-01    0.579E-02
DAV:  32    -0.614968107900E+02   -0.39285E-01   -0.79701E-04   448   0.723E-02    0.488E-02
DAV:  33    -0.615193511521E+02   -0.22540E-01   -0.36387E-04   360   0.536E-02    0.389E-02
DAV:  34    -0.615309149494E+02   -0.11564E-01   -0.15421E-04   328   0.485E-02    0.256E-02
DAV:  35    -0.615436462305E+02   -0.12731E-01   -0.17269E-04   344   0.301E-02    0.195E-02
DAV:  36    -0.615518795702E+02   -0.82333E-02   -0.58015E-05   304   0.218E-02    0.142E-02
DAV:  37    -0.615566350342E+02   -0.47555E-02   -0.49609E-05   304   0.202E-02    0.131E-02
DAV:  38    -0.615598438613E+02   -0.32088E-02   -0.27015E-05   280   0.158E-02    0.100E-02
DAV:  39    -0.615619179788E+02   -0.20741E-02   -0.19715E-05   288   0.120E-02    0.756E-03
DAV:  40    -0.615632048652E+02   -0.12869E-02   -0.11818E-05   280   0.899E-03    0.561E-03
DAV:  41    -0.615643775396E+02   -0.11727E-02   -0.78590E-06   272   0.577E-03    0.326E-03
DAV:  42    -0.615653244170E+02   -0.94688E-03   -0.48474E-06   256   0.402E-03    0.242E-03
DAV:  43    -0.615658944631E+02   -0.57005E-03   -0.28048E-06   264   0.313E-03    0.158E-03
DAV:  44    -0.615661770548E+02   -0.28259E-03   -0.16810E-06   288   0.245E-03    0.127E-03
DAV:  45    -0.615663992058E+02   -0.22215E-03   -0.12467E-06   256   0.205E-03    0.867E-04
DAV:  46    -0.615665611810E+02   -0.16198E-03   -0.96095E-07   272   0.168E-03    0.605E-04
DAV:  47    -0.615666583138E+02   -0.97133E-04   -0.60646E-07   256   0.130E-03
   1 F= -.61566658E+02 E0= -.61572491E+02  d E =-.615667E+02  mag=     6.8611
       N       E                     dE             d eps       ncg     rms          rms(c)
DAV:   1    -0.616858547470E+02   -0.11929E+00   -0.13291E+02   416   0.302E+01    0.291E+00
DAV:   2    -0.619167848068E+02   -0.23093E+00   -0.22839E+00   432   0.576E+00    0.388E+00
DAV:   3    -0.618796510446E+02    0.37134E-01   -0.78245E-01   432   0.510E+00    0.281E+00
DAV:   4    -0.618509520064E+02    0.28699E-01   -0.18561E-01   424   0.254E+00    0.167E+00
DAV:   5    -0.618485503016E+02    0.24017E-02   -0.12819E-01   448   0.211E+00    0.175E+00
DAV:   6    -0.618507122792E+02   -0.21620E-02   -0.13920E-01   440   0.185E+00    0.167E+00
DAV:   7    -0.618384230699E+02    0.12289E-01   -0.60380E-02   440   0.141E+00    0.708E-01
DAV:   8    -0.618381858582E+02    0.23721E-03   -0.16451E-02   448   0.819E-01    0.392E-01
DAV:   9    -0.618383665066E+02   -0.18065E-03   -0.65679E-03   448   0.483E-01    0.320E-01
DAV:  10    -0.618380987550E+02    0.26775E-03   -0.18956E-03   464   0.284E-01    0.119E-01
DAV:  11    -0.618384268430E+02   -0.32809E-03   -0.62024E-04   448   0.130E-01    0.870E-02
DAV:  12    -0.618384445669E+02   -0.17724E-04   -0.21661E-04   304   0.975E-02
   2 F= -.61838445E+02 E0= -.61845815E+02  d E =-.271786E+00  mag=     6.8589
       N       E                     dE             d eps       ncg     rms          rms(c)
DAV:   1    -0.618304831826E+02    0.79437E-02   -0.25195E+01   424   0.131E+01    0.118E+00
DAV:   2    -0.618746278015E+02   -0.44145E-01   -0.44540E-01   440   0.250E+00    0.167E+00
DAV:   3    -0.618663933375E+02    0.82345E-02   -0.13452E-01   432   0.214E+00    0.116E+00
DAV:   4    -0.618614853915E+02    0.49079E-02   -0.28347E-02   440   0.988E-01    0.583E-01
DAV:   5    -0.618614102459E+02    0.75146E-04   -0.11725E-02   440   0.741E-01    0.526E-01
DAV:   6    -0.618633727226E+02   -0.19625E-02   -0.19661E-02   440   0.731E-01    0.838E-01
DAV:   7    -0.618600443235E+02    0.33284E-02   -0.12395E-02   440   0.614E-01    0.233E-01
DAV:   8    -0.618601003504E+02   -0.56027E-04   -0.21276E-03   432   0.304E-01    0.126E-01
DAV:   9    -0.618599590794E+02    0.14127E-03   -0.49651E-04   352   0.135E-01    0.721E-02
DAV:  10    -0.618599677549E+02   -0.86756E-05   -0.17815E-04   304   0.780E-02
   3 F= -.61859968E+02 E0= -.61867914E+02  d E =-.293309E+00  mag=     6.8774
       N       E                     dE             d eps       ncg     rms          rms(c)
DAV:   1    -0.618670560790E+02   -0.70970E-02   -0.75370E+00   416   0.713E+00    0.529E-01
DAV:   2    -0.618830069784E+02   -0.15951E-01   -0.14406E-01   440   0.156E+00    0.126E+00
DAV:   3    -0.618770869823E+02    0.59200E-02   -0.47267E-02   440   0.118E+00    0.565E-01
DAV:   4    -0.618774995048E+02   -0.41252E-03   -0.13947E-02   440   0.670E-01    0.519E-01
DAV:   5    -0.618765907816E+02    0.90872E-03   -0.49127E-03   424   0.426E-01    0.237E-01
DAV:   6    -0.618769608427E+02   -0.37006E-03   -0.27540E-03   440   0.319E-01    0.249E-01
DAV:   7    -0.618773361114E+02   -0.37527E-03   -0.20385E-03   456   0.267E-01    0.177E-01
DAV:   8    -0.618773616344E+02   -0.25523E-04   -0.75649E-04   400   0.202E-01
   4 F= -.61877362E+02 E0= -.61885490E+02  d E =-.173939E-01  mag=     6.8886
       N       E                     dE             d eps       ncg     rms          rms(c)
DAV:   1    -0.618788103400E+02   -0.14742E-02   -0.11262E+00   432   0.276E+00    0.216E-01
DAV:   2    -0.618814311281E+02   -0.26208E-02   -0.23126E-02   424   0.640E-01    0.536E-01
DAV:   3    -0.618803820219E+02    0.10491E-02   -0.81085E-03   416   0.499E-01    0.227E-01
DAV:   4    -0.618806170424E+02   -0.23502E-03   -0.24013E-03   416   0.278E-01    0.217E-01
DAV:   5    -0.618805720646E+02    0.44978E-04   -0.75769E-04   336   0.181E-01
   5 F= -.61880572E+02 E0= -.61888695E+02  d E =-.206043E-01  mag=     6.8926
       N       E                     dE             d eps       ncg     rms          rms(c)
DAV:   1    -0.618840254179E+02   -0.34084E-02   -0.26982E+00   424   0.429E+00    0.287E-01
DAV:   2    -0.618909900981E+02   -0.69647E-02   -0.51454E-02   448   0.972E-01    0.843E-01
DAV:   3    -0.618876155295E+02    0.33746E-02   -0.17370E-02   440   0.761E-01    0.331E-01
DAV:   4    -0.618879185541E+02   -0.30302E-03   -0.39329E-03   440   0.326E-01    0.212E-01
DAV:   5    -0.618877896222E+02    0.12893E-03   -0.11012E-03   424   0.194E-01    0.117E-01
DAV:   6    -0.618878298656E+02   -0.40243E-04   -0.47343E-04   352   0.147E-01
   6 F= -.61887830E+02 E0= -.61896306E+02  d E =-.725780E-02  mag=     6.9023
       N       E                     dE             d eps       ncg     rms          rms(c)
DAV:   1    -0.618675230614E+02    0.20267E-01   -0.24311E+01   424   0.129E+01    0.860E-01
DAV:   2    -0.619207120909E+02   -0.53189E-01   -0.43775E-01   456   0.281E+00    0.216E+00
DAV:   3    -0.619013226379E+02    0.19389E-01   -0.12570E-01   440   0.211E+00    0.996E-01
DAV:   4    -0.618998973604E+02    0.14253E-02   -0.39122E-02   448   0.103E+00    0.727E-01
DAV:   5    -0.618974045819E+02    0.24928E-02   -0.11258E-02   448   0.597E-01    0.357E-01
DAV:   6    -0.618970917759E+02    0.31281E-03   -0.45734E-03   448   0.452E-01    0.332E-01
DAV:   7    -0.618955690771E+02    0.15227E-02   -0.49126E-03   440   0.351E-01    0.232E-01
DAV:   8    -0.618952628407E+02    0.30624E-03   -0.16492E-03   456   0.245E-01    0.137E-01
DAV:   9    -0.618951900232E+02    0.72817E-04   -0.43322E-04   304   0.141E-01
   7 F= -.61895190E+02 E0= -.61904329E+02  d E =-.146180E-01  mag=     6.9268
       N       E                     dE             d eps       ncg     rms          rms(c)
DAV:   1    -0.618967898437E+02   -0.15270E-02   -0.31061E+00   432   0.460E+00    0.294E-01
DAV:   2    -0.619039375112E+02   -0.71477E-02   -0.62642E-02   432   0.104E+00    0.832E-01
DAV:   3    -0.619005910079E+02    0.33465E-02   -0.18937E-02   424   0.750E-01    0.274E-01
DAV:   4    -0.619009256498E+02   -0.33464E-03   -0.37459E-03   424   0.348E-01    0.283E-01
DAV:   5    -0.619005345502E+02    0.39110E-03   -0.13354E-03   384   0.218E-01    0.115E-01
DAV:   6    -0.619005217411E+02    0.12809E-04   -0.40586E-04   280   0.128E-01
   8 F= -.61900522E+02 E0= -.61909858E+02  d E =-.533172E-02  mag=     6.9443
       N       E                     dE             d eps       ncg     rms          rms(c)
DAV:   1    -0.618750417651E+02    0.25493E-01   -0.28023E+01   416   0.138E+01    0.834E-01
DAV:   2    -0.619356973886E+02   -0.60656E-01   -0.52522E-01   424   0.296E+00    0.226E+00
DAV:   3    -0.619108422600E+02    0.24855E-01   -0.14095E-01   424   0.207E+00    0.740E-01
DAV:   4    -0.619126801722E+02   -0.18379E-02   -0.31294E-02   432   0.946E-01    0.834E-01
DAV:   5    -0.619090629333E+02    0.36172E-02   -0.10803E-02   432   0.618E-01    0.311E-01
DAV:   6    -0.619087078972E+02    0.35504E-03   -0.35391E-03   416   0.401E-01    0.321E-01
DAV:   7    -0.619070665953E+02    0.16413E-02   -0.48792E-03   432   0.359E-01    0.268E-01
DAV:   8    -0.619063363477E+02    0.73025E-03   -0.23133E-03   432   0.299E-01    0.177E-01
DAV:   9    -0.619059447212E+02    0.39163E-03   -0.78882E-04   336   0.161E-01    0.839E-02
DAV:  10    -0.619058507736E+02    0.93948E-04   -0.15826E-04   256   0.826E-02
   9 F= -.61905851E+02 E0= -.61914951E+02  d E =-.106608E-01  mag=     6.9907
       N       E                     dE             d eps       ncg     rms          rms(c)
DAV:   1    -0.619058858591E+02    0.58862E-04   -0.24019E+00   416   0.405E+00    0.260E-01
DAV:   2    -0.619099428965E+02   -0.40570E-02   -0.41925E-02   424   0.801E-01    0.492E-01
DAV:   3    -0.619089806046E+02    0.96229E-03   -0.85173E-03   424   0.552E-01    0.209E-01
DAV:   4    -0.619092589403E+02   -0.27834E-03   -0.23235E-03   416   0.263E-01    0.233E-01
DAV:   5    -0.619091227947E+02    0.13615E-03   -0.11989E-03   312   0.187E-01    0.115E-01
DAV:   6    -0.619092834116E+02   -0.16062E-03   -0.56318E-04   288   0.139E-01    0.108E-01
DAV:   7    -0.619097526865E+02   -0.46927E-03   -0.39012E-04   280   0.112E-01    0.671E-02
DAV:   8    -0.619100353267E+02   -0.28264E-03   -0.17312E-04   272   0.860E-02    0.418E-02
DAV:   9    -0.619102853931E+02   -0.25007E-03   -0.69234E-05   256   0.513E-02    0.294E-02
DAV:  10    -0.619104750944E+02   -0.18970E-03   -0.23191E-05   248   0.292E-02    0.176E-02
DAV:  11    -0.619108123761E+02   -0.33728E-03   -0.10003E-05   264   0.167E-02    0.152E-02
DAV:  12    -0.619113570253E+02   -0.54465E-03   -0.12017E-05   272   0.135E-02    0.130E-02
DAV:  13    -0.619119681545E+02   -0.61113E-03   -0.12000E-05   280   0.124E-02    0.128E-02
DAV:  14    -0.619126771782E+02   -0.70902E-03   -0.14464E-05   272   0.124E-02    0.979E-03
DAV:  15    -0.619134728351E+02   -0.79566E-03   -0.16412E-05   280   0.998E-03    0.946E-03
DAV:  16    -0.619140932630E+02   -0.62043E-03   -0.12511E-05   288   0.870E-03    0.780E-03
DAV:  17    -0.619153273039E+02   -0.12340E-02   -0.44059E-05   280   0.105E-02    0.669E-03
DAV:  18    -0.619159499247E+02   -0.62262E-03   -0.20511E-05   304   0.963E-03    0.417E-03
DAV:  19    -0.619166621158E+02   -0.71219E-03   -0.28717E-05   280   0.876E-03    0.291E-03
DAV:  20    -0.619169801260E+02   -0.31801E-03   -0.14091E-05   296   0.658E-03    0.199E-03
DAV:  21    -0.619171675030E+02   -0.18738E-03   -0.75962E-06   272   0.466E-03    0.143E-03
DAV:  22    -0.619173264492E+02   -0.15895E-03   -0.43930E-06   280   0.350E-03    0.126E-03
DAV:  23    -0.619175037437E+02   -0.17729E-03   -0.31135E-06   272   0.282E-03    0.109E-03
DAV:  24    -0.619176729388E+02   -0.16920E-03   -0.27381E-06   280   0.270E-03    0.722E-04
DAV:  25    -0.619177945368E+02   -0.12160E-03   -0.23779E-06   280   0.232E-03    0.565E-04
DAV:  26    -0.619178536067E+02   -0.59070E-04   -0.14795E-06   264   0.198E-03
  10 F= -.61917854E+02 E0= -.61927513E+02  d E =-.120028E-01  mag=     7.1045
       N       E                     dE             d eps       ncg     rms          rms(c)
DAV:   1    -0.619150724090E+02    0.27221E-02   -0.31724E+00   416   0.465E+00    0.284E-01
DAV:   2    -0.619200613473E+02   -0.49889E-02   -0.52996E-02   432   0.885E-01    0.513E-01
DAV:   3    -0.619191364832E+02    0.92486E-03   -0.94269E-03   424   0.590E-01    0.228E-01
DAV:   4    -0.619192785143E+02   -0.14203E-03   -0.23429E-03   424   0.273E-01    0.230E-01
DAV:   5    -0.619190674578E+02    0.21106E-03   -0.12794E-03   328   0.194E-01    0.133E-01
DAV:   6    -0.619190700335E+02   -0.25758E-05   -0.83832E-04   352   0.162E-01
  11 F= -.61919070E+02 E0= -.61929298E+02  d E =-.132193E-01  mag=     7.1097
       N       E                     dE             d eps       ncg     rms          rms(c)
DAV:   1    -0.619178514641E+02    0.12160E-02   -0.21757E+00   448   0.385E+00    0.218E-01
DAV:   2    -0.619214817416E+02   -0.36303E-02   -0.36802E-02   448   0.758E-01    0.478E-01
DAV:   3    -0.619204253949E+02    0.10563E-02   -0.74967E-03   440   0.526E-01    0.201E-01
DAV:   4    -0.619205026421E+02   -0.77247E-04   -0.19768E-03   448   0.250E-01    0.207E-01
DAV:   5    -0.619202416690E+02    0.26097E-03   -0.79531E-04   288   0.159E-01    0.898E-02
DAV:   6    -0.619202054642E+02    0.36205E-04   -0.29392E-04   264   0.980E-02
  12 F= -.61920205E+02 E0= -.61930797E+02  d E =-.113543E-02  mag=     7.1180
       N       E                     dE             d eps       ncg     rms          rms(c)
DAV:   1    -0.619001219356E+02    0.20120E-01   -0.16750E+01   416   0.107E+01    0.592E-01
DAV:   2    -0.619294954114E+02   -0.29373E-01   -0.28510E-01   448   0.205E+00    0.136E+00
DAV:   3    -0.619225544587E+02    0.69410E-02   -0.65561E-02   440   0.138E+00    0.629E-01
DAV:   4    -0.619226018950E+02   -0.47436E-04   -0.17474E-02   440   0.712E-01    0.566E-01
DAV:   5    -0.619208486009E+02    0.17533E-02   -0.56894E-03   440   0.431E-01    0.217E-01
DAV:   6    -0.619206769539E+02    0.17165E-03   -0.21888E-03   440   0.273E-01    0.228E-01
DAV:   7    -0.619198702435E+02    0.80671E-03   -0.26471E-03   456   0.271E-01    0.210E-01
DAV:   8    -0.619194317879E+02    0.43846E-03   -0.12131E-03   448   0.232E-01    0.110E-01
DAV:   9    -0.619193049733E+02    0.12681E-03   -0.33265E-04   272   0.121E-01    0.522E-02
DAV:  10    -0.619192890644E+02    0.15909E-04   -0.71181E-05   264   0.571E-02
  13 F= -.61919289E+02 E0= -.61930396E+02  d E =-.219031E-03  mag=     7.1460
