 vasp.6.1.2 22Jul20 (build Aug  2 2021 21:04:21) gamma-only                      
 executed on             LinuxPGI date 2021.12.15  21:44:30
 running on   16 total cores
 distrk:  each k-point on   16 cores,    1 groups
 distr:  one band on NCORE=  16 cores,    1 groups


--------------------------------------------------------------------------------------------------------


 INCAR:
 POTCAR:    PAW_PBE Pd 04Jan2005                  
 -----------------------------------------------------------------------------
|                                                                             |
|           W    W    AA    RRRRR   N    N  II  N    N   GGGG   !!!           |
|           W    W   A  A   R    R  NN   N  II  NN   N  G    G  !!!           |
|           W    W  A    A  R    R  N N  N  II  N N  N  G       !!!           |
|           W WW W  AAAAAA  RRRRR   N  N N  II  N  N N  G  GGG   !            |
|           WW  WW  A    A  R   R   N   NN  II  N   NN  G    G                |
|           W    W  A    A  R    R  N    N  II  N    N   GGGG   !!!           |
|                                                                             |
|     You use a magnetic or noncollinear calculation, but did not specify     |
|     the initial magnetic moment with the MAGMOM tag. Note that a            |
|     default of 1 will be used for all atoms. This ferromagnetic setup       |
|     may break the symmetry of the crystal, in particular it may rule        |
|     out finding an antiferromagnetic solution. Thence, we recommend         |
|     setting the initial magnetic moment manually or verifying carefully     |
|     that this magnetic setup is desired.                                    |
|                                                                             |
 -----------------------------------------------------------------------------

 -----------------------------------------------------------------------------
|                                                                             |
|           W    W    AA    RRRRR   N    N  II  N    N   GGGG   !!!           |
|           W    W   A  A   R    R  NN   N  II  NN   N  G    G  !!!           |
|           W    W  A    A  R    R  N N  N  II  N N  N  G       !!!           |
|           W WW W  AAAAAA  RRRRR   N  N N  II  N  N N  G  GGG   !            |
|           WW  WW  A    A  R   R   N   NN  II  N   NN  G    G                |
|           W    W  A    A  R    R  N    N  II  N    N   GGGG   !!!           |
|                                                                             |
|     For optimal performance we recommend to set                             |
|       NCORE = 4 - approx SQRT(number of cores).                             |
|     NCORE specifies how many cores store one orbital (NPAR=cpu/NCORE).      |
|     This setting can greatly improve the performance of VASP for DFT.       |
|     The default, NCORE=1 might be grossly inefficient on modern             |
|     multi-core architectures or massively parallel machines. Do your        |
|     own testing!!!!                                                         |
|     Unfortunately you need to use the default for GW and RPA                |
|     calculations (for HF NCORE is supported but not extensively tested      |
|     yet).                                                                   |
|                                                                             |
 -----------------------------------------------------------------------------

 POTCAR:    PAW_PBE Pd 04Jan2005                  
   SHA256 =  dd6f6f02930356371984e2b707ff5e456046761dc76b07c1eba30abd15eb3c39 Pd/POTCAR             
   COPYR  = (c) Copyright 04Jan2005 Georg Kresse                                                    
   COPYR  = This file is part of the software VASP. Any use, copying, and all other rights are regul
   COPYR  = If you do not have a valid VASP license, you may not use, copy or distribute this file. 
   VRHFIN =Pd : s1 d9                                                                               
   LEXCH  = PE                                                                                      
   EATOM  =   809.7530 eV,   59.5152 Ry                                                             
                                                                                                    
   TITEL  = PAW_PBE Pd 04Jan2005                                                                    
   LULTRA =        F    use ultrasoft PP ?                                                          
   IUNSCR =        1    unscreen: 0-lin 1-nonlin 2-no                                               
   RPACOR =    2.000    partial core radius                                                         
   POMASS =  106.420; ZVAL   =   10.000    mass and valenz                                          
   RCORE  =    2.600    outmost cutoff radius                                                       
   RWIGS  =    2.710; RWIGS  =    1.434    wigner-seitz radius (au A)                               
   ENMAX  =  250.925; ENMIN  =  188.194 eV                                                          
   ICORE  =        3    local potential                                                             
   LCOR   =        T    correct aug charges                                                         
   LPAW   =        T    paw PP                                                                      
   EAUG   =  416.230                                                                                
   DEXC   =    0.000                                                                                
   RMAX   =    2.653    core radius for proj-oper                                                   
   RAUG   =    1.300    factor for augmentation sphere                                              
   RDEP   =    2.734    radius for radial grids                                                     
   RDEPT  =    2.103    core radius for aug-charge                                                  
                                                                                                    
   Atomic configuration                                                                             
   12 entries                                                                                       
     n  l   j            E        occ.                                                              
     1  0  0.50    -24164.6631   2.0000                                                             
     2  0  0.50     -3530.9218   2.0000                                                             
     2  1  1.50     -3165.6822   6.0000                                                             
     3  0  0.50      -639.4577   2.0000                                                             
     3  1  1.50      -519.4532   6.0000                                                             
     3  2  2.50      -328.9757  10.0000                                                             
     4  0  0.50       -88.7014   2.0000                                                             
     4  1  1.50       -54.4540   6.0000                                                             
     4  2  2.50        -6.6878   9.0000                                                             
     5  0  0.50        -4.3543   1.0000                                                             
     5  1  0.50        -1.3606   0.0000                                                             
     4  3  2.50        -1.3606   0.0000                                                             
   Description                                                                                      
     l       E           TYP  RCUT    TYP  RCUT                                                     
     2     -6.6878251     23  2.400                                                                 
     2     -8.0484077     23  2.400                                                                 
     0     -4.3542939     23  2.400                                                                 
     0      4.3406793     23  2.400                                                                 
     1     -4.0817478     23  2.600                                                                 
     1     15.8380318     23  2.600                                                                 
     3     -4.0817478     23  2.400                                                                 
  local pseudopotential read in
  partial core-charges read in
  partial kinetic energy density read in
  atomic valenz-charges read in
  non local Contribution for L=            2  read in
    real space projection operators read in
  non local Contribution for L=            2  read in
    real space projection operators read in
  non local Contribution for L=            0  read in
    real space projection operators read in
  non local Contribution for L=            0  read in
    real space projection operators read in
  non local Contribution for L=            1  read in
    real space projection operators read in
  non local Contribution for L=            1  read in
    real space projection operators read in
    PAW grid and wavefunctions read in
 
   number of l-projection  operators is LMAX  =            6
   number of lm-projection operators is LMMAX =           18
 
  PAW_PBE Pd 04Jan2005                  :
 energy of atom  1       EATOM= -809.7530
 kinetic energy error for atom=    0.0091 (will be added to EATOM!!)
 
 
 POSCAR: Pd
  positions in cartesian coordinates
  No initial velocities read in
 exchange correlation table for  LEXCH =        8
   RHO(1)=    0.500       N(1)  =     2000
   RHO(2)=  100.500       N(2)  =     4000
 


--------------------------------------------------------------------------------------------------------


 ion  position               nearest neighbor table
   1  0.543  0.546  0.485-   6 2.56   5 2.58  12 2.63   7 2.63   3 2.66  15 2.66   2 2.68   9 2.70
                             4 2.75  13 2.89
   2  0.444  0.557  0.442-  10 2.63   3 2.64  11 2.66   8 2.66   1 2.68   5 2.70   7 2.72
   3  0.481  0.449  0.467-  14 2.64   2 2.64  11 2.65   1 2.66   8 2.73  13 2.74   9 2.75   4 2.76
                             7 2.96  10 3.41
   4  0.593  0.434  0.479-  13 2.57  12 2.58   9 2.60   6 2.67   1 2.75   3 2.76
   5  0.539  0.589  0.395-  13 2.57   1 2.58  10 2.62   2 2.70   6 2.89
   6  0.636  0.535  0.439-   1 2.56  13 2.60  12 2.64   4 2.67   5 2.89
   7  0.455  0.544  0.542-  11 2.54  16 2.56   1 2.63  15 2.66   9 2.67   2 2.72   3 2.96
   8  0.393  0.461  0.404-  11 2.53  14 2.54  10 2.58   2 2.66   3 2.73
   9  0.534  0.461  0.558-  16 2.56   4 2.60  15 2.64   7 2.67   1 2.70  12 2.72   3 2.75
  10  0.469  0.515  0.352-   8 2.58  13 2.59  14 2.62   5 2.62   2 2.63   3 3.41
  11  0.381  0.484  0.496-   8 2.53   7 2.54   3 2.65   2 2.66
  12  0.632  0.518  0.537-   4 2.58  15 2.60   1 2.63   6 2.64   9 2.72
  13  0.558  0.474  0.395-   5 2.57   4 2.57  14 2.58  10 2.59   6 2.60   3 2.74   1 2.89
  14  0.478  0.400  0.377-   8 2.54  13 2.58  10 2.62   3 2.64
  15  0.552  0.576  0.581-  16 2.53  12 2.60   9 2.64   7 2.66   1 2.66
  16  0.484  0.513  0.631-  15 2.53   7 2.56   9 2.56
 

IMPORTANT INFORMATION: All symmetrisations will be switched off!
NOSYMM: (Re-)initialisation of all symmetry stuff for point group C_1.


----------------------------------------------------------------------------------------

                                     Primitive cell                                     

  volume of cell :   14228.0891

  direct lattice vectors                    reciprocal lattice vectors
    24.204520820  0.000000000  0.000000000     0.041314596  0.000000000  0.000000000
     0.000000000 22.023167304  0.000000000     0.000000000  0.045406729  0.000000000
     0.000000000  0.000000000 26.691335772     0.000000000  0.000000000  0.037465341

  length of vectors
    24.204520820 22.023167304 26.691335772     0.041314596  0.045406729  0.037465341

  position of ions in fractional coordinates (direct lattice)
     0.543310008  0.545892037  0.484925389
     0.444050236  0.557333880  0.441794628
     0.480759029  0.448692417  0.467395040
     0.593217420  0.433923494  0.479325163
     0.538907860  0.589259036  0.395241503
     0.635905425  0.534614654  0.439284925
     0.454910201  0.543617991  0.542458314
     0.392984337  0.460599022  0.404000372
     0.534293840  0.461302332  0.557745950
     0.468585599  0.515031114  0.352450149
     0.381011584  0.483531607  0.496199965
     0.631512611  0.517520173  0.537165924
     0.557569325  0.474427148  0.394852917
     0.477573289  0.400252348  0.377150601
     0.551701065  0.576051709  0.581310898
     0.484193486  0.512500325  0.631127235

  ion indices of the primitive-cell ions
   primitive index   ion index
                 1           1
                 2           2
                 3           3
                 4           4
                 5           5
                 6           6
                 7           7
                 8           8
                 9           9
                10          10
                11          11
                12          12
                13          13
                14          14
                15          15
                16          16

----------------------------------------------------------------------------------------

 
 
 KPOINTS: KPOINTS created by Atomic Simulation Env

Automatic generation of k-mesh.
Space group operators:
 irot       det(A)        alpha          n_x          n_y          n_z        tau_x        tau_y        tau_z
    1     1.000000     0.000001     1.000000     0.000000     0.000000     0.000000     0.000000     0.000000
 
 Subroutine IBZKPT returns following result:
 ===========================================
 
 Found      1 irreducible k-points:
 
 Following reciprocal coordinates:
            Coordinates               Weight
  0.000000  0.000000  0.000000      1.000000
 
 Following cartesian coordinates:
            Coordinates               Weight
  0.000000  0.000000  0.000000      1.000000
 


--------------------------------------------------------------------------------------------------------




 Dimension of arrays:
   k-points           NKPTS =      1   k-points in BZ     NKDIM =      1   number of bands    NBANDS=    104
   number of dos      NEDOS =    301   number of ions     NIONS =     16
   non local maximal  LDIM  =      6   non local SUM 2l+1 LMDIM =     18
   total plane-waves  NPLWV = ******
   max r-space proj   IRMAX =      1   max aug-charges    IRDMAX=   6385
   dimension x,y,z NGX =   120 NGY =  108 NGZ =  140
   dimension x,y,z NGXF=   240 NGYF=  216 NGZF=  280
   support grid    NGXF=   240 NGYF=  216 NGZF=  280
   ions per type =              16
   NGX,Y,Z   is equivalent  to a cutoff of   8.24,  8.15,  8.72 a.u.
   NGXF,Y,Z  is equivalent  to a cutoff of  16.48, 16.31, 17.44 a.u.

 SYSTEM =  unknown system                          
 POSCAR =  Pd                                      

 Startparameter for this run:
   NWRITE =      2    write-flag & timer
   PREC   = normal    normal or accurate (medium, high low for compatibility)
   ISTART =      0    job   : 0-new  1-cont  2-samecut
   ICHARG =      2    charge: 1-file 2-atom 10-const
   ISPIN  =      2    spin polarized calculation?
   LNONCOLLINEAR =      F non collinear calculations
   LSORBIT =      F    spin-orbit coupling
   INIWAV =      1    electr: 0-lowe 1-rand  2-diag
   LASPH  =      F    aspherical Exc in radial PAW
   METAGGA=      F    non-selfconsistent MetaGGA calc.

 Electronic Relaxation 1
   ENCUT  =  400.0 eV  29.40 Ry    5.42 a.u.  39.47 35.91 43.53*2*pi/ulx,y,z
   ENINI  =  400.0     initial cutoff
   ENAUG  =  416.2 eV  augmentation charge cutoff
   NELM   =     60;   NELMIN=  2; NELMDL=  0     # of ELM steps 
   EDIFF  = 0.1E-03   stopping-criterion for ELM
   LREAL  =      F    real-space projection
   NLSPLINE    = F    spline interpolate recip. space projectors
   LCOMPAT=      F    compatible to vasp.4.4
   GGA_COMPAT  = T    GGA compatible to vasp.4.4-vasp.4.6
   LMAXPAW     = -100 max onsite density
   LMAXMIX     =    2 max onsite mixed and CHGCAR
   VOSKOWN=      0    Vosko Wilk Nusair interpolation
   ROPT   =    0.00000
 Ionic relaxation
   EDIFFG = 0.1E-02   stopping-criterion for IOM
   NSW    =   1000    number of steps for IOM
   NBLOCK =      1;   KBLOCK =   1000    inner block; outer block 
   IBRION =      2    ionic relax: 0-MD 1-quasi-New 2-CG
   NFREE  =      1    steps in history (QN), initial steepest desc. (CG)
   ISIF   =      0    stress and relaxation
   IWAVPR =     11    prediction:  0-non 1-charg 2-wave 3-comb
   ISYM   =      0    0-nonsym 1-usesym 2-fastsym
   LCORR  =      T    Harris-Foulkes like correction to forces

   POTIM  = 0.5000    time-step for ionic-motion
   TEIN   =    0.0    initial temperature
   TEBEG  =    0.0;   TEEND  =   0.0 temperature during run
   SMASS  =  -3.00    Nose mass-parameter (am)
   estimated Nose-frequenzy (Omega)   =  0.10E-29 period in steps = 0.13E+47 mass=  -0.134E-25a.u.
   SCALEE = 1.0000    scale energy and forces
   NPACO  =    256;   APACO  = 16.0  distance and # of slots for P.C.
   PSTRESS=    0.0 pullay stress

  Mass of Ions in am
   POMASS = 106.42
  Ionic Valenz
   ZVAL   =  10.00
  Atomic Wigner-Seitz radii
   RWIGS  =  -1.00
  virtual crystal weights 
   VCA    =   1.00
   NELECT =     160.0000    total number of electrons
   NUPDOWN=      -1.0000    fix difference up-down

 DOS related values:
   EMIN   =  10.00;   EMAX   =-10.00  energy-range for DOS
   EFERMI =   0.00
   ISMEAR =     1;   SIGMA  =   0.20  broadening in eV -4-tet -1-fermi 0-gaus

 Electronic relaxation 2 (details)
   IALGO  =     38    algorithm
   LDIAG  =      T    sub-space diagonalisation (order eigenvalues)
   LSUBROT=      F    optimize rotation matrix (better conditioning)
   TURBO    =      0    0=normal 1=particle mesh
   IRESTART =      0    0=no restart 2=restart with 2 vectors
   NREBOOT  =      0    no. of reboots
   NMIN     =      0    reboot dimension
   EREF     =   0.00    reference energy to select bands
   IMIX   =      4    mixing-type and parameters
     AMIX     =   0.40;   BMIX     =  1.00
     AMIX_MAG =   1.60;   BMIX_MAG =  1.00
     AMIN     =   0.10
     WC   =   100.;   INIMIX=   1;  MIXPRE=   1;  MAXMIX= -45

 Intra band minimization:
   WEIMIN = 0.0010     energy-eigenvalue tresh-hold
   EBREAK =  0.24E-06  absolut break condition
   DEPER  =   0.30     relativ break condition  

   TIME   =   0.40     timestep for ELM

  volume/ion in A,a.u.               =     889.26      6000.99
  Fermi-wavevector in a.u.,A,eV,Ry     =   0.366775  0.693104  1.830305  0.134524
  Thomas-Fermi vector in A             =   1.291378
 
 Write flags
   LWAVE        =      F    write WAVECAR
   LDOWNSAMPLE  =      F    k-point downsampling of WAVECAR
   LCHARG       =      F    write CHGCAR
   LVTOT        =      F    write LOCPOT, total local potential
   LVHAR        =      F    write LOCPOT, Hartree potential only
   LELF         =      F    write electronic localiz. function (ELF)
   LORBIT       =      0    0 simple, 1 ext, 2 COOP (PROOUT), +10 PAW based schemes


 Dipole corrections
   LMONO  =      F    monopole corrections only (constant potential shift)
   LDIPOL =      F    correct potential (dipole corrections)
   IDIPOL =      0    1-x, 2-y, 3-z, 4-all directions 
   EPSILON=  1.0000000 bulk dielectric constant

 Exchange correlation treatment:
   GGA     =    PE    GGA type
   LEXCH   =     8    internal setting for exchange type
   VOSKOWN=      0    Vosko Wilk Nusair interpolation
   LHFCALC =     F    Hartree Fock is set to
   LHFONE  =     F    Hartree Fock one center treatment
   AEXX    =    0.0000 exact exchange contribution

 Linear response parameters
   LEPSILON=     F    determine dielectric tensor
   LRPA    =     F    only Hartree local field effects (RPA)
   LNABLA  =     F    use nabla operator in PAW spheres
   LVEL    =     F    velocity operator in full k-point grid
   LINTERFAST=   F  fast interpolation
   KINTER  =     0    interpolate to denser k-point grid
   CSHIFT  =0.1000    complex shift for real part using Kramers Kronig
   OMEGAMAX=  -1.0    maximum frequency
   DEG_THRESHOLD= 0.2000000E-02 threshold for treating states as degnerate
   RTIME   =   -0.100 relaxation time in fs
  (WPLASMAI=    0.000 imaginary part of plasma frequency in eV, 0.658/RTIME)
   DFIELD  = 0.0000000 0.0000000 0.0000000 field for delta impulse in time
 
 Orbital magnetization related:
   ORBITALMAG=     F  switch on orbital magnetization
   LCHIMAG   =     F  perturbation theory with respect to B field
   DQ        =  0.001000  dq finite difference perturbation B field
   LLRAUG    =     F  two centre corrections for induced B field



--------------------------------------------------------------------------------------------------------


 conjugate gradient relaxation of ions
 charge density and potential will be updated during run
 spin polarized calculation
 Variant of blocked Davidson
 Davidson routine will perform the subspace rotation
 perform sub-space diagonalisation
    after iterative eigenvector-optimisation
 modified Broyden-mixing scheme, WC =      100.0
 initial mixing is a Kerker type mixing with AMIX =  0.4000 and BMIX =      1.0000
 Hartree-type preconditioning will be used
 using additional bands            24
 reciprocal scheme for non local part
 use partial core corrections
 calculate Harris-corrections to forces 
   (improved forces if not selfconsistent)
 use gradient corrections 
 use of overlap-Matrix (Vanderbilt PP)
 Methfessel and Paxton  Order N= 1 SIGMA  =   0.20


--------------------------------------------------------------------------------------------------------


  energy-cutoff  :      400.00
  volume of cell :    14228.09
      direct lattice vectors                 reciprocal lattice vectors
    24.204520820  0.000000000  0.000000000     0.041314596  0.000000000  0.000000000
     0.000000000 22.023167304  0.000000000     0.000000000  0.045406729  0.000000000
     0.000000000  0.000000000 26.691335772     0.000000000  0.000000000  0.037465341

  length of vectors
    24.204520820 22.023167304 26.691335772     0.041314596  0.045406729  0.037465341


 
 k-points in units of 2pi/SCALE and weight: KPOINTS created by Atomic Simulation Env
   0.00000000  0.00000000  0.00000000       1.000
 
 k-points in reciprocal lattice and weights: KPOINTS created by Atomic Simulation Env
   0.00000000  0.00000000  0.00000000       1.000
 
 position of ions in fractional coordinates (direct lattice) 
   0.54331001  0.54589204  0.48492539
   0.44405024  0.55733388  0.44179463
   0.48075903  0.44869242  0.46739504
   0.59321742  0.43392349  0.47932516
   0.53890786  0.58925904  0.39524150
   0.63590542  0.53461465  0.43928492
   0.45491020  0.54361799  0.54245831
   0.39298434  0.46059902  0.40400037
   0.53429384  0.46130233  0.55774595
   0.46858560  0.51503111  0.35245015
   0.38101158  0.48353161  0.49619997
   0.63151261  0.51752017  0.53716592
   0.55756933  0.47442715  0.39485292
   0.47757329  0.40025235  0.37715060
   0.55170106  0.57605171  0.58131090
   0.48419349  0.51250033  0.63112723
 
 position of ions in cartesian coordinates  (Angst):
  13.15055840 12.02227166 12.94330637
  10.74802318 12.27425729 11.79208876
  11.63654193  9.88162816 12.47539794
  14.35854340  9.55636971 12.79382888
  13.04400653 12.97735034 10.54952367
  15.39178610 11.77390797 11.72510142
  11.01088344 11.97218996 14.47893700
   9.51199757 10.14384932 10.78330957
  12.93232638 10.15933844 14.88698442
  11.34188990 11.34261640  9.40736526
   9.22220282 10.64889747 13.24423988
  15.28546013 11.39743335 14.33767604
  13.49569834 10.44838844 10.53915179
  11.55943263  8.81482441 10.06665332
  13.35365990 12.68648316 15.51596438
  11.71967130 11.28688041 16.84562894
 


--------------------------------------------------------------------------------------------------------


 use parallel FFT for orbitals z direction half grid
 k-point   1 :   0.0000 0.0000 0.0000  plane waves:  129230

 maximum and minimum number of plane-waves per node :      8085     8067

 maximum number of plane-waves:    129230
 maximum index in each direction: 
   IXMAX=   39   IYMAX=   35   IZMAX=   43
   IXMIN=  -39   IYMIN=  -35   IZMIN=    0


 parallel 3D FFT for wavefunctions:
    minimum data exchange during FFTs selected (reduces bandwidth)
 parallel 3D FFT for charge:
    minimum data exchange during FFTs selected (reduces bandwidth)


 total amount of memory used by VASP MPI-rank0   168802. kBytes
=======================================================================

   base      :      30000. kBytes
   nonl-proj :       3230. kBytes
   fftplans  :      33255. kBytes
   grid      :      75399. kBytes
   one-center:         15. kBytes
   wavefun   :      26903. kBytes
 
     INWAV:  cpu time    0.0001: real time    0.0001
 Broyden mixing: mesh for mixing (old mesh)
   NGX = 79   NGY = 71   NGZ = 87
  (NGX  =240   NGY  =216   NGZ  =280)
  gives a total of 487983 points

 initial charge density was supplied:
 charge density of overlapping atoms calculated
 number of electron     160.0000000 magnetization      16.0000000
 keeping initial charge density in first step


--------------------------------------------------------------------------------------------------------


 Maximum index for augmentation-charges           405 (set IRDMAX)


--------------------------------------------------------------------------------------------------------


 First call to EWALD:  gamma=   0.073
 Maximum number of real-space cells 3x 3x 3
 Maximum number of reciprocal cells 3x 3x 3

    FEWALD:  cpu time    0.0054: real time    0.0054


--------------------------------------- Iteration      1(   1)  ---------------------------------------


    POTLOK:  cpu time    3.0573: real time    3.0659
    SETDIJ:  cpu time    0.0257: real time    0.0258
     EDDAV:  cpu time   12.8430: real time   12.9853
       DOS:  cpu time    0.0090: real time    0.0090
    --------------------------------------------
      LOOP:  cpu time   15.9350: real time   16.0860

 eigenvalue-minimisations  :   416
 total energy-change (2. order) : 0.1430621E+04  (-0.2717361E+04)
 number of electron     160.0000000 magnetization      16.0000000
 augmentation part      160.0000000 magnetization      16.0000000

 Free energy of the ion-electron system (eV)
  ---------------------------------------------------
  alpha Z        PSCENC =        11.72670307
  Ewald energy   TEWEN  =     26124.09382753
  -Hartree energ DENC   =    -38421.68948101
  -exchange      EXHF   =         0.00000000
  -V(xc)+E(xc)   XCENC  =      -479.62068623
  PAW double counting   =     12906.36685261   -11910.91650437
  entropy T*S    EENTRO =        -0.02154295
  eigenvalues    EBANDS =       244.77936845
  atomic energy  EATOM  =     12955.90228127
  Solvation  Ediel_sol  =         0.00000000
  ---------------------------------------------------
  free energy    TOTEN  =      1430.62081836 eV

  energy without entropy =     1430.64236132  energy(sigma->0) =     1430.62799935


--------------------------------------------------------------------------------------------------------




--------------------------------------- Iteration      1(   2)  ---------------------------------------


     EDDAV:  cpu time   22.2358: real time   22.4255
       DOS:  cpu time    0.0140: real time    0.0140
    --------------------------------------------
      LOOP:  cpu time   22.2498: real time   22.4396

 eigenvalue-minimisations  :   800
 total energy-change (2. order) :-0.6945841E+03  (-0.6199997E+03)
 number of electron     160.0000000 magnetization      16.0000000
 augmentation part      160.0000000 magnetization      16.0000000

 Free energy of the ion-electron system (eV)
  ---------------------------------------------------
  alpha Z        PSCENC =        11.72670307
  Ewald energy   TEWEN  =     26124.09382753
  -Hartree energ DENC   =    -38421.68948101
  -exchange      EXHF   =         0.00000000
  -V(xc)+E(xc)   XCENC  =      -479.62068623
  PAW double counting   =     12906.36685261   -11910.91650437
  entropy T*S    EENTRO =        -0.01362457
  eigenvalues    EBANDS =      -449.81264129
  atomic energy  EATOM  =     12955.90228127
  Solvation  Ediel_sol  =         0.00000000
  ---------------------------------------------------
  free energy    TOTEN  =       736.03672701 eV

  energy without entropy =      736.05035157  energy(sigma->0) =      736.04126853


--------------------------------------------------------------------------------------------------------




--------------------------------------- Iteration      1(   3)  ---------------------------------------


     EDDAV:  cpu time   19.8590: real time   19.9840
       DOS:  cpu time    0.0075: real time    0.0075
    --------------------------------------------
      LOOP:  cpu time   19.8665: real time   19.9915

 eigenvalue-minimisations  :   664
 total energy-change (2. order) :-0.6024428E+03  (-0.5629992E+03)
 number of electron     160.0000000 magnetization      16.0000000
 augmentation part      160.0000000 magnetization      16.0000000

 Free energy of the ion-electron system (eV)
  ---------------------------------------------------
  alpha Z        PSCENC =        11.72670307
  Ewald energy   TEWEN  =     26124.09382753
  -Hartree energ DENC   =    -38421.68948101
  -exchange      EXHF   =         0.00000000
  -V(xc)+E(xc)   XCENC  =      -479.62068623
  PAW double counting   =     12906.36685261   -11910.91650437
  entropy T*S    EENTRO =         0.01647180
  eigenvalues    EBANDS =     -1052.28551662
  atomic energy  EATOM  =     12955.90228127
  Solvation  Ediel_sol  =         0.00000000
  ---------------------------------------------------
  free energy    TOTEN  =       133.59394805 eV

  energy without entropy =      133.57747625  energy(sigma->0) =      133.58845745


--------------------------------------------------------------------------------------------------------




--------------------------------------- Iteration      1(   4)  ---------------------------------------


     EDDAV:  cpu time   16.1478: real time   16.1908
       DOS:  cpu time    0.0022: real time    0.0022
    --------------------------------------------
      LOOP:  cpu time   16.1500: real time   16.1930

 eigenvalue-minimisations  :   576
 total energy-change (2. order) :-0.1753558E+03  (-0.1605407E+03)
 number of electron     160.0000000 magnetization      16.0000000
 augmentation part      160.0000000 magnetization      16.0000000

 Free energy of the ion-electron system (eV)
  ---------------------------------------------------
  alpha Z        PSCENC =        11.72670307
  Ewald energy   TEWEN  =     26124.09382753
  -Hartree energ DENC   =    -38421.68948101
  -exchange      EXHF   =         0.00000000
  -V(xc)+E(xc)   XCENC  =      -479.62068623
  PAW double counting   =     12906.36685261   -11910.91650437
  entropy T*S    EENTRO =         0.00175734
  eigenvalues    EBANDS =     -1227.62660057
  atomic energy  EATOM  =     12955.90228127
  Solvation  Ediel_sol  =         0.00000000
  ---------------------------------------------------
  free energy    TOTEN  =       -41.76185036 eV

  energy without entropy =      -41.76360770  energy(sigma->0) =      -41.76243614


--------------------------------------------------------------------------------------------------------




--------------------------------------- Iteration      1(   5)  ---------------------------------------


     EDDAV:  cpu time   17.3292: real time   18.0079
       DOS:  cpu time    0.0270: real time    0.0270
    CHARGE:  cpu time    1.1234: real time    1.1246
    MIXING:  cpu time    0.0566: real time    0.0568
    --------------------------------------------
      LOOP:  cpu time   18.5362: real time   19.2163

 eigenvalue-minimisations  :   568
 total energy-change (2. order) :-0.2215163E+02  (-0.1810586E+02)
 number of electron     159.9999893 magnetization      15.2492507
 augmentation part       67.6872764 magnetization      11.9537825

 Broyden mixing:
  rms(total) = 0.26348E+01    rms(broyden)= 0.26347E+01
  rms(prec ) = 0.26775E+01
  weight for this iteration     100.00

 Free energy of the ion-electron system (eV)
  ---------------------------------------------------
  alpha Z        PSCENC =        11.72670307
  Ewald energy   TEWEN  =     26124.09382753
  -Hartree energ DENC   =    -38421.68948101
  -exchange      EXHF   =         0.00000000
  -V(xc)+E(xc)   XCENC  =      -479.62068623
  PAW double counting   =     12906.36685261   -11910.91650437
  entropy T*S    EENTRO =        -0.00730072
  eigenvalues    EBANDS =     -1249.76917514
  atomic energy  EATOM  =     12955.90228127
  Solvation  Ediel_sol  =         0.00000000
  ---------------------------------------------------
  free energy    TOTEN  =       -63.91348300 eV

  energy without entropy =      -63.90618228  energy(sigma->0) =      -63.91104942


--------------------------------------------------------------------------------------------------------




--------------------------------------- Iteration      1(   6)  ---------------------------------------


    POTLOK:  cpu time    3.0811: real time    3.0840
    SETDIJ:  cpu time    0.0407: real time    0.0407
     EDDAV:  cpu time   18.2226: real time   18.3090
       DOS:  cpu time    0.0366: real time    0.0366
    CHARGE:  cpu time    1.3227: real time    1.3373
    MIXING:  cpu time    0.0557: real time    0.0558
    --------------------------------------------
      LOOP:  cpu time   22.7594: real time   22.8634

 eigenvalue-minimisations  :   464
 total energy-change (2. order) : 0.7479706E+01  (-0.3605723E+01)
 number of electron     159.9999891 magnetization      14.5719119
 augmentation part       68.4880058 magnetization      10.0455629

 Broyden mixing:
  rms(total) = 0.14926E+01    rms(broyden)= 0.14924E+01
  rms(prec ) = 0.15445E+01
  weight for this iteration     100.00

 eigenvalues of (default mixing * dielectric matrix)
  average eigenvalue GAMMA=   0.8459
  0.8459

 Free energy of the ion-electron system (eV)
  ---------------------------------------------------
  alpha Z        PSCENC =        11.72670307
  Ewald energy   TEWEN  =     26124.09382753
  -Hartree energ DENC   =    -38488.60149978
  -exchange      EXHF   =         0.00000000
  -V(xc)+E(xc)   XCENC  =      -476.45485509
  PAW double counting   =     13849.69689573   -12865.08380624
  entropy T*S    EENTRO =         0.02465662
  eigenvalues    EBANDS =     -1167.73797989
  atomic energy  EATOM  =     12955.90228127
  Solvation  Ediel_sol  =         0.00000000
  ---------------------------------------------------
  free energy    TOTEN  =       -56.43377678 eV

  energy without entropy =      -56.45843340  energy(sigma->0) =      -56.44199566


--------------------------------------------------------------------------------------------------------




--------------------------------------- Iteration      1(   7)  ---------------------------------------


    POTLOK:  cpu time    3.0418: real time    3.0685
    SETDIJ:  cpu time    0.0318: real time    0.0359
     EDDAV:  cpu time   13.9026: real time   13.9928
       DOS:  cpu time    0.0022: real time    0.0022
    CHARGE:  cpu time    1.2980: real time    1.2996
    MIXING:  cpu time    0.0694: real time    0.0695
    --------------------------------------------
      LOOP:  cpu time   18.3458: real time   18.4684

 eigenvalue-minimisations  :   432
 total energy-change (2. order) : 0.3168135E+01  (-0.3147093E+01)
 number of electron     159.9999887 magnetization      14.0428606
 augmentation part       68.0191750 magnetization       9.5912170

 Broyden mixing:
  rms(total) = 0.22885E+01    rms(broyden)= 0.22882E+01
  rms(prec ) = 0.24415E+01
  weight for this iteration     100.00

 eigenvalues of (default mixing * dielectric matrix)
  average eigenvalue GAMMA=   0.7943
  1.2376  0.3509

 Free energy of the ion-electron system (eV)
  ---------------------------------------------------
  alpha Z        PSCENC =        11.72670307
  Ewald energy   TEWEN  =     26124.09382753
  -Hartree energ DENC   =    -38541.76041880
  -exchange      EXHF   =         0.00000000
  -V(xc)+E(xc)   XCENC  =      -469.24242920
  PAW double counting   =     14392.42106348   -13412.40791221
  entropy T*S    EENTRO =        -0.01102568
  eigenvalues    EBANDS =     -1113.98773125
  atomic energy  EATOM  =     12955.90228127
  Solvation  Ediel_sol  =         0.00000000
  ---------------------------------------------------
  free energy    TOTEN  =       -53.26564180 eV

  energy without entropy =      -53.25461612  energy(sigma->0) =      -53.26196657


--------------------------------------------------------------------------------------------------------




--------------------------------------- Iteration      1(   8)  ---------------------------------------


    POTLOK:  cpu time    3.2508: real time    3.2667
    SETDIJ:  cpu time    0.0238: real time    0.0239
     EDDAV:  cpu time   14.4381: real time   14.4759
       DOS:  cpu time    0.0021: real time    0.0021
    CHARGE:  cpu time    1.1863: real time    1.1916
    MIXING:  cpu time    0.0654: real time    0.0655
    --------------------------------------------
      LOOP:  cpu time   18.9666: real time   19.0256

 eigenvalue-minimisations  :   448
 total energy-change (2. order) : 0.4905322E+01  (-0.1168397E+01)
 number of electron     159.9999892 magnetization      13.7609518
 augmentation part       68.2269501 magnetization       9.5565821

 Broyden mixing:
  rms(total) = 0.13539E+01    rms(broyden)= 0.13536E+01
  rms(prec ) = 0.14813E+01
  weight for this iteration     100.00

 eigenvalues of (default mixing * dielectric matrix)
  average eigenvalue GAMMA=   0.7335
  1.4817  0.3894  0.3294

 Free energy of the ion-electron system (eV)
  ---------------------------------------------------
  alpha Z        PSCENC =        11.72670307
  Ewald energy   TEWEN  =     26124.09382753
  -Hartree energ DENC   =    -38582.99525989
  -exchange      EXHF   =         0.00000000
  -V(xc)+E(xc)   XCENC  =      -467.92591172
  PAW double counting   =     14724.58792682   -13748.01912821
  entropy T*S    EENTRO =        -0.00454087
  eigenvalues    EBANDS =     -1065.72621799
  atomic energy  EATOM  =     12955.90228127
  Solvation  Ediel_sol  =         0.00000000
  ---------------------------------------------------
  free energy    TOTEN  =       -48.36032000 eV

  energy without entropy =      -48.35577913  energy(sigma->0) =      -48.35880637


--------------------------------------------------------------------------------------------------------




--------------------------------------- Iteration      1(   9)  ---------------------------------------


    POTLOK:  cpu time    3.1868: real time    3.1955
    SETDIJ:  cpu time    0.0255: real time    0.0255
     EDDAV:  cpu time   14.2924: real time   14.3627
       DOS:  cpu time    0.0126: real time    0.0126
    CHARGE:  cpu time    1.2496: real time    1.2511
    MIXING:  cpu time    0.0655: real time    0.0656
    --------------------------------------------
      LOOP:  cpu time   18.8323: real time   18.9130

 eigenvalue-minimisations  :   464
 total energy-change (2. order) : 0.8087400E+00  (-0.9551053E+00)
 number of electron     159.9999885 magnetization      13.4745952
 augmentation part       68.2164092 magnetization       9.1367243

 Broyden mixing:
  rms(total) = 0.11814E+01    rms(broyden)= 0.11811E+01
  rms(prec ) = 0.13238E+01
  weight for this iteration     100.00

 eigenvalues of (default mixing * dielectric matrix)
  average eigenvalue GAMMA=   0.6883
  1.6260  0.4760  0.4760  0.1754

 Free energy of the ion-electron system (eV)
  ---------------------------------------------------
  alpha Z        PSCENC =        11.72670307
  Ewald energy   TEWEN  =     26124.09382753
  -Hartree energ DENC   =    -38599.43433755
  -exchange      EXHF   =         0.00000000
  -V(xc)+E(xc)   XCENC  =      -467.83992135
  PAW double counting   =     14832.52768897   -13856.88626459
  entropy T*S    EENTRO =        -0.02678586
  eigenvalues    EBANDS =     -1047.61477148
  atomic energy  EATOM  =     12955.90228127
  Solvation  Ediel_sol  =         0.00000000
  ---------------------------------------------------
  free energy    TOTEN  =       -47.55158000 eV

  energy without entropy =      -47.52479414  energy(sigma->0) =      -47.54265138


--------------------------------------------------------------------------------------------------------




--------------------------------------- Iteration      1(  10)  ---------------------------------------


    POTLOK:  cpu time    3.1922: real time    3.2196
    SETDIJ:  cpu time    0.0333: real time    0.0334
     EDDAV:  cpu time   15.8275: real time   15.8717
       DOS:  cpu time    0.0174: real time    0.0174
    CHARGE:  cpu time    1.2734: real time    1.2762
    MIXING:  cpu time    0.0692: real time    0.0693
    --------------------------------------------
      LOOP:  cpu time   20.4130: real time   20.4876

 eigenvalue-minimisations  :   480
 total energy-change (2. order) :-0.5795737E+00  (-0.6124727E+00)
 number of electron     159.9999888 magnetization      13.2341213
 augmentation part       68.1884225 magnetization       9.0877333

 Broyden mixing:
  rms(total) = 0.13727E+01    rms(broyden)= 0.13724E+01
  rms(prec ) = 0.15526E+01
  weight for this iteration     100.00

 eigenvalues of (default mixing * dielectric matrix)
  average eigenvalue GAMMA=   0.6324
  1.7546  0.5323  0.5323  0.1714  0.1714

 Free energy of the ion-electron system (eV)
  ---------------------------------------------------
  alpha Z        PSCENC =        11.72670307
  Ewald energy   TEWEN  =     26124.09382753
  -Hartree energ DENC   =    -38610.07373096
  -exchange      EXHF   =         0.00000000
  -V(xc)+E(xc)   XCENC  =      -468.19247643
  PAW double counting   =     14898.26011018   -13923.01915686
  entropy T*S    EENTRO =        -0.03442025
  eigenvalues    EBANDS =     -1036.79429122
  atomic energy  EATOM  =     12955.90228127
  Solvation  Ediel_sol  =         0.00000000
  ---------------------------------------------------
  free energy    TOTEN  =       -48.13115369 eV

  energy without entropy =      -48.09673344  energy(sigma->0) =      -48.11968027


--------------------------------------------------------------------------------------------------------




--------------------------------------- Iteration      1(  11)  ---------------------------------------


    POTLOK:  cpu time    3.1967: real time    3.2050
    SETDIJ:  cpu time    0.0217: real time    0.0217
     EDDAV:  cpu time   14.2573: real time   14.2793
       DOS:  cpu time    0.0083: real time    0.0083
    CHARGE:  cpu time    1.2709: real time    1.2723
    MIXING:  cpu time    0.0754: real time    0.0757
    --------------------------------------------
      LOOP:  cpu time   18.8303: real time   18.8624

 eigenvalue-minimisations  :   456
 total energy-change (2. order) : 0.1116743E+00  (-0.7591401E+00)
 number of electron     159.9999891 magnetization      13.1122457
 augmentation part       68.1762846 magnetization       8.4421571

 Broyden mixing:
  rms(total) = 0.79986E+00    rms(broyden)= 0.79948E+00
  rms(prec ) = 0.88746E+00
  weight for this iteration     100.00

 eigenvalues of (default mixing * dielectric matrix)
  average eigenvalue GAMMA=   0.5576
  1.7917  0.5924  0.4333  0.2160  0.2160  0.0961

 Free energy of the ion-electron system (eV)
  ---------------------------------------------------
  alpha Z        PSCENC =        11.72670307
  Ewald energy   TEWEN  =     26124.09382753
  -Hartree energ DENC   =    -38619.12505042
  -exchange      EXHF   =         0.00000000
  -V(xc)+E(xc)   XCENC  =      -468.51125498
  PAW double counting   =     14942.76066803   -13967.85319077
  entropy T*S    EENTRO =         0.04614636
  eigenvalues    EBANDS =     -1027.05960944
  atomic energy  EATOM  =     12955.90228127
  Solvation  Ediel_sol  =         0.00000000
  ---------------------------------------------------
  free energy    TOTEN  =       -48.01947935 eV

  energy without entropy =      -48.06562571  energy(sigma->0) =      -48.03486147


--------------------------------------------------------------------------------------------------------




--------------------------------------- Iteration      1(  12)  ---------------------------------------


    POTLOK:  cpu time    3.1883: real time    3.1957
    SETDIJ:  cpu time    0.0359: real time    0.0360
     EDDAV:  cpu time   14.3868: real time   14.4252
       DOS:  cpu time    0.0088: real time    0.0088
    CHARGE:  cpu time    1.3149: real time    1.3165
    MIXING:  cpu time    0.0836: real time    0.0837
    --------------------------------------------
      LOOP:  cpu time   19.0183: real time   19.0659

 eigenvalue-minimisations  :   448
 total energy-change (2. order) :-0.4333139E+00  (-0.1476393E+00)
 number of electron     159.9999889 magnetization      12.8601943
 augmentation part       68.1677139 magnetization       8.2531745

 Broyden mixing:
  rms(total) = 0.35530E+00    rms(broyden)= 0.35509E+00
  rms(prec ) = 0.37535E+00
  weight for this iteration     100.00

 eigenvalues of (default mixing * dielectric matrix)
  average eigenvalue GAMMA=   0.5250
  1.8018  0.5950  0.4004  0.4004  0.1905  0.1436  0.1436

 Free energy of the ion-electron system (eV)
  ---------------------------------------------------
  alpha Z        PSCENC =        11.72670307
  Ewald energy   TEWEN  =     26124.09382753
  -Hartree energ DENC   =    -38623.58278359
  -exchange      EXHF   =         0.00000000
  -V(xc)+E(xc)   XCENC  =      -469.06146248
  PAW double counting   =     14962.99498340   -13988.31420989
  entropy T*S    EENTRO =         0.02413323
  eigenvalues    EBANDS =     -1022.23626576
  atomic energy  EATOM  =     12955.90228127
  Solvation  Ediel_sol  =         0.00000000
  ---------------------------------------------------
  free energy    TOTEN  =       -48.45279323 eV

  energy without entropy =      -48.47692646  energy(sigma->0) =      -48.46083764


--------------------------------------------------------------------------------------------------------




--------------------------------------- Iteration      1(  13)  ---------------------------------------


    POTLOK:  cpu time    3.0575: real time    3.0676
    SETDIJ:  cpu time    0.0371: real time    0.0371
     EDDAV:  cpu time   14.2943: real time   14.3164
       DOS:  cpu time    0.0049: real time    0.0049
    CHARGE:  cpu time    1.1879: real time    1.1893
    MIXING:  cpu time    0.0906: real time    0.0908
    --------------------------------------------
      LOOP:  cpu time   18.6723: real time   18.7060

 eigenvalue-minimisations  :   448
 total energy-change (2. order) :-0.1525097E+01  (-0.4624989E-01)
 number of electron     159.9999890 magnetization      12.4883391
 augmentation part       68.1576509 magnetization       7.9448440

 Broyden mixing:
  rms(total) = 0.28566E+00    rms(broyden)= 0.28561E+00
  rms(prec ) = 0.30630E+00
  weight for this iteration     100.00

 eigenvalues of (default mixing * dielectric matrix)
  average eigenvalue GAMMA=   0.5470
  1.7445  0.6270  0.6270  0.4465  0.4465  0.1849  0.1849  0.1144

 Free energy of the ion-electron system (eV)
  ---------------------------------------------------
  alpha Z        PSCENC =        11.72670307
  Ewald energy   TEWEN  =     26124.09382753
  -Hartree energ DENC   =    -38629.66214890
  -exchange      EXHF   =         0.00000000
  -V(xc)+E(xc)   XCENC  =      -470.16249794
  PAW double counting   =     14984.16329474   -14009.75987926
  entropy T*S    EENTRO =         0.02947648
  eigenvalues    EBANDS =     -1016.30894764
  atomic energy  EATOM  =     12955.90228127
  Solvation  Ediel_sol  =         0.00000000
  ---------------------------------------------------
  free energy    TOTEN  =       -49.97789067 eV

  energy without entropy =      -50.00736715  energy(sigma->0) =      -49.98771616


--------------------------------------------------------------------------------------------------------




--------------------------------------- Iteration      1(  14)  ---------------------------------------


    POTLOK:  cpu time    3.1422: real time    3.1466
    SETDIJ:  cpu time    0.0253: real time    0.0253
     EDDAV:  cpu time   20.6635: real time   21.3039
       DOS:  cpu time    0.0057: real time    0.0057
    CHARGE:  cpu time    1.2831: real time    1.3013
    MIXING:  cpu time    0.1000: real time    0.1002
    --------------------------------------------
      LOOP:  cpu time   25.2198: real time   25.8830

 eigenvalue-minimisations  :   440
 total energy-change (2. order) :-0.2297590E+01  (-0.5766116E-01)
 number of electron     159.9999891 magnetization      11.9970256
 augmentation part       68.1238817 magnetization       7.6955901

 Broyden mixing:
  rms(total) = 0.21832E+00    rms(broyden)= 0.21829E+00
  rms(prec ) = 0.23284E+00
  weight for this iteration     100.00

 eigenvalues of (default mixing * dielectric matrix)
  average eigenvalue GAMMA=   0.6260
  1.5479  1.5479  0.6821  0.5209  0.5209  0.3316  0.1832  0.1832  0.1162

 Free energy of the ion-electron system (eV)
  ---------------------------------------------------
  alpha Z        PSCENC =        11.72670307
  Ewald energy   TEWEN  =     26124.09382753
  -Hartree energ DENC   =    -38637.95030845
  -exchange      EXHF   =         0.00000000
  -V(xc)+E(xc)   XCENC  =      -471.83536128
  PAW double counting   =     14990.66295221   -14016.45393710
  entropy T*S    EENTRO =         0.03288146
  eigenvalues    EBANDS =     -1008.45451898
  atomic energy  EATOM  =     12955.90228127
  Solvation  Ediel_sol  =         0.00000000
  ---------------------------------------------------
  free energy    TOTEN  =       -52.27548028 eV

  energy without entropy =      -52.30836173  energy(sigma->0) =      -52.28644076


--------------------------------------------------------------------------------------------------------




--------------------------------------- Iteration      1(  15)  ---------------------------------------


    POTLOK:  cpu time    3.0385: real time    3.0493
    SETDIJ:  cpu time    0.0254: real time    0.0254
     EDDAV:  cpu time   13.3691: real time   13.5102
       DOS:  cpu time    0.0111: real time    0.0111
    CHARGE:  cpu time    1.2378: real time    1.2557
    MIXING:  cpu time    0.1132: real time    0.1134
    --------------------------------------------
      LOOP:  cpu time   17.7951: real time   17.9651

 eigenvalue-minimisations  :   432
 total energy-change (2. order) :-0.2199221E+01  (-0.6769691E-01)
 number of electron     159.9999890 magnetization      11.6643655
 augmentation part       68.1149817 magnetization       7.5532137

 Broyden mixing:
  rms(total) = 0.21495E+00    rms(broyden)= 0.21490E+00
  rms(prec ) = 0.22840E+00
  weight for this iteration     100.00

 eigenvalues of (default mixing * dielectric matrix)
  average eigenvalue GAMMA=   0.6488
  1.7266  1.7266  0.7477  0.7477  0.3864  0.3864  0.2855  0.1823  0.1823  0.1163

 Free energy of the ion-electron system (eV)
  ---------------------------------------------------
  alpha Z        PSCENC =        11.72670307
  Ewald energy   TEWEN  =     26124.09382753
  -Hartree energ DENC   =    -38647.93579557
  -exchange      EXHF   =         0.00000000
  -V(xc)+E(xc)   XCENC  =      -473.45613504
  PAW double counting   =     14993.01123340   -14019.08265448
  entropy T*S    EENTRO =         0.02775896
  eigenvalues    EBANDS =      -998.76192068
  atomic energy  EATOM  =     12955.90228127
  Solvation  Ediel_sol  =         0.00000000
  ---------------------------------------------------
  free energy    TOTEN  =       -54.47470154 eV

  energy without entropy =      -54.50246050  energy(sigma->0) =      -54.48395453


--------------------------------------------------------------------------------------------------------




--------------------------------------- Iteration      1(  16)  ---------------------------------------


    POTLOK:  cpu time    3.1782: real time    3.1907
    SETDIJ:  cpu time    0.0334: real time    0.0334
     EDDAV:  cpu time   16.3450: real time   16.6306
       DOS:  cpu time    0.0220: real time    0.0220
    CHARGE:  cpu time    1.4376: real time    1.4390
    MIXING:  cpu time    0.1084: real time    0.1085
    --------------------------------------------
      LOOP:  cpu time   21.1245: real time   21.4242

 eigenvalue-minimisations  :   480
 total energy-change (2. order) :-0.1206189E+01  (-0.3132771E-01)
 number of electron     159.9999890 magnetization      11.4992893
 augmentation part       68.0917114 magnetization       7.5523320

 Broyden mixing:
  rms(total) = 0.20949E+00    rms(broyden)= 0.20945E+00
  rms(prec ) = 0.22479E+00
  weight for this iteration     100.00

 eigenvalues of (default mixing * dielectric matrix)
  average eigenvalue GAMMA=   0.6292
  1.6745  1.6745  0.8460  0.8460  0.4047  0.4047  0.3627  0.1162  0.1857  0.1857
  0.2210

 Free energy of the ion-electron system (eV)
  ---------------------------------------------------
  alpha Z        PSCENC =        11.72670307
  Ewald energy   TEWEN  =     26124.09382753
  -Hartree energ DENC   =    -38653.71125193
  -exchange      EXHF   =         0.00000000
  -V(xc)+E(xc)   XCENC  =      -474.38436628
  PAW double counting   =     14994.15590705   -14020.45682614
  entropy T*S    EENTRO =         0.00353604
  eigenvalues    EBANDS =      -993.01070115
  atomic energy  EATOM  =     12955.90228127
  Solvation  Ediel_sol  =         0.00000000
  ---------------------------------------------------
  free energy    TOTEN  =       -55.68089054 eV

  energy without entropy =      -55.68442658  energy(sigma->0) =      -55.68206922


--------------------------------------------------------------------------------------------------------




--------------------------------------- Iteration      1(  17)  ---------------------------------------


    POTLOK:  cpu time    3.0916: real time    3.1029
    SETDIJ:  cpu time    0.0362: real time    0.0362
     EDDAV:  cpu time   13.8569: real time   13.8807
       DOS:  cpu time    0.0159: real time    0.0159
    CHARGE:  cpu time    1.2285: real time    1.2297
    MIXING:  cpu time    0.1268: real time    0.1269
    --------------------------------------------
      LOOP:  cpu time   18.3559: real time   18.3923

 eigenvalue-minimisations  :   456
 total energy-change (2. order) :-0.4318853E+00  (-0.9653435E-02)
 number of electron     159.9999889 magnetization      11.1814856
 augmentation part       68.1200533 magnetization       7.2878318

 Broyden mixing:
  rms(total) = 0.17059E+00    rms(broyden)= 0.17057E+00
  rms(prec ) = 0.18569E+00
  weight for this iteration     100.00

 eigenvalues of (default mixing * dielectric matrix)
  average eigenvalue GAMMA=   0.6645
  1.7892  1.7892  0.9409  0.9409  0.6393  0.4298  0.4298  0.3028  0.1162  0.1824
  0.1824  0.2311

 Free energy of the ion-electron system (eV)
  ---------------------------------------------------
  alpha Z        PSCENC =        11.72670307
  Ewald energy   TEWEN  =     26124.09382753
  -Hartree energ DENC   =    -38654.78384768
  -exchange      EXHF   =         0.00000000
  -V(xc)+E(xc)   XCENC  =      -474.74126763
  PAW double counting   =     14989.90282149   -14016.30812482
  entropy T*S    EENTRO =         0.00465152
  eigenvalues    EBANDS =      -991.90982055
  atomic energy  EATOM  =     12955.90228127
  Solvation  Ediel_sol  =         0.00000000
  ---------------------------------------------------
  free energy    TOTEN  =       -56.11277580 eV

  energy without entropy =      -56.11742732  energy(sigma->0) =      -56.11432631


--------------------------------------------------------------------------------------------------------




--------------------------------------- Iteration      1(  18)  ---------------------------------------


    POTLOK:  cpu time    2.9798: real time    2.9834
    SETDIJ:  cpu time    0.0417: real time    0.0417
     EDDAV:  cpu time   12.7035: real time   12.7299
       DOS:  cpu time    0.0109: real time    0.0109
    CHARGE:  cpu time    1.1564: real time    1.1575
    MIXING:  cpu time    0.1195: real time    0.1197
    --------------------------------------------
      LOOP:  cpu time   17.0118: real time   17.0432

 eigenvalue-minimisations  :   424
 total energy-change (2. order) :-0.8222722E+00  (-0.1240796E-01)
 number of electron     159.9999889 magnetization      10.8601565
 augmentation part       68.1346673 magnetization       7.0877263

 Broyden mixing:
  rms(total) = 0.14746E+00    rms(broyden)= 0.14745E+00
  rms(prec ) = 0.16264E+00
  weight for this iteration     100.00

 eigenvalues of (default mixing * dielectric matrix)
  average eigenvalue GAMMA=   0.6952
  2.1215  2.1215  0.8834  0.8834  0.7476  0.4330  0.4330  0.4255  0.2894  0.1162
  0.1837  0.1837  0.2159

 Free energy of the ion-electron system (eV)
  ---------------------------------------------------
  alpha Z        PSCENC =        11.72670307
  Ewald energy   TEWEN  =     26124.09382753
  -Hartree energ DENC   =    -38658.23756168
  -exchange      EXHF   =         0.00000000
  -V(xc)+E(xc)   XCENC  =      -475.40631595
  PAW double counting   =     14977.72019746   -14004.19593252
  entropy T*S    EENTRO =         0.00668769
  eigenvalues    EBANDS =      -988.54493486
  atomic energy  EATOM  =     12955.90228127
  Solvation  Ediel_sol  =         0.00000000
  ---------------------------------------------------
  free energy    TOTEN  =       -56.93504800 eV

  energy without entropy =      -56.94173568  energy(sigma->0) =      -56.93727723


--------------------------------------------------------------------------------------------------------




--------------------------------------- Iteration      1(  19)  ---------------------------------------


    POTLOK:  cpu time    3.0190: real time    3.0507
    SETDIJ:  cpu time    0.0331: real time    0.0331
     EDDAV:  cpu time   13.2694: real time   13.3208
       DOS:  cpu time    0.0139: real time    0.0139
    CHARGE:  cpu time    1.1507: real time    1.1600
    MIXING:  cpu time    0.1127: real time    0.1129
    --------------------------------------------
      LOOP:  cpu time   17.5989: real time   17.6914

 eigenvalue-minimisations  :   448
 total energy-change (2. order) :-0.6790529E+00  (-0.1100773E-01)
 number of electron     159.9999890 magnetization      10.6294352
 augmentation part       68.1207816 magnetization       6.9736615

 Broyden mixing:
  rms(total) = 0.10113E+00    rms(broyden)= 0.10112E+00
  rms(prec ) = 0.10836E+00
  weight for this iteration     100.00

 eigenvalues of (default mixing * dielectric matrix)
  average eigenvalue GAMMA=   0.6813
  2.3873  1.7183  0.9512  0.8878  0.8878  0.5922  0.4264  0.4264  0.3127  0.1162
  0.2560  0.1834  0.1834  0.2093

 Free energy of the ion-electron system (eV)
  ---------------------------------------------------
  alpha Z        PSCENC =        11.72670307
  Ewald energy   TEWEN  =     26124.09382753
  -Hartree energ DENC   =    -38662.82215289
  -exchange      EXHF   =         0.00000000
  -V(xc)+E(xc)   XCENC  =      -475.93624383
  PAW double counting   =     14970.05238122   -13996.57822520
  entropy T*S    EENTRO =         0.00752783
  eigenvalues    EBANDS =      -984.06019987
  atomic energy  EATOM  =     12955.90228127
  Solvation  Ediel_sol  =         0.00000000
  ---------------------------------------------------
  free energy    TOTEN  =       -57.61410087 eV

  energy without entropy =      -57.62162870  energy(sigma->0) =      -57.61661015


--------------------------------------------------------------------------------------------------------




--------------------------------------- Iteration      1(  20)  ---------------------------------------


    POTLOK:  cpu time    3.0573: real time    3.0693
    SETDIJ:  cpu time    0.0382: real time    0.0383
     EDDAV:  cpu time   21.4141: real time   21.9920
       DOS:  cpu time    0.0032: real time    0.0033
    CHARGE:  cpu time    1.3520: real time    1.3664
    MIXING:  cpu time    0.1504: real time    0.1507
    --------------------------------------------
      LOOP:  cpu time   26.0153: real time   26.6199

 eigenvalue-minimisations  :   448
 total energy-change (2. order) :-0.4445405E+00  (-0.4533943E-02)
 number of electron     159.9999890 magnetization      10.4445620
 augmentation part       68.1254515 magnetization       6.8427133

 Broyden mixing:
  rms(total) = 0.72288E-01    rms(broyden)= 0.72271E-01
  rms(prec ) = 0.74327E-01
  weight for this iteration     100.00

 eigenvalues of (default mixing * dielectric matrix)
  average eigenvalue GAMMA=   0.6724
  2.4556  1.3793  1.3793  0.7397  0.7397  0.6307  0.6307  0.4326  0.4326  0.3213
  0.1162  0.2499  0.1833  0.1833  0.2116

 Free energy of the ion-electron system (eV)
  ---------------------------------------------------
  alpha Z        PSCENC =        11.72670307
  Ewald energy   TEWEN  =     26124.09382753
  -Hartree energ DENC   =    -38664.73975926
  -exchange      EXHF   =         0.00000000
  -V(xc)+E(xc)   XCENC  =      -476.32918718
  PAW double counting   =     14965.20070982   -13991.74829917
  entropy T*S    EENTRO =         0.01486349
  eigenvalues    EBANDS =      -982.17978097
  atomic energy  EATOM  =     12955.90228127
  Solvation  Ediel_sol  =         0.00000000
  ---------------------------------------------------
  free energy    TOTEN  =       -58.05864140 eV

  energy without entropy =      -58.07350489  energy(sigma->0) =      -58.06359590


--------------------------------------------------------------------------------------------------------




--------------------------------------- Iteration      1(  21)  ---------------------------------------


    POTLOK:  cpu time    3.4372: real time    3.5045
    SETDIJ:  cpu time    0.0256: real time    0.0256
     EDDAV:  cpu time   15.9682: real time   16.0599
       DOS:  cpu time    0.0033: real time    0.0033
    CHARGE:  cpu time    1.4333: real time    1.4406
    MIXING:  cpu time    0.1562: real time    0.1565
    --------------------------------------------
      LOOP:  cpu time   21.0239: real time   21.1904

 eigenvalue-minimisations  :   472
 total energy-change (2. order) :-0.3223069E+00  (-0.1482594E-02)
 number of electron     159.9999890 magnetization       9.8902552
 augmentation part       68.1270876 magnetization       6.3328355

 Broyden mixing:
  rms(total) = 0.67740E-01    rms(broyden)= 0.67734E-01
  rms(prec ) = 0.70185E-01
  weight for this iteration     100.00

 eigenvalues of (default mixing * dielectric matrix)
  average eigenvalue GAMMA=   0.7307
  2.7558  1.4066  1.4066  1.0204  1.0204  0.8165  0.8165  0.4233  0.4233  0.3539
  0.3063  0.1162  0.2493  0.1834  0.1834  0.2097

 Free energy of the ion-electron system (eV)
  ---------------------------------------------------
  alpha Z        PSCENC =        11.72670307
  Ewald energy   TEWEN  =     26124.09382753
  -Hartree energ DENC   =    -38665.96690252
  -exchange      EXHF   =         0.00000000
  -V(xc)+E(xc)   XCENC  =      -476.62771290
  PAW double counting   =     14961.62805008   -13988.18518099
  entropy T*S    EENTRO =         0.01568216
  eigenvalues    EBANDS =      -980.96769604
  atomic energy  EATOM  =     12955.90228127
  Solvation  Ediel_sol  =         0.00000000
  ---------------------------------------------------
  free energy    TOTEN  =       -58.38094833 eV

  energy without entropy =      -58.39663049  energy(sigma->0) =      -58.38617572


--------------------------------------------------------------------------------------------------------




--------------------------------------- Iteration      1(  22)  ---------------------------------------


    POTLOK:  cpu time    3.2882: real time    3.2954
    SETDIJ:  cpu time    0.0250: real time    0.0250
     EDDAV:  cpu time   13.3604: real time   13.4231
       DOS:  cpu time    0.0043: real time    0.0042
    CHARGE:  cpu time    1.1661: real time    1.1679
    MIXING:  cpu time    0.1611: real time    0.1614
    --------------------------------------------
      LOOP:  cpu time   18.0051: real time   18.0771

 eigenvalue-minimisations  :   432
 total energy-change (2. order) :-0.7815151E+00  (-0.7836009E-02)
 number of electron     159.9999890 magnetization       9.5046783
 augmentation part       68.1394463 magnetization       6.0668711

 Broyden mixing:
  rms(total) = 0.58846E-01    rms(broyden)= 0.58838E-01
  rms(prec ) = 0.61522E-01
  weight for this iteration     100.00

 eigenvalues of (default mixing * dielectric matrix)
  average eigenvalue GAMMA=   0.7546
  3.1521  1.4511  1.3488  1.3488  0.8595  0.8595  0.8797  0.5046  0.4261  0.4261
  0.3433  0.1162  0.2904  0.1834  0.1834  0.2460  0.2098

 Free energy of the ion-electron system (eV)
  ---------------------------------------------------
  alpha Z        PSCENC =        11.72670307
  Ewald energy   TEWEN  =     26124.09382753
  -Hartree energ DENC   =    -38669.65841107
  -exchange      EXHF   =         0.00000000
  -V(xc)+E(xc)   XCENC  =      -477.32459765
  PAW double counting   =     14947.66426591   -13974.21498746
  entropy T*S    EENTRO =         0.01656286
  eigenvalues    EBANDS =      -977.36810793
  atomic energy  EATOM  =     12955.90228127
  Solvation  Ediel_sol  =         0.00000000
  ---------------------------------------------------
  free energy    TOTEN  =       -59.16246347 eV

  energy without entropy =      -59.17902633  energy(sigma->0) =      -59.16798443


--------------------------------------------------------------------------------------------------------




--------------------------------------- Iteration      1(  23)  ---------------------------------------


    POTLOK:  cpu time    2.9561: real time    2.9615
    SETDIJ:  cpu time    0.0208: real time    0.0208
     EDDAV:  cpu time   15.1035: real time   15.2545
       DOS:  cpu time    0.0023: real time    0.0023
    CHARGE:  cpu time    1.1340: real time    1.1558
    MIXING:  cpu time    0.1889: real time    0.1892
    --------------------------------------------
      LOOP:  cpu time   19.4056: real time   19.5841

 eigenvalue-minimisations  :   480
 total energy-change (2. order) :-0.4584170E+00  (-0.4161402E-02)
 number of electron     159.9999890 magnetization       9.0197050
 augmentation part       68.1304074 magnetization       5.6623468

 Broyden mixing:
  rms(total) = 0.52850E-01    rms(broyden)= 0.52840E-01
  rms(prec ) = 0.54792E-01
  weight for this iteration     100.00

 eigenvalues of (default mixing * dielectric matrix)
  average eigenvalue GAMMA=   0.7969
  3.8092  1.6512  1.4270  1.4270  0.8823  0.8823  0.8776  0.6618  0.4265  0.4265
  0.3633  0.1162  0.3068  0.1834  0.1834  0.2098  0.2680  0.2429

 Free energy of the ion-electron system (eV)
  ---------------------------------------------------
  alpha Z        PSCENC =        11.72670307
  Ewald energy   TEWEN  =     26124.09382753
  -Hartree energ DENC   =    -38672.39845206
  -exchange      EXHF   =         0.00000000
  -V(xc)+E(xc)   XCENC  =      -477.72750128
  PAW double counting   =     14939.37837382   -13965.88652598
  entropy T*S    EENTRO =         0.01609156
  eigenvalues    EBANDS =      -974.72567843
  atomic energy  EATOM  =     12955.90228127
  Solvation  Ediel_sol  =         0.00000000
  ---------------------------------------------------
  free energy    TOTEN  =       -59.62088051 eV

  energy without entropy =      -59.63697207  energy(sigma->0) =      -59.62624436


--------------------------------------------------------------------------------------------------------




--------------------------------------- Iteration      1(  24)  ---------------------------------------


    POTLOK:  cpu time    3.0148: real time    3.0281
    SETDIJ:  cpu time    0.0189: real time    0.0189
     EDDAV:  cpu time   14.4651: real time   14.5821
       DOS:  cpu time    0.0022: real time    0.0022
    CHARGE:  cpu time    1.2276: real time    1.2580
    MIXING:  cpu time    0.1805: real time    0.1808
    --------------------------------------------
      LOOP:  cpu time   18.9092: real time   19.0701

 eigenvalue-minimisations  :   440
 total energy-change (2. order) :-0.4507787E+00  (-0.4094657E-02)
 number of electron     159.9999890 magnetization       8.5251673
 augmentation part       68.1297114 magnetization       5.2554624

 Broyden mixing:
  rms(total) = 0.35618E-01    rms(broyden)= 0.35611E-01
  rms(prec ) = 0.36498E-01
  weight for this iteration     100.00

 eigenvalues of (default mixing * dielectric matrix)
  average eigenvalue GAMMA=   0.8888
  5.0505  1.9203  1.5659  1.5659  0.9771  0.9771  0.7547  0.7547  0.6112  0.4267
  0.4267  0.3591  0.1162  0.3081  0.1834  0.1834  0.2098  0.2545  0.2423

 Free energy of the ion-electron system (eV)
  ---------------------------------------------------
  alpha Z        PSCENC =        11.72670307
  Ewald energy   TEWEN  =     26124.09382753
  -Hartree energ DENC   =    -38675.11101120
  -exchange      EXHF   =         0.00000000
  -V(xc)+E(xc)   XCENC  =      -478.13762543
  PAW double counting   =     14930.35252309   -13956.79047483
  entropy T*S    EENTRO =         0.01625258
  eigenvalues    EBANDS =      -972.12413528
  atomic energy  EATOM  =     12955.90228127
  Solvation  Ediel_sol  =         0.00000000
  ---------------------------------------------------
  free energy    TOTEN  =       -60.07165920 eV

  energy without entropy =      -60.08791178  energy(sigma->0) =      -60.07707673


--------------------------------------------------------------------------------------------------------




--------------------------------------- Iteration      1(  25)  ---------------------------------------


    POTLOK:  cpu time    3.1079: real time    3.1596
    SETDIJ:  cpu time    0.0250: real time    0.0251
     EDDAV:  cpu time   14.2279: real time   14.2996
       DOS:  cpu time    0.0030: real time    0.0030
    CHARGE:  cpu time    1.4085: real time    1.4271
    MIXING:  cpu time    0.2306: real time    0.2352
    --------------------------------------------
      LOOP:  cpu time   19.0029: real time   19.1495

 eigenvalue-minimisations  :   464
 total energy-change (2. order) :-0.4011678E+00  (-0.3424485E-02)
 number of electron     159.9999890 magnetization       8.2196335
 augmentation part       68.1296948 magnetization       5.0286694

 Broyden mixing:
  rms(total) = 0.33693E-01    rms(broyden)= 0.33687E-01
  rms(prec ) = 0.35284E-01
  weight for this iteration     100.00

 eigenvalues of (default mixing * dielectric matrix)
  average eigenvalue GAMMA=   0.9410
  6.1999  2.0720  1.6282  1.6282  1.0100  1.0100  0.7780  0.7780  0.6269  0.4268
  0.4268  0.3769  0.3593  0.1162  0.3083  0.1834  0.1834  0.2098  0.2555  0.2417

 Free energy of the ion-electron system (eV)
  ---------------------------------------------------
  alpha Z        PSCENC =        11.72670307
  Ewald energy   TEWEN  =     26124.09382753
  -Hartree energ DENC   =    -38676.87735614
  -exchange      EXHF   =         0.00000000
  -V(xc)+E(xc)   XCENC  =      -478.51802995
  PAW double counting   =     14924.18415485   -13950.54929091
  entropy T*S    EENTRO =         0.01706922
  eigenvalues    EBANDS =      -970.45218591
  atomic energy  EATOM  =     12955.90228127
  Solvation  Ediel_sol  =         0.00000000
  ---------------------------------------------------
  free energy    TOTEN  =       -60.47282697 eV

  energy without entropy =      -60.48989619  energy(sigma->0) =      -60.47851671


--------------------------------------------------------------------------------------------------------




--------------------------------------- Iteration      1(  26)  ---------------------------------------


    POTLOK:  cpu time    3.3966: real time    3.4148
    SETDIJ:  cpu time    0.0208: real time    0.0209
     EDDAV:  cpu time   15.4869: real time   15.5842
       DOS:  cpu time    0.0022: real time    0.0022
    CHARGE:  cpu time    1.3217: real time    1.3240
    MIXING:  cpu time    0.2224: real time    0.2228
    --------------------------------------------
      LOOP:  cpu time   20.4507: real time   20.5689

 eigenvalue-minimisations  :   456
 total energy-change (2. order) :-0.3031432E+00  (-0.1325923E-02)
 number of electron     159.9999890 magnetization       7.8937015
 augmentation part       68.1324071 magnetization       4.7585141

 Broyden mixing:
  rms(total) = 0.25350E-01    rms(broyden)= 0.25345E-01
  rms(prec ) = 0.26899E-01
  weight for this iteration     100.00

 eigenvalues of (default mixing * dielectric matrix)
  average eigenvalue GAMMA=   1.0046
  7.4526  2.2055  1.6865  1.6865  0.9939  0.9939  0.8896  0.8896  0.6511  0.6511
  0.4266  0.4266  0.1162  0.3559  0.1834  0.1834  0.3133  0.2877  0.2098  0.2532
  0.2409

 Free energy of the ion-electron system (eV)
  ---------------------------------------------------
  alpha Z        PSCENC =        11.72670307
  Ewald energy   TEWEN  =     26124.09382753
  -Hartree energ DENC   =    -38677.31365682
  -exchange      EXHF   =         0.00000000
  -V(xc)+E(xc)   XCENC  =      -478.82003001
  PAW double counting   =     14921.67187550   -13947.98514050
  entropy T*S    EENTRO =         0.01734302
  eigenvalues    EBANDS =      -970.06917325
  atomic energy  EATOM  =     12955.90228127
  Solvation  Ediel_sol  =         0.00000000
  ---------------------------------------------------
  free energy    TOTEN  =       -60.77597020 eV

  energy without entropy =      -60.79331322  energy(sigma->0) =      -60.78175121


--------------------------------------------------------------------------------------------------------




--------------------------------------- Iteration      1(  27)  ---------------------------------------


    POTLOK:  cpu time    3.3438: real time    3.3835
    SETDIJ:  cpu time    0.0253: real time    0.0253
     EDDAV:  cpu time   14.7819: real time   14.8934
       DOS:  cpu time    0.0047: real time    0.0047
    CHARGE:  cpu time    1.3705: real time    1.4009
    MIXING:  cpu time    0.2208: real time    0.2253
    --------------------------------------------
      LOOP:  cpu time   19.7469: real time   19.9331

 eigenvalue-minimisations  :   472
 total energy-change (2. order) :-0.2972109E+00  (-0.1058310E-02)
 number of electron     159.9999890 magnetization       7.6828683
 augmentation part       68.1312003 magnetization       4.5858430

 Broyden mixing:
  rms(total) = 0.19915E-01    rms(broyden)= 0.19910E-01
  rms(prec ) = 0.21787E-01
  weight for this iteration     100.00

 eigenvalues of (default mixing * dielectric matrix)
  average eigenvalue GAMMA=   1.0486
  8.3922  2.2835  1.7652  1.7652  0.9886  0.9886  0.9301  0.9301  0.7716  0.7163
  0.5522  0.4266  0.4266  0.3605  0.1162  0.3086  0.1834  0.1834  0.2098  0.2782
  0.2523  0.2399

 Free energy of the ion-electron system (eV)
  ---------------------------------------------------
  alpha Z        PSCENC =        11.72670307
  Ewald energy   TEWEN  =     26124.09382753
  -Hartree energ DENC   =    -38676.88477796
  -exchange      EXHF   =         0.00000000
  -V(xc)+E(xc)   XCENC  =      -479.12603785
  PAW double counting   =     14922.00293007   -13948.26288098
  entropy T*S    EENTRO =         0.01652010
  eigenvalues    EBANDS =      -970.54174639
  atomic energy  EATOM  =     12955.90228127
  Solvation  Ediel_sol  =         0.00000000
  ---------------------------------------------------
  free energy    TOTEN  =       -61.07318114 eV

  energy without entropy =      -61.08970125  energy(sigma->0) =      -61.07868784


--------------------------------------------------------------------------------------------------------




--------------------------------------- Iteration      1(  28)  ---------------------------------------


    POTLOK:  cpu time    3.3172: real time    3.3556
    SETDIJ:  cpu time    0.0239: real time    0.0240
     EDDAV:  cpu time   16.5523: real time   16.6589
       DOS:  cpu time    0.0041: real time    0.0040
    CHARGE:  cpu time    1.3609: real time    1.3714
    MIXING:  cpu time    0.2770: real time    0.2774
    --------------------------------------------
      LOOP:  cpu time   21.5354: real time   21.6913

 eigenvalue-minimisations  :   504
 total energy-change (2. order) :-0.1549177E+00  (-0.4213985E-03)
 number of electron     159.9999890 magnetization       7.4941758
 augmentation part       68.1326749 magnetization       4.4218862

 Broyden mixing:
  rms(total) = 0.16699E-01    rms(broyden)= 0.16696E-01
  rms(prec ) = 0.18390E-01
  weight for this iteration     100.00

 eigenvalues of (default mixing * dielectric matrix)
  average eigenvalue GAMMA=   1.0852
  9.3222  2.4177  1.7831  1.7831  1.0105  1.0105  1.1237  0.9241  0.9241  0.7132
  0.6055  0.4265  0.4265  0.1162  0.3713  0.1834  0.1834  0.3400  0.3108  0.2098
  0.2799  0.2528  0.2406

 Free energy of the ion-electron system (eV)
  ---------------------------------------------------
  alpha Z        PSCENC =        11.72670307
  Ewald energy   TEWEN  =     26124.09382753
  -Hartree energ DENC   =    -38675.96322977
  -exchange      EXHF   =         0.00000000
  -V(xc)+E(xc)   XCENC  =      -479.29036538
  PAW double counting   =     14923.60456239   -13949.84050573
  entropy T*S    EENTRO =         0.01684957
  eigenvalues    EBANDS =      -971.47822175
  atomic energy  EATOM  =     12955.90228127
  Solvation  Ediel_sol  =         0.00000000
  ---------------------------------------------------
  free energy    TOTEN  =       -61.22809880 eV

  energy without entropy =      -61.24494838  energy(sigma->0) =      -61.23371533


--------------------------------------------------------------------------------------------------------




--------------------------------------- Iteration      1(  29)  ---------------------------------------


    POTLOK:  cpu time    3.3262: real time    3.3407
    SETDIJ:  cpu time    0.0264: real time    0.0286
     EDDAV:  cpu time   15.5827: real time   15.8207
       DOS:  cpu time    0.0041: real time    0.0041
    CHARGE:  cpu time    1.3298: real time    1.3572
    MIXING:  cpu time    0.2567: real time    0.2611
    --------------------------------------------
      LOOP:  cpu time   20.5259: real time   20.8124

 eigenvalue-minimisations  :   472
 total energy-change (2. order) :-0.1141392E+00  (-0.2808164E-03)
 number of electron     159.9999890 magnetization       7.3441687
 augmentation part       68.1365482 magnetization       4.2969807

 Broyden mixing:
  rms(total) = 0.11017E-01    rms(broyden)= 0.11014E-01
  rms(prec ) = 0.12347E-01
  weight for this iteration     100.00

 eigenvalues of (default mixing * dielectric matrix)
  average eigenvalue GAMMA=   1.1143
  9.9158  2.6709  2.1144  1.4199  1.1602  1.1602  0.9904  0.9904  0.8611  0.8611
  0.7229  0.5766  0.4265  0.4265  0.1162  0.3597  0.1834  0.1834  0.3205  0.3037
  0.2098  0.2778  0.2525  0.2402

 Free energy of the ion-electron system (eV)
  ---------------------------------------------------
  alpha Z        PSCENC =        11.72670307
  Ewald energy   TEWEN  =     26124.09382753
  -Hartree energ DENC   =    -38674.71968826
  -exchange      EXHF   =         0.00000000
  -V(xc)+E(xc)   XCENC  =      -479.41781668
  PAW double counting   =     14925.17383486   -13951.39249476
[...]
     69      -4.8029      1.00007
     70      -4.7394      1.00038
     71      -4.6922      1.00117
     72      -4.6856      1.00135
     73      -4.6303      1.00414
     74      -4.6199      1.00501
     75      -4.5907      1.00823
     76      -4.5628      1.01254
     77      -4.5531      1.01432
     78      -4.5276      1.01963
     79      -4.4969      1.02666
     80      -4.4435      1.03533
     81      -4.4236      1.03464
     82      -4.3376      0.96843
     83      -4.3016      0.89398
     84      -4.2138      0.58932
     85      -3.8692     -0.02231
     86      -3.5964     -0.00010
     87      -3.1795     -0.00000
     88      -3.0010     -0.00000
     89      -2.4687     -0.00000
     90      -2.0927     -0.00000
     91      -2.0328     -0.00000
     92      -1.9497     -0.00000
     93      -1.7561     -0.00000
     94      -1.3071     -0.00000
     95      -1.1576     -0.00000
     96      -0.8957     -0.00000
     97      -0.6715     -0.00000
     98      -0.4457     -0.00000
     99      -0.2677     -0.00000
    100      -0.2255     -0.00000
    101      -0.1823     -0.00000
    102      -0.0392     -0.00000
    103       0.1407     -0.00000
    104       0.2510     -0.00000

 spin component 2

 k-point     1 :       0.0000    0.0000    0.0000
  band No.  band energies     occupation 
      1      -8.7904      1.00000
      2      -8.2277      1.00000
      3      -8.1481      1.00000
      4      -8.0371      1.00000
      5      -7.9732      1.00000
      6      -7.9521      1.00000
      7      -7.8574      1.00000
      8      -7.7662      1.00000
      9      -7.6399      1.00000
     10      -7.6081      1.00000
     11      -7.4343      1.00000
     12      -7.3993      1.00000
     13      -7.3462      1.00000
     14      -7.2747      1.00000
     15      -7.1492      1.00000
     16      -7.1313      1.00000
     17      -7.0957      1.00000
     18      -7.0508      1.00000
     19      -6.9414      1.00000
     20      -6.9062      1.00000
     21      -6.8800      1.00000
     22      -6.7423      1.00000
     23      -6.6764      1.00000
     24      -6.6528      1.00000
     25      -6.5549      1.00000
     26      -6.5356      1.00000
     27      -6.4755      1.00000
     28      -6.4197      1.00000
     29      -6.3541      1.00000
     30      -6.3434      1.00000
     31      -6.2682      1.00000
     32      -6.1951      1.00000
     33      -6.0989      1.00000
     34      -6.0742      1.00000
     35      -5.9936      1.00000
     36      -5.9625      1.00000
     37      -5.9351      1.00000
     38      -5.8925      1.00000
     39      -5.7695      1.00000
     40      -5.7125      1.00000
     41      -5.6474      1.00000
     42      -5.5927      1.00000
     43      -5.5321      1.00000
     44      -5.4467      1.00000
     45      -5.4243      1.00000
     46      -5.3801      1.00000
     47      -5.3291      1.00000
     48      -5.2858      1.00000
     49      -5.2296      1.00000
     50      -5.1984      1.00000
     51      -5.1261      1.00000
     52      -5.0946      1.00000
     53      -5.0598      1.00000
     54      -5.0203      1.00000
     55      -4.9659      1.00000
     56      -4.9367      1.00000
     57      -4.9183      1.00000
     58      -4.8380      1.00002
     59      -4.8264      1.00004
     60      -4.7989      1.00008
     61      -4.7482      1.00031
     62      -4.7277      1.00051
     63      -4.6987      1.00101
     64      -4.6645      1.00212
     65      -4.6506      1.00280
     66      -4.6188      1.00511
     67      -4.5935      1.00787
     68      -4.5639      1.01235
     69      -4.5114      1.02331
     70      -4.4553      1.03438
     71      -4.4237      1.03466
     72      -4.3731      1.01190
     73      -4.3193      0.93459
     74      -4.3033      0.89818
     75      -4.2735      0.81342
     76      -4.2301      0.65596
     77      -4.2243      0.63277
     78      -4.1628      0.37566
     79      -4.0636      0.06095
     80      -4.0302      0.00703
     81      -4.0121     -0.01178
     82      -3.9473     -0.03546
     83      -3.9151     -0.03223
     84      -3.8934     -0.02786
     85      -3.6588     -0.00053
     86      -3.4390     -0.00000
     87      -3.0030     -0.00000
     88      -2.8425     -0.00000
     89      -2.3240     -0.00000
     90      -1.9609     -0.00000
     91      -1.9079     -0.00000
     92      -1.7946     -0.00000
     93      -1.6501     -0.00000
     94      -1.1991     -0.00000
     95      -1.0713     -0.00000
     96      -0.8271     -0.00000
     97      -0.5941     -0.00000
     98      -0.3826     -0.00000
     99      -0.2465     -0.00000
    100      -0.1806     -0.00000
    101      -0.0952     -0.00000
    102      -0.0309     -0.00000
    103       0.1695     -0.00000
    104       0.2587     -0.00000


--------------------------------------------------------------------------------------------------------


 soft charge-density along one line, spin component            1
         0         1         2         3         4         5         6         7         8         9
 total charge-density along one line
 
 soft charge-density along one line, spin component            2
         0         1         2         3         4         5         6         7         8         9
 total charge-density along one line
 
 pseudopotential strength for first ion, spin component:            1
 -8.715  -0.001  -0.030   0.024   0.018  -8.675  -0.001  -0.029
 -0.001  -8.797   0.021   0.036  -0.027  -0.001  -8.753   0.020
 -0.030   0.021  -8.886  -0.010   0.096  -0.029   0.020  -8.838
  0.024   0.036  -0.010  -8.937   0.022   0.023   0.034  -0.010
  0.018  -0.027   0.096   0.022  -8.774   0.017  -0.026   0.091
 -8.675  -0.001  -0.029   0.023   0.017  -8.612  -0.001  -0.028
 -0.001  -8.753   0.020   0.034  -0.026  -0.001  -8.688   0.019
 -0.029   0.020  -8.838  -0.010   0.091  -0.028   0.019  -8.769
  0.023   0.034  -0.010  -8.886   0.021   0.022   0.033  -0.009
  0.017  -0.026   0.091   0.021  -8.731   0.017  -0.025   0.087
 -0.016  -0.014   0.033  -0.004   0.040  -0.015  -0.014   0.032
 -0.027  -0.025   0.057  -0.006   0.067  -0.026  -0.024   0.055
  0.002   0.001  -0.006   0.000  -0.014   0.002   0.001  -0.006
  0.000   0.015   0.001   0.002  -0.000   0.000   0.014   0.001
  0.012   0.000  -0.001   0.000   0.002   0.011   0.000  -0.001
  0.003   0.001  -0.008   0.000  -0.017   0.002   0.001  -0.007
  0.000   0.018   0.000   0.002  -0.000   0.000   0.017   0.000
  0.014   0.000  -0.001   0.000   0.002   0.013   0.000  -0.001
 pseudopotential strength for first ion, spin component:            2
 -8.606   0.004  -0.020   0.018   0.001  -8.570   0.004  -0.020
  0.004  -8.635   0.004   0.019  -0.016   0.004  -8.598   0.004
 -0.020   0.004  -8.742  -0.001   0.063  -0.020   0.004  -8.701
  0.018   0.019  -0.001  -8.749   0.005   0.018   0.018  -0.001
  0.001  -0.016   0.063   0.005  -8.610   0.001  -0.015   0.060
 -8.570   0.004  -0.020   0.018   0.001  -8.512   0.004  -0.019
  0.004  -8.598   0.004   0.018  -0.015   0.004  -8.539   0.003
 -0.020   0.004  -8.701  -0.001   0.060  -0.019   0.003  -8.637
  0.018   0.018  -0.001  -8.707   0.005   0.017   0.018  -0.001
  0.001  -0.015   0.060   0.005  -8.574   0.001  -0.014   0.058
 -0.008  -0.007   0.026  -0.002   0.026  -0.008  -0.007   0.025
 -0.014  -0.011   0.044  -0.003   0.043  -0.013  -0.011   0.042
  0.002   0.001  -0.007   0.000  -0.014   0.001   0.001  -0.006
  0.000   0.014   0.002   0.002  -0.000   0.000   0.013   0.002
  0.011   0.000  -0.001   0.001   0.002   0.011   0.000  -0.001
  0.002   0.002  -0.008   0.000  -0.017   0.002   0.002  -0.008
  0.000   0.016   0.002   0.003  -0.000   0.000   0.015   0.002
  0.014   0.000  -0.001   0.001   0.002   0.013   0.000  -0.001
 total augmentation occupancy for first ion, spin component:            1
  3.412  -0.077  -0.072   0.012   0.132  -1.618   0.049   0.034   0.049  -0.007   0.311  -0.084   0.014  -0.023   0.233  -0.001
 -0.077   3.029  -0.012   0.096  -0.082   0.049  -1.575   0.051   0.016   0.016   0.303  -0.078   0.012   0.112  -0.010   0.002
 -0.072  -0.012   3.034  -0.243   0.338   0.033   0.049  -1.824   0.148  -0.063  -0.839   0.217  -0.111   0.001  -0.009  -0.003
  0.012   0.096  -0.243   2.919   0.196   0.049   0.018   0.150  -1.797  -0.070   0.090  -0.021  -0.002   0.045   0.003   0.000
  0.132  -0.082   0.338   0.196   2.923  -0.008   0.019  -0.073  -0.074  -1.521  -0.865   0.236  -0.139   0.003   0.035  -0.006
 -1.618   0.049   0.033   0.049  -0.008   1.741  -0.030  -0.013  -0.089  -0.082  -0.175   0.017  -0.017   0.023  -0.241   0.001
  0.049  -1.575   0.049   0.018   0.019  -0.030   1.932  -0.077  -0.094   0.027  -0.194   0.022  -0.014  -0.089   0.014  -0.000
  0.034   0.051  -1.824   0.150  -0.073  -0.013  -0.077   2.343  -0.086  -0.117   0.538  -0.064   0.151   0.004   0.012  -0.007
  0.049   0.016   0.148  -1.797  -0.074  -0.089  -0.094  -0.086   2.386  -0.015  -0.065   0.007   0.009  -0.026  -0.008  -0.000
 -0.007   0.016  -0.063  -0.070  -1.521  -0.082   0.027  -0.117  -0.015   1.915   0.553  -0.064   0.155  -0.003  -0.023  -0.010
  0.311   0.303  -0.839   0.090  -0.865  -0.175  -0.194   0.538  -0.065   0.553   2.104  -0.370  -0.119  -0.003  -0.006   0.020
 -0.084  -0.078   0.217  -0.021   0.236   0.017   0.022  -0.064   0.007  -0.064  -0.370   0.083   0.031  -0.001   0.005  -0.005
  0.014   0.012  -0.111  -0.002  -0.139  -0.017  -0.014   0.151   0.009   0.155  -0.119   0.031   0.143  -0.016  -0.014  -0.009
 -0.023   0.112   0.001   0.045   0.003   0.023  -0.089   0.004  -0.026  -0.003  -0.003  -0.001  -0.016   0.266  -0.007   0.001
  0.233  -0.010  -0.009   0.003   0.035  -0.241   0.014   0.012  -0.008  -0.023  -0.006   0.005  -0.014  -0.007   0.242   0.001
 -0.001   0.002  -0.003   0.000  -0.006   0.001  -0.000  -0.007  -0.000  -0.010   0.020  -0.005  -0.009   0.001   0.001   0.001
  0.001   0.000   0.001  -0.002  -0.001  -0.001   0.012  -0.001   0.001   0.000   0.001  -0.000   0.001  -0.014   0.000  -0.000
 -0.003   0.001   0.001   0.000  -0.003   0.016  -0.001  -0.001   0.000   0.002   0.003  -0.001   0.001   0.000  -0.013  -0.000
 total augmentation occupancy for first ion, spin component:            2
  0.104   0.038   0.107  -0.073  -0.134  -0.036  -0.021  -0.065   0.043   0.076   0.046  -0.024  -0.005  -0.000  -0.006   0.000
  0.038   0.531  -0.184  -0.160   0.125  -0.020  -0.274   0.115   0.095  -0.074   0.058  -0.029   0.006  -0.018  -0.003  -0.000
  0.107  -0.184   0.455   0.082  -0.325  -0.059   0.108  -0.239  -0.050   0.178  -0.064   0.023  -0.019   0.015   0.010   0.000
 -0.073  -0.160   0.082   0.890  -0.152   0.044   0.090  -0.052  -0.495   0.085   0.019  -0.008  -0.003   0.008   0.007   0.000
 -0.134   0.125  -0.325  -0.152   0.550   0.075  -0.073   0.196   0.090  -0.286  -0.091   0.047   0.005  -0.004   0.005  -0.002
 -0.036  -0.020  -0.059   0.044   0.075  -0.017   0.011   0.034  -0.024  -0.040  -0.008   0.002   0.003   0.000   0.005  -0.000
 -0.021  -0.274   0.108   0.090  -0.073   0.011   0.108  -0.065  -0.050   0.041  -0.015   0.005  -0.003   0.010   0.002   0.000
 -0.065   0.115  -0.239  -0.052   0.196   0.034  -0.065   0.092   0.031  -0.099   0.020  -0.002   0.010  -0.009  -0.007  -0.000
  0.043   0.095  -0.050  -0.495   0.090  -0.024  -0.050   0.031   0.235  -0.047  -0.005   0.002   0.002  -0.005  -0.004  -0.000
  0.076  -0.074   0.178   0.085  -0.286  -0.040   0.041  -0.099  -0.047   0.115   0.013  -0.005  -0.004   0.002  -0.003   0.001
  0.046   0.058  -0.064   0.019  -0.091  -0.008  -0.015   0.020  -0.005   0.013   0.025  -0.017   0.007  -0.003  -0.003   0.001
 -0.024  -0.029   0.023  -0.008   0.047   0.002   0.005  -0.002   0.002  -0.005  -0.017   0.012  -0.001   0.001   0.001  -0.000
 -0.005   0.006  -0.019  -0.003   0.005   0.003  -0.003   0.010   0.002  -0.004   0.007  -0.001   0.000  -0.002  -0.001   0.000
 -0.000  -0.018   0.015   0.008  -0.004   0.000   0.010  -0.009  -0.005   0.002  -0.003   0.001  -0.002  -0.004   0.001  -0.000
 -0.006  -0.003   0.010   0.007   0.005   0.005   0.002  -0.007  -0.004  -0.003  -0.003   0.001  -0.001   0.001  -0.006  -0.000
  0.000  -0.000   0.000   0.000  -0.002  -0.000   0.000  -0.000  -0.000   0.001   0.001  -0.000   0.000  -0.000  -0.000  -0.000
  0.000   0.002  -0.001  -0.001   0.000  -0.000  -0.002   0.000   0.001  -0.000   0.000  -0.000   0.000   0.000  -0.000   0.000
  0.001   0.000   0.000  -0.000  -0.001  -0.001  -0.000  -0.000   0.000   0.000   0.000  -0.000  -0.000  -0.000   0.000   0.000


------------------------ aborting loop because EDIFF is reached ----------------------------------------


    CHARGE:  cpu time    1.3697: real time    1.4002
    FORLOC:  cpu time    0.1630: real time    0.1673
    FORNL :  cpu time    5.8548: real time    5.9807
    FORCOR:  cpu time    3.0567: real time    3.1144
    FORHAR:  cpu time    0.4097: real time    0.4224
    MIXING:  cpu time    0.0786: real time    0.0787
    OFIELD:  cpu time    0.0001: real time    0.0001

 VOLUME and BASIS-vectors are now :
 -----------------------------------------------------------------------------
  energy-cutoff  :      400.00
  volume of cell :    14228.09
      direct lattice vectors                 reciprocal lattice vectors
    24.204520820  0.000000000  0.000000000     0.041314596  0.000000000  0.000000000
     0.000000000 22.023167304  0.000000000     0.000000000  0.045406729  0.000000000
     0.000000000  0.000000000 26.691335772     0.000000000  0.000000000  0.037465341

  length of vectors
    24.204520820 22.023167304 26.691335772     0.041314596  0.045406729  0.037465341


 FORCES acting on ions
    electron-ion (+dipol)            ewald-force                    non-local-force                 convergence-correction
 -----------------------------------------------------------------------------------------------
   -.246E+03 -.638E+03 -.758E+02   0.247E+03 0.637E+03 0.757E+02   -.354E+00 0.864E+00 0.830E-01   -.474E-01 -.638E-01 -.682E-02
   0.603E+03 -.717E+03 0.213E+03   -.601E+03 0.714E+03 -.212E+03   -.193E+01 0.336E+01 -.656E+00   -.487E-01 0.214E-01 0.573E-01
   0.246E+03 0.712E+03 -.128E+03   -.247E+03 -.710E+03 0.127E+03   0.140E+00 -.175E+01 0.872E+00   -.141E-01 -.462E-02 -.439E-01
   -.649E+03 0.837E+03 -.221E+02   0.647E+03 -.831E+03 0.224E+02   0.221E+01 -.532E+01 -.241E+00   -.450E-01 -.802E-02 -.132E-01
   -.231E+03 -.860E+03 0.609E+03   0.229E+03 0.854E+03 -.606E+03   0.182E+01 0.586E+01 -.291E+01   0.405E-01 -.400E-01 0.292E-01
   -.978E+03 -.265E+03 0.360E+03   0.972E+03 0.263E+03 -.358E+03   0.589E+01 0.247E+01 -.279E+01   -.400E-01 0.497E-01 -.274E-01
   0.609E+03 -.451E+03 -.527E+03   -.607E+03 0.449E+03 0.526E+03   -.236E+01 0.250E+01 0.889E+00   -.981E-02 -.147E-01 0.828E-02
   0.890E+03 0.272E+03 0.445E+03   -.884E+03 -.271E+03 -.442E+03   -.559E+01 -.145E+01 -.249E+01   0.510E-01 -.290E-01 0.340E-01
   -.131E+03 0.656E+03 -.694E+03   0.130E+03 -.652E+03 0.692E+03   0.252E+00 -.384E+01 0.193E+01   -.626E-01 -.824E-02 -.861E-02
   0.259E+03 -.201E+03 0.101E+04   -.258E+03 0.200E+03 -.100E+04   -.122E+01 0.168E+01 -.557E+01   -.420E-02 -.294E-01 0.468E-01
   0.967E+03 0.182E+03 -.340E+03   -.961E+03 -.180E+03 0.337E+03   -.589E+01 -.173E+01 0.363E+01   0.504E-02 0.614E-02 0.143E-01
   -.928E+03 -.745E+02 -.506E+03   0.922E+03 0.738E+02 0.503E+03   0.560E+01 0.626E+00 0.334E+01   -.428E-02 0.572E-02 -.157E-01
   -.502E+03 0.310E+03 0.737E+03   0.500E+03 -.308E+03 -.735E+03   0.159E+01 -.122E+01 -.224E+01   0.336E-02 -.629E-01 -.129E-01
   0.102E+03 0.867E+03 0.584E+03   -.102E+03 -.860E+03 -.581E+03   0.628E+00 -.663E+01 -.276E+01   0.274E-01 -.200E-02 -.508E-01
   -.280E+03 -.706E+03 -.704E+03   0.278E+03 0.700E+03 0.701E+03   0.220E+01 0.571E+01 0.279E+01   -.990E-02 0.181E-01 0.762E-02
   0.269E+03 0.787E+02 -.959E+03   -.266E+03 -.770E+02 0.952E+03   -.297E+01 -.181E+01 0.721E+01   -.140E-01 0.474E-01 0.192E-01
 -----------------------------------------------------------------------------------------------
   0.167E+00 0.790E+00 -.113E+01   0.171E-12 -.227E-12 0.114E-12   0.791E-02 -.677E+00 0.109E+01   -.173E+00 -.114E+00 0.374E-01
 
 
 POSITION                                       TOTAL-FORCE (eV/Angst)
 -----------------------------------------------------------------------------------
     13.21666     12.18765     12.96534        -0.024470     -0.052272     -0.013077
     10.77247     12.26994     11.77351        -0.019780     -0.035236      0.039337
     11.64344      9.85345     12.54489         0.064203      0.019365      0.043862
     14.41443      9.45639     12.77936        -0.027190      0.032133     -0.016103
     13.01094     13.06496     10.52519         0.016819     -0.002916     -0.013342
     15.45084     11.72036     11.71885        -0.014057     -0.017069      0.010898
     11.01587     11.98548     14.44824         0.064217     -0.011688     -0.013897
      9.38715     10.13886     10.71379         0.004973      0.021333     -0.035105
     12.97091     10.11496     14.86021        -0.012609     -0.004567     -0.048916
     11.32226     11.32807      9.29631        -0.009362     -0.054998     -0.007758
      9.20698     10.61976     13.23119        -0.015810      0.012222     -0.010411
     15.32297     11.38795     14.41584         0.034220      0.000165     -0.029827
     13.44422     10.49297     10.58404         0.000182      0.030639      0.042662
     11.53337      8.77194     10.13703        -0.003737      0.059514      0.030617
     13.33472     12.78031     15.55234        -0.034227     -0.000995      0.013603
     11.71545     11.21364     16.83903        -0.023371      0.004370      0.007455
 -----------------------------------------------------------------------------------
    total drift:                                0.002217     -0.000554     -0.002135


--------------------------------------------------------------------------------------------------------



  FREE ENERGIE OF THE ION-ELECTRON SYSTEM (eV)
  ---------------------------------------------------
  free  energy   TOTEN  =       -61.91928906 eV

  energy  without entropy=      -61.95261126  energy(sigma->0) =      -61.93039646
 
 d Force = 0.2425422E-02[ 0.228E-03, 0.462E-02]  d Energy =-0.9163999E-03 0.334E-02
 d Force = 0.4473631E+01[ 0.469E+01, 0.426E+01]  d Ewald  = 0.4473340E+01 0.291E-03


--------------------------------------------------------------------------------------------------------


    POTLOK:  cpu time    3.2184: real time    3.2802


--------------------------------------------------------------------------------------------------------




--------------------------------------------------------------------------------------------------------


  
 reached required accuracy - stopping structural energy minimisation
     LOOP+:  cpu time  208.0558: real time  209.9294
    4ORBIT:  cpu time    0.0000: real time    0.0000

 total amount of memory used by VASP MPI-rank0   168802. kBytes
=======================================================================

   base      :      30000. kBytes
   nonl-proj :       3230. kBytes
   fftplans  :      33255. kBytes
   grid      :      75399. kBytes
   one-center:         15. kBytes
   wavefun   :      26903. kBytes
 
  
  
 General timing and accounting informations for this job:
 ========================================================
  
                  Total CPU time used (sec):     3244.571
                            User time (sec):     3222.174
                          System time (sec):       22.397
                         Elapsed time (sec):     3272.460
  
                   Maximum memory used (kb):      349304.
                   Average memory used (kb):           0.
  
                          Minor page faults:      4986556
                          Major page faults:        67112
                 Voluntary context switches:         9476
