unknown system                          
            1
    24.204521    0.000000    0.000000
     0.000000   22.023167    0.000000
     0.000000    0.000000   26.691336
   Pd
    16
Direct configuration=     1
   0.54331001  0.54589204  0.48492539
   0.44405024  0.55733388  0.44179463
   0.48075903  0.44869242  0.46739504
   0.59321742  0.43392349  0.47932516
   0.53890786  0.58925904  0.39524150
   0.63590542  0.53461465  0.43928492
   0.45491020  0.54361799  0.54245831
   0.39298434  0.46059902  0.40400037
   0.53429384  0.46130233  0.55774595
   0.46858560  0.51503111  0.35245015
   0.38101158  0.48353161  0.49619997
   0.63151261  0.51752017  0.53716592
   0.55756933  0.47442715  0.39485292
   0.47757329  0.40025235  0.37715060
   0.55170106  0.57605171  0.58131090
   0.48419349  0.51250033  0.63112723
Direct configuration=     2
   0.54296036  0.54805620  0.48483235
   0.44375256  0.55883158  0.44231707
   0.48091292  0.44741421  0.46805802
   0.59355882  0.43175037  0.47909304
   0.53923249  0.59055237  0.39515583
   0.63683376  0.53501835  0.43862159
   0.45435036  0.54413355  0.54216643
   0.39113971  0.46007489  0.40346405
   0.53428398  0.45956174  0.55778080
   0.46844525  0.51537415  0.35093337
   0.38032219  0.48337845  0.49674520
   0.63307495  0.51781374  0.53816125
   0.55804314  0.47393843  0.39453971
   0.47792872  0.39882831  0.37678241
   0.55207488  0.57775825  0.58157633
   0.48357123  0.51206468  0.63220153
Direct configuration=     3
   0.54280780  0.54900047  0.48479175
   0.44362268  0.55948506  0.44254502
   0.48098007  0.44685651  0.46834729
   0.59370778  0.43080220  0.47899177
   0.53937413  0.59111667  0.39511846
   0.63723881  0.53519449  0.43833217
   0.45410609  0.54435850  0.54203907
   0.39033487  0.45984621  0.40323004
   0.53427967  0.45880229  0.55779600
   0.46838401  0.51552382  0.35027158
   0.38002139  0.48331163  0.49698310
   0.63375663  0.51794183  0.53859552
   0.55824988  0.47372519  0.39440305
   0.47808381  0.39820698  0.37662176
   0.55223799  0.57850284  0.58169215
   0.48329973  0.51187460  0.63267026
Direct configuration=     4
   0.54353153  0.54941503  0.48519760
   0.44332759  0.55955241  0.44241873
   0.48092785  0.44664103  0.46850323
   0.59397044  0.43048179  0.47901569
   0.53945080  0.59138256  0.39492192
   0.63716311  0.53505204  0.43835777
   0.45441841  0.54440266  0.54240384
   0.39012408  0.45980165  0.40297792
   0.53425463  0.45884834  0.55770891
   0.46829710  0.51532629  0.35007032
   0.37986274  0.48315001  0.49690651
   0.63374809  0.51785277  0.53861633
   0.55809158  0.47396198  0.39446525
   0.47800626  0.39818892  0.37672093
   0.55196414  0.57868202  0.58173328
   0.48334698  0.51180978  0.63241074
Direct configuration=     5
   0.54381166  0.54957550  0.48535469
   0.44321337  0.55957848  0.44236985
   0.48090763  0.44655762  0.46856359
   0.59407211  0.43035777  0.47902495
   0.53948048  0.59148547  0.39484584
   0.63713380  0.53499690  0.43836768
   0.45453929  0.54441975  0.54254503
   0.39004249  0.45978441  0.40288033
   0.53424493  0.45886616  0.55767521
   0.46826345  0.51524983  0.34999243
   0.37980133  0.48308746  0.49687686
   0.63374479  0.51781830  0.53862438
   0.55803031  0.47405363  0.39448933
   0.47797625  0.39818193  0.37675932
   0.55185815  0.57875138  0.58174920
   0.48336527  0.51178469  0.63231029
Direct configuration=     6
   0.54400354  0.54984275  0.48537361
   0.44328256  0.55930562  0.44238496
   0.48088988  0.44673757  0.46865505
   0.59421642  0.43025974  0.47902644
   0.53940825  0.59147030  0.39484743
   0.63711184  0.53480223  0.43838865
   0.45463934  0.54433317  0.54240604
   0.39000114  0.45983789  0.40274383
   0.53430146  0.45892434  0.55752498
   0.46821869  0.51508016  0.34996612
   0.37993416  0.48306255  0.49676582
   0.63367920  0.51767716  0.53865713
   0.55777092  0.47433456  0.39469094
   0.47787303  0.39827619  0.37691631
   0.55173136  0.57895220  0.58187219
   0.48342352  0.51165287  0.63220948
Direct configuration=     7
   0.54457917  0.55064449  0.48543037
   0.44349012  0.55848705  0.44243028
   0.48083664  0.44727740  0.46892942
   0.59464936  0.42996562  0.47903091
   0.53919155  0.59142477  0.39485221
   0.63704595  0.53421821  0.43845154
   0.45493948  0.54407341  0.54198908
   0.38987709  0.45999835  0.40233433
   0.53447103  0.45909887  0.55707432
   0.46808439  0.51457117  0.34988719
   0.38033264  0.48298780  0.49643270
   0.63348246  0.51725374  0.53875536
   0.55699277  0.47517737  0.39529578
   0.47756339  0.39855897  0.37738728
   0.55135100  0.57955465  0.58224116
   0.48359827  0.51125740  0.63190704
Direct configuration=     8
   0.54474954  0.55099410  0.48555501
   0.44364514  0.55836852  0.44233169
   0.48093374  0.44732670  0.46902035
   0.59475383  0.42985539  0.47896730
   0.53904441  0.59163142  0.39480093
   0.63717814  0.53400151  0.43846158
   0.45507123  0.54408325  0.54193585
   0.38961923  0.46001276  0.40218739
   0.53459420  0.45914148  0.55696126
   0.46802349  0.51453176  0.34970740
   0.38028513  0.48286890  0.49635953
   0.63340842  0.51715371  0.53888246
   0.55677395  0.47525959  0.39555362
   0.47750345  0.39852181  0.37760027
   0.55125714  0.57974461  0.58231058
   0.48364428  0.51105377  0.63179374
Direct configuration=     9
   0.54526067  0.55204292  0.48592893
   0.44411018  0.55801293  0.44203592
   0.48122505  0.44747460  0.46929313
   0.59506723  0.42952470  0.47877648
   0.53860299  0.59225136  0.39464711
   0.63757471  0.53335140  0.43849170
   0.45546648  0.54411277  0.54177617
   0.38884566  0.46005597  0.40174657
   0.53496371  0.45926931  0.55662208
   0.46784078  0.51441352  0.34916804
   0.38014260  0.48251221  0.49614002
   0.63318631  0.51685362  0.53926375
   0.55611746  0.47550625  0.39632713
   0.47732363  0.39841034  0.37823927
   0.55097556  0.58031450  0.58251884
   0.48378229  0.51044287  0.63145383
Direct configuration=    10
   0.54545384  0.55234189  0.48578528
   0.44427394  0.55790804  0.44188130
   0.48114862  0.44742794  0.46935114
   0.59517396  0.42944295  0.47876027
   0.53842593  0.59238934  0.39464396
   0.63767666  0.53317747  0.43857368
   0.45527900  0.54414165  0.54167910
   0.38866530  0.46008969  0.40170286
   0.53512793  0.45920481  0.55669187
   0.46783223  0.51443538  0.34902126
   0.38021541  0.48246713  0.49607744
   0.63318332  0.51688015  0.53941962
   0.55599815  0.47564757  0.39637586
   0.47720287  0.39838017  0.37848672
   0.55101376  0.58039978  0.58258204
   0.48381439  0.51021533  0.63139659
Direct configuration=    11
   0.54567574  0.55268531  0.48562027
   0.44446205  0.55778755  0.44170368
   0.48106083  0.44737434  0.46941777
   0.59529656  0.42934903  0.47874165
   0.53822253  0.59254783  0.39464034
   0.63779376  0.53297767  0.43866785
   0.45506365  0.54417483  0.54156759
   0.38845811  0.46012843  0.40165265
   0.53531657  0.45913072  0.55677203
   0.46782241  0.51446049  0.34885266
   0.38029904  0.48241534  0.49600555
   0.63317988  0.51691063  0.53959866
   0.55586110  0.47580989  0.39643184
   0.47706416  0.39834552  0.37877096
   0.55105765  0.58049774  0.58265463
   0.48385126  0.50995396  0.63133085
Direct configuration=    12
   0.54577246  0.55287499  0.48565490
   0.44462053  0.55761538  0.44154334
   0.48105641  0.44738459  0.46957165
   0.59535747  0.42935817  0.47875263
   0.53804216  0.59273038  0.39455808
   0.63793987  0.53276717  0.43876923
   0.45507754  0.54418716  0.54149890
   0.38829077  0.46019305  0.40158462
   0.53546792  0.45917223  0.55676430
   0.46780976  0.51443667  0.34870340
   0.38032124  0.48236062  0.49592757
   0.63314874  0.51695803  0.53972999
   0.55575019  0.47597986  0.39645907
   0.47691380  0.39833479  0.37904020
   0.55102077  0.58044860  0.58265968
   0.48389567  0.50974758  0.63121142
Direct configuration=    13
   0.54604083  0.55340130  0.48575099
   0.44506030  0.55713764  0.44109842
   0.48104413  0.44741306  0.46999867
   0.59552647  0.42938353  0.47878309
   0.53754167  0.59323694  0.39432983
   0.63834529  0.53218308  0.43905053
   0.45511608  0.54422136  0.54130828
   0.38782643  0.46037238  0.40139584
   0.53588788  0.45928744  0.55674286
   0.46777466  0.51437057  0.34828925
   0.38038283  0.48220879  0.49571116
   0.63306235  0.51708954  0.54009440
   0.55544244  0.47645150  0.39653463
   0.47649659  0.39830502  0.37978729
   0.55091846  0.58031224  0.58267368
   0.48401892  0.50917490  0.63088005
