   8   8   0   0
  0.1344462E+04  0.2214546E-08  0.2196991E-08  0.2210678E-08  0.5000000E-15
   1.0000000000000000E-004
  CAR 
 unknown system                          
      2.08443248    -12.40114022  301     -5.07148539      1.00000000
    -12.401  0.0000E+00  0.0000E+00  0.0000E+00  0.0000E+00
    -12.353  0.0000E+00  0.0000E+00  0.0000E+00  0.0000E+00
    -12.305  0.0000E+00  0.0000E+00  0.0000E+00  0.0000E+00
    -12.256  0.0000E+00  0.0000E+00  0.0000E+00  0.0000E+00
    -12.208  0.0000E+00  0.0000E+00  0.0000E+00  0.0000E+00
    -12.160  0.0000E+00  0.0000E+00  0.0000E+00  0.0000E+00
    -12.111  0.0000E+00  0.0000E+00  0.0000E+00  0.0000E+00
    -12.063  0.0000E+00  0.0000E+00  0.0000E+00  0.0000E+00
    -12.015 -0.2503E-26 -0.2511E-26 -0.1208E-27 -0.1213E-27
    -11.967 -0.1102E-24 -0.1106E-24 -0.5442E-26 -0.5460E-26
    -11.918 -0.4400E-23 -0.4414E-23 -0.2179E-24 -0.2186E-24
    -11.870 -0.1561E-21 -0.1566E-21 -0.7756E-23 -0.7780E-23
    -11.822 -0.4923E-20 -0.4937E-20 -0.2455E-21 -0.2462E-21
    -11.773 -0.1379E-18 -0.1383E-18 -0.6905E-20 -0.6925E-20
    -11.725 -0.3433E-17 -0.3442E-17 -0.1727E-18 -0.1731E-18
    -11.677 -0.7589E-16 -0.7609E-16 -0.3837E-17 -0.3847E-17
    -11.629 -0.1490E-14 -0.1494E-14 -0.7578E-16 -0.7597E-16
    -11.580 -0.2483E-13 -0.2489E-13 -0.1274E-14 -0.1278E-14
    -11.532 -0.3893E-12 -0.3902E-12 -0.2007E-13 -0.2012E-13
    -11.484 -0.5333E-11 -0.5345E-11 -0.2776E-12 -0.2782E-12
    -11.435 -0.6475E-10 -0.6489E-10 -0.3404E-11 -0.3411E-11
    -11.387 -0.6968E-09 -0.6982E-09 -0.3705E-10 -0.3712E-10
    -11.339 -0.6643E-08 -0.6656E-08 -0.3578E-09 -0.3585E-09
    -11.291 -0.5607E-07 -0.5617E-07 -0.3065E-08 -0.3070E-08
    -11.242 -0.4186E-06 -0.4193E-06 -0.2328E-07 -0.2331E-07
    -11.194 -0.2761E-05 -0.2766E-05 -0.1566E-06 -0.1569E-06
    -11.146 -0.1608E-04 -0.1610E-04 -0.9329E-06 -0.9343E-06
    -11.097 -0.8249E-04 -0.8260E-04 -0.4916E-05 -0.4923E-05
    -11.049 -0.3722E-03 -0.3727E-03 -0.2289E-04 -0.2292E-04
    -11.001 -0.1473E-02 -0.1474E-02 -0.9400E-04 -0.9411E-04
    -10.953 -0.5090E-02 -0.5096E-02 -0.3398E-03 -0.3401E-03
    -10.904 -0.1528E-01 -0.1530E-01 -0.1078E-02 -0.1079E-02
    -10.856 -0.3952E-01 -0.3955E-01 -0.2986E-02 -0.2988E-02
    -10.808 -0.8670E-01 -0.8675E-01 -0.7172E-02 -0.7177E-02
    -10.759 -0.1570E+00 -0.1570E+00 -0.1475E-01 -0.1476E-01
    -10.711 -0.2198E+00 -0.2198E+00 -0.2537E-01 -0.2537E-01
    -10.663 -0.1889E+00 -0.1888E+00 -0.3449E-01 -0.3449E-01
    -10.615  0.7670E-01  0.7707E-01 -0.3078E-01 -0.3077E-01
    -10.566  0.7120E+00  0.7127E+00  0.3594E-02  0.3642E-02
    -10.518  0.1728E+01  0.1729E+01  0.8702E-01  0.8712E-01
    -10.470  0.2913E+01  0.2914E+01  0.2277E+00  0.2278E+00
    -10.421  0.3867E+01  0.3868E+01  0.4144E+00  0.4146E+00
    -10.373  0.4195E+01  0.4195E+01  0.6169E+00  0.6171E+00
    -10.325  0.3750E+01  0.3750E+01  0.7980E+00  0.7982E+00
    -10.277  0.2731E+01  0.2730E+01  0.9299E+00  0.9300E+00
    -10.228  0.1549E+01  0.1548E+01  0.1005E+01  0.1005E+01
    -10.180  0.5848E+00  0.5842E+00  0.1033E+01  0.1033E+01
    -10.132  0.1310E-01  0.1278E-01  0.1034E+01  0.1034E+01
    -10.083 -0.2053E+00 -0.2054E+00  0.1024E+01  0.1024E+01
    -10.035 -0.2132E+00 -0.2131E+00  0.1013E+01  0.1013E+01
     -9.987 -0.1451E+00 -0.1450E+00  0.1006E+01  0.1006E+01
     -9.939 -0.7753E-01 -0.7748E-01  0.1003E+01  0.1003E+01
     -9.890 -0.3439E-01 -0.3436E-01  0.1001E+01  0.1001E+01
     -9.842 -0.1298E-01 -0.1297E-01  0.1000E+01  0.1000E+01
     -9.794 -0.4227E-02 -0.4223E-02  0.1000E+01  0.1000E+01
     -9.745 -0.1197E-02 -0.1195E-02  0.1000E+01  0.1000E+01
     -9.697 -0.2962E-03 -0.2959E-03  0.1000E+01  0.1000E+01
     -9.649 -0.6433E-04 -0.6425E-04  0.1000E+01  0.1000E+01
     -9.601 -0.1232E-04 -0.1230E-04  0.1000E+01  0.1000E+01
     -9.552 -0.2308E-05 -0.2305E-05  0.1000E+01  0.1000E+01
     -9.504 -0.2055E-05 -0.2053E-05  0.1000E+01  0.1000E+01
     -9.456 -0.1132E-04 -0.1132E-04  0.1000E+01  0.1000E+01
     -9.407 -0.6431E-04 -0.6427E-04  0.1000E+01  0.1000E+01
     -9.359 -0.3228E-03 -0.3226E-03  0.1000E+01  0.1000E+01
     -9.311 -0.1425E-02 -0.1424E-02  0.9999E+00  0.9999E+00
     -9.263 -0.5510E-02 -0.5507E-02  0.9996E+00  0.9996E+00
     -9.214 -0.1860E-01 -0.1859E-01  0.9987E+00  0.9987E+00
     -9.166 -0.5449E-01 -0.5446E-01  0.9961E+00  0.9961E+00
     -9.118 -0.1372E+00 -0.1371E+00  0.9895E+00  0.9895E+00
     -9.069 -0.2920E+00 -0.2919E+00  0.9754E+00  0.9754E+00
     -9.021 -0.5092E+00 -0.5091E+00  0.9508E+00  0.9508E+00
     -8.973 -0.6734E+00 -0.6734E+00  0.9183E+00  0.9183E+00
     -8.925 -0.4938E+00 -0.4940E+00  0.8944E+00  0.8945E+00
     -8.876  0.4684E+00  0.4677E+00  0.9171E+00  0.9170E+00
     -8.828  0.2582E+01  0.2581E+01  0.1042E+01  0.1042E+01
     -8.780  0.5780E+01  0.5778E+01  0.1321E+01  0.1321E+01
     -8.731  0.9310E+01  0.9309E+01  0.1770E+01  0.1770E+01
     -8.683  0.1192E+02  0.1192E+02  0.2346E+01  0.2346E+01
     -8.635  0.1250E+02  0.1250E+02  0.2950E+01  0.2949E+01
     -8.587  0.1078E+02  0.1078E+02  0.3470E+01  0.3470E+01
     -8.538  0.7471E+01  0.7473E+01  0.3831E+01  0.3831E+01
     -8.490  0.3830E+01  0.3832E+01  0.4016E+01  0.4016E+01
     -8.442  0.9122E+00  0.9134E+00  0.4060E+01  0.4060E+01
     -8.393 -0.7930E+00 -0.7925E+00  0.4021E+01  0.4021E+01
     -8.345 -0.1230E+01 -0.1230E+01  0.3962E+01  0.3962E+01
     -8.297 -0.4233E+00 -0.4246E+00  0.3942E+01  0.3942E+01
     -8.249  0.1650E+01  0.1647E+01  0.4021E+01  0.4021E+01
     -8.200  0.4824E+01  0.4820E+01  0.4254E+01  0.4254E+01
     -8.152  0.8401E+01  0.8398E+01  0.4660E+01  0.4659E+01
     -8.104  0.1116E+02  0.1116E+02  0.5199E+01  0.5198E+01
     -8.055  0.1192E+02  0.1192E+02  0.5774E+01  0.5774E+01
     -8.007  0.1031E+02  0.1031E+02  0.6272E+01  0.6272E+01
     -7.959  0.7229E+01  0.7233E+01  0.6621E+01  0.6621E+01
     -7.911  0.4498E+01  0.4501E+01  0.6838E+01  0.6838E+01
     -7.862  0.3943E+01  0.3944E+01  0.7029E+01  0.7029E+01
     -7.814  0.6399E+01  0.6398E+01  0.7338E+01  0.7338E+01
     -7.766  0.1119E+02  0.1119E+02  0.7878E+01  0.7878E+01
     -7.717  0.1646E+02  0.1646E+02  0.8673E+01  0.8673E+01
     -7.669  0.2014E+02  0.2014E+02  0.9645E+01  0.9645E+01
     -7.621  0.2116E+02  0.2116E+02  0.1067E+02  0.1067E+02
     -7.573  0.1988E+02  0.1988E+02  0.1163E+02  0.1163E+02
     -7.524  0.1751E+02  0.1751E+02  0.1247E+02  0.1247E+02
     -7.476  0.1510E+02  0.1511E+02  0.1320E+02  0.1320E+02
     -7.428  0.1313E+02  0.1313E+02  0.1384E+02  0.1384E+02
     -7.379  0.1166E+02  0.1167E+02  0.1440E+02  0.1440E+02
     -7.331  0.1089E+02  0.1089E+02  0.1492E+02  0.1492E+02
     -7.283  0.1107E+02  0.1107E+02  0.1546E+02  0.1546E+02
     -7.235  0.1218E+02  0.1218E+02  0.1605E+02  0.1605E+02
     -7.186  0.1379E+02  0.1379E+02  0.1671E+02  0.1671E+02
     -7.138  0.1530E+02  0.1530E+02  0.1745E+02  0.1745E+02
     -7.090  0.1633E+02  0.1633E+02  0.1824E+02  0.1824E+02
     -7.041  0.1686E+02  0.1686E+02  0.1905E+02  0.1905E+02
     -6.993  0.1703E+02  0.1703E+02  0.1988E+02  0.1988E+02
     -6.945  0.1708E+02  0.1707E+02  0.2070E+02  0.2070E+02
     -6.897  0.1715E+02  0.1715E+02  0.2153E+02  0.2153E+02
     -6.848  0.1714E+02  0.1714E+02  0.2236E+02  0.2236E+02
     -6.800  0.1660E+02  0.1660E+02  0.2316E+02  0.2316E+02
     -6.752  0.1495E+02  0.1495E+02  0.2388E+02  0.2388E+02
     -6.703  0.1196E+02  0.1196E+02  0.2446E+02  0.2446E+02
     -6.655  0.8077E+01  0.8080E+01  0.2485E+02  0.2485E+02
     -6.607  0.4230E+01  0.4232E+01  0.2505E+02  0.2505E+02
     -6.559  0.1238E+01  0.1240E+01  0.2511E+02  0.2511E+02
     -6.510 -0.5989E+00 -0.5979E+00  0.2508E+02  0.2508E+02
     -6.462 -0.1484E+01 -0.1484E+01  0.2501E+02  0.2501E+02
     -6.414 -0.1742E+01 -0.1741E+01  0.2493E+02  0.2493E+02
     -6.365 -0.1398E+01 -0.1399E+01  0.2486E+02  0.2486E+02
     -6.317 -0.4018E-01 -0.4350E-01  0.2486E+02  0.2486E+02
     -6.269  0.2918E+01  0.2912E+01  0.2500E+02  0.2500E+02
     -6.221  0.7645E+01  0.7636E+01  0.2537E+02  0.2537E+02
     -6.172  0.1334E+02  0.1333E+02  0.2601E+02  0.2601E+02
     -6.124  0.1826E+02  0.1826E+02  0.2689E+02  0.2689E+02
     -6.076  0.2048E+02  0.2048E+02  0.2788E+02  0.2788E+02
     -6.027  0.1901E+02  0.1902E+02  0.2880E+02  0.2880E+02
     -5.979  0.1443E+02  0.1444E+02  0.2950E+02  0.2950E+02
     -5.931  0.8483E+01  0.8494E+01  0.2991E+02  0.2991E+02
     -5.883  0.3029E+01  0.3038E+01  0.3005E+02  0.3005E+02
     -5.834 -0.7648E+00 -0.7592E+00  0.3002E+02  0.3002E+02
     -5.786 -0.2475E+01 -0.2475E+01  0.2990E+02  0.2990E+02
     -5.738 -0.1903E+01 -0.1910E+01  0.2981E+02  0.2981E+02
     -5.689  0.1303E+01  0.1287E+01  0.2987E+02  0.2987E+02
     -5.641  0.7384E+01  0.7360E+01  0.3023E+02  0.3022E+02
     -5.593  0.1577E+02  0.1574E+02  0.3099E+02  0.3098E+02
     -5.545  0.2466E+02  0.2464E+02  0.3218E+02  0.3217E+02
     -5.496  0.3167E+02  0.3166E+02  0.3371E+02  0.3370E+02
     -5.448  0.3506E+02  0.3506E+02  0.3540E+02  0.3539E+02
     -5.400  0.3479E+02  0.3480E+02  0.3708E+02  0.3707E+02
     -5.351  0.3224E+02  0.3226E+02  0.3864E+02  0.3863E+02
     -5.303  0.2899E+02  0.2900E+02  0.4004E+02  0.4003E+02
     -5.255  0.2565E+02  0.2566E+02  0.4127E+02  0.4127E+02
     -5.207  0.2188E+02  0.2188E+02  0.4233E+02  0.4233E+02
     -5.158  0.1719E+02  0.1720E+02  0.4316E+02  0.4316E+02
     -5.110  0.1178E+02  0.1180E+02  0.4373E+02  0.4373E+02
     -5.062  0.6552E+01  0.6566E+01  0.4405E+02  0.4405E+02
     -5.013  0.2475E+01  0.2486E+01  0.4417E+02  0.4417E+02
     -4.965  0.2966E-01  0.3543E-01  0.4417E+02  0.4417E+02
     -4.917 -0.9574E+00 -0.9555E+00  0.4412E+02  0.4412E+02
     -4.869 -0.1031E+01 -0.1031E+01  0.4407E+02  0.4407E+02
     -4.820 -0.7368E+00 -0.7378E+00  0.4404E+02  0.4404E+02
     -4.772 -0.4162E+00 -0.4170E+00  0.4402E+02  0.4402E+02
     -4.724 -0.1960E+00 -0.1965E+00  0.4401E+02  0.4401E+02
     -4.676 -0.7881E-01 -0.7906E-01  0.4400E+02  0.4400E+02
     -4.627 -0.2740E-01 -0.2751E-01  0.4400E+02  0.4400E+02
     -4.579 -0.8302E-02 -0.8337E-02  0.4400E+02  0.4400E+02
     -4.531 -0.2202E-02 -0.2212E-02  0.4400E+02  0.4400E+02
     -4.482 -0.5128E-03 -0.5155E-03  0.4400E+02  0.4400E+02
     -4.434 -0.1052E-03 -0.1058E-03  0.4400E+02  0.4400E+02
     -4.386 -0.1902E-04 -0.1914E-04  0.4400E+02  0.4400E+02
     -4.338 -0.3038E-05 -0.3058E-05  0.4400E+02  0.4400E+02
     -4.289 -0.4290E-06 -0.4320E-06  0.4400E+02  0.4400E+02
     -4.241 -0.5362E-07 -0.5402E-07  0.4400E+02  0.4400E+02
     -4.193 -0.6028E-08 -0.6074E-08  0.4400E+02  0.4400E+02
     -4.144 -0.1598E-08 -0.1595E-08  0.4400E+02  0.4400E+02
     -4.096 -0.9546E-08 -0.9479E-08  0.4400E+02  0.4400E+02
     -4.048 -0.7856E-07 -0.7803E-07  0.4400E+02  0.4400E+02
     -4.000 -0.5747E-06 -0.5711E-06  0.4400E+02  0.4400E+02
     -3.951 -0.3715E-05 -0.3693E-05  0.4400E+02  0.4400E+02
     -3.903 -0.2119E-04 -0.2108E-04  0.4400E+02  0.4400E+02
     -3.855 -0.1065E-03 -0.1060E-03  0.4400E+02  0.4400E+02
     -3.806 -0.4704E-03 -0.4682E-03  0.4400E+02  0.4400E+02
     -3.758 -0.1822E-02 -0.1814E-02  0.4400E+02  0.4400E+02
     -3.710 -0.6158E-02 -0.6134E-02  0.4400E+02  0.4400E+02
     -3.662 -0.1807E-01 -0.1801E-01  0.4400E+02  0.4400E+02
     -3.613 -0.4561E-01 -0.4548E-01  0.4400E+02  0.4400E+02
     -3.565 -0.9756E-01 -0.9735E-01  0.4399E+02  0.4399E+02
     -3.517 -0.1720E+00 -0.1717E+00  0.4398E+02  0.4398E+02
     -3.468 -0.2343E+00 -0.2342E+00  0.4397E+02  0.4397E+02
     -3.420 -0.1969E+00 -0.1974E+00  0.4396E+02  0.4396E+02
     -3.372  0.6751E-01  0.6605E-01  0.4397E+02  0.4397E+02
     -3.324  0.6556E+00  0.6530E+00  0.4400E+02  0.4400E+02
     -3.275  0.1531E+01  0.1527E+01  0.4407E+02  0.4407E+02
     -3.227  0.2492E+01  0.2489E+01  0.4419E+02  0.4419E+02
     -3.179  0.3315E+01  0.3313E+01  0.4435E+02  0.4435E+02
     -3.130  0.4003E+01  0.4001E+01  0.4455E+02  0.4454E+02
     -3.082  0.4909E+01  0.4907E+01  0.4478E+02  0.4478E+02
     -3.034  0.6494E+01  0.6491E+01  0.4510E+02  0.4509E+02
     -2.986  0.8810E+01  0.8805E+01  0.4552E+02  0.4552E+02
     -2.937  0.1117E+02  0.1117E+02  0.4606E+02  0.4606E+02
     -2.889  0.1244E+02  0.1244E+02  0.4666E+02  0.4666E+02
     -2.841  0.1177E+02  0.1177E+02  0.4723E+02  0.4723E+02
     -2.792  0.9237E+01  0.9244E+01  0.4768E+02  0.4767E+02
     -2.744  0.5792E+01  0.5799E+01  0.4796E+02  0.4795E+02
     -2.696  0.2627E+01  0.2633E+01  0.4808E+02  0.4808E+02
     -2.648  0.5037E+00  0.5070E+00  0.4811E+02  0.4811E+02
     -2.599 -0.4819E+00 -0.4808E+00  0.4808E+02  0.4808E+02
     -2.551 -0.6781E+00 -0.6782E+00  0.4805E+02  0.4805E+02
     -2.503 -0.5196E+00 -0.5201E+00  0.4803E+02  0.4803E+02
     -2.454 -0.3026E+00 -0.3030E+00  0.4801E+02  0.4801E+02
     -2.406 -0.1504E+00 -0.1506E+00  0.4800E+02  0.4800E+02
     -2.358 -0.8217E-01 -0.8225E-01  0.4800E+02  0.4800E+02
     -2.310 -0.8683E-01 -0.8676E-01  0.4800E+02  0.4800E+02
     -2.261 -0.1581E+00 -0.1580E+00  0.4799E+02  0.4799E+02
     -2.213 -0.2880E+00 -0.2877E+00  0.4797E+02  0.4797E+02
     -2.165 -0.4243E+00 -0.4241E+00  0.4795E+02  0.4795E+02
     -2.116 -0.4149E+00 -0.4152E+00  0.4793E+02  0.4793E+02
     -2.068  0.7980E-02  0.6645E-02  0.4793E+02  0.4793E+02
     -2.020  0.1132E+01  0.1129E+01  0.4799E+02  0.4799E+02
     -1.972  0.3042E+01  0.3038E+01  0.4814E+02  0.4813E+02
     -1.923  0.5403E+01  0.5399E+01  0.4840E+02  0.4840E+02
     -1.875  0.7461E+01  0.7458E+01  0.4876E+02  0.4876E+02
     -1.827  0.8386E+01  0.8386E+01  0.4916E+02  0.4916E+02
     -1.778  0.7767E+01  0.7770E+01  0.4954E+02  0.4954E+02
     -1.730  0.5882E+01  0.5886E+01  0.4982E+02  0.4982E+02
     -1.682  0.3513E+01  0.3517E+01  0.4999E+02  0.4999E+02
     -1.634  0.1465E+01  0.1469E+01  0.5006E+02  0.5006E+02
     -1.585  0.1750E+00  0.1766E+00  0.5007E+02  0.5007E+02
     -1.537 -0.3717E+00 -0.3713E+00  0.5005E+02  0.5005E+02
     -1.489 -0.4413E+00 -0.4415E+00  0.5003E+02  0.5003E+02
     -1.440 -0.3179E+00 -0.3181E+00  0.5001E+02  0.5001E+02
     -1.392 -0.1772E+00 -0.1774E+00  0.5001E+02  0.5001E+02
     -1.344 -0.8416E-01 -0.8417E-01  0.5000E+02  0.5000E+02
     -1.296 -0.4349E-01 -0.4318E-01  0.5000E+02  0.5000E+02
     -1.247 -0.4795E-01 -0.4696E-01  0.5000E+02  0.5000E+02
     -1.199 -0.1029E+00 -0.1005E+00  0.4999E+02  0.4999E+02
     -1.151 -0.2273E+00 -0.2229E+00  0.4998E+02  0.4998E+02
     -1.102 -0.4276E+00 -0.4217E+00  0.4996E+02  0.4996E+02
     -1.054 -0.6365E+00 -0.6324E+00  0.4993E+02  0.4993E+02
     -1.006 -0.6345E+00 -0.6403E+00  0.4990E+02  0.4990E+02
     -0.958 -0.2941E-01 -0.5707E-01  0.4990E+02  0.4990E+02
     -0.909  0.1602E+01  0.1543E+01  0.4998E+02  0.4997E+02
     -0.861  0.4388E+01  0.4302E+01  0.5019E+02  0.5018E+02
     -0.813  0.7852E+01  0.7759E+01  0.5057E+02  0.5055E+02
     -0.764  0.1093E+02  0.1087E+02  0.5109E+02  0.5108E+02
     -0.716  0.1251E+02  0.1250E+02  0.5170E+02  0.5168E+02
     -0.668  0.1210E+02  0.1215E+02  0.5228E+02  0.5227E+02
     -0.620  0.1018E+02  0.1026E+02  0.5277E+02  0.5276E+02
     -0.571  0.7794E+01  0.7872E+01  0.5315E+02  0.5314E+02
     -0.523  0.5801E+01  0.5859E+01  0.5343E+02  0.5343E+02
     -0.475  0.4435E+01  0.4469E+01  0.5365E+02  0.5364E+02
     -0.426  0.3415E+01  0.3433E+01  0.5381E+02  0.5381E+02
     -0.378  0.2401E+01  0.2413E+01  0.5393E+02  0.5393E+02
     -0.330  0.1311E+01  0.1321E+01  0.5399E+02  0.5399E+02
     -0.282  0.3037E+00  0.3111E+00  0.5400E+02  0.5400E+02
     -0.233 -0.3826E+00 -0.3818E+00  0.5399E+02  0.5399E+02
     -0.185 -0.5313E+00 -0.5423E+00  0.5396E+02  0.5396E+02
     -0.137  0.4937E-01  0.2349E-01  0.5396E+02  0.5396E+02
     -0.088  0.1479E+01  0.1441E+01  0.5403E+02  0.5403E+02
     -0.040  0.3640E+01  0.3600E+01  0.5421E+02  0.5420E+02
      0.008  0.6023E+01  0.5998E+01  0.5450E+02  0.5449E+02
      0.056  0.7817E+01  0.7818E+01  0.5488E+02  0.5487E+02
      0.105  0.8297E+01  0.8323E+01  0.5528E+02  0.5527E+02
      0.153  0.7262E+01  0.7303E+01  0.5563E+02  0.5563E+02
      0.201  0.5174E+01  0.5212E+01  0.5588E+02  0.5588E+02
      0.250  0.2857E+01  0.2882E+01  0.5602E+02  0.5602E+02
      0.298  0.1024E+01  0.1034E+01  0.5607E+02  0.5607E+02
      0.346 -0.3096E-01 -0.3063E-01  0.5606E+02  0.5607E+02
      0.394 -0.4139E+00 -0.4172E+00  0.5604E+02  0.5604E+02
      0.443 -0.4096E+00 -0.4128E+00  0.5602E+02  0.5603E+02
      0.491 -0.2733E+00 -0.2752E+00  0.5601E+02  0.5601E+02
      0.539 -0.1442E+00 -0.1450E+00  0.5600E+02  0.5600E+02
      0.588 -0.6342E-01 -0.6368E-01  0.5600E+02  0.5600E+02
      0.636 -0.2379E-01 -0.2384E-01  0.5600E+02  0.5600E+02
      0.684 -0.7710E-02 -0.7708E-02  0.5600E+02  0.5600E+02
      0.732 -0.2176E-02 -0.2170E-02  0.5600E+02  0.5600E+02
      0.781 -0.5376E-03 -0.5345E-03  0.5600E+02  0.5600E+02
      0.829 -0.1166E-03 -0.1156E-03  0.5600E+02  0.5600E+02
      0.877 -0.2229E-04 -0.2201E-04  0.5600E+02  0.5600E+02
      0.926 -0.3757E-05 -0.3696E-05  0.5600E+02  0.5600E+02
      0.974 -0.5597E-06 -0.5484E-06  0.5600E+02  0.5600E+02
      1.022 -0.7375E-07 -0.7195E-07  0.5600E+02  0.5600E+02
      1.070 -0.8603E-08 -0.8357E-08  0.5600E+02  0.5600E+02
      1.119 -0.8893E-09 -0.8598E-09  0.5600E+02  0.5600E+02
      1.167 -0.8150E-10 -0.7842E-10  0.5600E+02  0.5600E+02
      1.215 -0.6627E-11 -0.6346E-11  0.5600E+02  0.5600E+02
      1.264 -0.4783E-12 -0.4507E-12  0.5600E+02  0.5600E+02
      1.312 -0.3219E-13 -0.3219E-13  0.5600E+02  0.5600E+02
      1.360  0.0000E+00  0.0000E+00  0.5600E+02  0.5600E+02
      1.408  0.0000E+00  0.0000E+00  0.5600E+02  0.5600E+02
      1.457  0.0000E+00  0.0000E+00  0.5600E+02  0.5600E+02
      1.505  0.0000E+00  0.0000E+00  0.5600E+02  0.5600E+02
      1.553  0.0000E+00  0.0000E+00  0.5600E+02  0.5600E+02
      1.602  0.0000E+00  0.0000E+00  0.5600E+02  0.5600E+02
      1.650  0.0000E+00  0.0000E+00  0.5600E+02  0.5600E+02
      1.698  0.0000E+00  0.0000E+00  0.5600E+02  0.5600E+02
      1.746  0.0000E+00  0.0000E+00  0.5600E+02  0.5600E+02
      1.795  0.0000E+00  0.0000E+00  0.5600E+02  0.5600E+02
      1.843  0.0000E+00  0.0000E+00  0.5600E+02  0.5600E+02
      1.891  0.0000E+00  0.0000E+00  0.5600E+02  0.5600E+02
      1.940  0.0000E+00  0.0000E+00  0.5600E+02  0.5600E+02
      1.988  0.0000E+00  0.0000E+00  0.5600E+02  0.5600E+02
      2.036  0.0000E+00  0.0000E+00  0.5600E+02  0.5600E+02
      2.084  0.0000E+00  0.0000E+00  0.5600E+02  0.5600E+02
