    8    8    1    2
  0.1344462E+04  0.2214546E-08  0.2196991E-08  0.2210678E-08  0.5000000E-15
   1.0000000000000000E-004
  CAR 
 unknown system                          
     88      1     56
 
  0.1262379E-14  0.1262379E-14  0.1262379E-14  0.1000000E+01
    1      -10.401099    -10.401140   1.000000   1.000000
    2       -8.672606     -8.672586   1.000000   1.000000
    3       -8.670444     -8.670422   1.000000   1.000000
    4       -8.670060     -8.670039   1.000000   1.000000
    5       -8.083090     -8.083052   1.000000   1.000000
    6       -8.082505     -8.082458   1.000000   1.000000
    7       -8.080532     -8.080477   1.000000   1.000000
    8       -7.704650     -7.704644   1.000000   1.000000
    9       -7.702605     -7.702598   1.000000   1.000000
   10       -7.667727     -7.667709   1.000000   1.000000
   11       -7.664230     -7.664207   1.000000   1.000000
   12       -7.661071     -7.661055   1.000000   1.000000
   13       -7.470986     -7.470943   1.000000   1.000000
   14       -7.442109     -7.442096   1.000000   1.000000
   15       -7.439272     -7.439262   1.000000   1.000000
   16       -7.202531     -7.202535   1.000000   1.000000
   17       -7.199400     -7.199400   1.000000   1.000000
   18       -7.196454     -7.196454   1.000000   1.000000
   19       -7.015183     -7.015178   1.000000   1.000000
   20       -7.013936     -7.013937   1.000000   1.000000
   21       -7.012852     -7.012853   1.000000   1.000000
   22       -6.888338     -6.888262   1.000000   1.000000
   23       -6.779904     -6.779877   1.000000   1.000000
   24       -6.776534     -6.776510   1.000000   1.000000
   25       -6.773707     -6.773686   1.000000   1.000000
   26       -6.125065     -6.124985   1.000000   1.000000
   27       -6.120481     -6.120403   1.000000   1.000000
   28       -6.079053     -6.078969   1.000000   1.000000
   29       -6.074987     -6.074896   1.000000   1.000000
   30       -6.073071     -6.072984   1.000000   1.000000
   31       -5.533101     -5.532917   1.002614   1.002623
   32       -5.532753     -5.532579   1.002632   1.002641
   33       -5.499942     -5.499741   1.004915   1.004933
   34       -5.498692     -5.498501   1.005027   1.005044
   35       -5.498023     -5.497858   1.005088   1.005103
   36       -5.459297     -5.459174   1.009686   1.009704
   37       -5.456811     -5.456709   1.010060   1.010075
   38       -5.455786     -5.455674   1.010217   1.010234
   39       -5.310099     -5.309991   1.035296   1.035291
   40       -5.306587     -5.306494   1.035059   1.035051
   41       -5.303872     -5.303797   1.034796   1.034788
   42       -5.207244     -5.207093   0.952251   0.951971
   43       -5.205169     -5.205004   0.948360   0.948046
   44       -5.203126     -5.202943   0.944425   0.944069
   45       -3.166210     -3.166052  -0.000000  -0.000000
   46       -2.903883     -2.903778  -0.000000  -0.000000
   47       -2.898888     -2.898783  -0.000000  -0.000000
   48       -2.894638     -2.894530  -0.000000  -0.000000
   49       -1.846158     -1.846068  -0.000000  -0.000000
   50       -1.845508     -1.845421  -0.000000  -0.000000
   51       -0.738665     -0.737524  -0.000000  -0.000000
   52       -0.734722     -0.733483  -0.000000  -0.000000
   53       -0.730338     -0.728914  -0.000000  -0.000000
   54       -0.484636     -0.484093  -0.000000  -0.000000
   55        0.057794      0.061267  -0.000000  -0.000000
   56        0.084432      0.082394  -0.000000  -0.000000
