       N       E                     dE             d eps       ncg     rms          rms(c)
DAV:   1     0.671615364035E+03    0.67162E+03   -0.13631E+04   224   0.710E+02
DAV:   2     0.337286215575E+03   -0.33433E+03   -0.30539E+03   312   0.141E+02
DAV:   3     0.129215270319E+03   -0.20807E+03   -0.20017E+03   368   0.126E+02
DAV:   4     0.116972190461E+02   -0.11752E+03   -0.10746E+03   432   0.844E+01
DAV:   5    -0.191938165463E+02   -0.30891E+02   -0.26413E+02   344   0.632E+01    0.187E+01
DAV:   6    -0.631633243103E+01    0.12877E+02   -0.70501E+01   296   0.722E+01    0.819E+00
DAV:   7    -0.406820098845E+01    0.22481E+01   -0.11766E+01   272   0.784E+01    0.502E+00
DAV:   8    -0.684044786872E+01   -0.27722E+01   -0.19632E+00   344   0.176E+01    0.242E+00
DAV:   9    -0.116965252912E+02   -0.48561E+01   -0.25689E+00   296   0.110E+01    0.160E+00
DAV:  10    -0.137923860821E+02   -0.20959E+01   -0.75136E-01   320   0.108E+01    0.136E+00
DAV:  11    -0.164791655822E+02   -0.26868E+01   -0.12171E+00   288   0.545E+00    0.106E+00
DAV:  12    -0.173296955249E+02   -0.85053E+00   -0.23307E-01   304   0.321E+00    0.740E-01
DAV:  13    -0.184338701611E+02   -0.11042E+01   -0.23889E-01   288   0.361E+00    0.651E-01
DAV:  14    -0.188247950996E+02   -0.39092E+00   -0.50039E-02   320   0.235E+00    0.381E-01
DAV:  15    -0.192064293305E+02   -0.38163E+00   -0.57306E-02   296   0.173E+00    0.285E-01
DAV:  16    -0.194427789046E+02   -0.23635E+00   -0.17127E-02   304   0.162E+00    0.263E-01
DAV:  17    -0.196277157611E+02   -0.18494E+00   -0.59136E-03   304   0.104E+00    0.142E-01
DAV:  18    -0.198238780801E+02   -0.19616E+00   -0.52459E-03   288   0.447E-01    0.844E-02
DAV:  19    -0.198934309691E+02   -0.69553E-01   -0.20888E-03   264   0.580E-01    0.693E-02
DAV:  20    -0.199079700910E+02   -0.14539E-01   -0.33070E-04   200   0.457E-01    0.522E-02
DAV:  21    -0.199206934671E+02   -0.12723E-01   -0.72773E-04   216   0.228E-01    0.300E-02
DAV:  22    -0.199233203497E+02   -0.26269E-02   -0.11633E-04   168   0.141E-01    0.245E-02
DAV:  23    -0.199241693469E+02   -0.84900E-03   -0.11126E-04   168   0.164E-01    0.136E-02
DAV:  24    -0.199244461663E+02   -0.27682E-03   -0.65143E-05   176   0.120E-01    0.100E-02
DAV:  25    -0.199250793341E+02   -0.63317E-03   -0.46160E-05   160   0.107E-01    0.800E-03
DAV:  26    -0.199255104358E+02   -0.43110E-03   -0.41281E-05   160   0.597E-02    0.568E-03
DAV:  27    -0.199265611167E+02   -0.10507E-02   -0.33526E-05   168   0.557E-02    0.523E-03
DAV:  28    -0.199267915776E+02   -0.23046E-03   -0.16730E-05   168   0.445E-02    0.278E-03
DAV:  29    -0.199269691805E+02   -0.17760E-03   -0.88861E-06   136   0.311E-02    0.313E-03
DAV:  30    -0.199270290281E+02   -0.59848E-04   -0.54056E-06   128   0.309E-02
   1 F= -.19927029E+02 E0= -.19963482E+02  d E =0.109360E+00  mag=     0.0010
