unknown system                          
            1
    22.145462    0.000000    0.000000
     0.000000   21.969907    0.000000
     0.000000    0.000000   22.106779
   Au   Cu
     4     4
Direct configuration=     1
   0.59463066  0.46159640  0.58306325
   0.46426863  0.60129671  0.55501024
   0.41501442  0.41592162  0.53354262
   0.53110818  0.50051553  0.40535794
   0.48379465  0.49163000  0.58654182
   0.55243712  0.54141634  0.51104008
   0.52299503  0.43194073  0.49788019
   0.44622663  0.51434377  0.48161154
