   8   8   0   0
  0.1381669E+04  0.2264990E-08  0.2213198E-08  0.2204995E-08  0.5000000E-15
   1.0000000000000000E-004
  CAR 
 unknown system                          
      1.99393038    -12.78963414  301     -5.22112342      1.00000000
    -12.790  0.0000E+00  0.0000E+00  0.0000E+00  0.0000E+00
    -12.740  0.0000E+00  0.0000E+00  0.0000E+00  0.0000E+00
    -12.691  0.0000E+00  0.0000E+00  0.0000E+00  0.0000E+00
    -12.642  0.0000E+00  0.0000E+00  0.0000E+00  0.0000E+00
    -12.593  0.0000E+00  0.0000E+00  0.0000E+00  0.0000E+00
    -12.543  0.0000E+00  0.0000E+00  0.0000E+00  0.0000E+00
    -12.494  0.0000E+00  0.0000E+00  0.0000E+00  0.0000E+00
    -12.445  0.0000E+00  0.0000E+00  0.0000E+00  0.0000E+00
    -12.395 -0.4641E-29 -0.4641E-29 -0.2287E-30 -0.2287E-30
    -12.346 -0.2167E-27 -0.2167E-27 -0.1091E-28 -0.1091E-28
    -12.297 -0.9117E-26 -0.9117E-26 -0.4602E-27 -0.4602E-27
    -12.248 -0.3392E-24 -0.3392E-24 -0.1718E-25 -0.1718E-25
    -12.198 -0.1116E-22 -0.1116E-22 -0.5672E-24 -0.5672E-24
    -12.149 -0.3247E-21 -0.3247E-21 -0.1657E-22 -0.1657E-22
    -12.100 -0.8350E-20 -0.8350E-20 -0.4281E-21 -0.4281E-21
    -12.050 -0.1898E-18 -0.1898E-18 -0.9781E-20 -0.9781E-20
    -12.001 -0.3812E-17 -0.3812E-17 -0.1976E-18 -0.1976E-18
    -11.952 -0.6539E-16 -0.6539E-16 -0.3420E-17 -0.3420E-17
    -11.903 -0.1026E-14 -0.1026E-14 -0.5400E-16 -0.5400E-16
    -11.853 -0.1416E-13 -0.1416E-13 -0.7516E-15 -0.7516E-15
    -11.804 -0.1723E-12 -0.1723E-12 -0.9242E-14 -0.9242E-14
    -11.755 -0.1849E-11 -0.1849E-11 -0.1003E-12 -0.1003E-12
    -11.706 -0.1748E-10 -0.1748E-10 -0.9618E-12 -0.9618E-12
    -11.656 -0.1455E-09 -0.1455E-09 -0.8134E-11 -0.8134E-11
    -11.607 -0.1066E-08 -0.1066E-08 -0.6067E-10 -0.6067E-10
    -11.558 -0.6860E-08 -0.6860E-08 -0.3987E-09 -0.3987E-09
    -11.508 -0.3874E-07 -0.3874E-07 -0.2308E-08 -0.2308E-08
    -11.459 -0.1915E-06 -0.1915E-06 -0.1175E-07 -0.1175E-07
    -11.410 -0.8272E-06 -0.8272E-06 -0.5251E-07 -0.5251E-07
    -11.361 -0.3109E-05 -0.3109E-05 -0.2057E-06 -0.2057E-06
    -11.311 -0.1012E-04 -0.1012E-04 -0.7044E-06 -0.7044E-06
    -11.262 -0.2831E-04 -0.2831E-04 -0.2099E-05 -0.2099E-05
    -11.213 -0.6717E-04 -0.6717E-04 -0.5410E-05 -0.5410E-05
    -11.163 -0.1322E-03 -0.1322E-03 -0.1192E-04 -0.1192E-04
    -11.114 -0.2049E-03 -0.2049E-03 -0.2202E-04 -0.2202E-04
    -11.065 -0.2148E-03 -0.2148E-03 -0.3260E-04 -0.3260E-04
    -11.016 -0.2598E-04 -0.2598E-04 -0.3388E-04 -0.3388E-04
    -10.966  0.5166E-03  0.5166E-03 -0.8429E-05 -0.8429E-05
    -10.917  0.1471E-02  0.1471E-02  0.6404E-04  0.6404E-04
    -10.868  0.2672E-02  0.2672E-02  0.1957E-03  0.1957E-03
    -10.818  0.3726E-02  0.3726E-02  0.3793E-03  0.3793E-03
    -10.769  0.4193E-02  0.4193E-02  0.5859E-03  0.5859E-03
    -10.720  0.3858E-02  0.3858E-02  0.7760E-03  0.7760E-03
    -10.671  0.2876E-02  0.2876E-02  0.9177E-03  0.9177E-03
    -10.621  0.1667E-02  0.1667E-02  0.9999E-03  0.9999E-03
    -10.572  0.6517E-03  0.6517E-03  0.1032E-02  0.1032E-02
    -10.523  0.3708E-04  0.3708E-04  0.1034E-02  0.1034E-02
    -10.474 -0.2051E-03 -0.2051E-03  0.1024E-02  0.1024E-02
    -10.424 -0.2268E-03 -0.2268E-03  0.1013E-02  0.1013E-02
    -10.375 -0.1799E-03 -0.1799E-03  0.1004E-02  0.1004E-02
    -10.326 -0.1570E-03 -0.1570E-03  0.9959E-03  0.9959E-03
    -10.276 -0.1883E-03 -0.1883E-03  0.9866E-03  0.9866E-03
    -10.227 -0.2501E-03 -0.2501E-03  0.9743E-03  0.9743E-03
    -10.178 -0.2586E-03 -0.2586E-03  0.9616E-03  0.9616E-03
    -10.129 -0.7269E-04 -0.7269E-04  0.9580E-03  0.9580E-03
    -10.079  0.4597E-03  0.4597E-03  0.9806E-03  0.9806E-03
    -10.030  0.1404E-02  0.1404E-02  0.1050E-02  0.1050E-02
     -9.981  0.2659E-02  0.2659E-02  0.1181E-02  0.1181E-02
     -9.931  0.3983E-02  0.3983E-02  0.1377E-02  0.1377E-02
     -9.882  0.5141E-02  0.5141E-02  0.1631E-02  0.1631E-02
     -9.833  0.6039E-02  0.6039E-02  0.1928E-02  0.1928E-02
     -9.784  0.6715E-02  0.6715E-02  0.2259E-02  0.2259E-02
     -9.734  0.7191E-02  0.7191E-02  0.2613E-02  0.2613E-02
     -9.685  0.7350E-02  0.7350E-02  0.2976E-02  0.2976E-02
     -9.636  0.6977E-02  0.6977E-02  0.3319E-02  0.3319E-02
     -9.587  0.5941E-02  0.5941E-02  0.3612E-02  0.3612E-02
     -9.537  0.4353E-02  0.4353E-02  0.3827E-02  0.3827E-02
     -9.488  0.2559E-02  0.2559E-02  0.3953E-02  0.3953E-02
     -9.439  0.9950E-03  0.9950E-03  0.4002E-02  0.4002E-02
     -9.389  0.8822E-05  0.8823E-05  0.4002E-02  0.4002E-02
     -9.340 -0.2196E-03 -0.2196E-03  0.3991E-02  0.3991E-02
     -9.291  0.3272E-03  0.3272E-03  0.4008E-02  0.4008E-02
     -9.242  0.1541E-02  0.1541E-02  0.4084E-02  0.4084E-02
     -9.192  0.3223E-02  0.3223E-02  0.4242E-02  0.4242E-02
     -9.143  0.5119E-02  0.5119E-02  0.4495E-02  0.4495E-02
     -9.094  0.6972E-02  0.6972E-02  0.4838E-02  0.4838E-02
     -9.044  0.8530E-02  0.8530E-02  0.5259E-02  0.5259E-02
     -8.995  0.9555E-02  0.9555E-02  0.5729E-02  0.5729E-02
     -8.946  0.9851E-02  0.9851E-02  0.6215E-02  0.6215E-02
     -8.897  0.9373E-02  0.9373E-02  0.6677E-02  0.6677E-02
     -8.847  0.8307E-02  0.8307E-02  0.7086E-02  0.7086E-02
     -8.798  0.7040E-02  0.7040E-02  0.7433E-02  0.7433E-02
     -8.749  0.6029E-02  0.6029E-02  0.7730E-02  0.7730E-02
     -8.700  0.5608E-02  0.5608E-02  0.8006E-02  0.8006E-02
     -8.650  0.5831E-02  0.5831E-02  0.8294E-02  0.8294E-02
     -8.601  0.6435E-02  0.6435E-02  0.8611E-02  0.8611E-02
     -8.552  0.7030E-02  0.7030E-02  0.8957E-02  0.8957E-02
     -8.502  0.7436E-02  0.7436E-02  0.9324E-02  0.9324E-02
     -8.453  0.7873E-02  0.7873E-02  0.9712E-02  0.9712E-02
     -8.404  0.8780E-02  0.8780E-02  0.1014E-01  0.1014E-01
     -8.355  0.1034E-01  0.1034E-01  0.1065E-01  0.1065E-01
     -8.305  0.1219E-01  0.1219E-01  0.1125E-01  0.1125E-01
     -8.256  0.1361E-01  0.1361E-01  0.1193E-01  0.1193E-01
     -8.207  0.1402E-01  0.1402E-01  0.1262E-01  0.1262E-01
     -8.157  0.1341E-01  0.1341E-01  0.1328E-01  0.1328E-01
     -8.108  0.1220E-01  0.1220E-01  0.1388E-01  0.1388E-01
     -8.059  0.1085E-01  0.1085E-01  0.1441E-01  0.1441E-01
     -8.010  0.9577E-02  0.9577E-02  0.1489E-01  0.1489E-01
     -7.960  0.8434E-02  0.8434E-02  0.1530E-01  0.1530E-01
     -7.911  0.7549E-02  0.7549E-02  0.1567E-01  0.1567E-01
     -7.862  0.7140E-02  0.7140E-02  0.1602E-01  0.1602E-01
     -7.813  0.7268E-02  0.7268E-02  0.1638E-01  0.1638E-01
     -7.763  0.7641E-02  0.7641E-02  0.1676E-01  0.1676E-01
     -7.714  0.7799E-02  0.7799E-02  0.1714E-01  0.1714E-01
     -7.665  0.7579E-02  0.7579E-02  0.1752E-01  0.1752E-01
     -7.615  0.7355E-02  0.7355E-02  0.1788E-01  0.1788E-01
     -7.566  0.7740E-02  0.7740E-02  0.1826E-01  0.1826E-01
     -7.517  0.8991E-02  0.8991E-02  0.1870E-01  0.1870E-01
     -7.468  0.1073E-01  0.1073E-01  0.1923E-01  0.1923E-01
     -7.418  0.1220E-01  0.1220E-01  0.1983E-01  0.1983E-01
     -7.369  0.1290E-01  0.1290E-01  0.2047E-01  0.2047E-01
     -7.320  0.1286E-01  0.1286E-01  0.2110E-01  0.2110E-01
     -7.270  0.1252E-01  0.1252E-01  0.2172E-01  0.2172E-01
     -7.221  0.1230E-01  0.1230E-01  0.2233E-01  0.2233E-01
     -7.172  0.1232E-01  0.1232E-01  0.2293E-01  0.2293E-01
     -7.123  0.1233E-01  0.1233E-01  0.2354E-01  0.2354E-01
     -7.073  0.1195E-01  0.1195E-01  0.2413E-01  0.2413E-01
     -7.024  0.1101E-01  0.1101E-01  0.2467E-01  0.2467E-01
     -6.975  0.9861E-02  0.9861E-02  0.2516E-01  0.2516E-01
     -6.925  0.9356E-02  0.9356E-02  0.2562E-01  0.2562E-01
     -6.876  0.1040E-01  0.1040E-01  0.2613E-01  0.2613E-01
     -6.827  0.1335E-01  0.1335E-01  0.2679E-01  0.2679E-01
     -6.778  0.1759E-01  0.1759E-01  0.2766E-01  0.2766E-01
     -6.728  0.2177E-01  0.2177E-01  0.2873E-01  0.2873E-01
     -6.679  0.2453E-01  0.2453E-01  0.2994E-01  0.2994E-01
     -6.630  0.2525E-01  0.2525E-01  0.3118E-01  0.3118E-01
     -6.581  0.2428E-01  0.2428E-01  0.3238E-01  0.3238E-01
     -6.531  0.2253E-01  0.2253E-01  0.3349E-01  0.3349E-01
     -6.482  0.2071E-01  0.2071E-01  0.3451E-01  0.3451E-01
     -6.433  0.1894E-01  0.1894E-01  0.3544E-01  0.3544E-01
     -6.383  0.1685E-01  0.1685E-01  0.3627E-01  0.3627E-01
     -6.334  0.1412E-01  0.1412E-01  0.3697E-01  0.3697E-01
     -6.285  0.1097E-01  0.1097E-01  0.3751E-01  0.3751E-01
     -6.236  0.8152E-02  0.8152E-02  0.3791E-01  0.3791E-01
     -6.186  0.6573E-02  0.6573E-02  0.3824E-01  0.3824E-01
     -6.137  0.6794E-02  0.6794E-02  0.3857E-01  0.3857E-01
     -6.088  0.8709E-02  0.8709E-02  0.3900E-01  0.3900E-01
     -6.038  0.1156E-01  0.1156E-01  0.3957E-01  0.3957E-01
     -5.989  0.1419E-01  0.1419E-01  0.4027E-01  0.4027E-01
     -5.940  0.1548E-01  0.1548E-01  0.4103E-01  0.4103E-01
     -5.891  0.1476E-01  0.1476E-01  0.4176E-01  0.4176E-01
     -5.841  0.1212E-01  0.1212E-01  0.4236E-01  0.4236E-01
     -5.792  0.8351E-02  0.8351E-02  0.4277E-01  0.4277E-01
     -5.743  0.4544E-02  0.4544E-02  0.4299E-01  0.4299E-01
     -5.694  0.1600E-02  0.1600E-02  0.4307E-01  0.4307E-01
     -5.644 -0.4949E-04 -0.4948E-04  0.4307E-01  0.4307E-01
     -5.595 -0.4145E-03 -0.4145E-03  0.4305E-01  0.4305E-01
     -5.546  0.2373E-03  0.2373E-03  0.4306E-01  0.4306E-01
     -5.496  0.1508E-02  0.1508E-02  0.4313E-01  0.4313E-01
     -5.447  0.2902E-02  0.2902E-02  0.4328E-01  0.4328E-01
     -5.398  0.3893E-02  0.3893E-02  0.4347E-01  0.4347E-01
     -5.349  0.4104E-02  0.4104E-02  0.4367E-01  0.4367E-01
     -5.299  0.3491E-02  0.3491E-02  0.4384E-01  0.4384E-01
     -5.250  0.2369E-02  0.2369E-02  0.4396E-01  0.4396E-01
     -5.201  0.1203E-02  0.1203E-02  0.4402E-01  0.4402E-01
     -5.151  0.3450E-03  0.3450E-03  0.4404E-01  0.4404E-01
     -5.102 -0.9942E-04 -0.9942E-04  0.4403E-01  0.4403E-01
     -5.053 -0.2246E-03 -0.2246E-03  0.4402E-01  0.4402E-01
     -5.004 -0.1891E-03 -0.1891E-03  0.4401E-01  0.4401E-01
     -4.954 -0.1142E-03 -0.1142E-03  0.4400E-01  0.4400E-01
     -4.905 -0.5527E-04 -0.5527E-04  0.4400E-01  0.4400E-01
     -4.856 -0.2234E-04 -0.2234E-04  0.4400E-01  0.4400E-01
     -4.807 -0.7690E-05 -0.7690E-05  0.4400E-01  0.4400E-01
     -4.757 -0.2280E-05 -0.2280E-05  0.4400E-01  0.4400E-01
     -4.708 -0.5870E-06 -0.5870E-06  0.4400E-01  0.4400E-01
     -4.659 -0.1380E-06 -0.1380E-06  0.4400E-01  0.4400E-01
     -4.609 -0.6399E-07 -0.6399E-07  0.4400E-01  0.4400E-01
     -4.560 -0.1940E-06 -0.1940E-06  0.4400E-01  0.4400E-01
     -4.511 -0.8207E-06 -0.8207E-06  0.4400E-01  0.4400E-01
     -4.462 -0.3088E-05 -0.3088E-05  0.4400E-01  0.4400E-01
     -4.412 -0.1008E-04 -0.1008E-04  0.4400E-01  0.4400E-01
     -4.363 -0.2831E-04 -0.2831E-04  0.4400E-01  0.4400E-01
     -4.314 -0.6765E-04 -0.6765E-04  0.4399E-01  0.4399E-01
     -4.264 -0.1348E-03 -0.1348E-03  0.4399E-01  0.4399E-01
     -4.215 -0.2150E-03 -0.2150E-03  0.4398E-01  0.4398E-01
     -4.166 -0.2448E-03 -0.2448E-03  0.4397E-01  0.4397E-01
     -4.117 -0.9975E-04 -0.9975E-04  0.4396E-01  0.4396E-01
     -4.067  0.3669E-03  0.3669E-03  0.4398E-01  0.4398E-01
     -4.018  0.1226E-02  0.1226E-02  0.4404E-01  0.4404E-01
     -3.969  0.2376E-02  0.2376E-02  0.4416E-01  0.4416E-01
     -3.919  0.3557E-02  0.3557E-02  0.4433E-01  0.4433E-01
     -3.870  0.4502E-02  0.4502E-02  0.4455E-01  0.4455E-01
     -3.821  0.5121E-02  0.5121E-02  0.4481E-01  0.4481E-01
     -3.772  0.5532E-02  0.5532E-02  0.4508E-01  0.4508E-01
     -3.722  0.5902E-02  0.5902E-02  0.4537E-01  0.4537E-01
     -3.673  0.6256E-02  0.6256E-02  0.4568E-01  0.4568E-01
     -3.624  0.6449E-02  0.6449E-02  0.4600E-01  0.4599E-01
     -3.575  0.6312E-02  0.6312E-02  0.4631E-01  0.4631E-01
     -3.525  0.5846E-02  0.5846E-02  0.4659E-01  0.4659E-01
     -3.476  0.5261E-02  0.5261E-02  0.4685E-01  0.4685E-01
     -3.427  0.4821E-02  0.4821E-02  0.4709E-01  0.4709E-01
     -3.377  0.4604E-02  0.4604E-02  0.4732E-01  0.4732E-01
     -3.328  0.4420E-02  0.4420E-02  0.4754E-01  0.4754E-01
     -3.279  0.3967E-02  0.3967E-02  0.4773E-01  0.4773E-01
     -3.230  0.3106E-02  0.3106E-02  0.4788E-01  0.4788E-01
     -3.180  0.1988E-02  0.1988E-02  0.4798E-01  0.4798E-01
     -3.131  0.9333E-03  0.9333E-03  0.4803E-01  0.4803E-01
     -3.082  0.1974E-03  0.1974E-03  0.4804E-01  0.4804E-01
     -3.032 -0.1589E-03 -0.1589E-03  0.4803E-01  0.4803E-01
     -2.983 -0.2371E-03 -0.2371E-03  0.4802E-01  0.4802E-01
     -2.934 -0.1843E-03 -0.1843E-03  0.4801E-01  0.4801E-01
     -2.885 -0.1069E-03 -0.1069E-03  0.4800E-01  0.4800E-01
     -2.835 -0.5038E-04 -0.5038E-04  0.4800E-01  0.4800E-01
     -2.786 -0.1993E-04 -0.1993E-04  0.4800E-01  0.4800E-01
     -2.737 -0.6730E-05 -0.6730E-05  0.4800E-01  0.4800E-01
     -2.688 -0.1961E-05 -0.1961E-05  0.4800E-01  0.4800E-01
     -2.638 -0.4975E-06 -0.4975E-06  0.4800E-01  0.4800E-01
     -2.589 -0.1206E-06 -0.1206E-06  0.4800E-01  0.4800E-01
     -2.540 -0.8271E-07 -0.8271E-07  0.4800E-01  0.4800E-01
     -2.490 -0.2971E-06 -0.2971E-06  0.4800E-01  0.4800E-01
     -2.441 -0.1220E-05 -0.1220E-05  0.4800E-01  0.4800E-01
     -2.392 -0.4404E-05 -0.4404E-05  0.4800E-01  0.4800E-01
     -2.343 -0.1375E-04 -0.1375E-04  0.4800E-01  0.4800E-01
     -2.293 -0.3678E-04 -0.3678E-04  0.4800E-01  0.4800E-01
     -2.244 -0.8307E-04 -0.8307E-04  0.4799E-01  0.4799E-01
     -2.195 -0.1541E-03 -0.1541E-03  0.4799E-01  0.4799E-01
     -2.145 -0.2203E-03 -0.2203E-03  0.4797E-01  0.4797E-01
     -2.096 -0.1938E-03 -0.1938E-03  0.4797E-01  0.4797E-01
     -2.047  0.7016E-04  0.7017E-04  0.4797E-01  0.4797E-01
     -1.998  0.7055E-03  0.7055E-03  0.4800E-01  0.4800E-01
     -1.948  0.1708E-02  0.1708E-02  0.4809E-01  0.4809E-01
     -1.899  0.2840E-02  0.2840E-02  0.4823E-01  0.4823E-01
     -1.850  0.3707E-02  0.3707E-02  0.4841E-01  0.4841E-01
     -1.801  0.3997E-02  0.3997E-02  0.4861E-01  0.4861E-01
     -1.751  0.3742E-02  0.3742E-02  0.4879E-01  0.4879E-01
     -1.702  0.3311E-02  0.3311E-02  0.4895E-01  0.4895E-01
     -1.653  0.3120E-02  0.3120E-02  0.4911E-01  0.4911E-01
     -1.603  0.3281E-02  0.3281E-02  0.4927E-01  0.4927E-01
     -1.554  0.3558E-02  0.3558E-02  0.4945E-01  0.4945E-01
     -1.505  0.3671E-02  0.3671E-02  0.4963E-01  0.4963E-01
     -1.456  0.3650E-02  0.3650E-02  0.4981E-01  0.4981E-01
     -1.406  0.3874E-02  0.3874E-02  0.5000E-01  0.5000E-01
     -1.357  0.4700E-02  0.4700E-02  0.5023E-01  0.5023E-01
     -1.308  0.6036E-02  0.6036E-02  0.5053E-01  0.5053E-01
     -1.258  0.7255E-02  0.7255E-02  0.5088E-01  0.5088E-01
     -1.209  0.7592E-02  0.7592E-02  0.5126E-01  0.5126E-01
     -1.160  0.6678E-02  0.6678E-02  0.5159E-01  0.5159E-01
     -1.111  0.4815E-02  0.4815E-02  0.5182E-01  0.5182E-01
     -1.061  0.2793E-02  0.2793E-02  0.5196E-01  0.5196E-01
     -1.012  0.1430E-02  0.1430E-02  0.5203E-01  0.5203E-01
     -0.963  0.1159E-02  0.1159E-02  0.5209E-01  0.5209E-01
     -0.914  0.1853E-02  0.1853E-02  0.5218E-01  0.5218E-01
     -0.864  0.2943E-02  0.2943E-02  0.5233E-01  0.5233E-01
     -0.815  0.3726E-02  0.3726E-02  0.5251E-01  0.5251E-01
     -0.766  0.3734E-02  0.3734E-02  0.5269E-01  0.5269E-01
     -0.716  0.2981E-02  0.2981E-02  0.5284E-01  0.5284E-01
     -0.667  0.1926E-02  0.1926E-02  0.5294E-01  0.5294E-01
     -0.618  0.1191E-02  0.1191E-02  0.5299E-01  0.5299E-01
     -0.569  0.1204E-02  0.1205E-02  0.5305E-01  0.5305E-01
     -0.519  0.1996E-02  0.1996E-02  0.5315E-01  0.5315E-01
     -0.470  0.3234E-02  0.3234E-02  0.5331E-01  0.5331E-01
     -0.421  0.4454E-02  0.4454E-02  0.5353E-01  0.5353E-01
     -0.371  0.5298E-02  0.5298E-02  0.5379E-01  0.5379E-01
     -0.322  0.5634E-02  0.5634E-02  0.5407E-01  0.5407E-01
     -0.273  0.5514E-02  0.5514E-02  0.5434E-01  0.5434E-01
     -0.224  0.5100E-02  0.5100E-02  0.5459E-01  0.5459E-01
     -0.174  0.4623E-02  0.4623E-02  0.5482E-01  0.5482E-01
     -0.125  0.4313E-02  0.4313E-02  0.5503E-01  0.5503E-01
     -0.076  0.4260E-02  0.4260E-02  0.5524E-01  0.5524E-01
     -0.026  0.4303E-02  0.4303E-02  0.5545E-01  0.5545E-01
      0.023  0.4119E-02  0.4119E-02  0.5566E-01  0.5566E-01
      0.072  0.3478E-02  0.3478E-02  0.5583E-01  0.5583E-01
      0.121  0.2444E-02  0.2444E-02  0.5595E-01  0.5595E-01
      0.171  0.1324E-02  0.1324E-02  0.5601E-01  0.5601E-01
      0.220  0.4415E-03  0.4415E-03  0.5604E-01  0.5604E-01
      0.269 -0.5803E-04 -0.5803E-04  0.5603E-01  0.5603E-01
      0.318 -0.2264E-03 -0.2264E-03  0.5602E-01  0.5602E-01
      0.368 -0.2086E-03 -0.2086E-03  0.5601E-01  0.5601E-01
      0.417 -0.1331E-03 -0.1331E-03  0.5601E-01  0.5601E-01
      0.466 -0.6740E-04 -0.6740E-04  0.5600E-01  0.5600E-01
      0.516 -0.2835E-04 -0.2835E-04  0.5600E-01  0.5600E-01
      0.565 -0.1013E-04 -0.1013E-04  0.5600E-01  0.5600E-01
      0.614 -0.3110E-05 -0.3111E-05  0.5600E-01  0.5600E-01
      0.663 -0.8273E-06 -0.8274E-06  0.5600E-01  0.5600E-01
      0.713 -0.1915E-06 -0.1916E-06  0.5600E-01  0.5600E-01
      0.762 -0.3874E-07 -0.3874E-07  0.5600E-01  0.5600E-01
      0.811 -0.6860E-08 -0.6861E-08  0.5600E-01  0.5600E-01
      0.861 -0.1066E-08 -0.1066E-08  0.5600E-01  0.5600E-01
      0.910 -0.1455E-09 -0.1455E-09  0.5600E-01  0.5600E-01
      0.959 -0.1748E-10 -0.1748E-10  0.5600E-01  0.5600E-01
      1.008 -0.1849E-11 -0.1849E-11  0.5600E-01  0.5600E-01
      1.058 -0.1723E-12 -0.1723E-12  0.5600E-01  0.5600E-01
      1.107 -0.1416E-13 -0.1416E-13  0.5600E-01  0.5600E-01
      1.156 -0.1027E-14 -0.1027E-14  0.5600E-01  0.5600E-01
      1.205 -0.6308E-16 -0.6308E-16  0.5600E-01  0.5600E-01
      1.255 -0.4506E-17 -0.4506E-17  0.5600E-01  0.5600E-01
      1.304  0.0000E+00  0.0000E+00  0.5600E-01  0.5600E-01
      1.353  0.0000E+00  0.0000E+00  0.5600E-01  0.5600E-01
      1.403  0.0000E+00  0.0000E+00  0.5600E-01  0.5600E-01
      1.452  0.0000E+00  0.0000E+00  0.5600E-01  0.5600E-01
      1.501  0.0000E+00  0.0000E+00  0.5600E-01  0.5600E-01
      1.550  0.0000E+00  0.0000E+00  0.5600E-01  0.5600E-01
      1.600  0.0000E+00  0.0000E+00  0.5600E-01  0.5600E-01
      1.649  0.0000E+00  0.0000E+00  0.5600E-01  0.5600E-01
      1.698  0.0000E+00  0.0000E+00  0.5600E-01  0.5600E-01
      1.748  0.0000E+00  0.0000E+00  0.5600E-01  0.5600E-01
      1.797  0.0000E+00  0.0000E+00  0.5600E-01  0.5600E-01
      1.846  0.0000E+00  0.0000E+00  0.5600E-01  0.5600E-01
      1.895  0.0000E+00  0.0000E+00  0.5600E-01  0.5600E-01
      1.945  0.0000E+00  0.0000E+00  0.5600E-01  0.5600E-01
      1.994  0.0000E+00  0.0000E+00  0.5600E-01  0.5600E-01
