    8    8 1000    2
  0.1381669E+04  0.2264990E-08  0.2213198E-08  0.2204995E-08  0.5000000E-15
   1.0000000000000000E-004
  CAR 
 unknown system                          
     88      1     56
 
  0.1262379E-14  0.1262379E-14  0.1262379E-14  0.1000000E+01
    1      -10.789634    -10.789634   1.000000   1.000000
    2       -9.912586     -9.912586   1.000000   1.000000
    3       -9.740484     -9.740483   1.000000   1.000000
    4       -9.613393     -9.613393   1.000000   1.000000
    5       -9.143917     -9.143917   1.000000   1.000000
    6       -8.998344     -8.998344   1.000000   1.000000
    7       -8.940273     -8.940272   1.000000   1.000000
    8       -8.794589     -8.794589   1.000000   1.000000
    9       -8.597684     -8.597683   1.000000   1.000000
   10       -8.507799     -8.507799   1.000000   1.000000
   11       -8.331766     -8.331766   1.000000   1.000000
   12       -8.269221     -8.269221   1.000000   1.000000
   13       -8.250033     -8.250033   1.000000   1.000000
   14       -8.146516     -8.146516   1.000000   1.000000
   15       -8.039590     -8.039590   1.000000   1.000000
   16       -7.954701     -7.954701   1.000000   1.000000
   17       -7.752424     -7.752424   1.000000   1.000000
   18       -7.717273     -7.717273   1.000000   1.000000
   19       -7.500766     -7.500766   1.000000   1.000000
   20       -7.441530     -7.441530   1.000000   1.000000
   21       -7.393918     -7.393918   1.000000   1.000000
   22       -7.279448     -7.279448   1.000000   1.000000
   23       -7.214212     -7.214212   1.000000   1.000000
   24       -7.098051     -7.098051   1.000000   1.000000
   25       -7.070804     -7.070804   1.000000   1.000000
   26       -6.965333     -6.965333   1.000000   1.000000
   27       -6.806788     -6.806788   1.000000   1.000000
   28       -6.762260     -6.762260   1.000000   1.000000
   29       -6.729103     -6.729103   1.000000   1.000000
   30       -6.687279     -6.687279   1.000000   1.000000
   31       -6.673206     -6.673206   1.000000   1.000000
   32       -6.648818     -6.648818   1.000000   1.000000
   33       -6.577007     -6.577007   1.000000   1.000000
   34       -6.532864     -6.532864   1.000000   1.000000
   35       -6.468381     -6.468381   1.000000   1.000000
   36       -6.427966     -6.427966   1.000000   1.000000
   37       -6.364588     -6.364588   1.000000   1.000000
   38       -6.328663     -6.328663   1.000000   1.000000
   39       -6.127574     -6.127574   1.000000   1.000000
   40       -6.004667     -6.004667   1.000000   1.000000
   41       -5.970919     -5.970919   1.000001   1.000001
   42       -5.918219     -5.918219   1.000005   1.000005
   43       -5.863091     -5.863091   1.000028   1.000028
   44       -5.389470     -5.389469   0.999967   0.999967
   45       -3.890284     -3.890284  -0.000000  -0.000000
   46       -3.694130     -3.694130  -0.000000  -0.000000
   47       -3.550312     -3.550312  -0.000000  -0.000000
   48       -3.325525     -3.325525  -0.000000  -0.000000
   49       -1.834852     -1.834852  -0.000000  -0.000000
   50       -1.545236     -1.545234  -0.000000  -0.000000
   51       -1.277198     -1.277198  -0.000000  -0.000000
   52       -1.203760     -1.203760  -0.000000  -0.000000
   53       -0.816670     -0.816669  -0.000000  -0.000000
   54       -0.428783     -0.428783  -0.000000  -0.000000
   55       -0.246547     -0.246547  -0.000000  -0.000000
   56       -0.006071     -0.006070  -0.000000  -0.000000
