       N       E                     dE             d eps       ncg     rms          rms(c)
DAV:   1     0.752405171829E+03    0.75241E+03   -0.13341E+04   224   0.706E+02
DAV:   2     0.447407492298E+03   -0.30500E+03   -0.28621E+03   432   0.789E+01
DAV:   3     0.125126208557E+03   -0.32228E+03   -0.30224E+03   400   0.700E+01
DAV:   4     0.361249095388E+01   -0.12151E+03   -0.11526E+03   312   0.518E+01
DAV:   5    -0.147513158706E+02   -0.18364E+02   -0.17441E+02   288   0.205E+01    0.225E+01
DAV:   6    -0.256854104215E+01    0.12183E+02   -0.45986E+01   248   0.192E+01    0.147E+01
DAV:   7    -0.524558189724E+01   -0.26770E+01   -0.33178E+00   248   0.890E+00    0.644E+00
DAV:   8    -0.795832621574E+01   -0.27127E+01   -0.14427E+00   256   0.405E+00    0.218E+00
DAV:   9    -0.910299199568E+01   -0.11447E+01   -0.24074E-01   256   0.199E+00    0.145E+00
DAV:  10    -0.975562958701E+01   -0.65264E+00   -0.96238E-02   256   0.115E+00    0.126E+00
DAV:  11    -0.109098069435E+02   -0.11542E+01   -0.21953E-01   240   0.147E+00    0.108E+00
DAV:  12    -0.122666439263E+02   -0.13568E+01   -0.44058E-01   224   0.228E+00    0.688E-01
DAV:  13    -0.131977787058E+02   -0.93113E+00   -0.29011E-01   256   0.140E+00    0.489E-01
DAV:  14    -0.138044967150E+02   -0.60672E+00   -0.17140E-01   240   0.106E+00    0.335E-01
DAV:  15    -0.142270691822E+02   -0.42257E+00   -0.45333E-02   264   0.491E-01    0.229E-01
DAV:  16    -0.146978947484E+02   -0.47083E+00   -0.36849E-02   232   0.544E-01    0.140E-01
DAV:  17    -0.148473455198E+02   -0.14945E+00   -0.44986E-03   256   0.250E-01    0.855E-02
DAV:  18    -0.149581137764E+02   -0.11077E+00   -0.47956E-03   248   0.191E-01    0.507E-02
DAV:  19    -0.149987916969E+02   -0.40678E-01   -0.75617E-04   208   0.749E-02    0.248E-02
DAV:  20    -0.150146707026E+02   -0.15879E-01   -0.25628E-04   184   0.358E-02    0.161E-02
DAV:  21    -0.150222545739E+02   -0.75839E-02   -0.15012E-04   160   0.282E-02    0.949E-03
DAV:  22    -0.150251273423E+02   -0.28728E-02   -0.79966E-05   176   0.232E-02    0.641E-03
DAV:  23    -0.150260912754E+02   -0.96393E-03   -0.24944E-05   176   0.122E-02    0.441E-03
DAV:  24    -0.150272510423E+02   -0.11598E-02   -0.29242E-05   176   0.114E-02    0.295E-03
DAV:  25    -0.150279945337E+02   -0.74349E-03   -0.11097E-05   176   0.746E-03    0.205E-03
DAV:  26    -0.150285417467E+02   -0.54721E-03   -0.45161E-06   176   0.598E-03    0.122E-03
DAV:  27    -0.150288265767E+02   -0.28483E-03   -0.23873E-06   168   0.387E-03    0.700E-04
DAV:  28    -0.150289038483E+02   -0.77272E-04   -0.93925E-07   160   0.231E-03
   1 F= -.15028904E+02 E0= -.15035634E+02  d E =-.150289E+02  mag=    -0.0000
       N       E                     dE             d eps       ncg     rms          rms(c)
DAV:   1    -0.153258113028E+02   -0.29698E+00   -0.51951E+02   224   0.809E+01    0.515E+00
DAV:   2    -0.157982233457E+02   -0.47241E+00   -0.51416E+00   256   0.108E+01    0.349E+00
DAV:   3    -0.157737780447E+02    0.24445E-01   -0.30296E-01   240   0.234E+00    0.191E+00
DAV:   4    -0.157761042345E+02   -0.23262E-02   -0.42486E-02   256   0.122E+00    0.337E-01
DAV:   5    -0.157715036846E+02    0.46005E-02   -0.13873E-02   248   0.542E-01    0.157E-01
DAV:   6    -0.157710723044E+02    0.43138E-03   -0.46321E-03   256   0.212E-01    0.434E-02
DAV:   7    -0.157711310394E+02   -0.58735E-04   -0.12231E-04   192   0.531E-02
   2 F= -.15771131E+02 E0= -.15784116E+02  d E =-.742227E+00  mag=    -0.0000
       N       E                     dE             d eps       ncg     rms          rms(c)
DAV:   1    -0.157711522522E+02   -0.79948E-04   -0.45320E+00   224   0.737E+00    0.400E-01
DAV:   2    -0.157757467871E+02   -0.45945E-02   -0.50665E-02   256   0.107E+00    0.239E-01
DAV:   3    -0.157755143556E+02    0.23243E-03   -0.27060E-03   256   0.220E-01    0.147E-01
DAV:   4    -0.157755915949E+02   -0.77239E-04   -0.48551E-04   248   0.105E-01
   3 F= -.15775592E+02 E0= -.15789056E+02  d E =-.746688E+00  mag=    -0.0000
       N       E                     dE             d eps       ncg     rms          rms(c)
DAV:   1    -0.158007743006E+02   -0.25260E-01   -0.18321E+01   224   0.148E+01    0.572E-01
DAV:   2    -0.158193632347E+02   -0.18589E-01   -0.21626E-01   240   0.225E+00    0.447E-01
DAV:   3    -0.158187178005E+02    0.64543E-03   -0.78247E-03   256   0.435E-01    0.260E-01
DAV:   4    -0.158184105815E+02    0.30722E-03   -0.19315E-03   256   0.174E-01    0.101E-01
DAV:   5    -0.158184692187E+02   -0.58637E-04   -0.14948E-04   160   0.642E-02
   4 F= -.15818469E+02 E0= -.15834014E+02  d E =-.428776E-01  mag=    -0.0000
       N       E                     dE             d eps       ncg     rms          rms(c)
DAV:   1    -0.158049063686E+02    0.13504E-01   -0.34233E+01   224   0.203E+01    0.761E-01
DAV:   2    -0.158397403265E+02   -0.34834E-01   -0.39795E-01   256   0.304E+00    0.574E-01
DAV:   3    -0.158386182397E+02    0.11221E-02   -0.13787E-02   256   0.549E-01    0.345E-01
DAV:   4    -0.158380440778E+02    0.57416E-03   -0.35414E-03   256   0.236E-01    0.122E-01
DAV:   5    -0.158380999772E+02   -0.55899E-04   -0.22290E-04   192   0.800E-02
   5 F= -.15838100E+02 E0= -.15854874E+02  d E =-.625084E-01  mag=    -0.0000
       N       E                     dE             d eps       ncg     rms          rms(c)
DAV:   1    -0.158454447151E+02   -0.74006E-02   -0.19030E+01   224   0.151E+01    0.464E-01
DAV:   2    -0.158651578376E+02   -0.19713E-01   -0.21641E-01   256   0.223E+00    0.317E-01
DAV:   3    -0.158643677238E+02    0.79011E-03   -0.69475E-03   256   0.387E-01    0.197E-01
DAV:   4    -0.158638402267E+02    0.52750E-03   -0.21184E-03   256   0.185E-01    0.754E-02
DAV:   5    -0.158638374775E+02    0.27492E-05   -0.18851E-04   176   0.665E-02
   6 F= -.15863837E+02 E0= -.15872566E+02  d E =-.257375E-01  mag=    -0.0000
       N       E                     dE             d eps       ncg     rms          rms(c)
DAV:   1    -0.158562781157E+02    0.75621E-02   -0.14407E+01   224   0.131E+01    0.415E-01
DAV:   2    -0.158712708375E+02   -0.14993E-01   -0.16444E-01   256   0.194E+00    0.282E-01
DAV:   3    -0.158707135786E+02    0.55726E-03   -0.52455E-03   256   0.336E-01    0.174E-01
DAV:   4    -0.158704130485E+02    0.30053E-03   -0.14716E-03   256   0.148E-01    0.639E-02
DAV:   5    -0.158704648986E+02   -0.51850E-04   -0.10484E-04   160   0.492E-02
   7 F= -.15870465E+02 E0= -.15876303E+02  d E =-.323649E-01  mag=    -0.0000
       N       E                     dE             d eps       ncg     rms          rms(c)
DAV:   1    -0.158782056272E+02   -0.77926E-02   -0.81012E+00   224   0.978E+00    0.356E-01
DAV:   2    -0.158865002483E+02   -0.82946E-02   -0.94153E-02   256   0.145E+00    0.250E-01
DAV:   3    -0.158862480957E+02    0.25215E-03   -0.31983E-03   240   0.262E-01    0.142E-01
DAV:   4    -0.158861749810E+02    0.73115E-04   -0.67897E-04   256   0.113E-01
   8 F= -.15886175E+02 E0= -.15891876E+02  d E =-.157101E-01  mag=    -0.0000
       N       E                     dE             d eps       ncg     rms          rms(c)
DAV:   1    -0.158784410476E+02    0.78070E-02   -0.15964E+01   224   0.137E+01    0.486E-01
DAV:   2    -0.158947191739E+02   -0.16278E-01   -0.18698E-01   256   0.204E+00    0.338E-01
DAV:   3    -0.158942632021E+02    0.45597E-03   -0.62376E-03   240   0.369E-01    0.192E-01
DAV:   4    -0.158940552967E+02    0.20791E-03   -0.11990E-03   256   0.153E-01    0.807E-02
DAV:   5    -0.158941081058E+02   -0.52809E-04   -0.13300E-04   160   0.649E-02
   9 F= -.15894108E+02 E0= -.15899581E+02  d E =-.236432E-01  mag=    -0.0000
       N       E                     dE             d eps       ncg     rms          rms(c)
DAV:   1    -0.158968673021E+02   -0.28120E-02   -0.10496E+01   224   0.111E+01    0.290E-01
DAV:   2    -0.159078005480E+02   -0.10933E-01   -0.11951E-01   256   0.161E+00    0.191E-01
DAV:   3    -0.159074910689E+02    0.30948E-03   -0.35480E-03   256   0.262E-01    0.128E-01
DAV:   4    -0.159072871692E+02    0.20390E-03   -0.83759E-04   256   0.109E-01    0.462E-02
DAV:   5    -0.159073233859E+02   -0.36217E-04   -0.10562E-04   160   0.468E-02
  10 F= -.15907323E+02 E0= -.15912690E+02  d E =-.132153E-01  mag=    -0.0000
       N       E                     dE             d eps       ncg     rms          rms(c)
DAV:   1    -0.158902463801E+02    0.17041E-01   -0.23827E+01   224   0.167E+01    0.444E-01
DAV:   2    -0.159149589360E+02   -0.24713E-01   -0.27044E-01   256   0.242E+00    0.292E-01
DAV:   3    -0.159142356087E+02    0.72333E-03   -0.80626E-03   256   0.395E-01    0.194E-01
DAV:   4    -0.159137311909E+02    0.50442E-03   -0.19528E-03   256   0.166E-01    0.691E-02
DAV:   5    -0.159137796935E+02   -0.48503E-04   -0.23308E-04   176   0.699E-02
  11 F= -.15913780E+02 E0= -.15918977E+02  d E =-.196716E-01  mag=    -0.0000
       N       E                     dE             d eps       ncg     rms          rms(c)
DAV:   1    -0.159135245445E+02    0.20665E-03   -0.11607E+01   224   0.115E+01    0.232E-01
DAV:   2    -0.159258557187E+02   -0.12331E-01   -0.12735E-01   256   0.166E+00    0.179E-01
DAV:   3    -0.159254871774E+02    0.36854E-03   -0.33783E-03   256   0.259E-01    0.131E-01
DAV:   4    -0.159251270874E+02    0.36009E-03   -0.81767E-04   256   0.997E-02    0.551E-02
DAV:   5    -0.159251429133E+02   -0.15826E-04   -0.37935E-04   224   0.661E-02
  12 F= -.15925143E+02 E0= -.15929991E+02  d E =-.113632E-01  mag=    -0.0000
       N       E                     dE             d eps       ncg     rms          rms(c)
DAV:   1    -0.158464568033E+02    0.78670E-01   -0.10539E+02   224   0.347E+01    0.734E-01
DAV:   2    -0.159565784952E+02   -0.11012E+00   -0.11342E+00   256   0.495E+00    0.540E-01
DAV:   3    -0.159531727186E+02    0.34058E-02   -0.30552E-02   256   0.778E-01    0.389E-01
DAV:   4    -0.159497485556E+02    0.34242E-02   -0.81656E-03   256   0.313E-01    0.153E-01
DAV:   5    -0.159497418679E+02    0.66877E-05   -0.25499E-03   256   0.170E-01    0.616E-02
DAV:   6    -0.159497428864E+02   -0.10186E-05   -0.29064E-04   176   0.599E-02
  13 F= -.15949743E+02 E0= -.15953978E+02  d E =-.359632E-01  mag=     0.0000
       N       E                     dE             d eps       ncg     rms          rms(c)
DAV:   1    -0.155371206138E+02    0.41262E+00   -0.43298E+02   224   0.712E+01    0.172E+00
DAV:   2    -0.159695893702E+02   -0.43247E+00   -0.44459E+00   256   0.982E+00    0.112E+00
DAV:   3    -0.159568730739E+02    0.12716E-01   -0.12096E-01   256   0.155E+00    0.757E-01
DAV:   4    -0.159447117089E+02    0.12161E-01   -0.33463E-02   224   0.640E-01    0.297E-01
DAV:   5    -0.159447841652E+02   -0.72456E-04   -0.58230E-03   256   0.271E-01    0.115E-01
DAV:   6    -0.159448025096E+02   -0.18344E-04   -0.10368E-03   224   0.107E-01    0.463E-02
DAV:   7    -0.159449637734E+02   -0.16126E-03   -0.38841E-05   160   0.280E-02    0.147E-02
DAV:   8    -0.159450718194E+02   -0.10805E-03   -0.21875E-05   144   0.158E-02    0.517E-03
DAV:   9    -0.159452021293E+02   -0.13031E-03   -0.15027E-05   160   0.107E-02    0.253E-03
DAV:  10    -0.159452627146E+02   -0.60585E-04   -0.65602E-06   176   0.614E-03
  14 F= -.15945263E+02 E0= -.15949166E+02  d E =-.314830E-01  mag=     0.0000
       N       E                     dE             d eps       ncg     rms          rms(c)
DAV:   1    -0.158145290453E+02    0.13067E+00   -0.14821E+02   224   0.411E+01    0.806E-01
DAV:   2    -0.159668610720E+02   -0.15233E+00   -0.15718E+00   256   0.583E+00    0.690E-01
DAV:   3    -0.159630604259E+02    0.38006E-02   -0.41105E-02   240   0.908E-01    0.507E-01
DAV:   4    -0.159579467055E+02    0.51137E-02   -0.10508E-02   240   0.359E-01    0.235E-01
DAV:   5    -0.159577406344E+02    0.20607E-03   -0.53998E-03   256   0.247E-01    0.956E-02
DAV:   6    -0.159576846947E+02    0.55940E-04   -0.32303E-04   224   0.691E-02
  15 F= -.15957685E+02 E0= -.15961705E+02  d E =-.439050E-01  mag=     0.0000
       N       E                     dE             d eps       ncg     rms          rms(c)
DAV:   1    -0.159614814182E+02   -0.37408E-02   -0.55444E+00   224   0.784E+00    0.132E-01
DAV:   2    -0.159673200985E+02   -0.58387E-02   -0.59299E-02   256   0.112E+00    0.123E-01
DAV:   3    -0.159671775695E+02    0.14253E-03   -0.14994E-03   256   0.172E-01    0.956E-02
DAV:   4    -0.159669931730E+02    0.18440E-03   -0.32217E-04   176   0.644E-02    0.475E-02
DAV:   5    -0.159669952452E+02   -0.20722E-05   -0.38631E-04   224   0.672E-02
  16 F= -.15966995E+02 E0= -.15970981E+02  d E =-.931055E-02  mag=     0.0000
       N       E                     dE             d eps       ncg     rms          rms(c)
DAV:   1    -0.159434363488E+02    0.23557E-01   -0.50009E+01   224   0.236E+01    0.406E-01
DAV:   2    -0.159959341691E+02   -0.52498E-01   -0.53619E-01   256   0.338E+00    0.370E-01
DAV:   3    -0.159946167483E+02    0.13174E-02   -0.13559E-02   256   0.518E-01    0.283E-01
DAV:   4    -0.159927724480E+02    0.18443E-02   -0.30541E-03   240   0.194E-01    0.139E-01
DAV:   5    -0.159925803480E+02    0.19210E-03   -0.27929E-03   256   0.171E-01    0.573E-02
DAV:   6    -0.159925638700E+02    0.16478E-04   -0.15929E-04   176   0.479E-02
  17 F= -.15992564E+02 E0= -.15996485E+02  d E =-.348792E-01  mag=     0.0000
       N       E                     dE             d eps       ncg     rms          rms(c)
DAV:   1    -0.158406347270E+02    0.15195E+00   -0.20307E+02   224   0.479E+01    0.833E-01
DAV:   2    -0.160476841625E+02   -0.20705E+00   -0.21126E+00   256   0.675E+00    0.768E-01
DAV:   3    -0.160428333472E+02    0.48508E-02   -0.53306E-02   256   0.103E+00    0.579E-01
DAV:   4    -0.160354445686E+02    0.73888E-02   -0.12236E-02   224   0.390E-01    0.299E-01
DAV:   5    -0.160345496423E+02    0.89493E-03   -0.97019E-03   256   0.322E-01    0.118E-01
DAV:   6    -0.160345615558E+02   -0.11914E-04   -0.54808E-04   240   0.861E-02
  18 F= -.16034562E+02 E0= -.16038437E+02  d E =-.768769E-01  mag=     0.0000
       N       E                     dE             d eps       ncg     rms          rms(c)
DAV:   1    -0.152916093916E+02    0.74294E+00   -0.85605E+02   224   0.101E+02    0.216E+00
DAV:   2    -0.161164072881E+02   -0.82480E+00   -0.83999E+00   256   0.135E+01    0.183E+00
DAV:   3    -0.161023446686E+02    0.14063E-01   -0.21253E-01   272   0.206E+00    0.123E+00
DAV:   4    -0.160781259980E+02    0.24219E-01   -0.43508E-02   256   0.753E-01    0.750E-01
DAV:   5    -0.160747962010E+02    0.33298E-02   -0.26401E-02   224   0.546E-01    0.292E-01
DAV:   6    -0.160749437572E+02   -0.14756E-03   -0.12402E-03   240   0.139E-01    0.154E-01
DAV:   7    -0.160752153763E+02   -0.27162E-03   -0.13514E-04   176   0.570E-02    0.546E-02
DAV:   8    -0.160753841020E+02   -0.16873E-03   -0.38990E-05   144   0.266E-02    0.194E-02
DAV:   9    -0.160755088512E+02   -0.12475E-03   -0.15303E-05   176   0.146E-02    0.802E-03
DAV:  10    -0.160756701311E+02   -0.16128E-03   -0.19332E-05   144   0.114E-02    0.483E-03
DAV:  11    -0.160757743080E+02   -0.10418E-03   -0.10068E-05   176   0.784E-03    0.150E-03
DAV:  12    -0.160758350555E+02   -0.60748E-04   -0.63687E-06   144   0.548E-03
  19 F= -.16075835E+02 E0= -.16079701E+02  d E =-.118150E+00  mag=     0.0000
       N       E                     dE             d eps       ncg     rms          rms(c)
DAV:   1    -0.160784581133E+02   -0.26838E-02   -0.12588E+01   224   0.118E+01    0.204E-01
DAV:   2    -0.160917259318E+02   -0.13268E-01   -0.13640E-01   256   0.171E+00    0.189E-01
DAV:   3    -0.160914210100E+02    0.30492E-03   -0.34559E-03   272   0.262E-01    0.144E-01
DAV:   4    -0.160909838449E+02    0.43717E-03   -0.76630E-04   240   0.969E-02    0.729E-02
DAV:   5    -0.160909585969E+02    0.25248E-04   -0.75269E-04   256   0.902E-02
  20 F= -.16090959E+02 E0= -.16094824E+02  d E =-.151235E-01  mag=     0.0000
       N       E                     dE             d eps       ncg     rms          rms(c)
DAV:   1    -0.160222038448E+02    0.68780E-01   -0.11441E+02   224   0.359E+01    0.610E-01
DAV:   2    -0.161406953499E+02   -0.11849E+00   -0.12196E+00   256   0.511E+00    0.581E-01
DAV:   3    -0.161383617901E+02    0.23336E-02   -0.30611E-02   240   0.784E-01    0.439E-01
DAV:   4    -0.161344333999E+02    0.39284E-02   -0.64028E-03   256   0.285E-01    0.235E-01
DAV:   5    -0.161340089059E+02    0.42449E-03   -0.63775E-03   224   0.263E-01    0.970E-02
DAV:   6    -0.161339586550E+02    0.50251E-04   -0.37426E-04   208   0.729E-02
  21 F= -.16133959E+02 E0= -.16137824E+02  d E =-.581236E-01  mag=     0.0000
       N       E                     dE             d eps       ncg     rms          rms(c)
DAV:   1    -0.157639290076E+02    0.37008E+00   -0.47296E+02   224   0.742E+01    0.129E+00
DAV:   2    -0.162291896909E+02   -0.46526E+00   -0.47860E+00   256   0.102E+01    0.127E+00
DAV:   3    -0.162224062203E+02    0.67835E-02   -0.11896E-01   240   0.156E+00    0.923E-01
DAV:   4    -0.162080043758E+02    0.14402E-01   -0.22017E-02   256   0.543E-01    0.567E-01
DAV:   5    -0.162053962760E+02    0.26081E-02   -0.20029E-02   224   0.472E-01    0.229E-01
DAV:   6    -0.162055011139E+02   -0.10484E-03   -0.63261E-04   256   0.102E-01    0.116E-01
DAV:   7    -0.162056107422E+02   -0.10963E-03   -0.14953E-04   176   0.548E-02    0.398E-02
DAV:   8    -0.162057077344E+02   -0.96992E-04   -0.37950E-05   176   0.270E-02
  22 F= -.16205708E+02 E0= -.16209573E+02  d E =-.129873E+00  mag=     0.0000
       N       E                     dE             d eps       ncg     rms          rms(c)
DAV:   1    -0.140851449147E+02    0.21205E+01   -0.20695E+03   224   0.163E+02    0.540E+00
DAV:   2    -0.162900279197E+02   -0.22049E+01   -0.22497E+01   256   0.215E+01    0.398E+00
DAV:   3    -0.162823615579E+02    0.76664E-02   -0.52443E-01   256   0.326E+00    0.240E+00
DAV:   4    -0.162495020844E+02    0.32859E-01   -0.52320E-02   256   0.973E-01    0.177E+00
DAV:   5    -0.162388498591E+02    0.10652E-01   -0.51518E-02   240   0.780E-01    0.631E-01
DAV:   6    -0.162390508349E+02   -0.20098E-03   -0.13896E-03   288   0.167E-01    0.339E-01
DAV:   7    -0.162392669855E+02   -0.21615E-03   -0.43878E-04   208   0.115E-01    0.110E-01
DAV:   8    -0.162394897777E+02   -0.22279E-03   -0.75613E-05   176   0.456E-02    0.359E-02
DAV:   9    -0.162396935063E+02   -0.20373E-03   -0.29849E-05   176   0.210E-02    0.155E-02
DAV:  10    -0.162399570778E+02   -0.26357E-03   -0.28910E-05   176   0.162E-02    0.785E-03
DAV:  11    -0.162401243914E+02   -0.16731E-03   -0.17983E-05   176   0.959E-03    0.582E-03
DAV:  12    -0.162402893586E+02   -0.16497E-03   -0.20545E-05   176   0.934E-03    0.263E-03
DAV:  13    -0.162403332870E+02   -0.43928E-04   -0.50285E-06   160   0.577E-03
  23 F= -.16240333E+02 E0= -.16244199E+02  d E =-.164498E+00  mag=     0.0000
       N       E                     dE             d eps       ncg     rms          rms(c)
DAV:   1    -0.159850039539E+02    0.25529E+00   -0.27328E+02   224   0.561E+01    0.123E+00
DAV:   2    -0.162624273957E+02   -0.27742E+00   -0.29188E+00   256   0.789E+00    0.780E-01
DAV:   3    -0.162563461873E+02    0.60812E-02   -0.78236E-02   256   0.123E+00    0.546E-01
DAV:   4    -0.162500146269E+02    0.63316E-02   -0.14388E-02   256   0.444E-01    0.246E-01
DAV:   5    -0.162497779745E+02    0.23665E-03   -0.52198E-03   256   0.252E-01    0.845E-02
DAV:   6    -0.162497313743E+02    0.46600E-04   -0.48011E-04   224   0.793E-02
  24 F= -.16249731E+02 E0= -.16253597E+02  d E =-.173896E+00  mag=     0.0000
       N       E                     dE             d eps       ncg     rms          rms(c)
DAV:   1    -0.162281281260E+02    0.21650E-01   -0.11499E+02   224   0.360E+01    0.714E-01
DAV:   2    -0.163461966507E+02   -0.11807E+00   -0.12640E+00   256   0.519E+00    0.534E-01
DAV:   3    -0.163438185445E+02    0.23781E-02   -0.33400E-02   256   0.819E-01    0.375E-01
DAV:   4    -0.163409762425E+02    0.28423E-02   -0.53224E-03   256   0.267E-01    0.190E-01
DAV:   5    -0.163407662553E+02    0.20999E-03   -0.38714E-03   256   0.210E-01    0.659E-02
DAV:   6    -0.163407179364E+02    0.48319E-04   -0.28548E-04   192   0.626E-02
  25 F= -.16340718E+02 E0= -.16344584E+02  d E =-.909866E-01  mag=     0.0000
       N       E                     dE             d eps       ncg     rms          rms(c)
DAV:   1    -0.155906914941E+02    0.75007E+00   -0.91630E+02   224   0.105E+02    0.300E+00
DAV:   2    -0.164688848559E+02   -0.87819E+00   -0.93423E+00   256   0.143E+01    0.165E+00
DAV:   3    -0.164548851719E+02    0.14000E-01   -0.24259E-01   240   0.223E+00    0.105E+00
DAV:   4    -0.164377319993E+02    0.17153E-01   -0.48279E-02   256   0.826E-01    0.464E-01
DAV:   5    -0.164375150181E+02    0.21698E-03   -0.79965E-03   256   0.359E-01    0.174E-01
DAV:   6    -0.164374294759E+02    0.85542E-04   -0.85436E-04   256   0.115E-01
  26 F= -.16437429E+02 E0= -.16441297E+02  d E =-.187698E+00  mag=     0.0000
       N       E                     dE             d eps       ncg     rms          rms(c)
DAV:   1    -0.163658698343E+02    0.71645E-01   -0.78071E+01   224   0.302E+01    0.708E-01
DAV:   2    -0.164474629405E+02   -0.81593E-01   -0.87213E-01   256   0.432E+00    0.525E-01
DAV:   3    -0.164456435536E+02    0.18194E-02   -0.24085E-02   256   0.688E-01    0.359E-01
DAV:   4    -0.164438353719E+02    0.18082E-02   -0.59869E-03   256   0.291E-01    0.151E-01
DAV:   5    -0.164440510598E+02   -0.21569E-03   -0.14855E-03   256   0.141E-01    0.638E-02
DAV:   6    -0.164439743212E+02    0.76739E-04   -0.34705E-04   224   0.652E-02
  27 F= -.16443974E+02 E0= -.16447841E+02  d E =-.194243E+00  mag=     0.0000
       N       E                     dE             d eps       ncg     rms          rms(c)
DAV:   1    -0.164374577146E+02    0.65933E-02   -0.92066E+00   224   0.103E+01    0.241E-01
DAV:   2    -0.164470877978E+02   -0.96301E-02   -0.10375E-01   256   0.149E+00    0.172E-01
DAV:   3    -0.164468566416E+02    0.23116E-03   -0.28791E-03   240   0.239E-01    0.117E-01
DAV:   4    -0.164466555280E+02    0.20111E-03   -0.65964E-04   256   0.943E-02    0.486E-02
DAV:   5    -0.164466786366E+02   -0.23109E-04   -0.15567E-04   160   0.477E-02
  28 F= -.16446679E+02 E0= -.16450545E+02  d E =-.196947E+00  mag=     0.0000
       N       E                     dE             d eps       ncg     rms          rms(c)
DAV:   1    -0.165117479048E+02   -0.65092E-01   -0.14076E+01   224   0.129E+01    0.561E-01
DAV:   2    -0.165260361782E+02   -0.14288E-01   -0.16296E-01   224   0.191E+00    0.311E-01
DAV:   3    -0.165255330074E+02    0.50317E-03   -0.63175E-03   240   0.365E-01    0.204E-01
DAV:   4    -0.165254962896E+02    0.36718E-04   -0.13177E-03   256   0.137E-01    0.530E-02
DAV:   5    -0.165254740122E+02    0.22277E-04   -0.90410E-05   160   0.413E-02
  29 F= -.16525474E+02 E0= -.16529341E+02  d E =-.787954E-01  mag=    -0.0000
       N       E                     dE             d eps       ncg     rms          rms(c)
DAV:   1    -0.165453552626E+02   -0.19859E-01   -0.12776E+02   224   0.390E+01    0.196E+00
DAV:   2    -0.166763591240E+02   -0.13100E+00   -0.14990E+00   224   0.577E+00    0.999E-01
DAV:   3    -0.166713848918E+02    0.49742E-02   -0.61555E-02   224   0.114E+00    0.645E-01
DAV:   4    -0.166710735191E+02    0.31137E-03   -0.10823E-02   240   0.401E-01    0.161E-01
DAV:   5    -0.166707319260E+02    0.34159E-03   -0.11836E-03   240   0.137E-01    0.522E-02
DAV:   6    -0.166706855847E+02    0.46341E-04   -0.50450E-04   256   0.747E-02
  30 F= -.16670686E+02 E0= -.16674554E+02  d E =-.224007E+00  mag=    -0.0000
       N       E                     dE             d eps       ncg     rms          rms(c)
DAV:   1    -0.166617103352E+02    0.90216E-02   -0.21614E+01   224   0.160E+01    0.863E-01
DAV:   2    -0.166838254684E+02   -0.22115E-01   -0.25116E-01   224   0.238E+00    0.483E-01
DAV:   3    -0.166828629002E+02    0.96257E-03   -0.11235E-02   224   0.485E-01    0.298E-01
DAV:   4    -0.166829200374E+02   -0.57137E-04   -0.20161E-03   256   0.181E-01    0.638E-02
DAV:   5    -0.166828562945E+02    0.63743E-04   -0.27920E-04   176   0.631E-02
  31 F= -.16682856E+02 E0= -.16686727E+02  d E =-.236178E+00  mag=    -0.0000
       N       E                     dE             d eps       ncg     rms          rms(c)
DAV:   1    -0.167043953137E+02   -0.21475E-01   -0.27784E+01   224   0.182E+01    0.490E-01
DAV:   2    -0.167331549647E+02   -0.28760E-01   -0.31859E-01   256   0.268E+00    0.352E-01
DAV:   3    -0.167324228615E+02    0.73210E-03   -0.96317E-03   256   0.456E-01    0.220E-01
DAV:   4    -0.167317739707E+02    0.64889E-03   -0.20032E-03   256   0.170E-01    0.926E-02
DAV:   5    -0.167318323993E+02   -0.58429E-04   -0.49963E-04   256   0.817E-02
  32 F= -.16731832E+02 E0= -.16735703E+02  d E =-.489761E-01  mag=    -0.0000
       N       E                     dE             d eps       ncg     rms          rms(c)
DAV:   1    -0.166942801058E+02    0.37494E-01   -0.57631E+01   224   0.263E+01    0.778E-01
DAV:   2    -0.167539709605E+02   -0.59691E-01   -0.66101E-01   256   0.385E+00    0.524E-01
DAV:   3    -0.167522820029E+02    0.16890E-02   -0.20502E-02   256   0.658E-01    0.322E-01
DAV:   4    -0.167510248874E+02    0.12571E-02   -0.45716E-03   256   0.257E-01    0.121E-01
DAV:   5    -0.167511244914E+02   -0.99604E-04   -0.63275E-04   256   0.955E-02
  33 F= -.16751124E+02 E0= -.16754997E+02  d E =-.682682E-01  mag=    -0.0000
       N       E                     dE             d eps       ncg     rms          rms(c)
DAV:   1    -0.167448081533E+02    0.62167E-02   -0.45529E+01   224   0.235E+01    0.832E-01
DAV:   2    -0.167922233104E+02   -0.47415E-01   -0.50065E-01   256   0.342E+00    0.591E-01
DAV:   3    -0.167901464249E+02    0.20769E-02   -0.16782E-02   256   0.574E-01    0.379E-01
DAV:   4    -0.167894292193E+02    0.71721E-03   -0.66077E-03   256   0.294E-01    0.884E-02
DAV:   5    -0.167894188209E+02    0.10398E-04   -0.18302E-04   192   0.666E-02
  34 F= -.16789419E+02 E0= -.16793292E+02  d E =-.382943E-01  mag=    -0.0000
       N       E                     dE             d eps       ncg     rms          rms(c)
DAV:   1    -0.167724358417E+02    0.16993E-01   -0.20818E+01   224   0.159E+01    0.536E-01
DAV:   2    -0.167943073551E+02   -0.21872E-01   -0.23175E-01   256   0.232E+00    0.380E-01
DAV:   3    -0.167933910740E+02    0.91628E-03   -0.75968E-03   256   0.389E-01    0.247E-01
DAV:   4    -0.167930299834E+02    0.36109E-03   -0.29550E-03   256   0.196E-01    0.612E-02
DAV:   5    -0.167930456350E+02   -0.15652E-04   -0.70437E-05   160   0.441E-02
  35 F= -.16793046E+02 E0= -.16796919E+02  d E =-.419211E-01  mag=    -0.0000
       N       E                     dE             d eps       ncg     rms          rms(c)
DAV:   1    -0.167983713983E+02   -0.53414E-02   -0.20252E+01   224   0.156E+01    0.443E-01
DAV:   2    -0.168192696062E+02   -0.20898E-01   -0.23110E-01   240   0.230E+00    0.327E-01
DAV:   3    -0.168186077520E+02    0.66185E-03   -0.71547E-03   256   0.390E-01    0.209E-01
DAV:   4    -0.168180917086E+02    0.51604E-03   -0.20180E-03   256   0.168E-01    0.766E-02
DAV:   5    -0.168181345848E+02   -0.42876E-04   -0.21388E-04   160   0.597E-02
  36 F= -.16818135E+02 E0= -.16822008E+02  d E =-.250889E-01  mag=    -0.0000
       N       E                     dE             d eps       ncg     rms          rms(c)
DAV:   1    -0.167994557682E+02    0.18636E-01   -0.28078E+01   224   0.183E+01    0.519E-01
DAV:   2    -0.168282660770E+02   -0.28810E-01   -0.32154E-01   240   0.271E+00    0.385E-01
DAV:   3    -0.168273961600E+02    0.86992E-03   -0.99399E-03   256   0.461E-01    0.244E-01
DAV:   4    -0.168266820581E+02    0.71410E-03   -0.26476E-03   256   0.194E-01    0.928E-02
DAV:   5    -0.168267417253E+02   -0.59667E-04   -0.37974E-04   240   0.727E-02
  37 F= -.16826742E+02 E0= -.16830615E+02  d E =-.336961E-01  mag=     0.0000
       N       E                     dE             d eps       ncg     rms          rms(c)
DAV:   1    -0.168314600362E+02   -0.47780E-02   -0.14534E+01   224   0.131E+01    0.321E-01
DAV:   2    -0.168467514700E+02   -0.15291E-01   -0.16342E-01   256   0.194E+00    0.267E-01
DAV:   3    -0.168463176013E+02    0.43387E-03   -0.47030E-03   240   0.321E-01    0.179E-01
DAV:   4    -0.168458532430E+02    0.46436E-03   -0.13593E-03   256   0.133E-01    0.782E-02
DAV:   5    -0.168458999888E+02   -0.46746E-04   -0.41542E-04   240   0.714E-02
  38 F= -.16845900E+02 E0= -.16849771E+02  d E =-.191583E-01  mag=    -0.0000
       N       E                     dE             d eps       ncg     rms          rms(c)
DAV:   1    -0.167967871571E+02    0.49066E-01   -0.62427E+01   224   0.272E+01    0.707E-01
DAV:   2    -0.168620796133E+02   -0.65292E-01   -0.69812E-01   256   0.400E+00    0.561E-01
DAV:   3    -0.168601203959E+02    0.19592E-02   -0.20462E-02   240   0.662E-01    0.374E-01
DAV:   4    -0.168581318277E+02    0.19886E-02   -0.64209E-03   256   0.289E-01    0.148E-01
DAV:   5    -0.168582809160E+02   -0.14909E-03   -0.12114E-03   256   0.123E-01    0.661E-02
DAV:   6    -0.168581817917E+02    0.99124E-04   -0.49665E-04   240   0.746E-02
  39 F= -.16858182E+02 E0= -.16862051E+02  d E =-.314401E-01  mag=    -0.0000
       N       E                     dE             d eps       ncg     rms          rms(c)
DAV:   1    -0.168558711132E+02    0.24098E-02   -0.30650E+00   224   0.602E+00    0.153E-01
DAV:   2    -0.168590733463E+02   -0.32022E-02   -0.34007E-02   256   0.885E-01    0.128E-01
DAV:   3    -0.168589828157E+02    0.90531E-04   -0.98314E-04   256   0.147E-01
  40 F= -.16858983E+02 E0= -.16862852E+02  d E =-.322411E-01  mag=    -0.0000
       N       E                     dE             d eps       ncg     rms          rms(c)
DAV:   1    -0.168645551360E+02   -0.54818E-02   -0.46752E+00   224   0.751E+00    0.260E-01
DAV:   2    -0.168694283087E+02   -0.48732E-02   -0.54425E-02   256   0.111E+00    0.175E-01
DAV:   3    -0.168692588235E+02    0.16949E-03   -0.18666E-03   256   0.196E-01    0.108E-01
DAV:   4    -0.168691956430E+02    0.63180E-04   -0.48845E-04   256   0.835E-02
  41 F= -.16869196E+02 E0= -.16873064E+02  d E =-.102128E-01  mag=    -0.0000
       N       E                     dE             d eps       ncg     rms          rms(c)
DAV:   1    -0.168632597668E+02    0.59991E-02   -0.10533E+01   224   0.113E+01    0.409E-01
DAV:   2    -0.168741777560E+02   -0.10918E-01   -0.12356E-01   256   0.167E+00    0.266E-01
DAV:   3    -0.168738086893E+02    0.36907E-03   -0.43071E-03   240   0.297E-01    0.162E-01
DAV:   4    -0.168736702926E+02    0.13840E-03   -0.10314E-03   256   0.123E-01    0.498E-02
DAV:   5    -0.168736838613E+02   -0.13569E-04   -0.38224E-05   160   0.316E-02
  42 F= -.16873684E+02 E0= -.16877552E+02  d E =-.147010E-01  mag=    -0.0000
       N       E                     dE             d eps       ncg     rms          rms(c)
DAV:   1    -0.168733711108E+02    0.29918E-03   -0.71500E+00   224   0.923E+00    0.236E-01
DAV:   2    -0.168809550392E+02   -0.75839E-02   -0.80585E-02   256   0.137E+00    0.198E-01
DAV:   3    -0.168806818528E+02    0.27319E-03   -0.23887E-03   256   0.226E-01    0.133E-01
DAV:   4    -0.168804393181E+02    0.24253E-03   -0.81074E-04   256   0.104E-01    0.553E-02
DAV:   5    -0.168804633335E+02   -0.24015E-04   -0.16693E-04   160   0.493E-02
  43 F= -.16880463E+02 E0= -.16884332E+02  d E =-.677947E-02  mag=     0.0000
       N       E                     dE             d eps       ncg     rms          rms(c)
DAV:   1    -0.168644442241E+02    0.15995E-01   -0.18905E+01   224   0.150E+01    0.397E-01
DAV:   2    -0.168844501134E+02   -0.20006E-01   -0.21288E-01   256   0.223E+00    0.327E-01
DAV:   3    -0.168837199422E+02    0.73017E-03   -0.63746E-03   240   0.367E-01    0.218E-01
DAV:   4    -0.168830772632E+02    0.64268E-03   -0.22156E-03   256   0.172E-01    0.872E-02
DAV:   5    -0.168831397371E+02   -0.62474E-04   -0.43959E-04   256   0.747E-02
  44 F= -.16883140E+02 E0= -.16887008E+02  d E =-.945588E-02  mag=     0.0000
       N       E                     dE             d eps       ncg     rms          rms(c)
DAV:   1    -0.168833153457E+02   -0.23808E-03   -0.70005E+00   224   0.915E+00    0.199E-01
DAV:   2    -0.168908598589E+02   -0.75445E-02   -0.77954E-02   240   0.134E+00    0.159E-01
DAV:   3    -0.168906034406E+02    0.25642E-03   -0.21476E-03   256   0.213E-01    0.115E-01
DAV:   4    -0.168903587024E+02    0.24474E-03   -0.73743E-04   224   0.970E-02    0.422E-02
DAV:   5    -0.168903782467E+02   -0.19544E-04   -0.16214E-04   160   0.473E-02
  45 F= -.16890378E+02 E0= -.16894247E+02  d E =-.723851E-02  mag=     0.0000
       N       E                     dE             d eps       ncg     rms          rms(c)
DAV:   1    -0.168357314251E+02    0.54627E-01   -0.63311E+01   224   0.276E+01    0.568E-01
DAV:   2    -0.169026626340E+02   -0.66931E-01   -0.69043E-01   240   0.399E+00    0.479E-01
DAV:   3    -0.169004994175E+02    0.21632E-02   -0.18682E-02   256   0.629E-01    0.351E-01
DAV:   4    -0.168980003705E+02    0.24990E-02   -0.63632E-03   240   0.285E-01    0.139E-01
DAV:   5    -0.168980609680E+02   -0.60597E-04   -0.21195E-03   256   0.156E-01    0.678E-02
DAV:   6    -0.168979918171E+02    0.69151E-04   -0.31687E-04   200   0.625E-02
  46 F= -.16897992E+02 E0= -.16901860E+02  d E =-.148521E-01  mag=    -0.0000
       N       E                     dE             d eps       ncg     rms          rms(c)
DAV:   1    -0.168992131494E+02   -0.11522E-02   -0.60357E+00   224   0.845E+00    0.146E-01
DAV:   2    -0.169057108707E+02   -0.64977E-02   -0.66066E-02   240   0.123E+00    0.136E-01
DAV:   3    -0.169055165434E+02    0.19433E-03   -0.16821E-03   256   0.191E-01    0.105E-01
DAV:   4    -0.169052773695E+02    0.23917E-03   -0.44250E-04   224   0.750E-02    0.493E-02
DAV:   5    -0.169052829063E+02   -0.55368E-05   -0.40920E-04   240   0.684E-02
  47 F= -.16905283E+02 E0= -.16909150E+02  d E =-.729109E-02  mag=    -0.0000
       N       E                     dE             d eps       ncg     rms          rms(c)
DAV:   1    -0.168654315514E+02    0.39846E-01   -0.54508E+01   224   0.255E+01    0.432E-01
DAV:   2    -0.169234319412E+02   -0.58000E-01   -0.59070E-01   240   0.369E+00    0.409E-01
DAV:   3    -0.169218694400E+02    0.15625E-02   -0.15139E-02   272   0.570E-01    0.315E-01
DAV:   4    -0.169195769256E+02    0.22925E-02   -0.38899E-03   224   0.220E-01    0.153E-01
DAV:   5    -0.169193991042E+02    0.17782E-03   -0.36780E-03   256   0.200E-01    0.693E-02
DAV:   6    -0.169193614631E+02    0.37641E-04   -0.20905E-04   176   0.559E-02
  48 F= -.16919361E+02 E0= -.16923228E+02  d E =-.213696E-01  mag=    -0.0000
       N       E                     dE             d eps       ncg     rms          rms(c)
DAV:   1    -0.166986252325E+02    0.22077E+00   -0.22065E+02   224   0.516E+01    0.861E-01
DAV:   2    -0.169270285692E+02   -0.22840E+00   -0.23264E+00   256   0.732E+00    0.842E-01
DAV:   3    -0.169213786632E+02    0.56499E-02   -0.59581E-02   272   0.112E+00    0.644E-01
DAV:   4    -0.169120080818E+02    0.93706E-02   -0.15535E-02   256   0.441E-01    0.330E-01
DAV:   5    -0.169110125744E+02    0.99551E-03   -0.14067E-02   256   0.390E-01    0.144E-01
DAV:   6    -0.169108721076E+02    0.14047E-03   -0.94875E-04   240   0.114E-01    0.567E-02
DAV:   7    -0.169109393673E+02   -0.67260E-04   -0.12974E-04   176   0.464E-02
  49 F= -.16910939E+02 E0= -.16914805E+02  d E =-.129476E-01  mag=    -0.0000
       N       E                     dE             d eps       ncg     rms          rms(c)
DAV:   1    -0.168181378151E+02    0.92734E-01   -0.10495E+02   224   0.354E+01    0.704E-01
DAV:   2    -0.169298615358E+02   -0.11172E+00   -0.11468E+00   240   0.513E+00    0.559E-01
DAV:   3    -0.169262820181E+02    0.35795E-02   -0.30719E-02   256   0.810E-01    0.406E-01
DAV:   4    -0.169223991124E+02    0.38829E-02   -0.83535E-03   240   0.320E-01    0.171E-01
DAV:   5    -0.169222590386E+02    0.14007E-03   -0.36736E-03   256   0.203E-01    0.670E-02
DAV:   6    -0.169222154802E+02    0.43558E-04   -0.32501E-04   224   0.660E-02
  50 F= -.16922215E+02 E0= -.16926082E+02  d E =-.242237E-01  mag=    -0.0000
       N       E                     dE             d eps       ncg     rms          rms(c)
DAV:   1    -0.169238673515E+02   -0.16083E-02   -0.73759E+00   224   0.933E+00    0.289E-01
DAV:   2    -0.169317605105E+02   -0.78932E-02   -0.81368E-02   256   0.136E+00    0.186E-01
DAV:   3    -0.169313937520E+02    0.36676E-03   -0.25880E-03   256   0.222E-01    0.129E-01
DAV:   4    -0.169312856785E+02    0.10807E-03   -0.12810E-03   256   0.124E-01    0.305E-02
DAV:   5    -0.169312752571E+02    0.10421E-04   -0.44568E-05   160   0.341E-02
  51 F= -.16931275E+02 E0= -.16935142E+02  d E =-.905978E-02  mag=    -0.0000
       N       E                     dE             d eps       ncg     rms          rms(c)
DAV:   1    -0.169083414500E+02    0.22944E-01   -0.29387E+01   224   0.187E+01    0.607E-01
DAV:   2    -0.169398943856E+02   -0.31553E-01   -0.32628E-01   256   0.272E+00    0.376E-01
DAV:   3    -0.169383468103E+02    0.15476E-02   -0.10612E-02   256   0.448E-01    0.256E-01
DAV:   4    -0.169379034328E+02    0.44338E-03   -0.50681E-03   256   0.246E-01    0.610E-02
DAV:   5    -0.169378401339E+02    0.63299E-04   -0.20896E-04   176   0.645E-02
  52 F= -.16937840E+02 E0= -.16941707E+02  d E =-.156247E-01  mag=     0.0000
       N       E                     dE             d eps       ncg     rms          rms(c)
DAV:   1    -0.169358556207E+02    0.20478E-02   -0.83819E+00   224   0.994E+00    0.188E-01
DAV:   2    -0.169448831565E+02   -0.90275E-02   -0.92223E-02   256   0.145E+00    0.155E-01
DAV:   3    -0.169445773185E+02    0.30584E-03   -0.24314E-03   256   0.224E-01    0.118E-01
DAV:   4    -0.169442683710E+02    0.30895E-03   -0.74645E-04   256   0.976E-02    0.442E-02
DAV:   5    -0.169442716338E+02   -0.32629E-05   -0.27682E-04   192   0.647E-02
  53 F= -.16944272E+02 E0= -.16948139E+02  d E =-.643150E-02  mag=     0.0000
       N       E                     dE             d eps       ncg     rms          rms(c)
DAV:   1    -0.168774881207E+02    0.66780E-01   -0.75874E+01   224   0.300E+01    0.587E-01
DAV:   2    -0.169581736749E+02   -0.80686E-01   -0.82411E-01   256   0.434E+00    0.467E-01
DAV:   3    -0.169554685164E+02    0.27052E-02   -0.21871E-02   256   0.670E-01    0.350E-01
DAV:   4    -0.169525635492E+02    0.29050E-02   -0.69736E-03   256   0.295E-01    0.127E-01
DAV:   5    -0.169525323107E+02    0.31238E-04   -0.20228E-03   256   0.158E-01    0.556E-02
DAV:   6    -0.169525496656E+02   -0.17355E-04   -0.31650E-04   240   0.852E-02
  54 F= -.16952550E+02 E0= -.16956420E+02  d E =-.147095E-01  mag=     0.0000
       N       E                     dE             d eps       ncg     rms          rms(c)
DAV:   1    -0.169537363825E+02   -0.12041E-02   -0.32293E+00   224   0.615E+00    0.119E-01
DAV:   2    -0.169571870569E+02   -0.34507E-02   -0.35294E-02   256   0.904E-01    0.108E-01
DAV:   3    -0.169570568158E+02    0.13024E-03   -0.94173E-04   256   0.144E-01    0.834E-02
DAV:   4    -0.169569575993E+02    0.99216E-04   -0.35802E-04   224   0.744E-02
  55 F= -.16956958E+02 E0= -.16960828E+02  d E =-.440793E-02  mag=     0.0000
       N       E                     dE             d eps       ncg     rms          rms(c)
DAV:   1    -0.169377461198E+02    0.19311E-01   -0.29143E+01   224   0.185E+01    0.353E-01
DAV:   2    -0.169687165145E+02   -0.30970E-01   -0.31588E-01   256   0.270E+00    0.323E-01
DAV:   3    -0.169677431216E+02    0.97339E-03   -0.82064E-03   256   0.415E-01    0.248E-01
DAV:   4    -0.169665163093E+02    0.12268E-02   -0.28291E-03   256   0.189E-01    0.102E-01
DAV:   5    -0.169665401893E+02   -0.23880E-04   -0.14818E-03   256   0.141E-01    0.537E-02
DAV:   6    -0.169665541814E+02   -0.13992E-04   -0.32232E-04   240   0.981E-02
  56 F= -.16966554E+02 E0= -.16970427E+02  d E =-.140045E-01  mag=     0.0000
       N       E                     dE             d eps       ncg     rms          rms(c)
DAV:   1    -0.168555514933E+02    0.11099E+00   -0.11740E+02   224   0.373E+01    0.674E-01
DAV:   2    -0.169785985789E+02   -0.12305E+00   -0.12511E+00   256   0.538E+00    0.663E-01
DAV:   3    -0.169750549952E+02    0.35436E-02   -0.31786E-02   256   0.818E-01    0.518E-01
DAV:   4    -0.169695233224E+02    0.55317E-02   -0.10912E-02   256   0.369E-01    0.235E-01
DAV:   5    -0.169693523268E+02    0.17100E-03   -0.72237E-03   256   0.291E-01    0.117E-01
DAV:   6    -0.169692864408E+02    0.65886E-04   -0.98448E-04   256   0.150E-01
  57 F= -.16969286E+02 E0= -.16973163E+02  d E =-.167368E-01  mag=    -0.0000
       N       E                     dE             d eps       ncg     rms          rms(c)
DAV:   1    -0.169447420628E+02    0.24610E-01   -0.26282E+01   224   0.176E+01    0.356E-01
DAV:   2    -0.169728088378E+02   -0.28067E-01   -0.28593E-01   256   0.256E+00    0.297E-01
DAV:   3    -0.169717519923E+02    0.10568E-02   -0.77414E-03   256   0.403E-01    0.225E-01
DAV:   4    -0.169708193676E+02    0.93262E-03   -0.30486E-03   256   0.202E-01    0.760E-02
DAV:   5    -0.169708696283E+02   -0.50261E-04   -0.97294E-04   256   0.150E-01
  58 F= -.16970870E+02 E0= -.16974744E+02  d E =-.183200E-01  mag=     0.0000
       N       E                     dE             d eps       ncg     rms          rms(c)
DAV:   1    -0.169710352101E+02   -0.21584E-03   -0.52823E+00   224   0.787E+00    0.145E-01
DAV:   2    -0.169765106947E+02   -0.54755E-02   -0.56727E-02   248   0.115E+00    0.131E-01
DAV:   3    -0.169762190402E+02    0.29165E-03   -0.15661E-03   256   0.195E-01    0.102E-01
DAV:   4    -0.169761230384E+02    0.96002E-04   -0.64594E-04   208   0.112E-01
  59 F= -.16976123E+02 E0= -.16979997E+02  d E =-.525341E-02  mag=    -0.0000
       N       E                     dE             d eps       ncg     rms          rms(c)
DAV:   1    -0.169384433074E+02    0.37776E-01   -0.47597E+01   224   0.237E+01    0.454E-01
DAV:   2    -0.169886880121E+02   -0.50245E-01   -0.51356E-01   256   0.342E+00    0.387E-01
DAV:   3    -0.169869884721E+02    0.16995E-02   -0.13421E-02   256   0.530E-01    0.290E-01
DAV:   4    -0.169851157326E+02    0.18727E-02   -0.45784E-03   256   0.246E-01    0.112E-01
DAV:   5    -0.169850785784E+02    0.37154E-04   -0.19015E-03   256   0.178E-01    0.542E-02
DAV:   6    -0.169851485556E+02   -0.69977E-04   -0.52826E-04   224   0.139E-01
  60 F= -.16985149E+02 E0= -.16989022E+02  d E =-.142789E-01  mag=     0.0000
       N       E                     dE             d eps       ncg     rms          rms(c)
DAV:   1    -0.169853965770E+02   -0.31800E-03   -0.67659E+00   224   0.889E+00    0.157E-01
DAV:   2    -0.169925651260E+02   -0.71685E-02   -0.73643E-02   256   0.130E+00    0.148E-01
DAV:   3    -0.169922926381E+02    0.27249E-03   -0.19287E-03   240   0.209E-01    0.115E-01
DAV:   4    -0.169920660146E+02    0.22662E-03   -0.60344E-04   240   0.990E-02    0.525E-02
DAV:   5    -0.169920437554E+02    0.22259E-04   -0.60259E-04   224   0.117E-01
  61 F= -.16992044E+02 E0= -.16995917E+02  d E =-.689520E-02  mag=     0.0000
       N       E                     dE             d eps       ncg     rms          rms(c)
DAV:   1    -0.169470241116E+02    0.45042E-01   -0.61147E+01   224   0.268E+01    0.499E-01
DAV:   2    -0.170115991407E+02   -0.64575E-01   -0.65898E-01   256   0.389E+00    0.443E-01
DAV:   3    -0.170094645411E+02    0.21346E-02   -0.17072E-02   240   0.601E-01    0.335E-01
DAV:   4    -0.170069063688E+02    0.25582E-02   -0.55883E-03   256   0.270E-01    0.141E-01
DAV:   5    -0.170068062082E+02    0.10016E-03   -0.28737E-03   224   0.206E-01    0.645E-02
DAV:   6    -0.170068854951E+02   -0.79287E-04   -0.59763E-04   224   0.145E-01
  62 F= -.17006885E+02 E0= -.17010759E+02  d E =-.217369E-01  mag=    -0.0000
       N       E                     dE             d eps       ncg     rms          rms(c)
DAV:   1    -0.167686894257E+02    0.23812E+00   -0.24833E+02   224   0.544E+01    0.111E+00
DAV:   2    -0.170239580972E+02   -0.25527E+00   -0.26056E+00   256   0.771E+00    0.893E-01
DAV:   3    -0.170151752641E+02    0.87828E-02   -0.69065E-02   240   0.119E+00    0.651E-01
DAV:   4    -0.170052568799E+02    0.99184E-02   -0.25360E-02   256   0.566E-01    0.247E-01
DAV:   5    -0.170052001484E+02    0.56732E-04   -0.58987E-03   224   0.280E-01    0.111E-01
DAV:   6    -0.170052409626E+02   -0.40814E-04   -0.12110E-03   224   0.166E-01    0.449E-02
DAV:   7    -0.170053533145E+02   -0.11235E-03   -0.45944E-04   224   0.152E-01    0.116E-02
DAV:   8    -0.170053217358E+02    0.31579E-04   -0.27902E-04   208   0.120E-01
  63 F= -.17005322E+02 E0= -.17009193E+02  d E =-.201732E-01  mag=    -0.0000
       N       E                     dE             d eps       ncg     rms          rms(c)
DAV:   1    -0.169318204291E+02    0.73533E-01   -0.82042E+01   224   0.310E+01    0.568E-01
DAV:   2    -0.170179237381E+02   -0.86103E-01   -0.88379E-01   256   0.450E+00    0.550E-01
DAV:   3    -0.170155251690E+02    0.23986E-02   -0.22594E-02   256   0.699E-01    0.414E-01
DAV:   4    -0.170119173053E+02    0.36079E-02   -0.64778E-03   256   0.281E-01    0.204E-01
DAV:   5    -0.170116535100E+02    0.26380E-03   -0.46872E-03   256   0.227E-01    0.862E-02
DAV:   6    -0.170115999378E+02    0.53572E-04   -0.39201E-04   240   0.754E-02
  64 F= -.17011600E+02 E0= -.17015472E+02  d E =-.264514E-01  mag=    -0.0000
       N       E                     dE             d eps       ncg     rms          rms(c)
DAV:   1    -0.169914132172E+02    0.20240E-01   -0.27314E+01   224   0.179E+01    0.271E-01
DAV:   2    -0.170203843944E+02   -0.28971E-01   -0.29278E-01   256   0.259E+00    0.277E-01
DAV:   3    -0.170195966875E+02    0.78771E-03   -0.72580E-03   256   0.395E-01    0.223E-01
DAV:   4    -0.170184115711E+02    0.11851E-02   -0.15357E-03   256   0.141E-01    0.117E-01
DAV:   5    -0.170181566843E+02    0.25489E-03   -0.22024E-03   256   0.156E-01    0.436E-02
DAV:   6    -0.170181687793E+02   -0.12095E-04   -0.10549E-04   160   0.524E-02
  65 F= -.17018169E+02 E0= -.17022042E+02  d E =-.656884E-02  mag=    -0.0000
       N       E                     dE             d eps       ncg     rms          rms(c)
DAV:   1    -0.168414230808E+02    0.17673E+00   -0.18901E+02   224   0.474E+01    0.771E-01
DAV:   2    -0.170376769762E+02   -0.19625E+00   -0.19867E+00   256   0.675E+00    0.728E-01
DAV:   3    -0.170321115994E+02    0.55654E-02   -0.49929E-02   256   0.102E+00    0.566E-01
DAV:   4    -0.170240822912E+02    0.80293E-02   -0.11781E-02   256   0.386E-01    0.284E-01
DAV:   5    -0.170226491154E+02    0.14332E-02   -0.10136E-02   256   0.333E-01    0.103E-01
DAV:   6    -0.170227596935E+02   -0.11058E-03   -0.41949E-04   224   0.909E-02    0.399E-02
DAV:   7    -0.170228263652E+02   -0.66672E-04   -0.10257E-04   176   0.674E-02
  66 F= -.17022826E+02 E0= -.17026700E+02  d E =-.112264E-01  mag=     0.0000
       N       E                     dE             d eps       ncg     rms          rms(c)
DAV:   1    -0.169729711500E+02    0.49789E-01   -0.59185E+01   224   0.264E+01    0.418E-01
DAV:   2    -0.170353934662E+02   -0.62422E-01   -0.62927E-01   256   0.381E+00    0.427E-01
DAV:   3    -0.170336460911E+02    0.17474E-02   -0.15594E-02   256   0.578E-01    0.342E-01
DAV:   4    -0.170309209904E+02    0.27251E-02   -0.39880E-03   256   0.225E-01    0.173E-01
DAV:   5    -0.170305173880E+02    0.40360E-03   -0.45100E-03   256   0.227E-01    0.718E-02
DAV:   6    -0.170305992153E+02   -0.81827E-04   -0.28718E-04   208   0.919E-02
  67 F= -.17030599E+02 E0= -.17034473E+02  d E =-.777285E-02  mag=     0.0000
       N       E                     dE             d eps       ncg     rms          rms(c)
DAV:   1    -0.170166812232E+02    0.13836E-01   -0.15250E+01   224   0.134E+01    0.216E-01
DAV:   2    -0.170328880441E+02   -0.16207E-01   -0.16388E-01   256   0.194E+00    0.216E-01
DAV:   3    -0.170323817989E+02    0.50625E-03   -0.40967E-03   256   0.299E-01    0.173E-01
DAV:   4    -0.170317395613E+02    0.64224E-03   -0.11133E-03   224   0.124E-01    0.840E-02
DAV:   5    -0.170316737293E+02    0.65832E-04   -0.12477E-03   224   0.138E-01    0.364E-02
DAV:   6    -0.170317980662E+02   -0.12434E-03   -0.26776E-04   208   0.108E-01    0.157E-02
DAV:   7    -0.170317212659E+02    0.76800E-04   -0.21501E-04   208   0.989E-02
  68 F= -.17031721E+02 E0= -.17035594E+02  d E =-.889490E-02  mag=     0.0000
       N       E                     dE             d eps       ncg     rms          rms(c)
DAV:   1    -0.170314248903E+02    0.37318E-03   -0.67988E+00   224   0.904E+00    0.266E-01
DAV:   2    -0.170386018147E+02   -0.71769E-02   -0.77597E-02   240   0.133E+00    0.171E-01
DAV:   3    -0.170383613482E+02    0.24047E-03   -0.24185E-03   256   0.224E-01    0.113E-01
DAV:   4    -0.170382450618E+02    0.11629E-03   -0.70234E-04   240   0.980E-02    0.360E-02
DAV:   5    -0.170382695304E+02   -0.24469E-04   -0.35942E-05   160   0.302E-02
  69 F= -.17038270E+02 E0= -.17042145E+02  d E =-.654826E-02  mag=     0.0000
       N       E                     dE             d eps       ncg     rms          rms(c)
DAV:   1    -0.170342133543E+02    0.40317E-02   -0.55710E+00   224   0.819E+00    0.247E-01
DAV:   2    -0.170400939990E+02   -0.58806E-02   -0.63812E-02   240   0.121E+00    0.157E-01
DAV:   3    -0.170398983138E+02    0.19569E-03   -0.19903E-03   240   0.203E-01    0.103E-01
DAV:   4    -0.170398073163E+02    0.90997E-04   -0.57324E-04   256   0.888E-02
  70 F= -.17039807E+02 E0= -.17043686E+02  d E =-.808605E-02  mag=     0.0000
       N       E                     dE             d eps       ncg     rms          rms(c)
DAV:   1    -0.170359827813E+02    0.39155E-02   -0.47169E+00   224   0.755E+00    0.240E-01
DAV:   2    -0.170409579741E+02   -0.49752E-02   -0.54963E-02   256   0.111E+00    0.160E-01
DAV:   3    -0.170407967996E+02    0.16117E-03   -0.18461E-03   256   0.188E-01    0.100E-01
DAV:   4    -0.170407250879E+02    0.71712E-04   -0.44522E-04   256   0.834E-02
  71 F= -.17040725E+02 E0= -.17044603E+02  d E =-.917772E-03  mag=     0.0000
       N       E                     dE             d eps       ncg     rms          rms(c)
DAV:   1    -0.170407138497E+02    0.82950E-04   -0.37418E-01   224   0.212E+00    0.666E-02
DAV:   2    -0.170411053702E+02   -0.39152E-03   -0.40902E-03   256   0.310E-01    0.493E-02
DAV:   3    -0.170410850250E+02    0.20345E-04   -0.12968E-04   160   0.519E-02
  72 F= -.17041085E+02 E0= -.17044963E+02  d E =-.127771E-02  mag=     0.0000
       N       E                     dE             d eps       ncg     rms          rms(c)
DAV:   1    -0.170407948471E+02    0.31052E-03   -0.10141E+00   224   0.348E+00    0.123E-01
DAV:   2    -0.170418717408E+02   -0.10769E-02   -0.11380E-02   256   0.511E-01    0.808E-02
DAV:   3    -0.170418175159E+02    0.54225E-04   -0.40292E-04   240   0.881E-02
  73 F= -.17041818E+02 E0= -.17045694E+02  d E =-.732491E-03  mag=     0.0000
       N       E                     dE             d eps       ncg     rms          rms(c)
DAV:   1    -0.170417912082E+02    0.80533E-04   -0.57898E-02   224   0.836E-01    0.394E-02
DAV:   2    -0.170418495020E+02   -0.58294E-04   -0.68619E-04   256   0.121E-01
  74 F= -.17041850E+02 E0= -.17045726E+02  d E =-.764477E-03  mag=     0.0000
