 vasp.6.1.2 22Jul20 (build Jan 14 2022 17:24:41) gamma-only                      
 executed on             LinuxPGI date 2022.01.26  03:56:31
 running on    8 total cores
 distrk:  each k-point on    8 cores,    1 groups
 distr:  one band on NCORE=   8 cores,    1 groups


--------------------------------------------------------------------------------------------------------


 INCAR:
 POTCAR:    PAW_PBE Au 04Oct2007                  
 -----------------------------------------------------------------------------
|                                                                             |
|           W    W    AA    RRRRR   N    N  II  N    N   GGGG   !!!           |
|           W    W   A  A   R    R  NN   N  II  NN   N  G    G  !!!           |
|           W    W  A    A  R    R  N N  N  II  N N  N  G       !!!           |
|           W WW W  AAAAAA  RRRRR   N  N N  II  N  N N  G  GGG   !            |
|           WW  WW  A    A  R   R   N   NN  II  N   NN  G    G                |
|           W    W  A    A  R    R  N    N  II  N    N   GGGG   !!!           |
|                                                                             |
|     You use a magnetic or noncollinear calculation, but did not specify     |
|     the initial magnetic moment with the MAGMOM tag. Note that a            |
|     default of 1 will be used for all atoms. This ferromagnetic setup       |
|     may break the symmetry of the crystal, in particular it may rule        |
|     out finding an antiferromagnetic solution. Thence, we recommend         |
|     setting the initial magnetic moment manually or verifying carefully     |
|     that this magnetic setup is desired.                                    |
|                                                                             |
 -----------------------------------------------------------------------------

 -----------------------------------------------------------------------------
|                                                                             |
|           W    W    AA    RRRRR   N    N  II  N    N   GGGG   !!!           |
|           W    W   A  A   R    R  NN   N  II  NN   N  G    G  !!!           |
|           W    W  A    A  R    R  N N  N  II  N N  N  G       !!!           |
|           W WW W  AAAAAA  RRRRR   N  N N  II  N  N N  G  GGG   !            |
|           WW  WW  A    A  R   R   N   NN  II  N   NN  G    G                |
|           W    W  A    A  R    R  N    N  II  N    N   GGGG   !!!           |
|                                                                             |
|     For optimal performance we recommend to set                             |
|       NCORE = 4 - approx SQRT(number of cores).                             |
|     NCORE specifies how many cores store one orbital (NPAR=cpu/NCORE).      |
|     This setting can greatly improve the performance of VASP for DFT.       |
|     The default, NCORE=1 might be grossly inefficient on modern             |
|     multi-core architectures or massively parallel machines. Do your        |
|     own testing!!!!                                                         |
|     Unfortunately you need to use the default for GW and RPA                |
|     calculations (for HF NCORE is supported but not extensively tested      |
|     yet).                                                                   |
|                                                                             |
 -----------------------------------------------------------------------------

 POTCAR:    PAW_PBE Au 04Oct2007                  
   SHA256 =  d0044ae04e2bdce24051b198fc5c053d722a5bc6fe3c3b100514a13fc5d2db88 Au/POTCAR             
   COPYR  = (c) Copyright 04Oct2007 Georg Kresse                                                    
   COPYR  = This file is part of the software VASP. Any use, copying, and all other rights are regul
   COPYR  = If you do not have a valid VASP license, you may not use, copy or distribute this file. 
   VRHFIN =Au: s1d10                                                                                
   LEXCH  = PE                                                                                      
   EATOM  =   926.0867 eV,   68.0654 Ry                                                             
                                                                                                    
   TITEL  = PAW_PBE Au 04Oct2007                                                                    
   LULTRA =        F    use ultrasoft PP ?                                                          
   IUNSCR =        1    unscreen: 0-lin 1-nonlin 2-no                                               
   RPACOR =    2.330    partial core radius                                                         
   POMASS =  196.966; ZVAL   =   11.000    mass and valenz                                          
   RCORE  =    2.500    outmost cutoff radius                                                       
   RWIGS  =    2.840; RWIGS  =    1.503    wigner-seitz radius (au A)                               
   ENMAX  =  229.943; ENMIN  =  172.457 eV                                                          
   ICORE  =        3    local potential                                                             
   LCOR   =        T    correct aug charges                                                         
   LPAW   =        T    paw PP                                                                      
   EAUG   =  356.670                                                                                
   DEXC   =    0.000                                                                                
   RMAX   =    2.562    core radius for proj-oper                                                   
   RAUG   =    1.300    factor for augmentation sphere                                              
   RDEP   =    2.598    radius for radial grids                                                     
   RDEPT  =    2.193    core radius for aug-charge                                                  
                                                                                                    
   Atomic configuration                                                                             
   16 entries                                                                                       
     n  l   j            E        occ.                                                              
     1  0  0.50    -80748.5001   2.0000                                                             
     2  0  0.50    -14244.7466   2.0000                                                             
     2  1  1.50    -12310.9591   6.0000                                                             
     3  0  0.50     -3362.1768   2.0000                                                             
     3  1  1.50     -2801.5463   6.0000                                                             
     3  2  2.50     -2203.8206  10.0000                                                             
     4  0  0.50      -729.8168   2.0000                                                             
     4  1  1.50      -546.0527   6.0000                                                             
     4  2  2.50      -325.7302  10.0000                                                             
     4  3  3.50       -81.1472  14.0000                                                             
     5  0  0.50      -108.3201   2.0000                                                             
     5  1  1.50       -59.7479   6.0000                                                             
     5  2  2.50        -6.8783  10.0000                                                             
     6  0  0.50        -5.7602   1.0000                                                             
     6  1  1.50        -6.8029   0.0000                                                             
     5  3  2.50        -1.3606   0.0000                                                             
   Description                                                                                      
     l       E           TYP  RCUT    TYP  RCUT                                                     
     2     -6.8782861     23  2.500                                                                 
     2     -8.2388687     23  2.500                                                                 
     0     -5.7601759     23  2.500                                                                 
     0     -0.8493231     23  2.500                                                                 
     1     -2.7211652     23  2.500                                                                 
     1     27.2116520     23  2.500                                                                 
     3     -1.3605826     23  2.500                                                                 
  local pseudopotential read in
  partial core-charges read in
  partial kinetic energy density read in
  atomic valenz-charges read in
  non local Contribution for L=            2  read in
    real space projection operators read in
  non local Contribution for L=            2  read in
    real space projection operators read in
  non local Contribution for L=            0  read in
    real space projection operators read in
  non local Contribution for L=            0  read in
    real space projection operators read in
  non local Contribution for L=            1  read in
    real space projection operators read in
  non local Contribution for L=            1  read in
    real space projection operators read in
    PAW grid and wavefunctions read in
 
   number of l-projection  operators is LMAX  =            6
   number of lm-projection operators is LMMAX =           18
 
  PAW_PBE Au 04Oct2007                  :
 energy of atom  1       EATOM= -926.0867
 kinetic energy error for atom=    0.0062 (will be added to EATOM!!)
 
 
 POSCAR: Au
  positions in cartesian coordinates
  No initial velocities read in
 exchange correlation table for  LEXCH =        8
   RHO(1)=    0.500       N(1)  =     2000
   RHO(2)=  100.500       N(2)  =     4000
 


--------------------------------------------------------------------------------------------------------


 ion  position               nearest neighbor table
   1  0.527  0.530  0.568-   7 2.64   3 2.64   2 2.69   8 2.69   6 2.74   4 2.86
   2  0.505  0.572  0.456-   3 2.55   6 2.65   1 2.69   4 2.72
   3  0.597  0.607  0.512-   2 2.55   6 2.59   1 2.64
   4  0.482  0.453  0.475-   5 2.40   7 2.65   2 2.72   8 2.73   6 2.76   1 2.86
   5  0.400  0.410  0.421-   4 2.40
   6  0.595  0.498  0.471-   3 2.59   2 2.65   8 2.66   1 2.74   4 2.76
   7  0.462  0.434  0.592-   8 2.54   1 2.64   4 2.65
   8  0.567  0.416  0.555-   7 2.54   6 2.66   1 2.69   4 2.73
 

IMPORTANT INFORMATION: All symmetrisations will be switched off!
NOSYMM: (Re-)initialisation of all symmetry stuff for point group C_1.


----------------------------------------------------------------------------------------

                                     Primitive cell                                     

  volume of cell :   11053.3516

  direct lattice vectors                    reciprocal lattice vectors
    22.649895729  0.000000000  0.000000000     0.044150314  0.000000000  0.000000000
     0.000000000 22.131975004  0.000000000     0.000000000  0.045183496  0.000000000
     0.000000000  0.000000000 22.049949860     0.000000000  0.000000000  0.045351577

  length of vectors
    22.649895729 22.131975004 22.049949860     0.044150314  0.045183496  0.045351577

  position of ions in fractional coordinates (direct lattice)
     0.526869995  0.530234030  0.568115478
     0.504911193  0.572415526  0.456033957
     0.597256382  0.607331899  0.512301746
     0.481519995  0.453283131  0.475067964
     0.399995561  0.409513309  0.420835077
     0.595376774  0.497735830  0.470817093
     0.462119427  0.434213864  0.592064092
     0.566517508  0.416290799  0.554531270

  ion indices of the primitive-cell ions
   primitive index   ion index
                 1           1
                 2           2
                 3           3
                 4           4
                 5           5
                 6           6
                 7           7
                 8           8

----------------------------------------------------------------------------------------

 
 
 KPOINTS: KPOINTS created by Atomic Simulation Env

Automatic generation of k-mesh.
Space group operators:
 irot       det(A)        alpha          n_x          n_y          n_z        tau_x        tau_y        tau_z
    1     1.000000     0.000000     1.000000     0.000000     0.000000     0.000000     0.000000     0.000000
 
 Subroutine IBZKPT returns following result:
 ===========================================
 
 Found      1 irreducible k-points:
 
 Following reciprocal coordinates:
            Coordinates               Weight
  0.000000  0.000000  0.000000      1.000000
 
 Following cartesian coordinates:
            Coordinates               Weight
  0.000000  0.000000  0.000000      1.000000
 


--------------------------------------------------------------------------------------------------------




 Dimension of arrays:
   k-points           NKPTS =      1   k-points in BZ     NKDIM =      1   number of bands    NBANDS=     56
   number of dos      NEDOS =    301   number of ions     NIONS =      8
   non local maximal  LDIM  =      6   non local SUM 2l+1 LMDIM =     18
   total plane-waves  NPLWV = ******
   max r-space proj   IRMAX =      1   max aug-charges    IRDMAX=   7426
   dimension x,y,z NGX =   112 NGY =  108 NGZ =  108
   dimension x,y,z NGXF=   224 NGYF=  216 NGZF=  216
   support grid    NGXF=   224 NGYF=  216 NGZF=  216
   ions per type =               8
   NGX,Y,Z   is equivalent  to a cutoff of   8.22,  8.11,  8.14 a.u.
   NGXF,Y,Z  is equivalent  to a cutoff of  16.44, 16.22, 16.29 a.u.

 SYSTEM =  unknown system                          
 POSCAR =  Au                                      

 Startparameter for this run:
   NWRITE =      2    write-flag & timer
   PREC   = normal    normal or accurate (medium, high low for compatibility)
   ISTART =      0    job   : 0-new  1-cont  2-samecut
   ICHARG =      2    charge: 1-file 2-atom 10-const
   ISPIN  =      2    spin polarized calculation?
   LNONCOLLINEAR =      F non collinear calculations
   LSORBIT =      F    spin-orbit coupling
   INIWAV =      1    electr: 0-lowe 1-rand  2-diag
   LASPH  =      F    aspherical Exc in radial PAW
   METAGGA=      F    non-selfconsistent MetaGGA calc.

 Electronic Relaxation 1
   ENCUT  =  400.0 eV  29.40 Ry    5.42 a.u.  36.94 36.09 35.96*2*pi/ulx,y,z
   ENINI  =  400.0     initial cutoff
   ENAUG  =  356.7 eV  augmentation charge cutoff
   NELM   =     60;   NELMIN=  2; NELMDL=  0     # of ELM steps 
   EDIFF  = 0.1E-03   stopping-criterion for ELM
   LREAL  =      F    real-space projection
   NLSPLINE    = F    spline interpolate recip. space projectors
   LCOMPAT=      F    compatible to vasp.4.4
   GGA_COMPAT  = T    GGA compatible to vasp.4.4-vasp.4.6
   LMAXPAW     = -100 max onsite density
   LMAXMIX     =    2 max onsite mixed and CHGCAR
   VOSKOWN=      0    Vosko Wilk Nusair interpolation
   ROPT   =    0.00000
 Ionic relaxation
   EDIFFG = 0.1E-02   stopping-criterion for IOM
   NSW    =   1000    number of steps for IOM
   NBLOCK =      1;   KBLOCK =   1000    inner block; outer block 
   IBRION =      2    ionic relax: 0-MD 1-quasi-New 2-CG
   NFREE  =      1    steps in history (QN), initial steepest desc. (CG)
   ISIF   =      0    stress and relaxation
   IWAVPR =     11    prediction:  0-non 1-charg 2-wave 3-comb
   ISYM   =      0    0-nonsym 1-usesym 2-fastsym
   LCORR  =      T    Harris-Foulkes like correction to forces

   POTIM  = 0.5000    time-step for ionic-motion
   TEIN   =    0.0    initial temperature
   TEBEG  =    0.0;   TEEND  =   0.0 temperature during run
   SMASS  =  -3.00    Nose mass-parameter (am)
   estimated Nose-frequenzy (Omega)   =  0.10E-29 period in steps = 0.13E+47 mass=  -0.117E-25a.u.
   SCALEE = 1.0000    scale energy and forces
   NPACO  =    256;   APACO  = 16.0  distance and # of slots for P.C.
   PSTRESS=    0.0 pullay stress

  Mass of Ions in am
   POMASS = 196.97
  Ionic Valenz
   ZVAL   =  11.00
  Atomic Wigner-Seitz radii
   RWIGS  =  -1.00
  virtual crystal weights 
   VCA    =   1.00
   NELECT =      88.0000    total number of electrons
   NUPDOWN=      -1.0000    fix difference up-down

 DOS related values:
   EMIN   =  10.00;   EMAX   =-10.00  energy-range for DOS
   EFERMI =   0.00
   ISMEAR =     1;   SIGMA  =   0.20  broadening in eV -4-tet -1-fermi 0-gaus

 Electronic relaxation 2 (details)
   IALGO  =     38    algorithm
   LDIAG  =      T    sub-space diagonalisation (order eigenvalues)
   LSUBROT=      F    optimize rotation matrix (better conditioning)
   TURBO    =      0    0=normal 1=particle mesh
   IRESTART =      0    0=no restart 2=restart with 2 vectors
   NREBOOT  =      0    no. of reboots
   NMIN     =      0    reboot dimension
   EREF     =   0.00    reference energy to select bands
   IMIX   =      4    mixing-type and parameters
     AMIX     =   0.40;   BMIX     =  1.00
     AMIX_MAG =   1.60;   BMIX_MAG =  1.00
     AMIN     =   0.10
     WC   =   100.;   INIMIX=   1;  MIXPRE=   1;  MAXMIX= -45

 Intra band minimization:
   WEIMIN = 0.0010     energy-eigenvalue tresh-hold
   EBREAK =  0.45E-06  absolut break condition
   DEPER  =   0.30     relativ break condition  

   TIME   =   0.40     timestep for ELM

  volume/ion in A,a.u.               =    1381.67      9323.96
  Fermi-wavevector in a.u.,A,eV,Ry     =   0.326892  0.617736  1.453897  0.106858
  Thomas-Fermi vector in A             =   1.219147
 
 Write flags
   LWAVE        =      F    write WAVECAR
   LDOWNSAMPLE  =      F    k-point downsampling of WAVECAR
   LCHARG       =      F    write CHGCAR
   LVTOT        =      F    write LOCPOT, total local potential
   LVHAR        =      F    write LOCPOT, Hartree potential only
   LELF         =      F    write electronic localiz. function (ELF)
   LORBIT       =      0    0 simple, 1 ext, 2 COOP (PROOUT), +10 PAW based schemes


 Dipole corrections
   LMONO  =      F    monopole corrections only (constant potential shift)
   LDIPOL =      F    correct potential (dipole corrections)
   IDIPOL =      0    1-x, 2-y, 3-z, 4-all directions 
   EPSILON=  1.0000000 bulk dielectric constant

 Exchange correlation treatment:
   GGA     =    PE    GGA type
   LEXCH   =     8    internal setting for exchange type
   VOSKOWN=      0    Vosko Wilk Nusair interpolation
   LHFCALC =     F    Hartree Fock is set to
   LHFONE  =     F    Hartree Fock one center treatment
   AEXX    =    0.0000 exact exchange contribution

 Linear response parameters
   LEPSILON=     F    determine dielectric tensor
   LRPA    =     F    only Hartree local field effects (RPA)
   LNABLA  =     F    use nabla operator in PAW spheres
   LVEL    =     F    velocity operator in full k-point grid
   LINTERFAST=   F  fast interpolation
   KINTER  =     0    interpolate to denser k-point grid
   CSHIFT  =0.1000    complex shift for real part using Kramers Kronig
   OMEGAMAX=  -1.0    maximum frequency
   DEG_THRESHOLD= 0.2000000E-02 threshold for treating states as degnerate
   RTIME   =   -0.100 relaxation time in fs
  (WPLASMAI=    0.000 imaginary part of plasma frequency in eV, 0.658/RTIME)
   DFIELD  = 0.0000000 0.0000000 0.0000000 field for delta impulse in time
 
 Orbital magnetization related:
   ORBITALMAG=     F  switch on orbital magnetization
   LCHIMAG   =     F  perturbation theory with respect to B field
   DQ        =  0.001000  dq finite difference perturbation B field
   LLRAUG    =     F  two centre corrections for induced B field



--------------------------------------------------------------------------------------------------------


 conjugate gradient relaxation of ions
 charge density and potential will be updated during run
 spin polarized calculation
 Variant of blocked Davidson
 Davidson routine will perform the subspace rotation
 perform sub-space diagonalisation
    after iterative eigenvector-optimisation
 modified Broyden-mixing scheme, WC =      100.0
 initial mixing is a Kerker type mixing with AMIX =  0.4000 and BMIX =      1.0000
 Hartree-type preconditioning will be used
 using additional bands            12
 reciprocal scheme for non local part
 use partial core corrections
 calculate Harris-corrections to forces 
   (improved forces if not selfconsistent)
 use gradient corrections 
 use of overlap-Matrix (Vanderbilt PP)
 Methfessel and Paxton  Order N= 1 SIGMA  =   0.20


--------------------------------------------------------------------------------------------------------


  energy-cutoff  :      400.00
  volume of cell :    11053.35
      direct lattice vectors                 reciprocal lattice vectors
    22.649895729  0.000000000  0.000000000     0.044150314  0.000000000  0.000000000
     0.000000000 22.131975004  0.000000000     0.000000000  0.045183496  0.000000000
     0.000000000  0.000000000 22.049949860     0.000000000  0.000000000  0.045351577

  length of vectors
    22.649895729 22.131975004 22.049949860     0.044150314  0.045183496  0.045351577


 
 k-points in units of 2pi/SCALE and weight: KPOINTS created by Atomic Simulation Env
   0.00000000  0.00000000  0.00000000       1.000
 
 k-points in reciprocal lattice and weights: KPOINTS created by Atomic Simulation Env
   0.00000000  0.00000000  0.00000000       1.000
 
 position of ions in fractional coordinates (direct lattice) 
   0.52687000  0.53023403  0.56811548
   0.50491119  0.57241553  0.45603396
   0.59725638  0.60733190  0.51230175
   0.48151999  0.45328313  0.47506796
   0.39999556  0.40951331  0.42083508
   0.59537677  0.49773583  0.47081709
   0.46211943  0.43421386  0.59206409
   0.56651751  0.41629080  0.55453127
 
 position of ions in cartesian coordinates  (Angst):
  11.93355046 11.73512631 12.52691780
  11.43618587 12.66868610 10.05552588
  13.52779478 13.44145440 11.29622782
  10.90637767 10.03205092 10.47522479
   9.05985775  9.06333831  9.27939236
  13.48522185 11.01587695 10.38149330
  10.46695684  9.61001039 13.05498355
  12.83156249  9.21333755 12.22738670
 


--------------------------------------------------------------------------------------------------------


 use parallel FFT for orbitals z direction half grid
 k-point   1 :   0.0000 0.0000 0.0000  plane waves:  100332

 maximum and minimum number of plane-waves per node :     12552    12536

 maximum number of plane-waves:    100332
 maximum index in each direction: 
   IXMAX=   36   IYMAX=   36   IZMAX=   35
   IXMIN=  -36   IYMIN=  -36   IZMIN=    0


 parallel 3D FFT for wavefunctions:
    minimum data exchange during FFTs selected (reduces bandwidth)
 parallel 3D FFT for charge:
    minimum data exchange during FFTs selected (reduces bandwidth)


 total amount of memory used by VASP MPI-rank0   211467. kBytes
=======================================================================

   base      :      30000. kBytes
   nonl-proj :       3413. kBytes
   fftplans  :      47690. kBytes
   grid      :     107847. kBytes
   one-center:         15. kBytes
   wavefun   :      22502. kBytes
 
     INWAV:  cpu time    0.0000: real time    0.0000
 Broyden mixing: mesh for mixing (old mesh)
   NGX = 73   NGY = 73   NGZ = 71
  (NGX  =224   NGY  =216   NGZ  =216)
  gives a total of 378359 points

 initial charge density was supplied:
 charge density of overlapping atoms calculated
 number of electron      88.0000000 magnetization       8.0000000
 keeping initial charge density in first step


--------------------------------------------------------------------------------------------------------


 Maximum index for augmentation-charges           922 (set IRDMAX)


--------------------------------------------------------------------------------------------------------


 First call to EWALD:  gamma=   0.080
 Maximum number of real-space cells 3x 3x 3
 Maximum number of reciprocal cells 3x 3x 3

    FEWALD:  cpu time    0.0006: real time    0.0006


--------------------------------------- Iteration      1(   1)  ---------------------------------------


    POTLOK:  cpu time    2.6210: real time    2.7820
    SETDIJ:  cpu time    0.0190: real time    0.0191
     EDDAV:  cpu time    4.3707: real time    4.3894
       DOS:  cpu time    0.0033: real time    0.0033
    --------------------------------------------
      LOOP:  cpu time    7.0141: real time    7.1939

 eigenvalue-minimisations  :   224
 total energy-change (2. order) : 0.7524052E+03  (-0.1334060E+04)
 number of electron      88.0000000 magnetization       8.0000000
 augmentation part       88.0000000 magnetization       8.0000000

 Free energy of the ion-electron system (eV)
  ---------------------------------------------------
  alpha Z        PSCENC =         6.74428445
  Ewald energy   TEWEN  =      8017.80969692
  -Hartree energ DENC   =    -15097.05448598
  -exchange      EXHF   =         0.00000000
  -V(xc)+E(xc)   XCENC  =       118.52814506
  PAW double counting   =      6992.17180065    -6807.49900724
  entropy T*S    EENTRO =        -0.00774615
  eigenvalues    EBANDS =       113.06833399
  atomic energy  EATOM  =      7408.64415014
  Solvation  Ediel_sol  =         0.00000000
  ---------------------------------------------------
  free energy    TOTEN  =       752.40517183 eV

  energy without entropy =      752.41291798  energy(sigma->0) =      752.40775388


--------------------------------------------------------------------------------------------------------




--------------------------------------- Iteration      1(   2)  ---------------------------------------


     EDDAV:  cpu time    7.0260: real time    7.1429
       DOS:  cpu time    0.0053: real time    0.0053
    --------------------------------------------
      LOOP:  cpu time    7.0313: real time    7.1482

 eigenvalue-minimisations  :   432
 total energy-change (2. order) :-0.3049977E+03  (-0.2862070E+03)
 number of electron      88.0000000 magnetization       8.0000000
 augmentation part       88.0000000 magnetization       8.0000000

 Free energy of the ion-electron system (eV)
  ---------------------------------------------------
  alpha Z        PSCENC =         6.74428445
  Ewald energy   TEWEN  =      8017.80969692
  -Hartree energ DENC   =    -15097.05448598
  -exchange      EXHF   =         0.00000000
  -V(xc)+E(xc)   XCENC  =       118.52814506
  PAW double counting   =      6992.17180065    -6807.49900724
  entropy T*S    EENTRO =        -0.05442198
  eigenvalues    EBANDS =      -191.88266972
  atomic energy  EATOM  =      7408.64415014
  Solvation  Ediel_sol  =         0.00000000
  ---------------------------------------------------
  free energy    TOTEN  =       447.40749230 eV

  energy without entropy =      447.46191428  energy(sigma->0) =      447.42563296


--------------------------------------------------------------------------------------------------------




--------------------------------------- Iteration      1(   3)  ---------------------------------------


     EDDAV:  cpu time    6.7321: real time    7.0321
       DOS:  cpu time    0.0038: real time    0.0051
    --------------------------------------------
      LOOP:  cpu time    6.7358: real time    7.0372

 eigenvalue-minimisations  :   400
 total energy-change (2. order) :-0.3222813E+03  (-0.3022409E+03)
 number of electron      88.0000000 magnetization       8.0000000
 augmentation part       88.0000000 magnetization       8.0000000

 Free energy of the ion-electron system (eV)
  ---------------------------------------------------
  alpha Z        PSCENC =         6.74428445
  Ewald energy   TEWEN  =      8017.80969692
  -Hartree energ DENC   =    -15097.05448598
  -exchange      EXHF   =         0.00000000
  -V(xc)+E(xc)   XCENC  =       118.52814506
  PAW double counting   =      6992.17180065    -6807.49900724
  entropy T*S    EENTRO =         0.00529440
  eigenvalues    EBANDS =      -514.22366984
  atomic energy  EATOM  =      7408.64415014
  Solvation  Ediel_sol  =         0.00000000
  ---------------------------------------------------
  free energy    TOTEN  =       125.12620856 eV

  energy without entropy =      125.12091416  energy(sigma->0) =      125.12444376


--------------------------------------------------------------------------------------------------------




--------------------------------------- Iteration      1(   4)  ---------------------------------------


     EDDAV:  cpu time    7.0192: real time    7.1775
       DOS:  cpu time    0.0014: real time    0.0014
    --------------------------------------------
      LOOP:  cpu time    7.0205: real time    7.1788

 eigenvalue-minimisations  :   312
 total energy-change (2. order) :-0.1215137E+03  (-0.1152625E+03)
 number of electron      88.0000000 magnetization       8.0000000
 augmentation part       88.0000000 magnetization       8.0000000

 Free energy of the ion-electron system (eV)
  ---------------------------------------------------
  alpha Z        PSCENC =         6.74428445
  Ewald energy   TEWEN  =      8017.80969692
  -Hartree energ DENC   =    -15097.05448598
  -exchange      EXHF   =         0.00000000
  -V(xc)+E(xc)   XCENC  =       118.52814506
  PAW double counting   =      6992.17180065    -6807.49900724
  entropy T*S    EENTRO =         0.02022465
  eigenvalues    EBANDS =      -635.75231770
  atomic energy  EATOM  =      7408.64415014
  Solvation  Ediel_sol  =         0.00000000
  ---------------------------------------------------
  free energy    TOTEN  =         3.61249095 eV

  energy without entropy =        3.59226630  energy(sigma->0) =        3.60574940


--------------------------------------------------------------------------------------------------------




--------------------------------------- Iteration      1(   5)  ---------------------------------------


     EDDAV:  cpu time    5.0423: real time    5.1510
       DOS:  cpu time    0.0041: real time    0.0041
    CHARGE:  cpu time    0.6217: real time    0.6343
    MIXING:  cpu time    0.0383: real time    0.0384
    --------------------------------------------
      LOOP:  cpu time    5.7065: real time    5.8277

 eigenvalue-minimisations  :   288
 total energy-change (2. order) :-0.1836381E+02  (-0.1744141E+02)
 number of electron      88.0000031 magnetization       7.1137302
 augmentation part       31.3054031 magnetization       7.0392666

 Broyden mixing:
  rms(total) = 0.22522E+01    rms(broyden)= 0.22522E+01
  rms(prec ) = 0.22733E+01
  weight for this iteration     100.00

 Free energy of the ion-electron system (eV)
  ---------------------------------------------------
  alpha Z        PSCENC =         6.74428445
  Ewald energy   TEWEN  =      8017.80969692
  -Hartree energ DENC   =    -15097.05448598
  -exchange      EXHF   =         0.00000000
  -V(xc)+E(xc)   XCENC  =       118.52814506
  PAW double counting   =      6992.17180065    -6807.49900724
  entropy T*S    EENTRO =        -0.01864393
  eigenvalues    EBANDS =      -654.07725594
  atomic energy  EATOM  =      7408.64415014
  Solvation  Ediel_sol  =         0.00000000
  ---------------------------------------------------
  free energy    TOTEN  =       -14.75131587 eV

  energy without entropy =      -14.73267194  energy(sigma->0) =      -14.74510123


--------------------------------------------------------------------------------------------------------




--------------------------------------- Iteration      1(   6)  ---------------------------------------


    POTLOK:  cpu time    2.4576: real time    2.4865
    SETDIJ:  cpu time    0.0188: real time    0.0188
     EDDAV:  cpu time    4.5928: real time    4.6306
       DOS:  cpu time    0.0006: real time    0.0006
    CHARGE:  cpu time    0.6154: real time    0.6285
    MIXING:  cpu time    0.0467: real time    0.0471
    --------------------------------------------
      LOOP:  cpu time    7.7319: real time    7.8121

 eigenvalue-minimisations  :   248
 total energy-change (2. order) : 0.1218277E+02  (-0.4598607E+01)
 number of electron      88.0000033 magnetization       6.3882170
 augmentation part       32.3581732 magnetization       3.9566460

 Broyden mixing:
  rms(total) = 0.14722E+01    rms(broyden)= 0.14721E+01
  rms(prec ) = 0.14782E+01
  weight for this iteration     100.00

 eigenvalues of (default mixing * dielectric matrix)
  average eigenvalue GAMMA=   1.0097
  1.0097

 Free energy of the ion-electron system (eV)
  ---------------------------------------------------
  alpha Z        PSCENC =         6.74428445
  Ewald energy   TEWEN  =      8017.80969692
  -Hartree energ DENC   =    -15047.47901995
  -exchange      EXHF   =         0.00000000
  -V(xc)+E(xc)   XCENC  =       125.54839839
  PAW double counting   =      7417.60958071    -7240.73797227
  entropy T*S    EENTRO =         0.00690651
  eigenvalues    EBANDS =      -690.71456593
  atomic energy  EATOM  =      7408.64415014
  Solvation  Ediel_sol  =         0.00000000
  ---------------------------------------------------
  free energy    TOTEN  =        -2.56854104 eV

  energy without entropy =       -2.57544755  energy(sigma->0) =       -2.57084321


--------------------------------------------------------------------------------------------------------




--------------------------------------- Iteration      1(   7)  ---------------------------------------


    POTLOK:  cpu time    2.8569: real time    2.8849
    SETDIJ:  cpu time    0.0188: real time    0.0190
     EDDAV:  cpu time    4.8809: real time    4.9466
       DOS:  cpu time    0.0045: real time    0.0045
    CHARGE:  cpu time    0.6214: real time    0.6302
    MIXING:  cpu time    0.0524: real time    0.0525
    --------------------------------------------
      LOOP:  cpu time    8.4350: real time    8.5376

 eigenvalue-minimisations  :   248
 total energy-change (2. order) :-0.2677041E+01  (-0.3317837E+00)
 number of electron      88.0000033 magnetization       5.5211383
 augmentation part       32.2013709 magnetization       3.3229587

 Broyden mixing:
  rms(total) = 0.64360E+00    rms(broyden)= 0.64359E+00
  rms(prec ) = 0.64572E+00
  weight for this iteration     100.00

 eigenvalues of (default mixing * dielectric matrix)
  average eigenvalue GAMMA=   1.2998
  0.7840  1.8155

 Free energy of the ion-electron system (eV)
  ---------------------------------------------------
  alpha Z        PSCENC =         6.74428445
  Ewald energy   TEWEN  =      8017.80969692
  -Hartree energ DENC   =    -15063.24543476
  -exchange      EXHF   =         0.00000000
  -V(xc)+E(xc)   XCENC  =       123.84800578
  PAW double counting   =      7804.67647907    -7632.12990181
  entropy T*S    EENTRO =        -0.00449451
  eigenvalues    EBANDS =      -671.58836717
  atomic energy  EATOM  =      7408.64415014
  Solvation  Ediel_sol  =         0.00000000
  ---------------------------------------------------
  free energy    TOTEN  =        -5.24558190 eV

  energy without entropy =       -5.24108738  energy(sigma->0) =       -5.24408373


--------------------------------------------------------------------------------------------------------




--------------------------------------- Iteration      1(   8)  ---------------------------------------


    POTLOK:  cpu time    2.4563: real time    2.5102
    SETDIJ:  cpu time    0.0187: real time    0.0187
     EDDAV:  cpu time    4.5969: real time    4.7815
       DOS:  cpu time    0.0033: real time    0.0034
    CHARGE:  cpu time    0.6082: real time    0.6315
    MIXING:  cpu time    0.0499: real time    0.0499
    --------------------------------------------
      LOOP:  cpu time    7.7333: real time    7.9953

 eigenvalue-minimisations  :   256
 total energy-change (2. order) :-0.2712744E+01  (-0.1442741E+00)
 number of electron      88.0000033 magnetization       5.0877581
 augmentation part       32.1913820 magnetization       3.2689092

 Broyden mixing:
  rms(total) = 0.21771E+00    rms(broyden)= 0.21771E+00
  rms(prec ) = 0.22089E+00
  weight for this iteration     100.00

 eigenvalues of (default mixing * dielectric matrix)
  average eigenvalue GAMMA=   1.2482
  2.1875  0.8985  0.6586

 Free energy of the ion-electron system (eV)
  ---------------------------------------------------
  alpha Z        PSCENC =         6.74428445
  Ewald energy   TEWEN  =      8017.80969692
  -Hartree energ DENC   =    -15066.06581657
  -exchange      EXHF   =         0.00000000
  -V(xc)+E(xc)   XCENC  =       121.73218145
  PAW double counting   =      8096.54324811    -7927.40383522
  entropy T*S    EENTRO =        -0.03391912
  eigenvalues    EBANDS =      -665.92831637
  atomic energy  EATOM  =      7408.64415014
  Solvation  Ediel_sol  =         0.00000000
  ---------------------------------------------------
  free energy    TOTEN  =        -7.95832622 eV

  energy without entropy =       -7.92440709  energy(sigma->0) =       -7.94701984


--------------------------------------------------------------------------------------------------------




--------------------------------------- Iteration      1(   9)  ---------------------------------------


    POTLOK:  cpu time    2.4517: real time    2.5050
    SETDIJ:  cpu time    0.0183: real time    0.0184
     EDDAV:  cpu time    4.5990: real time    4.6474
       DOS:  cpu time    0.0006: real time    0.0006
    CHARGE:  cpu time    0.8718: real time    0.8846
    MIXING:  cpu time    0.0547: real time    0.0549
    --------------------------------------------
      LOOP:  cpu time    7.9962: real time    8.1108

 eigenvalue-minimisations  :   256
 total energy-change (2. order) :-0.1144666E+01  (-0.2407435E-01)
 number of electron      88.0000033 magnetization       4.7271298
 augmentation part       32.2140285 magnetization       3.3027868

 Broyden mixing:
  rms(total) = 0.14496E+00    rms(broyden)= 0.14495E+00
  rms(prec ) = 0.14899E+00
  weight for this iteration     100.00

 eigenvalues of (default mixing * dielectric matrix)
  average eigenvalue GAMMA=   1.1769
  2.3199  0.8810  0.8810  0.6258

 Free energy of the ion-electron system (eV)
  ---------------------------------------------------
  alpha Z        PSCENC =         6.74428445
  Ewald energy   TEWEN  =      8017.80969692
  -Hartree energ DENC   =    -15064.08069196
  -exchange      EXHF   =         0.00000000
  -V(xc)+E(xc)   XCENC  =       120.76089137
  PAW double counting   =      8127.89816714    -7959.32037449
  entropy T*S    EENTRO =        -0.05356945
  eigenvalues    EBANDS =      -667.50554611
  atomic energy  EATOM  =      7408.64415014
  Solvation  Ediel_sol  =         0.00000000
  ---------------------------------------------------
  free energy    TOTEN  =        -9.10299200 eV

  energy without entropy =       -9.04942254  energy(sigma->0) =       -9.08513551


--------------------------------------------------------------------------------------------------------




--------------------------------------- Iteration      1(  10)  ---------------------------------------


    POTLOK:  cpu time    2.7803: real time    2.8035
    SETDIJ:  cpu time    0.0190: real time    0.0190
     EDDAV:  cpu time    4.7111: real time    4.9227
       DOS:  cpu time    0.0012: real time    0.0012
    CHARGE:  cpu time    0.5571: real time    0.6153
    MIXING:  cpu time    0.0665: real time    0.0665
    --------------------------------------------
      LOOP:  cpu time    8.1352: real time    8.4282

 eigenvalue-minimisations  :   256
 total energy-change (2. order) :-0.6526376E+00  (-0.9623800E-02)
 number of electron      88.0000033 magnetization       4.0988625
 augmentation part       32.2226247 magnetization       2.8768628

 Broyden mixing:
  rms(total) = 0.12587E+00    rms(broyden)= 0.12587E+00
  rms(prec ) = 0.12932E+00
  weight for this iteration     100.00

 eigenvalues of (default mixing * dielectric matrix)
  average eigenvalue GAMMA=   1.1410
  2.3588  0.9632  0.9632  0.6571  0.7629

 Free energy of the ion-electron system (eV)
  ---------------------------------------------------
  alpha Z        PSCENC =         6.74428445
  Ewald energy   TEWEN  =      8017.80969692
  -Hartree energ DENC   =    -15063.57013935
  -exchange      EXHF   =         0.00000000
  -V(xc)+E(xc)   XCENC  =       120.22291009
  PAW double counting   =      8133.85094855    -7965.46137509
  entropy T*S    EENTRO =        -0.05620599
  eigenvalues    EBANDS =      -667.93989930
  atomic energy  EATOM  =      7408.64415014
  Solvation  Ediel_sol  =         0.00000000
  ---------------------------------------------------
  free energy    TOTEN  =        -9.75562959 eV

  energy without entropy =       -9.69942359  energy(sigma->0) =       -9.73689426


--------------------------------------------------------------------------------------------------------




--------------------------------------- Iteration      1(  11)  ---------------------------------------


    POTLOK:  cpu time    2.4409: real time    2.5480
    SETDIJ:  cpu time    0.0133: real time    0.0159
     EDDAV:  cpu time    4.7400: real time    4.9573
       DOS:  cpu time    0.0014: real time    0.0014
    CHARGE:  cpu time    0.6080: real time    0.6083
    MIXING:  cpu time    0.0929: real time    0.0930
    --------------------------------------------
      LOOP:  cpu time    7.8966: real time    8.2239

 eigenvalue-minimisations  :   240
 total energy-change (2. order) :-0.1154177E+01  (-0.2195327E-01)
 number of electron      88.0000033 magnetization       3.0141014
 augmentation part       32.2295502 magnetization       2.1422586

 Broyden mixing:
  rms(total) = 0.10794E+00    rms(broyden)= 0.10794E+00
  rms(prec ) = 0.11125E+00
  weight for this iteration     100.00

 eigenvalues of (default mixing * dielectric matrix)
  average eigenvalue GAMMA=   1.3916
  2.9373  2.1468  1.1537  0.9077  0.6437  0.5605

 Free energy of the ion-electron system (eV)
  ---------------------------------------------------
  alpha Z        PSCENC =         6.74428445
  Ewald energy   TEWEN  =      8017.80969692
  -Hartree energ DENC   =    -15063.16082730
  -exchange      EXHF   =         0.00000000
  -V(xc)+E(xc)   XCENC  =       119.26798773
  PAW double counting   =      8125.22363352    -7956.86421285
  entropy T*S    EENTRO =        -0.05061917
  eigenvalues    EBANDS =      -668.52390038
  atomic energy  EATOM  =      7408.64415014
  Solvation  Ediel_sol  =         0.00000000
  ---------------------------------------------------
  free energy    TOTEN  =       -10.90980694 eV

  energy without entropy =      -10.85918778  energy(sigma->0) =      -10.89293389


--------------------------------------------------------------------------------------------------------




--------------------------------------- Iteration      1(  12)  ---------------------------------------


    POTLOK:  cpu time    2.6435: real time    2.8405
    SETDIJ:  cpu time    0.0196: real time    0.0196
     EDDAV:  cpu time    4.2515: real time    4.3805
       DOS:  cpu time    0.0006: real time    0.0006
    CHARGE:  cpu time    0.6304: real time    0.6395
    MIXING:  cpu time    0.0683: real time    0.0724
    --------------------------------------------
      LOOP:  cpu time    7.6139: real time    7.9532

 eigenvalue-minimisations  :   224
 total energy-change (2. order) :-0.1356837E+01  (-0.4405835E-01)
 number of electron      88.0000033 magnetization       2.2118978
 augmentation part       32.2404983 magnetization       1.6688315

 Broyden mixing:
  rms(total) = 0.68814E-01    rms(broyden)= 0.68810E-01
  rms(prec ) = 0.70294E-01
  weight for this iteration     100.00

 eigenvalues of (default mixing * dielectric matrix)
  average eigenvalue GAMMA=   1.4125
  3.0055  2.4055  1.4362  1.0483  0.8219  0.6425  0.5275

 Free energy of the ion-electron system (eV)
  ---------------------------------------------------
  alpha Z        PSCENC =         6.74428445
  Ewald energy   TEWEN  =      8017.80969692
  -Hartree energ DENC   =    -15062.64375725
  -exchange      EXHF   =         0.00000000
  -V(xc)+E(xc)   XCENC  =       118.12914446
  PAW double counting   =      8110.12286069    -7941.74181972
  entropy T*S    EENTRO =        -0.02237838
  eigenvalues    EBANDS =      -669.30882524
  atomic energy  EATOM  =      7408.64415014
  Solvation  Ediel_sol  =         0.00000000
  ---------------------------------------------------
  free energy    TOTEN  =       -12.26664393 eV

  energy without entropy =      -12.24426555  energy(sigma->0) =      -12.25918447


--------------------------------------------------------------------------------------------------------




--------------------------------------- Iteration      1(  13)  ---------------------------------------


    POTLOK:  cpu time    2.4770: real time    2.5002
    SETDIJ:  cpu time    0.0244: real time    0.0244
     EDDAV:  cpu time    5.0216: real time    5.2209
       DOS:  cpu time    0.0059: real time    0.0059
    CHARGE:  cpu time    0.7484: real time    0.8931
    MIXING:  cpu time    0.0740: real time    0.0743
    --------------------------------------------
      LOOP:  cpu time    8.3513: real time    8.7188

 eigenvalue-minimisations  :   256
 total energy-change (2. order) :-0.9311348E+00  (-0.2901115E-01)
 number of electron      88.0000033 magnetization       1.4618004
 augmentation part       32.2407114 magnetization       1.0734563

 Broyden mixing:
  rms(total) = 0.48889E-01    rms(broyden)= 0.48888E-01
  rms(prec ) = 0.50235E-01
  weight for this iteration     100.00

 eigenvalues of (default mixing * dielectric matrix)
  average eigenvalue GAMMA=   1.5670
  4.5585  2.4412  1.3963  1.3963  0.8436  0.7108  0.6304  0.5592

 Free energy of the ion-electron system (eV)
  ---------------------------------------------------
  alpha Z        PSCENC =         6.74428445
  Ewald energy   TEWEN  =      8017.80969692
  -Hartree energ DENC   =    -15061.61127687
  -exchange      EXHF   =         0.00000000
  -V(xc)+E(xc)   XCENC  =       117.35751533
  PAW double counting   =      8097.22528279    -7928.71384637
  entropy T*S    EENTRO =         0.00019962
  eigenvalues    EBANDS =      -670.65378472
  atomic energy  EATOM  =      7408.64415014
  Solvation  Ediel_sol  =         0.00000000
  ---------------------------------------------------
  free energy    TOTEN  =       -13.19777871 eV

  energy without entropy =      -13.19797833  energy(sigma->0) =      -13.19784525


--------------------------------------------------------------------------------------------------------




--------------------------------------- Iteration      1(  14)  ---------------------------------------


    POTLOK:  cpu time    3.0189: real time    3.0336
    SETDIJ:  cpu time    0.0191: real time    0.0191
     EDDAV:  cpu time    4.6643: real time    4.9222
       DOS:  cpu time    0.0006: real time    0.0006
    CHARGE:  cpu time    0.7270: real time    0.8474
    MIXING:  cpu time    0.2155: real time    0.3236
    --------------------------------------------
      LOOP:  cpu time    8.6453: real time    9.1466

 eigenvalue-minimisations  :   240
 total energy-change (2. order) :-0.6067180E+00  (-0.1714029E-01)
 number of electron      88.0000033 magnetization       1.0587435
 augmentation part       32.2545964 magnetization       0.8123673

 Broyden mixing:
  rms(total) = 0.33469E-01    rms(broyden)= 0.33467E-01
  rms(prec ) = 0.34643E-01
  weight for this iteration     100.00

 eigenvalues of (default mixing * dielectric matrix)
  average eigenvalue GAMMA=   1.6357
  5.5835  2.0481  2.0481  1.4646  0.9466  0.7312  0.7312  0.6183  0.5500

 Free energy of the ion-electron system (eV)
  ---------------------------------------------------
  alpha Z        PSCENC =         6.74428445
  Ewald energy   TEWEN  =      8017.80969692
  -Hartree energ DENC   =    -15058.93918534
  -exchange      EXHF   =         0.00000000
  -V(xc)+E(xc)   XCENC  =       116.79076565
  PAW double counting   =      8088.08369598    -7919.48499118
  entropy T*S    EENTRO =         0.01314640
  eigenvalues    EBANDS =      -673.46605973
  atomic energy  EATOM  =      7408.64415014
  Solvation  Ediel_sol  =         0.00000000
  ---------------------------------------------------
  free energy    TOTEN  =       -13.80449672 eV

  energy without entropy =      -13.81764312  energy(sigma->0) =      -13.80887885


--------------------------------------------------------------------------------------------------------




--------------------------------------- Iteration      1(  15)  ---------------------------------------


    POTLOK:  cpu time    2.6150: real time    2.6452
    SETDIJ:  cpu time    0.0241: real time    0.0241
     EDDAV:  cpu time    4.8209: real time    4.8519
       DOS:  cpu time    0.0012: real time    0.0012
    CHARGE:  cpu time    0.6153: real time    0.6196
    MIXING:  cpu time    0.1099: real time    0.1099
    --------------------------------------------
      LOOP:  cpu time    8.1864: real time    8.2520

 eigenvalue-minimisations  :   264
 total energy-change (2. order) :-0.4225725E+00  (-0.4533268E-02)
 number of electron      88.0000033 magnetization       0.5559827
 augmentation part       32.2558309 magnetization       0.3821210

 Broyden mixing:
  rms(total) = 0.22903E-01    rms(broyden)= 0.22902E-01
  rms(prec ) = 0.24024E-01
  weight for this iteration     100.00

 eigenvalues of (default mixing * dielectric matrix)
  average eigenvalue GAMMA=   1.7338
  6.5778  2.2789  2.2789  1.4648  1.1005  0.9198  0.9198  0.5519  0.6341  0.6119

 Free energy of the ion-electron system (eV)
  ---------------------------------------------------
  alpha Z        PSCENC =         6.74428445
  Ewald energy   TEWEN  =      8017.80969692
  -Hartree energ DENC   =    -15057.14705454
  -exchange      EXHF   =         0.00000000
  -V(xc)+E(xc)   XCENC  =       116.37055477
  PAW double counting   =      8090.28955597    -7921.67498478
  entropy T*S    EENTRO =         0.01779425
  eigenvalues    EBANDS =      -675.28106636
  atomic energy  EATOM  =      7408.64415014
  Solvation  Ediel_sol  =         0.00000000
  ---------------------------------------------------
  free energy    TOTEN  =       -14.22706918 eV

  energy without entropy =      -14.24486343  energy(sigma->0) =      -14.23300060


--------------------------------------------------------------------------------------------------------




--------------------------------------- Iteration      1(  16)  ---------------------------------------


    POTLOK:  cpu time    2.4934: real time    2.5509
    SETDIJ:  cpu time    0.0205: real time    0.0205
     EDDAV:  cpu time    4.2388: real time    4.2934
       DOS:  cpu time    0.0038: real time    0.0038
    CHARGE:  cpu time    0.6293: real time    0.6347
    MIXING:  cpu time    0.0997: real time    0.0998
    --------------------------------------------
      LOOP:  cpu time    7.4855: real time    7.6031

 eigenvalue-minimisations  :   232
 total energy-change (2. order) :-0.4708256E+00  (-0.3684945E-02)
 number of electron      88.0000033 magnetization       0.3761591
 augmentation part       32.2599428 magnetization       0.2953417

 Broyden mixing:
  rms(total) = 0.13959E-01    rms(broyden)= 0.13957E-01
  rms(prec ) = 0.15036E-01
  weight for this iteration     100.00

 eigenvalues of (default mixing * dielectric matrix)
  average eigenvalue GAMMA=   1.7843
  7.3111  2.5391  2.4183  1.6035  1.3798  1.0228  0.7863  0.7863  0.6366  0.5583
  0.5852

 Free energy of the ion-electron system (eV)
  ---------------------------------------------------
  alpha Z        PSCENC =         6.74428445
  Ewald energy   TEWEN  =      8017.80969692
  -Hartree energ DENC   =    -15054.79644033
  -exchange      EXHF   =         0.00000000
  -V(xc)+E(xc)   XCENC  =       115.87119155
  PAW double counting   =      8089.40859532    -7920.71692149
  entropy T*S    EENTRO =         0.01718805
  eigenvalues    EBANDS =      -677.67963935
  atomic energy  EATOM  =      7408.64415014
  Solvation  Ediel_sol  =         0.00000000
  ---------------------------------------------------
  free energy    TOTEN  =       -14.69789475 eV

  energy without entropy =      -14.71508280  energy(sigma->0) =      -14.70362410


--------------------------------------------------------------------------------------------------------




--------------------------------------- Iteration      1(  17)  ---------------------------------------


    POTLOK:  cpu time    2.5327: real time    2.5359
    SETDIJ:  cpu time    0.0245: real time    0.0245
     EDDAV:  cpu time    4.7367: real time    4.8115
       DOS:  cpu time    0.0006: real time    0.0006
    CHARGE:  cpu time    0.6089: real time    0.6137
    MIXING:  cpu time    0.1094: real time    0.1096
    --------------------------------------------
      LOOP:  cpu time    8.0128: real time    8.0958

 eigenvalue-minimisations  :   256
 total energy-change (2. order) :-0.1494508E+00  (-0.4498571E-03)
 number of electron      88.0000033 magnetization       0.1551299
 augmentation part       32.2596732 magnetization       0.1041713

 Broyden mixing:
  rms(total) = 0.85529E-02    rms(broyden)= 0.85513E-02
  rms(prec ) = 0.93362E-02
  weight for this iteration     100.00

 eigenvalues of (default mixing * dielectric matrix)
  average eigenvalue GAMMA=   1.8804
  8.4189  3.0115  2.2005  2.2005  1.2487  1.2487  0.8856  0.8856  0.7051  0.6297
  0.5648  0.5648

 Free energy of the ion-electron system (eV)
  ---------------------------------------------------
  alpha Z        PSCENC =         6.74428445
  Ewald energy   TEWEN  =      8017.80969692
  -Hartree energ DENC   =    -15053.72644335
  -exchange      EXHF   =         0.00000000
  -V(xc)+E(xc)   XCENC  =       115.71066672
  PAW double counting   =      8090.97277521    -7922.25759935
  entropy T*S    EENTRO =         0.01967244
  eigenvalues    EBANDS =      -678.76454870
  atomic energy  EATOM  =      7408.64415014
  Solvation  Ediel_sol  =         0.00000000
  ---------------------------------------------------
  free energy    TOTEN  =       -14.84734552 eV

  energy without entropy =      -14.86701796  energy(sigma->0) =      -14.85390300


--------------------------------------------------------------------------------------------------------




--------------------------------------- Iteration      1(  18)  ---------------------------------------


    POTLOK:  cpu time    2.4929: real time    2.5889
    SETDIJ:  cpu time    0.0195: real time    0.0195
     EDDAV:  cpu time    4.5264: real time    4.5696
       DOS:  cpu time    0.0039: real time    0.0039
    CHARGE:  cpu time    0.6259: real time    0.6388
    MIXING:  cpu time    0.4070: real time    0.4073
    --------------------------------------------
      LOOP:  cpu time    8.0757: real time    8.2281

 eigenvalue-minimisations  :   248
 total energy-change (2. order) :-0.1107683E+00  (-0.4795608E-03)
 number of electron      88.0000033 magnetization       0.0767866
 augmentation part       32.2614347 magnetization       0.0643019

 Broyden mixing:
  rms(total) = 0.50689E-02    rms(broyden)= 0.50669E-02
  rms(prec ) = 0.58204E-02
  weight for this iteration     100.00

 eigenvalues of (default mixing * dielectric matrix)
  average eigenvalue GAMMA=   1.9346
  9.2190  3.1219  2.5871  2.4892  1.3494  1.3494  1.0119  0.8057  0.8057  0.6685
  0.6394  0.5515  0.5515

 Free energy of the ion-electron system (eV)
  ---------------------------------------------------
  alpha Z        PSCENC =         6.74428445
  Ewald energy   TEWEN  =      8017.80969692
  -Hartree energ DENC   =    -15052.40864021
  -exchange      EXHF   =         0.00000000
  -V(xc)+E(xc)   XCENC  =       115.58310246
  PAW double counting   =      8093.07702216    -7924.35436200
  entropy T*S    EENTRO =         0.01914834
  eigenvalues    EBANDS =      -680.07251605
  atomic energy  EATOM  =      7408.64415014
  Solvation  Ediel_sol  =         0.00000000
  ---------------------------------------------------
  free energy    TOTEN  =       -14.95811378 eV

  energy without entropy =      -14.97726212  energy(sigma->0) =      -14.96449656


--------------------------------------------------------------------------------------------------------




--------------------------------------- Iteration      1(  19)  ---------------------------------------


    POTLOK:  cpu time    2.5735: real time    2.6046
    SETDIJ:  cpu time    0.0191: real time    0.0192
     EDDAV:  cpu time    3.9918: real time    4.0347
       DOS:  cpu time    0.0032: real time    0.0032
    CHARGE:  cpu time    0.6268: real time    0.6326
    MIXING:  cpu time    0.1240: real time    0.1242
    --------------------------------------------
      LOOP:  cpu time    7.3384: real time    7.4184

 eigenvalue-minimisations  :   208
 total energy-change (2. order) :-0.4067792E-01  (-0.7561719E-04)
 number of electron      88.0000033 magnetization       0.0458401
 augmentation part       32.2608977 magnetization       0.0405425

 Broyden mixing:
  rms(total) = 0.24789E-02    rms(broyden)= 0.24785E-02
  rms(prec ) = 0.30572E-02
  weight for this iteration     100.00

 eigenvalues of (default mixing * dielectric matrix)
  average eigenvalue GAMMA=   1.9472
  9.6890  3.6581  2.5463  2.5463  1.4076  1.4076  1.1585  0.8446  0.8446  0.7698
  0.6389  0.6389  0.5557  0.5557

 Free energy of the ion-electron system (eV)
  ---------------------------------------------------
  alpha Z        PSCENC =         6.74428445
  Ewald energy   TEWEN  =      8017.80969692
  -Hartree energ DENC   =    -15051.81771729
  -exchange      EXHF   =         0.00000000
  -V(xc)+E(xc)   XCENC  =       115.54008475
  PAW double counting   =      8094.94109644    -7926.22933112
  entropy T*S    EENTRO =         0.02025323
  eigenvalues    EBANDS =      -680.65130922
  atomic energy  EATOM  =      7408.64415014
  Solvation  Ediel_sol  =         0.00000000
  ---------------------------------------------------
  free energy    TOTEN  =       -14.99879170 eV

  energy without entropy =      -15.01904493  energy(sigma->0) =      -15.00554277


--------------------------------------------------------------------------------------------------------




--------------------------------------- Iteration      1(  20)  ---------------------------------------


    POTLOK:  cpu time    2.4829: real time    2.5737
    SETDIJ:  cpu time    0.0257: real time    0.0257
     EDDAV:  cpu time    3.7450: real time    3.7554
       DOS:  cpu time    0.0016: real time    0.0016
    CHARGE:  cpu time    0.6128: real time    0.6132
    MIXING:  cpu time    0.1475: real time    0.1476
    --------------------------------------------
      LOOP:  cpu time    7.0154: real time    7.1171

 eigenvalue-minimisations  :   184
 total energy-change (2. order) :-0.1587901E-01  (-0.2562808E-04)
 number of electron      88.0000033 magnetization       0.0270189
 augmentation part       32.2612077 magnetization       0.0235398

 Broyden mixing:
  rms(total) = 0.16113E-02    rms(broyden)= 0.16112E-02
  rms(prec ) = 0.21102E-02
  weight for this iteration     100.00

 eigenvalues of (default mixing * dielectric matrix)
  average eigenvalue GAMMA=   1.9253
  9.8611  3.6772  2.6832  2.6832  1.4899  1.4899  1.2331  0.9432  0.8792  0.8792
  0.7057  0.6344  0.6168  0.5517  0.5517

 Free energy of the ion-electron system (eV)
  ---------------------------------------------------
  alpha Z        PSCENC =         6.74428445
  Ewald energy   TEWEN  =      8017.80969692
  -Hartree energ DENC   =    -15051.45139736
  -exchange      EXHF   =         0.00000000
  -V(xc)+E(xc)   XCENC  =       115.52244841
  PAW double counting   =      8094.90890638    -7926.19721397
  entropy T*S    EENTRO =         0.02039682
  eigenvalues    EBANDS =      -681.01594250
  atomic energy  EATOM  =      7408.64415014
  Solvation  Ediel_sol  =         0.00000000
  ---------------------------------------------------
  free energy    TOTEN  =       -15.01467070 eV

  energy without entropy =      -15.03506752  energy(sigma->0) =      -15.02146964


--------------------------------------------------------------------------------------------------------




--------------------------------------- Iteration      1(  21)  ---------------------------------------


    POTLOK:  cpu time    2.4341: real time    2.4795
    SETDIJ:  cpu time    0.0242: real time    0.0242
     EDDAV:  cpu time    3.5807: real time    3.6389
       DOS:  cpu time    0.0026: real time    0.0026
    CHARGE:  cpu time    0.6065: real time    0.6148
    MIXING:  cpu time    0.1585: real time    0.1586
    --------------------------------------------
      LOOP:  cpu time    6.8066: real time    6.9185

 eigenvalue-minimisations  :   160
 total energy-change (2. order) :-0.7583871E-02  (-0.1501208E-04)
 number of electron      88.0000033 magnetization       0.0147222
 augmentation part       32.2613475 magnetization       0.0130302

 Broyden mixing:
  rms(total) = 0.94905E-03    rms(broyden)= 0.94902E-03
  rms(prec ) = 0.13686E-02
  weight for this iteration     100.00

 eigenvalues of (default mixing * dielectric matrix)
  average eigenvalue GAMMA=   1.9388
 10.0227  4.1288  2.9540  2.4781  2.0441  1.4165  1.4165  1.0309  0.8939  0.8939
  0.7234  0.6677  0.5578  0.5578  0.6324  0.6019

 Free energy of the ion-electron system (eV)
  ---------------------------------------------------
  alpha Z        PSCENC =         6.74428445
  Ewald energy   TEWEN  =      8017.80969692
  -Hartree energ DENC   =    -15051.15776699
  -exchange      EXHF   =         0.00000000
  -V(xc)+E(xc)   XCENC  =       115.51384246
  PAW double counting   =      8094.62219496    -7925.91103493
  entropy T*S    EENTRO =         0.02009735
  eigenvalues    EBANDS =      -681.30771892
  atomic energy  EATOM  =      7408.64415014
  Solvation  Ediel_sol  =         0.00000000
  ---------------------------------------------------
  free energy    TOTEN  =       -15.02225457 eV

  energy without entropy =      -15.04235192  energy(sigma->0) =      -15.02895369


--------------------------------------------------------------------------------------------------------




--------------------------------------- Iteration      1(  22)  ---------------------------------------


    POTLOK:  cpu time    2.5075: real time    2.5506
    SETDIJ:  cpu time    0.0243: real time    0.0243
     EDDAV:  cpu time    3.7275: real time    3.9274
       DOS:  cpu time    0.0006: real time    0.0006
    CHARGE:  cpu time    0.6288: real time    0.6422
    MIXING:  cpu time    0.1543: real time    0.1546
    --------------------------------------------
      LOOP:  cpu time    7.0430: real time    7.2997

 eigenvalue-minimisations  :   176
 total energy-change (2. order) :-0.2872768E-02  (-0.7996558E-05)
 number of electron      88.0000033 magnetization       0.0097775
 augmentation part       32.2614095 magnetization       0.0083245

 Broyden mixing:
  rms(total) = 0.64077E-03    rms(broyden)= 0.64072E-03
  rms(prec ) = 0.94137E-03
  weight for this iteration     100.00

 eigenvalues of (default mixing * dielectric matrix)
  average eigenvalue GAMMA=   1.9153
 10.0692  4.4423  2.6544  2.5188  2.5188  1.4231  1.4231  1.1165  0.9042  0.9042
  0.8341  0.7360  0.5579  0.5579  0.6615  0.6195  0.6195

 Free energy of the ion-electron system (eV)
  ---------------------------------------------------
  alpha Z        PSCENC =         6.74428445
  Ewald energy   TEWEN  =      8017.80969692
  -Hartree energ DENC   =    -15050.89796839
  -exchange      EXHF   =         0.00000000
  -V(xc)+E(xc)   XCENC  =       115.50975473
  PAW double counting   =      8094.69381213    -7925.98389168
  entropy T*S    EENTRO =         0.02030490
  eigenvalues    EBANDS =      -681.56527054
  atomic energy  EATOM  =      7408.64415014
  Solvation  Ediel_sol  =         0.00000000
  ---------------------------------------------------
  free energy    TOTEN  =       -15.02512734 eV

  energy without entropy =      -15.04543224  energy(sigma->0) =      -15.03189564


--------------------------------------------------------------------------------------------------------




--------------------------------------- Iteration      1(  23)  ---------------------------------------


    POTLOK:  cpu time    2.7018: real time    2.7335
    SETDIJ:  cpu time    0.0193: real time    0.0195
     EDDAV:  cpu time    4.4438: real time    4.8045
       DOS:  cpu time    0.0007: real time    0.0007
    CHARGE:  cpu time    0.6306: real time    0.6352
    MIXING:  cpu time    0.1712: real time    0.1713
    --------------------------------------------
      LOOP:  cpu time    7.9674: real time    8.3648

 eigenvalue-minimisations  :   176
 total energy-change (2. order) :-0.9639331E-03  (-0.2494434E-05)
 number of electron      88.0000033 magnetization       0.0055428
 augmentation part       32.2614741 magnetization       0.0042073

 Broyden mixing:
  rms(total) = 0.44094E-03    rms(broyden)= 0.44092E-03
  rms(prec ) = 0.67550E-03
  weight for this iteration     100.00

 eigenvalues of (default mixing * dielectric matrix)
  average eigenvalue GAMMA=   1.9241
 10.0755  4.8097  2.7435  2.7086  2.7086  1.5183  1.5183  1.1929  0.9802  0.9802
  0.8308  0.8308  0.6917  0.6917  0.5568  0.5568  0.6198  0.6198

 Free energy of the ion-electron system (eV)
  ---------------------------------------------------
  alpha Z        PSCENC =         6.74428445
  Ewald energy   TEWEN  =      8017.80969692
  -Hartree energ DENC   =    -15050.72784844
  -exchange      EXHF   =         0.00000000
  -V(xc)+E(xc)   XCENC  =       115.50750940
  PAW double counting   =      8094.69441901    -7925.98409017
  entropy T*S    EENTRO =         0.02030405
  eigenvalues    EBANDS =      -681.73451664
  atomic energy  EATOM  =      7408.64415014
  Solvation  Ediel_sol  =         0.00000000
  ---------------------------------------------------
  free energy    TOTEN  =       -15.02609128 eV

  energy without entropy =      -15.04639533  energy(sigma->0) =      -15.03285929


--------------------------------------------------------------------------------------------------------




--------------------------------------- Iteration      1(  24)  ---------------------------------------


    POTLOK:  cpu time    2.4514: real time    2.4839
    SETDIJ:  cpu time    0.0194: real time    0.0195
     EDDAV:  cpu time    3.8919: real time    3.9194
       DOS:  cpu time    0.0021: real time    0.0021
    CHARGE:  cpu time    0.6209: real time    0.6336
    MIXING:  cpu time    0.1817: real time    0.1819
    --------------------------------------------
      LOOP:  cpu time    7.1674: real time    7.2404

 eigenvalue-minimisations  :   176
 total energy-change (2. order) :-0.1159767E-02  (-0.2924172E-05)
 number of electron      88.0000033 magnetization       0.0024937
 augmentation part       32.2615154 magnetization       0.0013563

 Broyden mixing:
  rms(total) = 0.29483E-03    rms(broyden)= 0.29481E-03
  rms(prec ) = 0.41387E-03
  weight for this iteration     100.00

 eigenvalues of (default mixing * dielectric matrix)
  average eigenvalue GAMMA=   1.9348
 10.0991  5.1471  3.2858  2.6346  2.6346  1.9234  1.4118  1.4118  1.0259  0.9282
  0.9282  0.8304  0.8304  0.6558  0.6558  0.5570  0.5570  0.6337  0.6101

 Free energy of the ion-electron system (eV)
  ---------------------------------------------------
  alpha Z        PSCENC =         6.74428445
  Ewald energy   TEWEN  =      8017.80969692
  -Hartree energ DENC   =    -15050.52885976
  -exchange      EXHF   =         0.00000000
  -V(xc)+E(xc)   XCENC  =       115.50491274
  PAW double counting   =      8094.67572663    -7925.96466739
  entropy T*S    EENTRO =         0.02021976
  eigenvalues    EBANDS =      -681.93271453
  atomic energy  EATOM  =      7408.64415014
  Solvation  Ediel_sol  =         0.00000000
  ---------------------------------------------------
  free energy    TOTEN  =       -15.02725104 eV

  energy without entropy =      -15.04747080  energy(sigma->0) =      -15.03399096


--------------------------------------------------------------------------------------------------------




--------------------------------------- Iteration      1(  25)  ---------------------------------------


    POTLOK:  cpu time    2.4883: real time    2.5069
    SETDIJ:  cpu time    0.0243: real time    0.0243
     EDDAV:  cpu time    3.5493: real time    3.5970
       DOS:  cpu time    0.0023: real time    0.0023
    CHARGE:  cpu time    0.6226: real time    0.6274
    MIXING:  cpu time    0.1922: real time    0.1964
    --------------------------------------------
      LOOP:  cpu time    6.8789: real time    6.9543

 eigenvalue-minimisations  :   176
 total energy-change (2. order) :-0.7434914E-03  (-0.1109685E-05)
 number of electron      88.0000033 magnetization       0.0010887
 augmentation part       32.2616157 magnetization       0.0005055

 Broyden mixing:
  rms(total) = 0.20531E-03    rms(broyden)= 0.20529E-03
  rms(prec ) = 0.27072E-03
  weight for this iteration     100.00

 eigenvalues of (default mixing * dielectric matrix)
  average eigenvalue GAMMA=   1.9461
 10.1175  5.4627  3.5233  2.7400  2.7400  2.2533  1.4537  1.4537  1.0865  0.8981
  0.8981  0.9700  0.9011  0.7447  0.5577  0.5577  0.6819  0.6357  0.6357  0.6100

 Free energy of the ion-electron system (eV)
  ---------------------------------------------------
  alpha Z        PSCENC =         6.74428445
  Ewald energy   TEWEN  =      8017.80969692
  -Hartree energ DENC   =    -15050.40641235
  -exchange      EXHF   =         0.00000000
  -V(xc)+E(xc)   XCENC  =       115.50304625
  PAW double counting   =      8094.68887627    -7925.97712662
  entropy T*S    EENTRO =         0.02016524
  eigenvalues    EBANDS =      -682.05467482
  atomic energy  EATOM  =      7408.64415014
  Solvation  Ediel_sol  =         0.00000000
  ---------------------------------------------------
  free energy    TOTEN  =       -15.02799453 eV

  energy without entropy =      -15.04815977  energy(sigma->0) =      -15.03471628


--------------------------------------------------------------------------------------------------------




--------------------------------------- Iteration      1(  26)  ---------------------------------------


    POTLOK:  cpu time    2.4352: real time    2.4765
    SETDIJ:  cpu time    0.0248: real time    0.0248
     EDDAV:  cpu time    4.0332: real time    4.0808
       DOS:  cpu time    0.0006: real time    0.0006
    CHARGE:  cpu time    0.6191: real time    0.6321
    MIXING:  cpu time    0.2075: real time    0.2078
    --------------------------------------------
      LOOP:  cpu time    7.3204: real time    7.4226

 eigenvalue-minimisations  :   176
 total energy-change (2. order) :-0.5472130E-03  (-0.4516098E-06)
 number of electron      88.0000033 magnetization       0.0004131
 augmentation part       32.2616440 magnetization       0.0000218

 Broyden mixing:
  rms(total) = 0.12216E-03    rms(broyden)= 0.12215E-03
  rms(prec ) = 0.16029E-03
  weight for this iteration     100.00

 eigenvalues of (default mixing * dielectric matrix)
  average eigenvalue GAMMA=   2.0089
 10.1341  6.5405  4.1966  2.8084  2.8084  2.4203  1.5266  1.5266  1.1767  1.1767
  0.9091  0.9091  0.8681  0.8195  0.7214  0.5581  0.5581  0.6714  0.6265  0.6149
  0.6149

 Free energy of the ion-electron system (eV)
  ---------------------------------------------------
  alpha Z        PSCENC =         6.74428445
  Ewald energy   TEWEN  =      8017.80969692
  -Hartree energ DENC   =    -15050.33260951
  -exchange      EXHF   =         0.00000000
  -V(xc)+E(xc)   XCENC  =       115.50188175
  PAW double counting   =      8094.80563873    -7926.09404302
  entropy T*S    EENTRO =         0.02022981
  eigenvalues    EBANDS =      -682.12777102
  atomic energy  EATOM  =      7408.64415014
  Solvation  Ediel_sol  =         0.00000000
  ---------------------------------------------------
  free energy    TOTEN  =       -15.02854175 eV

  energy without entropy =      -15.04877156  energy(sigma->0) =      -15.03528502


--------------------------------------------------------------------------------------------------------




--------------------------------------- Iteration      1(  27)  ---------------------------------------


    POTLOK:  cpu time    2.4750: real time    2.4813
    SETDIJ:  cpu time    0.0193: real time    0.0193
     EDDAV:  cpu time    3.8906: real time    3.9301
       DOS:  cpu time    0.0030: real time    0.0030
    CHARGE:  cpu time    0.6060: real time    0.6105
    MIXING:  cpu time    0.2156: real time    0.2158
    --------------------------------------------
      LOOP:  cpu time    7.2095: real time    7.2601

 eigenvalue-minimisations  :   168
 total energy-change (2. order) :-0.2848300E-03  (-0.2387291E-06)
 number of electron      88.0000033 magnetization       0.0000689
 augmentation part       32.2616409 magnetization      -0.0001206

 Broyden mixing:
  rms(total) = 0.69988E-04    rms(broyden)= 0.69977E-04
  rms(prec ) = 0.93714E-04
  weight for this iteration     100.00

 eigenvalues of (default mixing * dielectric matrix)
  average eigenvalue GAMMA=   2.0427
 10.1726  7.4515  4.5033  2.8759  2.8759  2.4816  1.7847  1.4451  1.3120  1.3120
  0.9604  0.8945  0.8945  0.8208  0.8208  0.6883  0.6883  0.5583  0.5583  0.6235
  0.6235  0.5927

 Free energy of the ion-electron system (eV)
  ---------------------------------------------------
  alpha Z        PSCENC =         6.74428445
  Ewald energy   TEWEN  =      8017.80969692
  -Hartree energ DENC   =    -15050.29794485
  -exchange      EXHF   =         0.00000000
  -V(xc)+E(xc)   XCENC  =       115.50141440
  PAW double counting   =      8094.82921467    -7926.11765260
  entropy T*S    EENTRO =         0.02019970
  eigenvalues    EBANDS =      -682.16218940
  atomic energy  EATOM  =      7408.64415014
  Solvation  Ediel_sol  =         0.00000000
  ---------------------------------------------------
  free energy    TOTEN  =       -15.02882658 eV

  energy without entropy =      -15.04902627  energy(sigma->0) =      -15.03555981


--------------------------------------------------------------------------------------------------------




--------------------------------------- Iteration      1(  28)  ---------------------------------------


    POTLOK:  cpu time    2.4042: real time    2.4262
    SETDIJ:  cpu time    0.0194: real time    0.0195
     EDDAV:  cpu time    3.4677: real time    3.4951
       DOS:  cpu time    0.0013: real time    0.0013
    --------------------------------------------
      LOOP:  cpu time    5.8926: real time    5.9420

 eigenvalue-minimisations  :   160
 total energy-change (2. order) :-0.7727169E-04  (-0.9392519E-07)
 number of electron      88.0000033 magnetization       0.0000689
 augmentation part       32.2616409 magnetization      -0.0001206

 Free energy of the ion-electron system (eV)
  ---------------------------------------------------
  alpha Z        PSCENC =         6.74428445
  Ewald energy   TEWEN  =      8017.80969692
  -Hartree energ DENC   =    -15050.28925388
  -exchange      EXHF   =         0.00000000
  -V(xc)+E(xc)   XCENC  =       115.50137713
  PAW double counting   =      8094.83843668    -7926.12695142
  entropy T*S    EENTRO =         0.02018977
  eigenvalues    EBANDS =      -682.17083364
  atomic energy  EATOM  =      7408.64415014
  Solvation  Ediel_sol  =         0.00000000
  ---------------------------------------------------
  free energy    TOTEN  =       -15.02890385 eV

  energy without entropy =      -15.04909362  energy(sigma->0) =      -15.03563377


--------------------------------------------------------------------------------------------------------




 average (electrostatic) potential at core
  the test charge radii are     1.2098
  (the norm of the test charge is              1.0000)
       1 -77.5415       2 -77.3948       3 -77.5560       4 -77.5665       5 -76.2653
       6 -77.2832       7 -77.0974       8 -77.1204
 
 
 
 E-fermi :  -4.7632     XC(G=0):  -0.3681     alpha+bet : -0.1719


 spin component 1

 k-point     1 :       0.0000    0.0000    0.0000
  band No.  band energies     occupation 
      1     -11.7820      1.00000
      2     -10.9955      1.00000
      3     -10.4978      1.00000
      4      -9.9311      1.00000
      5      -9.7932      1.00000
      6      -9.6021      1.00000
      7      -9.3683      1.00000
      8      -9.3233      1.00000
      9      -9.2985      1.00000
     10      -9.2492      1.00000
     11      -9.0658      1.00000
     12      -8.9165      1.00000
     13      -8.8408      1.00000
     14      -8.6532      1.00000
     15      -8.4265      1.00000
     16      -8.2562      1.00000
     17      -8.0911      1.00000
     18      -7.8954      1.00000
     19      -7.7404      1.00000
     20      -7.6905      1.00000
     21      -7.5765      1.00000
     22      -7.4387      1.00000
     23      -7.3887      1.00000
     24      -7.3169      1.00000
     25      -7.2424      1.00000
     26      -7.1512      1.00000
     27      -7.0632      1.00000
     28      -6.9751      1.00000
     29      -6.8995      1.00000
     30      -6.8449      1.00000
     31      -6.7262      1.00000
     32      -6.5658      1.00000
     33      -6.4793      1.00000
     34      -6.3992      1.00000
     35      -6.3736      1.00000
     36      -6.3452      1.00000
     37      -6.2087      1.00000
     38      -6.1621      1.00000
     39      -6.0793      1.00000
     40      -6.0221      1.00000
     41      -5.9343      1.00000
     42      -5.9069      1.00000
     43      -5.6419      1.00000
     44      -4.9277      0.99549
     45      -4.5988      0.00452
     46      -3.8383     -0.00000
     47      -3.3900     -0.00000
     48      -2.8906     -0.00000
     49      -1.7133     -0.00000
     50      -1.5342     -0.00000
     51      -1.4406     -0.00000
     52      -1.1550     -0.00000
     53      -0.7548     -0.00000
     54      -0.5631     -0.00000
     55      -0.1269     -0.00000
     56      -0.0109     -0.00000

 spin component 2

 k-point     1 :       0.0000    0.0000    0.0000
  band No.  band energies     occupation 
      1     -11.7820      1.00000
      2     -10.9955      1.00000
      3     -10.4978      1.00000
      4      -9.9311      1.00000
      5      -9.7932      1.00000
      6      -9.6021      1.00000
      7      -9.3683      1.00000
      8      -9.3233      1.00000
      9      -9.2985      1.00000
     10      -9.2492      1.00000
     11      -9.0658      1.00000
     12      -8.9165      1.00000
     13      -8.8408      1.00000
     14      -8.6532      1.00000
     15      -8.4265      1.00000
     16      -8.2562      1.00000
     17      -8.0911      1.00000
     18      -7.8954      1.00000
     19      -7.7404      1.00000
     20      -7.6905      1.00000
     21      -7.5765      1.00000
     22      -7.4387      1.00000
     23      -7.3887      1.00000
     24      -7.3169      1.00000
     25      -7.2424      1.00000
     26      -7.1512      1.00000
     27      -7.0632      1.00000
     28      -6.9751      1.00000
     29      -6.8995      1.00000
     30      -6.8449      1.00000
     31      -6.7262      1.00000
     32      -6.5658      1.00000
     33      -6.4793      1.00000
     34      -6.3992      1.00000
     35      -6.3736      1.00000
     36      -6.3452      1.00000
     37      -6.2087      1.00000
[...]
  -Hartree energ DENC   =    -14405.49953971
  -exchange      EXHF   =         0.00000000
  -V(xc)+E(xc)   XCENC  =       114.17367685
  PAW double counting   =      7778.14828195    -7606.76032200
  entropy T*S    EENTRO =         0.01163004
  eigenvalues    EBANDS =      -659.48042059
  atomic energy  EATOM  =      7408.64415014
  Solvation  Ediel_sol  =         0.00000000
  ---------------------------------------------------
  free energy    TOTEN  =       -17.04179121 eV

  energy without entropy =      -17.05342125  energy(sigma->0) =      -17.04566789


--------------------------------------------------------------------------------------------------------




--------------------------------------- Iteration     74(   2)  ---------------------------------------


    POTLOK:  cpu time    2.4205: real time    2.4226
    SETDIJ:  cpu time    0.0244: real time    0.0244
     EDDAV:  cpu time    4.7834: real time    4.8544
       DOS:  cpu time    0.0050: real time    0.0051
    --------------------------------------------
      LOOP:  cpu time    7.2333: real time    7.3065

 eigenvalue-minimisations  :   256
 total energy-change (2. order) :-0.5829388E-04  (-0.6861879E-04)
 number of electron      87.9999948 magnetization       0.0000000
 augmentation part       32.3517578 magnetization       0.0000000

 Free energy of the ion-electron system (eV)
  ---------------------------------------------------
  alpha Z        PSCENC =         6.74428445
  Ewald energy   TEWEN  =      7346.97646766
  -Hartree energ DENC   =    -14405.49671236
  -exchange      EXHF   =         0.00000000
  -V(xc)+E(xc)   XCENC  =       114.17460899
  PAW double counting   =      7777.52617385    -7606.13212218
  entropy T*S    EENTRO =         0.01163021
  eigenvalues    EBANDS =      -659.49033026
  atomic energy  EATOM  =      7408.64415014
  Solvation  Ediel_sol  =         0.00000000
  ---------------------------------------------------
  free energy    TOTEN  =       -17.04184950 eV

  energy without entropy =      -17.05347971  energy(sigma->0) =      -17.04572624


--------------------------------------------------------------------------------------------------------




 average (electrostatic) potential at core
  the test charge radii are     1.2098
  (the norm of the test charge is              1.0000)
       1 -77.1329       2 -77.1482       3 -77.3529       4 -76.9165       5 -76.7710
       6 -77.0256       7 -76.7744       8 -76.9152
 
 
 
 E-fermi :  -5.2211     XC(G=0):  -0.3653     alpha+bet : -0.1719


 spin component 1

 k-point     1 :       0.0000    0.0000    0.0000
  band No.  band energies     occupation 
      1     -10.7896      1.00000
      2      -9.9126      1.00000
      3      -9.7405      1.00000
      4      -9.6134      1.00000
      5      -9.1439      1.00000
      6      -8.9983      1.00000
      7      -8.9403      1.00000
      8      -8.7946      1.00000
      9      -8.5977      1.00000
     10      -8.5078      1.00000
     11      -8.3318      1.00000
     12      -8.2692      1.00000
     13      -8.2500      1.00000
     14      -8.1465      1.00000
     15      -8.0396      1.00000
     16      -7.9547      1.00000
     17      -7.7524      1.00000
     18      -7.7173      1.00000
     19      -7.5008      1.00000
     20      -7.4415      1.00000
     21      -7.3939      1.00000
     22      -7.2794      1.00000
     23      -7.2142      1.00000
     24      -7.0981      1.00000
     25      -7.0708      1.00000
     26      -6.9653      1.00000
     27      -6.8068      1.00000
     28      -6.7623      1.00000
     29      -6.7291      1.00000
     30      -6.6873      1.00000
     31      -6.6732      1.00000
     32      -6.6488      1.00000
     33      -6.5770      1.00000
     34      -6.5329      1.00000
     35      -6.4684      1.00000
     36      -6.4280      1.00000
     37      -6.3646      1.00000
     38      -6.3287      1.00000
     39      -6.1276      1.00000
     40      -6.0047      1.00000
     41      -5.9709      1.00000
     42      -5.9182      1.00000
     43      -5.8631      1.00003
     44      -5.3895      0.99997
     45      -3.8903     -0.00000
     46      -3.6941     -0.00000
     47      -3.5503     -0.00000
     48      -3.3255     -0.00000
     49      -1.8349     -0.00000
     50      -1.5452     -0.00000
     51      -1.2772     -0.00000
     52      -1.2038     -0.00000
     53      -0.8167     -0.00000
     54      -0.4288     -0.00000
     55      -0.2465     -0.00000
     56      -0.0061     -0.00000

 spin component 2

 k-point     1 :       0.0000    0.0000    0.0000
  band No.  band energies     occupation 
      1     -10.7896      1.00000
      2      -9.9126      1.00000
      3      -9.7405      1.00000
      4      -9.6134      1.00000
      5      -9.1439      1.00000
      6      -8.9983      1.00000
      7      -8.9403      1.00000
      8      -8.7946      1.00000
      9      -8.5977      1.00000
     10      -8.5078      1.00000
     11      -8.3318      1.00000
     12      -8.2692      1.00000
     13      -8.2500      1.00000
     14      -8.1465      1.00000
     15      -8.0396      1.00000
     16      -7.9547      1.00000
     17      -7.7524      1.00000
     18      -7.7173      1.00000
     19      -7.5008      1.00000
     20      -7.4415      1.00000
     21      -7.3939      1.00000
     22      -7.2794      1.00000
     23      -7.2142      1.00000
     24      -7.0981      1.00000
     25      -7.0708      1.00000
     26      -6.9653      1.00000
     27      -6.8068      1.00000
     28      -6.7623      1.00000
     29      -6.7291      1.00000
     30      -6.6873      1.00000
     31      -6.6732      1.00000
     32      -6.6488      1.00000
     33      -6.5770      1.00000
     34      -6.5329      1.00000
     35      -6.4684      1.00000
     36      -6.4280      1.00000
     37      -6.3646      1.00000
     38      -6.3287      1.00000
     39      -6.1276      1.00000
     40      -6.0047      1.00000
     41      -5.9709      1.00000
     42      -5.9182      1.00000
     43      -5.8631      1.00003
     44      -5.3895      0.99997
     45      -3.8903     -0.00000
     46      -3.6941     -0.00000
     47      -3.5503     -0.00000
     48      -3.3255     -0.00000
     49      -1.8349     -0.00000
     50      -1.5452     -0.00000
     51      -1.2772     -0.00000
     52      -1.2038     -0.00000
     53      -0.8167     -0.00000
     54      -0.4288     -0.00000
     55      -0.2465     -0.00000
     56      -0.0061     -0.00000


--------------------------------------------------------------------------------------------------------


 soft charge-density along one line, spin component            1
         0         1         2         3         4         5         6         7         8         9
 total charge-density along one line
 
 soft charge-density along one line, spin component            2
         0         1         2         3         4         5         6         7         8         9
 total charge-density along one line
 
 pseudopotential strength for first ion, spin component:            1
 -9.366   0.018   0.011   0.034   0.003  -9.484   0.018   0.011
  0.018  -9.410   0.022  -0.014  -0.037   0.018  -9.527   0.022
  0.011   0.022  -9.401   0.005  -0.021   0.011   0.022  -9.518
  0.034  -0.014   0.005  -9.377   0.011   0.033  -0.014   0.004
  0.003  -0.037  -0.021   0.011  -9.370   0.003  -0.036  -0.020
 -9.484   0.018   0.011   0.033   0.003  -9.587   0.017   0.011
  0.018  -9.527   0.022  -0.014  -0.036   0.017  -9.629   0.021
  0.011   0.022  -9.518   0.004  -0.020   0.011   0.021  -9.620
  0.033  -0.014   0.004  -9.495   0.011   0.032  -0.014   0.004
  0.003  -0.036  -0.020   0.011  -9.488   0.003  -0.035  -0.020
  0.008  -0.029   0.012  -0.012  -0.016   0.008  -0.029   0.012
  0.011  -0.042   0.017  -0.017  -0.023   0.011  -0.042   0.017
 -0.003   0.001  -0.006  -0.000  -0.010  -0.003   0.001  -0.006
 -0.000   0.011   0.000  -0.002  -0.000  -0.000   0.011  -0.000
  0.012  -0.000   0.002   0.001  -0.003   0.011  -0.000   0.002
 -0.003   0.001  -0.007  -0.000  -0.012  -0.003   0.000  -0.007
 -0.000   0.013  -0.001  -0.002  -0.000  -0.000   0.013  -0.001
  0.013  -0.000   0.003   0.000  -0.004   0.013  -0.000   0.003
 pseudopotential strength for first ion, spin component:            2
 -9.366   0.018   0.011   0.034   0.003  -9.484   0.018   0.011
  0.018  -9.410   0.022  -0.014  -0.037   0.018  -9.527   0.022
  0.011   0.022  -9.401   0.005  -0.021   0.011   0.022  -9.518
  0.034  -0.014   0.005  -9.377   0.011   0.033  -0.014   0.004
  0.003  -0.037  -0.021   0.011  -9.370   0.003  -0.036  -0.020
 -9.484   0.018   0.011   0.033   0.003  -9.587   0.017   0.011
  0.018  -9.527   0.022  -0.014  -0.036   0.017  -9.629   0.021
  0.011   0.022  -9.518   0.004  -0.020   0.011   0.021  -9.620
  0.033  -0.014   0.004  -9.495   0.011   0.032  -0.014   0.004
  0.003  -0.036  -0.020   0.011  -9.488   0.003  -0.035  -0.020
  0.008  -0.029   0.012  -0.012  -0.016   0.008  -0.029   0.012
  0.011  -0.042   0.017  -0.017  -0.023   0.011  -0.042   0.017
 -0.003   0.001  -0.006  -0.000  -0.010  -0.003   0.001  -0.006
 -0.000   0.011   0.000  -0.002  -0.000  -0.000   0.011  -0.000
  0.012  -0.000   0.002   0.001  -0.003   0.011  -0.000   0.002
 -0.003   0.001  -0.007  -0.000  -0.012  -0.003   0.000  -0.007
 -0.000   0.013  -0.001  -0.002  -0.000  -0.000   0.013  -0.001
  0.013  -0.000   0.003   0.000  -0.004   0.013  -0.000   0.003
 total augmentation occupancy for first ion, spin component:            1
  3.472  -0.514   0.078  -0.160   0.102  -1.332   0.626  -0.062   0.254  -0.056  -0.262  -0.004  -0.151  -0.011   0.053   0.002
 -0.514   4.470  -0.241   0.019   0.299   0.627  -2.505   0.343  -0.109  -0.437   1.263  -0.129   0.122   0.165  -0.047   0.000
  0.078  -0.241   3.812  -0.005   0.322  -0.063   0.343  -1.794  -0.011  -0.389  -0.594   0.125  -0.104   0.135   0.037  -0.002
 -0.160   0.019  -0.005   3.637  -0.089   0.253  -0.109  -0.010  -1.565   0.094   0.635  -0.148   0.006  -0.077   0.142   0.000
  0.102   0.299   0.322  -0.089   3.540  -0.055  -0.435  -0.388   0.094  -1.447   0.829  -0.152  -0.187   0.092  -0.019  -0.001
 -1.332   0.627  -0.063   0.253  -0.055   1.164  -0.716   0.053  -0.327   0.019   0.229   0.000   0.148   0.014  -0.056  -0.004
  0.626  -2.505   0.343  -0.109  -0.435  -0.716   2.484  -0.425   0.182   0.546  -1.116   0.153  -0.108  -0.165   0.040   0.002
 -0.062   0.343  -1.794  -0.010  -0.388   0.053  -0.425   1.718   0.020   0.437   0.540  -0.133   0.093  -0.132  -0.049  -0.003
  0.254  -0.109  -0.011  -1.565   0.094  -0.327   0.182   0.020   1.448  -0.093  -0.574   0.157  -0.000   0.060  -0.151  -0.001
 -0.056  -0.437  -0.389   0.094  -1.447   0.019   0.546   0.437  -0.093   1.315  -0.753   0.170   0.187  -0.082   0.019  -0.007
 -0.262   1.263  -0.594   0.635   0.829   0.229  -1.116   0.540  -0.574  -0.753   2.268  -0.484  -0.106  -0.093   0.058   0.007
 -0.004  -0.129   0.125  -0.148  -0.152   0.000   0.153  -0.133   0.157   0.170  -0.484   0.126   0.034   0.052  -0.026  -0.002
 -0.151   0.122  -0.104   0.006  -0.187   0.148  -0.108   0.093  -0.000   0.187  -0.106   0.034   0.130  -0.057   0.013  -0.004
 -0.011   0.165   0.135  -0.077   0.092   0.014  -0.165  -0.132   0.060  -0.082  -0.093   0.052  -0.057   0.139  -0.032   0.002
  0.053  -0.047   0.037   0.142  -0.019  -0.056   0.040  -0.049  -0.151   0.019   0.058  -0.026   0.013  -0.032   0.056  -0.000
  0.002   0.000  -0.002   0.000  -0.001  -0.004   0.002  -0.003  -0.001  -0.007   0.007  -0.002  -0.004   0.002  -0.000   0.000
  0.000   0.006  -0.005   0.003  -0.003  -0.001   0.003   0.006  -0.003   0.003   0.007  -0.002   0.002  -0.005   0.001  -0.000
  0.008   0.001   0.001  -0.002  -0.000   0.001  -0.001   0.001   0.005  -0.001  -0.004   0.001  -0.000   0.001  -0.002  -0.000
 total augmentation occupancy for first ion, spin component:            2
  0.000   0.000  -0.000  -0.000  -0.000  -0.000  -0.000   0.000  -0.000   0.000  -0.000   0.000   0.000   0.000   0.000   0.000
  0.000   0.000  -0.000   0.000  -0.000  -0.000  -0.000   0.000  -0.000   0.000  -0.000   0.000   0.000  -0.000  -0.000   0.000
 -0.000  -0.000  -0.000   0.000   0.000   0.000   0.000   0.000   0.000  -0.000   0.000  -0.000   0.000   0.000   0.000  -0.000
 -0.000   0.000   0.000   0.000  -0.000   0.000  -0.000   0.000  -0.000   0.000  -0.000   0.000   0.000  -0.000   0.000   0.000
 -0.000  -0.000   0.000  -0.000  -0.000   0.000   0.000  -0.000   0.000   0.000  -0.000  -0.000   0.000  -0.000  -0.000   0.000
 -0.000  -0.000   0.000   0.000   0.000   0.000   0.000  -0.000   0.000  -0.000   0.000  -0.000  -0.000   0.000  -0.000   0.000
 -0.000  -0.000   0.000  -0.000   0.000   0.000   0.000  -0.000   0.000  -0.000   0.000  -0.000  -0.000  -0.000  -0.000  -0.000
  0.000   0.000   0.000   0.000  -0.000  -0.000  -0.000   0.000  -0.000   0.000  -0.000   0.000   0.000  -0.000   0.000   0.000
 -0.000  -0.000   0.000  -0.000   0.000   0.000   0.000  -0.000   0.000  -0.000   0.000  -0.000  -0.000  -0.000  -0.000   0.000
  0.000   0.000  -0.000   0.000   0.000  -0.000  -0.000   0.000  -0.000  -0.000   0.000   0.000  -0.000   0.000  -0.000  -0.000
 -0.000  -0.000   0.000  -0.000  -0.000   0.000   0.000  -0.000   0.000   0.000   0.000  -0.000  -0.000   0.000  -0.000   0.000
  0.000   0.000  -0.000   0.000  -0.000  -0.000  -0.000   0.000  -0.000   0.000  -0.000   0.000   0.000  -0.000   0.000  -0.000
  0.000   0.000   0.000   0.000   0.000  -0.000  -0.000   0.000  -0.000  -0.000  -0.000   0.000   0.000  -0.000   0.000  -0.000
  0.000  -0.000   0.000  -0.000  -0.000   0.000  -0.000  -0.000  -0.000   0.000   0.000  -0.000  -0.000   0.000   0.000  -0.000
  0.000  -0.000   0.000   0.000  -0.000  -0.000  -0.000   0.000  -0.000  -0.000  -0.000   0.000   0.000   0.000   0.000  -0.000
  0.000   0.000  -0.000   0.000   0.000   0.000  -0.000   0.000   0.000  -0.000   0.000  -0.000  -0.000  -0.000  -0.000   0.000
 -0.000  -0.000   0.000   0.000   0.000   0.000   0.000  -0.000   0.000   0.000  -0.000   0.000   0.000  -0.000  -0.000  -0.000
  0.000   0.000  -0.000   0.000   0.000   0.000  -0.000   0.000   0.000  -0.000   0.000  -0.000  -0.000   0.000  -0.000   0.000


------------------------ aborting loop because EDIFF is reached ----------------------------------------


    CHARGE:  cpu time    0.6057: real time    0.6060
    FORLOC:  cpu time    0.0693: real time    0.0694
    FORNL :  cpu time    1.4710: real time    1.4714
    FORCOR:  cpu time    2.3922: real time    2.4022
    FORHAR:  cpu time    0.3271: real time    0.3313
    MIXING:  cpu time    0.0490: real time    0.0491
    OFIELD:  cpu time    0.0000: real time    0.0000

 VOLUME and BASIS-vectors are now :
 -----------------------------------------------------------------------------
  energy-cutoff  :      400.00
  volume of cell :    11053.35
      direct lattice vectors                 reciprocal lattice vectors
    22.649895729  0.000000000  0.000000000     0.044150314  0.000000000  0.000000000
     0.000000000 22.131975004  0.000000000     0.000000000  0.045183496  0.000000000
     0.000000000  0.000000000 22.049949860     0.000000000  0.000000000  0.045351577

  length of vectors
    22.649895729 22.131975004 22.049949860     0.044150314  0.045183496  0.045351577


 FORCES acting on ions
    electron-ion (+dipol)            ewald-force                    non-local-force                 convergence-correction
 -----------------------------------------------------------------------------------------------
   0.129E+03 -.361E+03 -.506E+03   -.129E+03 0.360E+03 0.506E+03   -.191E-01 0.877E+00 -.337E+00   0.254E-01 0.141E-01 0.473E-01
   0.361E+03 -.430E+03 0.307E+03   -.361E+03 0.429E+03 -.307E+03   0.322E+00 0.839E+00 0.106E+00   -.137E-01 -.533E-02 -.118E-01
   -.310E+03 -.741E+03 0.330E+02   0.306E+03 0.736E+03 -.325E+02   0.353E+01 0.561E+01 -.506E+00   0.749E-02 0.561E-01 -.127E-01
   0.192E+02 0.587E+03 0.417E+03   -.183E+02 -.585E+03 -.415E+03   -.905E+00 -.192E+01 -.211E+01   -.445E-01 -.260E-01 -.588E-02
   0.556E+03 0.913E+02 0.439E+03   -.551E+03 -.897E+02 -.435E+03   -.541E+01 -.152E+01 -.350E+01   0.163E-01 -.126E-01 -.268E-01
   -.753E+03 0.356E+02 0.235E+03   0.750E+03 -.375E+02 -.235E+03   0.292E+01 0.194E+01 -.680E+00   0.224E-01 0.658E-02 -.139E-02
   0.177E+03 0.174E+03 -.666E+03   -.175E+03 -.172E+03 0.660E+03   -.203E+01 -.213E+01 0.597E+01   -.615E-02 -.703E-02 0.705E-02
   -.178E+03 0.644E+03 -.260E+03   0.178E+03 -.641E+03 0.258E+03   0.210E+00 -.230E+01 0.177E+01   -.290E-02 -.282E-01 0.331E-02
 -----------------------------------------------------------------------------------------------
   0.138E+01 -.139E+01 -.714E+00   0.142E-12 0.000E+00 0.000E+00   -.138E+01 0.140E+01 0.712E+00   0.440E-02 -.227E-02 -.887E-03
 
 
 POSITION                                       TOTAL-FORCE (eV/Angst)
 -----------------------------------------------------------------------------------
     11.74963     11.75508     12.68788         0.028428     -0.006198     -0.030299
     10.93713     11.98143      9.98587         0.012726     -0.024852      0.011697
     12.84449     13.52892     11.02140        -0.007642     -0.030340     -0.002217
     11.55613      9.24800      9.65403         0.026929      0.023719      0.034363
      9.37517     10.40327      8.61958        -0.011533      0.016188     -0.014035
     13.53315     10.86459     10.58679        -0.050338      0.004957      0.010332
     11.31781      9.95130     14.52158        -0.013760     -0.001711      0.012737
     12.33400      9.04730     12.22003         0.015191      0.018237     -0.022579
 -----------------------------------------------------------------------------------
    total drift:                               -0.000975      0.002789     -0.002545


--------------------------------------------------------------------------------------------------------



  FREE ENERGIE OF THE ION-ELECTRON SYSTEM (eV)
  ---------------------------------------------------
  free  energy   TOTEN  =       -17.04184950 eV

  energy  without entropy=      -17.05347971  energy(sigma->0) =      -17.04572624
 
 d Force =-0.2350991E-04[-0.104E-03, 0.570E-04]  d Energy = 0.3198614E-04-0.555E-04
 d Force = 0.2593007E+01[ 0.259E+01, 0.259E+01]  d Ewald  = 0.2593007E+01-0.354E-07


--------------------------------------------------------------------------------------------------------


    POTLOK:  cpu time    2.4520: real time    2.4737


--------------------------------------------------------------------------------------------------------




--------------------------------------------------------------------------------------------------------


  
 reached required accuracy - stopping structural energy minimisation
     LOOP+:  cpu time   22.4365: real time   23.0141
    4ORBIT:  cpu time    0.0000: real time    0.0000

 total amount of memory used by VASP MPI-rank0   211467. kBytes
=======================================================================

   base      :      30000. kBytes
   nonl-proj :       3413. kBytes
   fftplans  :      47690. kBytes
   grid      :     107847. kBytes
   one-center:         15. kBytes
   wavefun   :      22502. kBytes
 
  
  
 General timing and accounting informations for this job:
 ========================================================
  
                  Total CPU time used (sec):     3846.415
                            User time (sec):     3800.413
                          System time (sec):       46.002
                         Elapsed time (sec):     3931.778
  
                   Maximum memory used (kb):      416436.
                   Average memory used (kb):           0.
  
                          Minor page faults:     15446364
                          Major page faults:           10
                 Voluntary context switches:         2443
