<?xml version="1.0" encoding="ISO-8859-1"?>
<modeling>
 <generator>
  <i name="program" type="string">vasp </i>
  <i name="version" type="string">6.1.2  </i>
  <i name="subversion" type="string">22Jul20 (build Jan 14 2022 17:24:41) gamma-only                       parallel </i>
  <i name="platform" type="string">LinuxPGI </i>
  <i name="date" type="string">2022 01 26 </i>
  <i name="time" type="string">03:56:31 </i>
 </generator>
 <incar>
  <i type="int" name="ISPIN">     2</i>
  <i type="int" name="IBRION">     2</i>
  <i type="int" name="NSW">  1000</i>
  <i type="int" name="ISIF">     0</i>
  <i type="int" name="ISYM">     0</i>
  <i name="ENCUT">    400.00000000</i>
  <i type="logical" name="LREAL"> F  </i>
  <i type="int" name="ISMEAR">     1</i>
  <i name="SIGMA">      0.20000000</i>
  <i type="logical" name="LWAVE"> F  </i>
  <i type="logical" name="LCHARG"> F  </i>
  <i type="int" name="KPAR">     1</i>
  <i type="int" name="NCORE">     8</i>
  <i type="string" name="GGA"> PE</i>
  <i type="int" name="ISPIN">     2</i>
 </incar>
 <structure name="primitive_cell" >
  <crystal>
   <varray name="basis" >
    <v>      22.64989573       0.00000000       0.00000000 </v>
    <v>       0.00000000      22.13197500       0.00000000 </v>
    <v>       0.00000000       0.00000000      22.04994986 </v>
   </varray>
   <i name="volume">  11053.35158622 </i>
   <varray name="rec_basis" >
    <v>       0.04415031       0.00000000       0.00000000 </v>
    <v>       0.00000000       0.04518350       0.00000000 </v>
    <v>       0.00000000       0.00000000       0.04535158 </v>
   </varray>
  </crystal>
  <varray name="positions" >
   <v>       0.52687000       0.53023403       0.56811548 </v>
   <v>       0.50491119       0.57241553       0.45603396 </v>
   <v>       0.59725638       0.60733190       0.51230175 </v>
   <v>       0.48151999       0.45328313       0.47506796 </v>
   <v>       0.39999556       0.40951331       0.42083508 </v>
   <v>       0.59537677       0.49773583       0.47081709 </v>
   <v>       0.46211943       0.43421386       0.59206409 </v>
   <v>       0.56651751       0.41629080       0.55453127 </v>
  </varray>
 </structure>
 <varray name="primitive_index" >
  <v type="int" >        1 </v>
  <v type="int" >        2 </v>
  <v type="int" >        3 </v>
  <v type="int" >        4 </v>
  <v type="int" >        5 </v>
  <v type="int" >        6 </v>
  <v type="int" >        7 </v>
  <v type="int" >        8 </v>
 </varray>
 <kpoints>
  <generation param="Gamma">
   <v type="int" name="divisions">       1        1        1 </v>
   <v name="usershift">      0.00000000       0.00000000       0.00000000 </v>
   <v name="genvec1">      1.00000000       0.00000000       0.00000000 </v>
   <v name="genvec2">      0.00000000       1.00000000       0.00000000 </v>
   <v name="genvec3">      0.00000000       0.00000000       1.00000000 </v>
   <v name="shift">      0.00000000       0.00000000       0.00000000 </v>
  </generation>
  <varray name="kpointlist" >
   <v>       0.00000000       0.00000000       0.00000000 </v>
  </varray>
  <varray name="weights" >
   <v>       1.00000000 </v>
  </varray>
 </kpoints>
 <parameters>
  <separator name="general" >
   <i type="string" name="SYSTEM">unknown system</i>
   <i type="logical" name="LCOMPAT"> F  </i>
  </separator>
  <separator name="electronic" >
   <i type="string" name="PREC">normal</i>
   <i name="ENMAX">    400.00000000</i>
   <i name="ENAUG">    356.67000000</i>
   <i name="EDIFF">      0.00010000</i>
   <i type="int" name="IALGO">    38</i>
   <i type="int" name="IWAVPR">    11</i>
   <i type="int" name="NBANDS">    56</i>
   <i type="int" name="NBANDSLOW">    -1</i>
   <i type="int" name="NBANDSHIGH">    -1</i>
   <i name="NELECT">     88.00000000</i>
   <i type="int" name="TURBO">     0</i>
   <i type="int" name="IRESTART">     0</i>
   <i type="int" name="NREBOOT">     0</i>
   <i type="int" name="NMIN">     0</i>
   <i name="EREF">      0.00000000</i>
   <separator name="electronic smearing" >
    <i type="int" name="ISMEAR">     1</i>
    <i name="SIGMA">      0.20000000</i>
    <i name="KSPACING">      0.50000000</i>
    <i type="logical" name="KGAMMA"> T  </i>
    <i type="logical" name="KBLOWUP"> T  </i>
   </separator>
   <separator name="electronic projectors" >
    <i type="logical" name="LREAL"> F  </i>
    <v name="ROPT">      0.00000000</v>
    <i type="int" name="LMAXPAW">  -100</i>
    <i type="int" name="LMAXMIX">     2</i>
    <i type="logical" name="NLSPLINE"> F  </i>
   </separator>
   <separator name="electronic startup" >
    <i type="int" name="ISTART">     0</i>
    <i type="int" name="ICHARG">     2</i>
    <i type="int" name="INIWAV">     1</i>
   </separator>
   <separator name="electronic spin" >
    <i type="int" name="ISPIN">     2</i>
    <i type="logical" name="LNONCOLLINEAR"> F  </i>
    <v name="MAGMOM">      1.00000000      1.00000000      1.00000000      1.00000000      1.00000000      1.00000000      1.00000000      1.00000000</v>
    <i name="NUPDOWN">     -1.00000000</i>
    <i type="logical" name="LSORBIT"> F  </i>
    <v name="SAXIS">      0.00000000      0.00000000      1.00000000</v>
    <i type="logical" name="LSPIRAL"> F  </i>
    <v name="QSPIRAL">      0.00000000      0.00000000      0.00000000</v>
    <i type="logical" name="LZEROZ"> F  </i>
   </separator>
   <separator name="electronic exchange-correlation" >
    <i type="logical" name="LASPH"> F  </i>
    <i type="logical" name="LMETAGGA"> F  </i>
   </separator>
   <separator name="electronic convergence" >
    <i type="int" name="NELM">    60</i>
    <i type="int" name="NELMDL">     0</i>
    <i type="int" name="NELMIN">     2</i>
    <i name="ENINI">    400.00000000</i>
    <separator name="electronic convergence detail" >
     <i type="logical" name="LDIAG"> T  </i>
     <i type="logical" name="LSUBROT"> F  </i>
     <i name="WEIMIN">      0.00100000</i>
     <i name="EBREAK">      0.00000045</i>
     <i name="DEPER">      0.30000000</i>
     <i type="int" name="NRMM">     4</i>
     <i name="TIME">      0.40000000</i>
    </separator>
   </separator>
   <separator name="electronic mixer" >
    <i name="AMIX">      0.40000000</i>
    <i name="BMIX">      1.00000000</i>
    <i name="AMIN">      0.10000000</i>
    <i name="AMIX_MAG">      1.60000000</i>
    <i name="BMIX_MAG">      1.00000000</i>
    <separator name="electronic mixer details" >
     <i type="int" name="IMIX">     4</i>
     <i type="logical" name="MIXFIRST"> F  </i>
     <i type="int" name="MAXMIX">   -45</i>
     <i name="WC">    100.00000000</i>
     <i type="int" name="INIMIX">     1</i>
     <i type="int" name="MIXPRE">     1</i>
     <i type="int" name="MREMOVE">     5</i>
    </separator>
   </separator>
   <separator name="electronic dipolcorrection" >
    <i type="logical" name="LDIPOL"> F  </i>
    <i type="logical" name="LMONO"> F  </i>
    <i type="int" name="IDIPOL">     0</i>
    <i name="EPSILON">      1.00000000</i>
    <v name="DIPOL">   -100.00000000   -100.00000000   -100.00000000</v>
    <i name="EFIELD">      0.00000000</i>
   </separator>
  </separator>
  <separator name="grids" >
   <i type="int" name="NGX">   112</i>
   <i type="int" name="NGY">   108</i>
   <i type="int" name="NGZ">   108</i>
   <i type="int" name="NGXF">   224</i>
   <i type="int" name="NGYF">   216</i>
   <i type="int" name="NGZF">   216</i>
   <i type="logical" name="ADDGRID"> F  </i>
  </separator>
  <separator name="ionic" >
   <i type="int" name="NSW">  1000</i>
   <i type="int" name="IBRION">     2</i>
   <i type="int" name="MDALGO">     0</i>
   <i type="int" name="ISIF">     0</i>
   <i name="PSTRESS">      0.00000000</i>
   <i name="EDIFFG">      0.00100000</i>
   <i type="int" name="NFREE">     1</i>
   <i name="POTIM">      0.50000000</i>
   <i name="SMASS">     -3.00000000</i>
   <i name="SCALEE">      1.00000000</i>
  </separator>
  <separator name="ionic md" >
   <i name="TEBEG">      0.00010000</i>
   <i name="TEEND">      0.00010000</i>
   <i type="int" name="NBLOCK">     1</i>
   <i type="int" name="KBLOCK">  1000</i>
   <i type="int" name="NPACO">   256</i>
   <i name="APACO">     16.00000000</i>
  </separator>
  <separator name="symmetry" >
   <i type="int" name="ISYM">     0</i>
   <i name="SYMPREC">      0.00001000</i>
  </separator>
  <separator name="dos" >
   <i type="int" name="LORBIT">     0</i>
   <v name="RWIGS">     -1.00000000</v>
   <i type="int" name="NEDOS">   301</i>
   <i name="EMIN">     10.00000000</i>
   <i name="EMAX">    -10.00000000</i>
   <i name="EFERMI">      0.00000000</i>
  </separator>
  <separator name="writing" >
   <i type="int" name="NWRITE">     2</i>
   <i type="logical" name="LWAVE"> F  </i>
   <i type="logical" name="LDOWNSAMPLE"> F  </i>
   <i type="logical" name="LCHARG"> F  </i>
   <i type="logical" name="LPARD"> F  </i>
   <i type="logical" name="LVTOT"> F  </i>
   <i type="logical" name="LVHAR"> F  </i>
   <i type="logical" name="LELF"> F  </i>
   <i type="logical" name="LOPTICS"> F  </i>
   <v name="STM">      0.00000000      0.00000000      0.00000000      0.00000000      0.00000000      0.00000000      0.00000000</v>
  </separator>
  <separator name="performance" >
   <i type="int" name="NPAR">     1</i>
   <i type="int" name="NSIM">     4</i>
   <i type="int" name="NBLK">    -1</i>
   <i type="logical" name="LPLANE"> T  </i>
   <i type="logical" name="LSCALAPACK"> T  </i>
   <i type="logical" name="LSCAAWARE"> F  </i>
   <i type="logical" name="LSCALU"> F  </i>
   <i type="logical" name="LASYNC"> F  </i>
   <i type="logical" name="LORBITALREAL"> F  </i>
  </separator>
  <separator name="miscellaneous" >
   <i type="int" name="IDIOT">     3</i>
   <i type="int" name="PHON_NSTRUCT">    -1</i>
   <i type="logical" name="LMUSIC"> F  </i>
   <v name="POMASS">    196.96600000</v>
   <v name="DARWINR">      0.00000000</v>
   <v name="DARWINV">      1.00000000</v>
   <i type="logical" name="LCORR"> T  </i>
  </separator>
  <i type="logical" name="GGA_COMPAT"> T  </i>
  <i type="logical" name="LBERRY"> F  </i>
  <i type="int" name="ICORELEVEL">     0</i>
  <i type="logical" name="LDAU"> F  </i>
  <i type="int" name="I_CONSTRAINED_M">     0</i>
  <separator name="electronic exchange-correlation" >
   <i type="string" name="GGA">PE</i>
   <i type="int" name="VOSKOWN">     0</i>
   <i type="logical" name="LHFCALC"> F  </i>
   <i type="string" name="PRECFOCK"></i>
   <i type="logical" name="LSYMGRAD"> F  </i>
   <i type="logical" name="LHFONE"> F  </i>
   <i type="logical" name="LRHFCALC"> F  </i>
   <i type="logical" name="LTHOMAS"> F  </i>
   <i type="logical" name="LMODELHF"> F  </i>
   <i type="logical" name="LFOCKACE"> F  </i>
   <i name="ENCUT4O">     -1.00000000</i>
   <i type="int" name="EXXOEP">     0</i>
   <i type="int" name="FOURORBIT">     0</i>
   <i name="AEXX">      0.00000000</i>
   <i name="HFALPHA">      0.00000000</i>
   <i name="MCALPHA">      0.00000000</i>
   <i name="ALDAX">      1.00000000</i>
   <i name="AGGAX">      1.00000000</i>
   <i name="ALDAC">      1.00000000</i>
   <i name="AGGAC">      1.00000000</i>
   <i type="int" name="NKREDX">     1</i>
   <i type="int" name="NKREDY">     1</i>
   <i type="int" name="NKREDZ">     1</i>
   <i type="logical" name="SHIFTRED"> F  </i>
   <i type="logical" name="ODDONLY"> F  </i>
   <i type="logical" name="EVENONLY"> F  </i>
   <i type="int" name="LMAXFOCK">     0</i>
   <i type="int" name="NMAXFOCKAE">     0</i>
   <i type="logical" name="LFOCKAEDFT"> F  </i>
   <i name="HFSCREEN">      0.00000000</i>
   <i name="HFSCREENC">      0.00000000</i>
   <i type="int" name="NBANDSGWLOW">     0</i>
  </separator>
  <separator name="vdW DFT" >
   <i type="logical" name="LUSE_VDW"> F  </i>
   <i name="Zab_VDW">     -0.84910000</i>
   <i name="PARAM1">      0.12340000</i>
   <i name="PARAM2">      1.00000000</i>
   <i name="PARAM3">      0.00000000</i>
  </separator>
  <separator name="model GW" >
   <i type="int" name="MODEL_GW">     0</i>
   <i name="MODEL_EPS0">    829.00136897</i>
   <i name="MODEL_ALPHA">      1.00000000</i>
  </separator>
  <separator name="linear response parameters" >
   <i type="logical" name="LEPSILON"> F  </i>
   <i type="logical" name="LRPA"> F  </i>
   <i type="logical" name="LNABLA"> F  </i>
   <i type="logical" name="LVEL"> F  </i>
   <i type="int" name="KINTER">     0</i>
   <i name="CSHIFT">      0.10000000</i>
   <i name="OMEGAMAX">     -1.00000000</i>
   <i name="DEG_THRESHOLD">      0.00200000</i>
   <i name="RTIME">     -0.10000000</i>
   <i name="WPLASMAI">      0.00000000</i>
   <v name="DFIELD">      0.00000000      0.00000000      0.00000000</v>
   <v name="WPLASMA">      0.00000000      0.00000000      0.00000000      0.00000000      0.00000000      0.00000000      0.00000000      0.00000000      0.00000000</v>
  </separator>
  <separator name="orbital magnetization" >
   <i type="logical" name="NUCIND"> F  </i>
   <v name="MAGPOS">      0.00000000      0.00000000      0.00000000</v>
   <i type="logical" name="LNICSALL"> T  </i>
   <i type="logical" name="ORBITALMAG"> F  </i>
   <i type="logical" name="LMAGBLOCH"> F  </i>
   <i type="logical" name="LCHIMAG"> F  </i>
   <i type="logical" name="LGAUGE"> T  </i>
   <i type="int" name="MAGATOM">     0</i>
   <v name="MAGDIPOL">      0.00000000      0.00000000      0.00000000</v>
   <v name="AVECCONST">      0.00000000      0.00000000      0.00000000</v>
  </separator>
  <separator name="response functions" >
   <i type="logical" name="LFINITE_TEMPERATURE"> F  </i>
   <i type="logical" name="LADDER"> F  </i>
   <i type="logical" name="LRPAFORCE"> F  </i>
   <i type="logical" name="LFXC"> F  </i>
   <i type="logical" name="LHARTREE"> T  </i>
   <i type="int" name="IBSE">     0</i>
   <v type="int" name="KPOINT">    -1     0     0     0</v>
   <i type="logical" name="LTCTC"> F  </i>
   <i type="logical" name="LTCTE"> F  </i>
   <i type="logical" name="LTETE"> F  </i>
   <i type="logical" name="LTRIPLET"> F  </i>
   <i type="logical" name="LFXCEPS"> F  </i>
   <i type="logical" name="LFXHEG"> F  </i>
   <i type="int" name="NATURALO">     2</i>
   <i type="logical" name="LHOLEGF"> F  </i>
   <i type="logical" name="L2ORDER"> F  </i>
   <i type="logical" name="LDMP1"> F  </i>
   <i type="logical" name="LMP2LT"> F  </i>
   <i type="logical" name="LSMP2LT"> F  </i>
   <i type="logical" name="LGWLF"> F  </i>
   <i name="ENCUTGW">     -2.00000000</i>
   <i name="ENCUTGWSOFT">     -2.00000000</i>
   <i name="ENCUTLF">     -1.00000000</i>
   <i type="logical" name="LESF_SPLINES"> F  </i>
   <i type="int" name="LMAXMP2">    -1</i>
   <i name="SCISSOR">      0.00000000</i>
   <i type="int" name="NOMEGA">     0</i>
   <i type="int" name="NOMEGAR">     0</i>
   <i type="int" name="NBANDSGW">    -1</i>
   <i type="int" name="NBANDSO">    -1</i>
   <i type="int" name="NBANDSV">    -1</i>
   <i type="int" name="NELM">     1</i>
   <i type="int" name="NELMHF">     1</i>
   <i type="int" name="DIM">     3</i>
   <i type="int" name="IESPILON">     4</i>
   <i type="int" name="ANTIRES">     0</i>
   <i name="OMEGAMAX">    -30.00000000</i>
   <i name="OMEGAMIN">    -30.00000000</i>
   <i name="OMEGATL">   -200.00000000</i>
   <i type="int" name="OMEGAGRID">     0</i>
   <i name="CSHIFT">     -0.10000000</i>
   <i type="logical" name="LSELFENERGY"> F  </i>
   <i type="logical" name="LSPECTRAL"> F  </i>
   <i type="logical" name="LSPECTRALGW"> F  </i>
   <i type="logical" name="LSINGLES"> F  </i>
   <i type="logical" name="LFERMIGW"> F  </i>
   <i type="logical" name="ODDONLYGW"> F  </i>
   <i type="logical" name="EVENONLYGW"> F  </i>
   <i type="int" name="NKREDLFX">     1</i>
   <i type="int" name="NKREDLFY">     1</i>
   <i type="int" name="NKREDLFZ">     1</i>
   <i type="int" name="MAXMEM">  2800</i>
   <i type="int" name="TELESCOPE">     0</i>
   <i type="int" name="NTAUPAR">    -1</i>
   <i type="int" name="NOMEGAPAR">    -1</i>
   <i name="LAMBDA">      1.00000000</i>
  </separator>
  <separator name="External order field" >
   <i name="OFIELD_KAPPA">      0.00000000</i>
   <v name="OFIELD_K">      0.00000000      0.00000000      0.00000000</v>
   <i name="OFIELD_Q6_NEAR">      0.00000000</i>
   <i name="OFIELD_Q6_FAR">      0.00000000</i>
   <i name="OFIELD_A">      0.00000000</i>
  </separator>
 </parameters>
 <atominfo>
  <atoms>       8 </atoms>
  <types>       1 </types>
  <array name="atoms" >
   <dimension dim="1">ion</dimension>
   <field type="string">element</field>
   <field type="int">atomtype</field>
   <set>
    <rc><c>Au</c><c>   1</c></rc>
    <rc><c>Au</c><c>   1</c></rc>
    <rc><c>Au</c><c>   1</c></rc>
    <rc><c>Au</c><c>   1</c></rc>
    <rc><c>Au</c><c>   1</c></rc>
    <rc><c>Au</c><c>   1</c></rc>
    <rc><c>Au</c><c>   1</c></rc>
    <rc><c>Au</c><c>   1</c></rc>
   </set>
  </array>
  <array name="atomtypes" >
   <dimension dim="1">type</dimension>
   <field type="int">atomspertype</field>
   <field type="string">element</field>
   <field>mass</field>
   <field>valence</field>
   <field type="string">pseudopotential</field>
   <set>
    <rc><c>   8</c><c>Au</c><c>    196.96600000</c><c>     11.00000000</c><c>  PAW_PBE Au 04Oct2007                  </c></rc>
   </set>
  </array>
 </atominfo>
 <structure name="initialpos" >
  <crystal>
   <varray name="basis" >
    <v>      22.64989573       0.00000000       0.00000000 </v>
    <v>       0.00000000      22.13197500       0.00000000 </v>
    <v>       0.00000000       0.00000000      22.04994986 </v>
   </varray>
   <i name="volume">  11053.35158622 </i>
   <varray name="rec_basis" >
    <v>       0.04415031       0.00000000       0.00000000 </v>
    <v>       0.00000000       0.04518350       0.00000000 </v>
    <v>       0.00000000       0.00000000       0.04535158 </v>
   </varray>
  </crystal>
  <varray name="positions" >
   <v>       0.52687000       0.53023403       0.56811548 </v>
   <v>       0.50491119       0.57241553       0.45603396 </v>
   <v>       0.59725638       0.60733190       0.51230175 </v>
   <v>       0.48151999       0.45328313       0.47506796 </v>
   <v>       0.39999556       0.40951331       0.42083508 </v>
   <v>       0.59537677       0.49773583       0.47081709 </v>
   <v>       0.46211943       0.43421386       0.59206409 </v>
   <v>       0.56651751       0.41629080       0.55453127 </v>
  </varray>
 </structure>
 <calculation>
  <scstep>
   <time name="dav">    4.37    4.39</time>
   <time name="total">    7.01    7.19</time>
   <energy>
    <i name="alphaZ">      6.74428445 </i>
    <i name="ewald">   8017.80969692 </i>
    <i name="hartreedc"> -15097.05448598 </i>
    <i name="XCdc">    118.52814506 </i>
    <i name="pawpsdc">   6992.17180065 </i>
    <i name="pawaedc">  -6807.49900724 </i>
    <i name="eentropy">     -0.00774615 </i>
    <i name="bandstr">    113.06833399 </i>
    <i name="atom">   7408.64415014 </i>
    <i name="e_fr_energy">    752.40517183 </i>
    <i name="e_wo_entrp">    752.41291798 </i>
    <i name="e_0_energy">    752.40775388 </i>
   </energy>
  </scstep>
  <scstep>
   <time name="dav">    7.03    7.14</time>
   <time name="total">    7.03    7.15</time>
   <energy>
    <i name="e_fr_energy">    447.40749230 </i>
    <i name="e_wo_entrp">    447.46191428 </i>
    <i name="e_0_energy">    447.42563296 </i>
   </energy>
  </scstep>
  <scstep>
   <time name="dav">    6.73    7.03</time>
   <time name="total">    6.74    7.04</time>
   <energy>
    <i name="e_fr_energy">    125.12620856 </i>
    <i name="e_wo_entrp">    125.12091416 </i>
    <i name="e_0_energy">    125.12444376 </i>
   </energy>
  </scstep>
  <scstep>
   <time name="dav">    7.02    7.18</time>
   <time name="total">    7.02    7.18</time>
   <energy>
    <i name="e_fr_energy">      3.61249095 </i>
    <i name="e_wo_entrp">      3.59226630 </i>
    <i name="e_0_energy">      3.60574940 </i>
   </energy>
  </scstep>
  <scstep>
   <time name="dav">    5.04    5.15</time>
   <time name="total">    5.71    5.83</time>
   <energy>
    <i name="e_fr_energy">    -14.75131587 </i>
    <i name="e_wo_entrp">    -14.73267194 </i>
    <i name="e_0_energy">    -14.74510123 </i>
   </energy>
  </scstep>
  <scstep>
   <time name="dav">    4.59    4.63</time>
   <time name="total">    7.73    7.81</time>
   <energy>
    <i name="e_fr_energy">     -2.56854104 </i>
    <i name="e_wo_entrp">     -2.57544755 </i>
    <i name="e_0_energy">     -2.57084321 </i>
   </energy>
  </scstep>
  <scstep>
   <time name="dav">    4.88    4.95</time>
   <time name="total">    8.44    8.54</time>
   <energy>
    <i name="e_fr_energy">     -5.24558190 </i>
    <i name="e_wo_entrp">     -5.24108738 </i>
    <i name="e_0_energy">     -5.24408373 </i>
   </energy>
  </scstep>
  <scstep>
   <time name="dav">    4.60    4.78</time>
   <time name="total">    7.73    8.00</time>
   <energy>
    <i name="e_fr_energy">     -7.95832622 </i>
    <i name="e_wo_entrp">     -7.92440709 </i>
    <i name="e_0_energy">     -7.94701984 </i>
   </energy>
  </scstep>
  <scstep>
   <time name="dav">    4.60    4.65</time>
   <time name="total">    8.00    8.11</time>
   <energy>
    <i name="e_fr_energy">     -9.10299200 </i>
    <i name="e_wo_entrp">     -9.04942254 </i>
    <i name="e_0_energy">     -9.08513551 </i>
   </energy>
  </scstep>
  <scstep>
   <time name="dav">    4.71    4.92</time>
   <time name="total">    8.14    8.43</time>
   <energy>
    <i name="e_fr_energy">     -9.75562959 </i>
    <i name="e_wo_entrp">     -9.69942359 </i>
    <i name="e_0_energy">     -9.73689426 </i>
   </energy>
  </scstep>
  <scstep>
   <time name="dav">    4.74    4.96</time>
   <time name="total">    7.90    8.22</time>
   <energy>
    <i name="e_fr_energy">    -10.90980694 </i>
    <i name="e_wo_entrp">    -10.85918778 </i>
    <i name="e_0_energy">    -10.89293389 </i>
   </energy>
  </scstep>
  <scstep>
   <time name="dav">    4.25    4.38</time>
   <time name="total">    7.61    7.95</time>
   <energy>
    <i name="e_fr_energy">    -12.26664393 </i>
    <i name="e_wo_entrp">    -12.24426555 </i>
    <i name="e_0_energy">    -12.25918447 </i>
   </energy>
  </scstep>
  <scstep>
   <time name="dav">    5.02    5.22</time>
   <time name="total">    8.35    8.72</time>
   <energy>
    <i name="e_fr_energy">    -13.19777871 </i>
    <i name="e_wo_entrp">    -13.19797833 </i>
    <i name="e_0_energy">    -13.19784525 </i>
   </energy>
  </scstep>
  <scstep>
   <time name="dav">    4.66    4.92</time>
   <time name="total">    8.65    9.15</time>
   <energy>
    <i name="e_fr_energy">    -13.80449672 </i>
    <i name="e_wo_entrp">    -13.81764312 </i>
    <i name="e_0_energy">    -13.80887885 </i>
   </energy>
  </scstep>
  <scstep>
   <time name="dav">    4.82    4.85</time>
   <time name="total">    8.19    8.25</time>
   <energy>
    <i name="e_fr_energy">    -14.22706918 </i>
    <i name="e_wo_entrp">    -14.24486343 </i>
    <i name="e_0_energy">    -14.23300060 </i>
   </energy>
  </scstep>
  <scstep>
   <time name="dav">    4.24    4.29</time>
   <time name="total">    7.49    7.60</time>
   <energy>
    <i name="e_fr_energy">    -14.69789475 </i>
    <i name="e_wo_entrp">    -14.71508280 </i>
    <i name="e_0_energy">    -14.70362410 </i>
   </energy>
  </scstep>
  <scstep>
   <time name="dav">    4.74    4.81</time>
   <time name="total">    8.01    8.10</time>
   <energy>
    <i name="e_fr_energy">    -14.84734552 </i>
    <i name="e_wo_entrp">    -14.86701796 </i>
    <i name="e_0_energy">    -14.85390300 </i>
   </energy>
  </scstep>
  <scstep>
   <time name="dav">    4.53    4.57</time>
   <time name="total">    8.08    8.23</time>
   <energy>
    <i name="e_fr_energy">    -14.95811378 </i>
    <i name="e_wo_entrp">    -14.97726212 </i>
    <i name="e_0_energy">    -14.96449656 </i>
   </energy>
  </scstep>
  <scstep>
   <time name="dav">    3.99    4.03</time>
   <time name="total">    7.34    7.42</time>
   <energy>
    <i name="e_fr_energy">    -14.99879170 </i>
    <i name="e_wo_entrp">    -15.01904493 </i>
    <i name="e_0_energy">    -15.00554277 </i>
   </energy>
  </scstep>
  <scstep>
   <time name="dav">    3.75    3.76</time>
   <time name="total">    7.02    7.12</time>
   <energy>
    <i name="e_fr_energy">    -15.01467070 </i>
    <i name="e_wo_entrp">    -15.03506752 </i>
    <i name="e_0_energy">    -15.02146964 </i>
   </energy>
  </scstep>
  <scstep>
   <time name="dav">    3.58    3.64</time>
   <time name="total">    6.81    6.92</time>
   <energy>
    <i name="e_fr_energy">    -15.02225457 </i>
    <i name="e_wo_entrp">    -15.04235192 </i>
    <i name="e_0_energy">    -15.02895369 </i>
   </energy>
  </scstep>
  <scstep>
   <time name="dav">    3.73    3.93</time>
   <time name="total">    7.04    7.30</time>
   <energy>
    <i name="e_fr_energy">    -15.02512734 </i>
    <i name="e_wo_entrp">    -15.04543224 </i>
    <i name="e_0_energy">    -15.03189564 </i>
   </energy>
  </scstep>
  <scstep>
   <time name="dav">    4.44    4.80</time>
   <time name="total">    7.97    8.36</time>
   <energy>
    <i name="e_fr_energy">    -15.02609128 </i>
    <i name="e_wo_entrp">    -15.04639533 </i>
    <i name="e_0_energy">    -15.03285929 </i>
   </energy>
  </scstep>
  <scstep>
   <time name="dav">    3.89    3.92</time>
   <time name="total">    7.17    7.24</time>
   <energy>
    <i name="e_fr_energy">    -15.02725104 </i>
    <i name="e_wo_entrp">    -15.04747080 </i>
    <i name="e_0_energy">    -15.03399096 </i>
   </energy>
  </scstep>
  <scstep>
   <time name="dav">    3.55    3.60</time>
   <time name="total">    6.88    6.95</time>
   <energy>
    <i name="e_fr_energy">    -15.02799453 </i>
    <i name="e_wo_entrp">    -15.04815977 </i>
    <i name="e_0_energy">    -15.03471628 </i>
   </energy>
  </scstep>
  <scstep>
   <time name="dav">    4.03    4.08</time>
   <time name="total">    7.32    7.42</time>
   <energy>
    <i name="e_fr_energy">    -15.02854175 </i>
    <i name="e_wo_entrp">    -15.04877156 </i>
    <i name="e_0_energy">    -15.03528502 </i>
   </energy>
  </scstep>
  <scstep>
   <time name="dav">    3.89    3.93</time>
   <time name="total">    7.21    7.26</time>
   <energy>
    <i name="e_fr_energy">    -15.02882658 </i>
    <i name="e_wo_entrp">    -15.04902627 </i>
    <i name="e_0_energy">    -15.03555981 </i>
   </energy>
  </scstep>
  <scstep>
   <time name="dav">    3.47    3.50</time>
   <time name="total">    5.89    5.94</time>
   <energy>
    <i name="alphaZ">      6.74428445 </i>
    <i name="ewald">   8017.80969692 </i>
    <i name="hartreedc"> -15050.28925388 </i>
    <i name="XCdc">    115.50137713 </i>
    <i name="pawpsdc">   8094.83843668 </i>
    <i name="pawaedc">  -7926.12695142 </i>
    <i name="eentropy">      0.02018977 </i>
    <i name="bandstr">   -682.17083364 </i>
    <i name="atom">   7408.64415014 </i>
    <i name="e_fr_energy">    -15.02890385 </i>
    <i name="e_wo_entrp">    -15.04909362 </i>
    <i name="e_0_energy">    -15.03563377 </i>
   </energy>
  </scstep>
  <structure>
   <crystal>
    <varray name="basis" >
     <v>      22.64989573       0.00000000       0.00000000 </v>
     <v>       0.00000000      22.13197500       0.00000000 </v>
     <v>       0.00000000       0.00000000      22.04994986 </v>
    </varray>
    <i name="volume">  11053.35158622 </i>
    <varray name="rec_basis" >
     <v>       0.04415031       0.00000000       0.00000000 </v>
     <v>       0.00000000       0.04518350       0.00000000 </v>
     <v>       0.00000000       0.00000000       0.04535158 </v>
    </varray>
   </crystal>
   <varray name="positions" >
    <v>       0.52687000       0.53023403       0.56811548 </v>
    <v>       0.50491119       0.57241553       0.45603396 </v>
    <v>       0.59725638       0.60733190       0.51230175 </v>
    <v>       0.48151999       0.45328313       0.47506796 </v>
    <v>       0.39999556       0.40951331       0.42083508 </v>
    <v>       0.59537677       0.49773583       0.47081709 </v>
    <v>       0.46211943       0.43421386       0.59206409 </v>
    <v>       0.56651751       0.41629080       0.55453127 </v>
   </varray>
  </structure>
  <varray name="forces" >
   <v>      -0.64094204       0.54025584       1.41943972 </v>
   <v>      -1.58725459       0.60785524      -1.10632030 </v>
   <v>       0.90001464       1.72396362       0.69064460 </v>
   <v>       1.13778222       0.47090757      -0.03928119 </v>
   <v>      -1.51822704      -0.60855852      -1.05497234 </v>
   <v>       1.55500343      -1.77403650      -1.03927748 </v>
   <v>      -1.72061643       0.04618829       1.48942322 </v>
   <v>       1.87423981      -1.00657554      -0.35965623 </v>
  </varray>
  <energy>
   <i name="e_fr_energy">    -15.02890385 </i>
   <i name="e_wo_entrp">    -15.04909362 </i>
   <i name="e_0_energy">    -15.03563377 </i>
  </energy>
  <time name="totalsc">  216.77  221.85</time>
 </calculation>
 <calculation>
  <scstep>
   <time name="dav">    4.26    4.29</time>
   <time name="total">    7.60    7.64</time>
   <energy>
    <i name="alphaZ">      6.74428445 </i>
    <i name="ewald">   7533.08103385 </i>
    <i name="hartreedc"> -14574.08830912 </i>
    <i name="XCdc">    113.81718598 </i>
    <i name="pawpsdc">   8094.84906472 </i>
    <i name="pawaedc">  -7926.13764664 </i>
    <i name="eentropy">      0.03421247 </i>
    <i name="bandstr">   -672.26978713 </i>
    <i name="atom">   7408.64415014 </i>
    <i name="e_fr_energy">    -15.32581130 </i>
    <i name="e_wo_entrp">    -15.36002377 </i>
    <i name="e_0_energy">    -15.33721546 </i>
   </energy>
  </scstep>
  <scstep>
   <time name="dav">    4.75    4.78</time>
   <time name="total">    7.83    7.91</time>
   <energy>
    <i name="e_fr_energy">    -15.79822335 </i>
    <i name="e_wo_entrp">    -15.83670954 </i>
    <i name="e_0_energy">    -15.81105208 </i>
   </energy>
  </scstep>
  <scstep>
   <time name="dav">    4.40    4.45</time>
   <time name="total">    7.46    7.54</time>
   <energy>
    <i name="e_fr_energy">    -15.77377804 </i>
    <i name="e_wo_entrp">    -15.81262599 </i>
    <i name="e_0_energy">    -15.78672736 </i>
   </energy>
  </scstep>
  <scstep>
   <time name="dav">    4.66    4.69</time>
   <time name="total">    7.75    7.89</time>
   <energy>
    <i name="e_fr_energy">    -15.77610423 </i>
    <i name="e_wo_entrp">    -15.81700059 </i>
    <i name="e_0_energy">    -15.78973635 </i>
   </energy>
  </scstep>
  <scstep>
   <time name="dav">    4.52    4.56</time>
   <time name="total">    7.59    7.65</time>
   <energy>
    <i name="e_fr_energy">    -15.77150368 </i>
    <i name="e_wo_entrp">    -15.81081272 </i>
    <i name="e_0_energy">    -15.78460670 </i>
   </energy>
  </scstep>
  <scstep>
   <time name="dav">    4.63    4.66</time>
   <time name="total">    8.29    8.34</time>
   <energy>
    <i name="e_fr_energy">    -15.77107230 </i>
    <i name="e_wo_entrp">    -15.80999154 </i>
    <i name="e_0_energy">    -15.78404538 </i>
   </energy>
  </scstep>
  <scstep>
   <time name="dav">    3.82    3.86</time>
   <time name="total">    6.21    6.29</time>
   <energy>
    <i name="alphaZ">      6.74428445 </i>
    <i name="ewald">   7533.08103385 </i>
    <i name="hartreedc"> -14585.34954870 </i>
    <i name="XCdc">    114.10675112 </i>
    <i name="pawpsdc">   7775.01052745 </i>
    <i name="pawaedc">  -7603.17976478 </i>
    <i name="eentropy">      0.03895567 </i>
    <i name="bandstr">   -664.86752024 </i>
    <i name="atom">   7408.64415014 </i>
    <i name="e_fr_energy">    -15.77113104 </i>
    <i name="e_wo_entrp">    -15.81008671 </i>
    <i name="e_0_energy">    -15.78411626 </i>
   </energy>
  </scstep>
  <structure>
   <crystal>
    <varray name="basis" >
     <v>      22.64989573       0.00000000       0.00000000 </v>
     <v>       0.00000000      22.13197500       0.00000000 </v>
     <v>       0.00000000       0.00000000      22.04994986 </v>
    </varray>
    <i name="volume">  11053.35158622 </i>
    <varray name="rec_basis" >
     <v>       0.04415031       0.00000000       0.00000000 </v>
     <v>       0.00000000       0.04518350       0.00000000 </v>
     <v>       0.00000000       0.00000000       0.04535158 </v>
    </varray>
   </crystal>
   <varray name="positions" >
    <v>       0.52550483       0.53141166       0.57122104 </v>
    <v>       0.50153045       0.57374051       0.45361346 </v>
    <v>       0.59917335       0.61108975       0.51381279 </v>
    <v>       0.48394339       0.45430960       0.47498202 </v>
    <v>       0.39676185       0.40818679       0.41852692 </v>
    <v>       0.59868882       0.49386884       0.46854328 </v>
    <v>       0.45845464       0.43431454       0.59532277 </v>
    <v>       0.57050950       0.41409669       0.55374439 </v>
   </varray>
  </structure>
  <varray name="forces" >
   <v>      -0.15986726       0.11392067       0.13230950 </v>
   <v>       0.10533089       0.15334501       0.08104213 </v>
   <v>      -0.47911277      -0.11745765       0.01235643 </v>
   <v>      -0.12333198      -0.24695227      -0.22968552 </v>
   <v>      -0.00602261       0.18659621      -0.04981609 </v>
   <v>       0.48723929      -0.17184689      -0.22811468 </v>
   <v>      -0.04657545       0.24455486       0.33190022 </v>
   <v>       0.22233989      -0.16215995      -0.04999199 </v>
  </varray>
  <energy>
   <i name="e_fr_energy">    -15.77113104 </i>
   <i name="e_wo_entrp">    -15.81008671 </i>
   <i name="e_0_energy">    -15.78411626 </i>
  </energy>
  <time name="totalsc">   60.44   61.12</time>
 </calculation>
 <calculation>
  <scstep>
   <time name="dav">    4.21    4.26</time>
   <time name="total">    7.79    7.86</time>
   <energy>
    <i name="alphaZ">      6.74428445 </i>
    <i name="ewald">   7489.29494041 </i>
    <i name="hartreedc"> -14542.34345073 </i>
    <i name="XCdc">    113.96951660 </i>
    <i name="pawpsdc">   7773.03532501 </i>
    <i name="pawaedc">  -7601.20031374 </i>
    <i name="eentropy">      0.03965203 </i>
    <i name="bandstr">   -663.95525642 </i>
    <i name="atom">   7408.64415014 </i>
    <i name="e_fr_energy">    -15.77115225 </i>
    <i name="e_wo_entrp">    -15.81080428 </i>
    <i name="e_0_energy">    -15.78436960 </i>
   </energy>
  </scstep>
  <scstep>
   <time name="dav">    4.78    4.81</time>
   <time name="total">    7.91    7.96</time>
   <energy>
    <i name="e_fr_energy">    -15.77574679 </i>
    <i name="e_wo_entrp">    -15.81583189 </i>
    <i name="e_0_energy">    -15.78910849 </i>
   </energy>
  </scstep>
  <scstep>
   <time name="dav">    4.68    4.73</time>
   <time name="total">    7.76    7.84</time>
   <energy>
    <i name="e_fr_energy">    -15.77551436 </i>
    <i name="e_wo_entrp">    -15.81569032 </i>
    <i name="e_0_energy">    -15.78890634 </i>
   </energy>
  </scstep>
  <scstep>
   <time name="dav">    4.51    4.56</time>
   <time name="total">    6.95    7.03</time>
   <energy>
    <i name="alphaZ">      6.74428445 </i>
    <i name="ewald">   7489.29494041 </i>
    <i name="hartreedc"> -14543.81640872 </i>
    <i name="XCdc">    113.99980157 </i>
    <i name="pawpsdc">   7749.36149515 </i>
    <i name="pawaedc">  -7577.27308781 </i>
    <i name="eentropy">      0.04039330 </i>
    <i name="bandstr">   -662.77116009 </i>
    <i name="atom">   7408.64415014 </i>
    <i name="e_fr_energy">    -15.77559159 </i>
    <i name="e_wo_entrp">    -15.81598489 </i>
    <i name="e_0_energy">    -15.78905603 </i>
   </energy>
  </scstep>
  <structure>
   <crystal>
    <varray name="basis" >
     <v>      22.64989573       0.00000000       0.00000000 </v>
     <v>       0.00000000      22.13197500       0.00000000 </v>
     <v>       0.00000000       0.00000000      22.04994986 </v>
    </varray>
    <i name="volume">  11053.35158622 </i>
    <varray name="rec_basis" >
     <v>       0.04415031       0.00000000       0.00000000 </v>
     <v>       0.00000000       0.04518350       0.00000000 </v>
     <v>       0.00000000       0.00000000       0.04535158 </v>
    </varray>
   </crystal>
   <varray name="positions" >
    <v>       0.52537577       0.53152300       0.57151465 </v>
    <v>       0.50121083       0.57386578       0.45338462 </v>
    <v>       0.59935458       0.61144502       0.51395565 </v>
    <v>       0.48417250       0.45440665       0.47497390 </v>
    <v>       0.39645612       0.40806138       0.41830870 </v>
    <v>       0.59900195       0.49350324       0.46832830 </v>
    <v>       0.45810816       0.43432406       0.59563086 </v>
    <v>       0.57088692       0.41388926       0.55366999 </v>
   </varray>
  </structure>
  <varray name="forces" >
   <v>      -0.13827361       0.08460510       0.05570274 </v>
   <v>       0.19340512       0.12767257       0.14959403 </v>
   <v>      -0.56239641      -0.21912820      -0.01919900 </v>
   <v>      -0.19407030      -0.28584306      -0.23093208 </v>
   <v>       0.08642642       0.23587564       0.01029915 </v>
   <v>       0.43306208      -0.09956265      -0.18613713 </v>
   <v>       0.04279681       0.26766959       0.26295988 </v>
   <v>       0.13904989      -0.11128897      -0.04228760 </v>
  </varray>
  <energy>
   <i name="e_fr_energy">    -15.77559159 </i>
   <i name="e_wo_entrp">    -15.81598489 </i>
   <i name="e_0_energy">    -15.78905603 </i>
  </energy>
  <time name="totalsc">   37.98   38.34</time>
 </calculation>
 <calculation>
  <scstep>
   <time name="dav">    4.20    4.25</time>
   <time name="total">    7.27    7.34</time>
   <energy>
    <i name="alphaZ">      6.74428445 </i>
    <i name="ewald">   7460.88731421 </i>
    <i name="hartreedc"> -14515.94726406 </i>
    <i name="XCdc">    113.93844854 </i>
    <i name="pawpsdc">   7748.91697967 </i>
    <i name="pawaedc">  -7576.82723240 </i>
    <i name="eentropy">      0.04836714 </i>
    <i name="bandstr">   -662.20582199 </i>
    <i name="atom">   7408.64415014 </i>
    <i name="e_fr_energy">    -15.80077430 </i>
    <i name="e_wo_entrp">    -15.84914145 </i>
    <i name="e_0_energy">    -15.81689668 </i>
   </energy>
  </scstep>
  <scstep>
   <time name="dav">    5.00    5.02</time>
   <time name="total">    8.06    8.12</time>
   <energy>
    <i name="e_fr_energy">    -15.81936323 </i>
    <i name="e_wo_entrp">    -15.86495438 </i>
    <i name="e_0_energy">    -15.83456028 </i>
   </energy>
  </scstep>
  <scstep>
   <time name="dav">    4.77    4.88</time>
   <time name="total">    7.87    8.02</time>
   <energy>
    <i name="e_fr_energy">    -15.81871780 </i>
    <i name="e_wo_entrp">    -15.86519785 </i>
    <i name="e_0_energy">    -15.83421115 </i>
   </energy>
  </scstep>
  <scstep>
   <time name="dav">    4.63    4.68</time>
   <time name="total">    7.71    7.78</time>
   <energy>
    <i name="e_fr_energy">    -15.81841058 </i>
    <i name="e_wo_entrp">    -15.86505236 </i>
    <i name="e_0_energy">    -15.83395784 </i>
   </energy>
  </scstep>
  <scstep>
   <time name="dav">    3.36    3.39</time>
   <time name="total">    5.80    5.83</time>
   <energy>
    <i name="alphaZ">      6.74428445 </i>
    <i name="ewald">   7460.88731421 </i>
    <i name="hartreedc"> -14516.70939047 </i>
    <i name="XCdc">    113.94869760 </i>
    <i name="pawpsdc">   7738.52871172 </i>
    <i name="pawaedc">  -7566.36794887 </i>
    <i name="eentropy">      0.04663525 </i>
    <i name="bandstr">   -661.54092324 </i>
    <i name="atom">   7408.64415014 </i>
    <i name="e_fr_energy">    -15.81846922 </i>
    <i name="e_wo_entrp">    -15.86510447 </i>
    <i name="e_0_energy">    -15.83401430 </i>
   </energy>
  </scstep>
  <structure>
   <crystal>
    <varray name="basis" >
     <v>      22.64989573       0.00000000       0.00000000 </v>
     <v>       0.00000000      22.13197500       0.00000000 </v>
     <v>       0.00000000       0.00000000      22.04994986 </v>
    </varray>
    <i name="volume">  11053.35158622 </i>
    <varray name="rec_basis" >
     <v>       0.04415031       0.00000000       0.00000000 </v>
     <v>       0.00000000       0.04518350       0.00000000 </v>
     <v>       0.00000000       0.00000000       0.04535158 </v>
    </varray>
   </crystal>
   <varray name="positions" >
    <v>       0.52503070       0.53174971       0.57174116 </v>
    <v>       0.50151916       0.57419300       0.45363835 </v>
    <v>       0.59819724       0.61108217       0.51396264 </v>
    <v>       0.48383118       0.45380562       0.47445626 </v>
    <v>       0.39653713       0.40854154       0.41825561 </v>
    <v>       0.60005092       0.49315469       0.46783844 </v>
    <v>       0.45808028       0.43492187       0.59632444 </v>
    <v>       0.57132022       0.41356979       0.55354979 </v>
   </varray>
  </structure>
  <varray name="forces" >
   <v>      -0.15122948      -0.02695514      -0.00013827 </v>
   <v>       0.11028823      -0.01728653       0.12524395 </v>
   <v>      -0.42056120      -0.14886439       0.00694747 </v>
   <v>       0.12255221      -0.11107740      -0.01916503 </v>
   <v>      -0.06192103       0.16267631      -0.09042386 </v>
   <v>       0.25220818      -0.14482284      -0.09275020 </v>
   <v>       0.12765919       0.26277974       0.18011980 </v>
   <v>       0.02100390       0.02355025      -0.10983385 </v>
  </varray>
  <energy>
   <i name="e_fr_energy">    -15.81846922 </i>
   <i name="e_wo_entrp">    -15.86510447 </i>
   <i name="e_0_energy">    -15.83401430 </i>
  </energy>
  <time name="totalsc">   44.30   44.79</time>
 </calculation>
 <calculation>
  <scstep>
   <time name="dav">    4.28    4.32</time>
   <time name="total">    7.36    7.43</time>
   <energy>
    <i name="alphaZ">      6.74428445 </i>
    <i name="ewald">   7422.97960382 </i>
    <i name="hartreedc"> -14479.46237720 </i>
    <i name="XCdc">    113.87903067 </i>
    <i name="pawpsdc">   7738.82770321 </i>
    <i name="pawaedc">  -7566.66850461 </i>
    <i name="eentropy">      0.04460027 </i>
    <i name="bandstr">   -660.79339711 </i>
    <i name="atom">   7408.64415014 </i>
    <i name="e_fr_energy">    -15.80490637 </i>
    <i name="e_wo_entrp">    -15.84950663 </i>
    <i name="e_0_energy">    -15.81977312 </i>
   </energy>
  </scstep>
  <scstep>
   <time name="dav">    4.95    5.18</time>
   <time name="total">    8.06    8.34</time>
   <energy>
    <i name="e_fr_energy">    -15.83974033 </i>
    <i name="e_wo_entrp">    -15.88992564 </i>
    <i name="e_0_energy">    -15.85646876 </i>
   </energy>
  </scstep>
  <scstep>
   <time name="dav">    4.61    4.70</time>
   <time name="total">    7.76    7.86</time>
   <energy>
    <i name="e_fr_energy">    -15.83861824 </i>
    <i name="e_wo_entrp">    -15.88892421 </i>
    <i name="e_0_energy">    -15.85538689 </i>
   </energy>
  </scstep>
  <scstep>
   <time name="dav">    4.63    4.68</time>
   <time name="total">    7.78    7.83</time>
   <energy>
    <i name="e_fr_energy">    -15.83804408 </i>
    <i name="e_wo_entrp">    -15.88836726 </i>
    <i name="e_0_energy">    -15.85481847 </i>
   </energy>
  </scstep>
  <scstep>
   <time name="dav">    4.28    4.47</time>
   <time name="total">    6.71    7.00</time>
   <energy>
    <i name="alphaZ">      6.74428445 </i>
    <i name="ewald">   7422.97960382 </i>
    <i name="hartreedc"> -14480.30215593 </i>
    <i name="XCdc">    113.89086041 </i>
    <i name="pawpsdc">   7728.93850005 </i>
    <i name="pawaedc">  -7556.71220832 </i>
    <i name="eentropy">      0.05032183 </i>
    <i name="bandstr">   -660.07145642 </i>
    <i name="atom">   7408.64415014 </i>
    <i name="e_fr_energy">    -15.83809998 </i>
    <i name="e_wo_entrp">    -15.88842181 </i>
    <i name="e_0_energy">    -15.85487392 </i>
   </energy>
  </scstep>
  <structure>
   <crystal>
    <varray name="basis" >
     <v>      22.64989573       0.00000000       0.00000000 </v>
     <v>       0.00000000      22.13197500       0.00000000 </v>
     <v>       0.00000000       0.00000000      22.04994986 </v>
    </varray>
    <i name="volume">  11053.35158622 </i>
    <varray name="rec_basis" >
     <v>       0.04415031       0.00000000       0.00000000 </v>
     <v>       0.00000000       0.04518350       0.00000000 </v>
     <v>       0.00000000       0.00000000       0.04535158 </v>
    </varray>
   </crystal>
   <varray name="positions" >
    <v>       0.52455914       0.53205953       0.57205070 </v>
    <v>       0.50194052       0.57464017       0.45398509 </v>
    <v>       0.59661562       0.61058629       0.51397220 </v>
    <v>       0.48336474       0.45298425       0.47374886 </v>
    <v>       0.39664784       0.40919774       0.41818305 </v>
    <v>       0.60148442       0.49267837       0.46716899 </v>
    <v>       0.45804218       0.43573883       0.59727227 </v>
    <v>       0.57191237       0.41313321       0.55338553 </v>
   </varray>
  </structure>
  <varray name="forces" >
   <v>      -0.17132666      -0.16900429      -0.05372887 </v>
   <v>      -0.05576924      -0.21662447       0.04823001 </v>
   <v>      -0.16339675      -0.02765951       0.06699590 </v>
   <v>       0.54998275       0.12608091       0.27365327 </v>
   <v>      -0.29762827       0.04527013      -0.24500068 </v>
   <v>       0.03402628      -0.19293412       0.02680644 </v>
   <v>       0.22677967       0.24260601       0.07509623 </v>
   <v>      -0.12266779       0.19226534      -0.19205229 </v>
  </varray>
  <energy>
   <i name="e_fr_energy">    -15.83809998 </i>
   <i name="e_wo_entrp">    -15.88842181 </i>
   <i name="e_0_energy">    -15.85487392 </i>
  </energy>
  <time name="totalsc">   45.49   46.68</time>
 </calculation>
 <calculation>
  <scstep>
   <time name="dav">    4.53    4.65</time>
   <time name="total">    7.66    7.86</time>
   <energy>
    <i name="alphaZ">      6.74428445 </i>
    <i name="ewald">   7430.45246907 </i>
    <i name="hartreedc"> -14487.78987061 </i>
    <i name="XCdc">    113.92887447 </i>
    <i name="pawpsdc">   7729.29907836 </i>
    <i name="pawaedc">  -7557.07422433 </i>
    <i name="eentropy">      0.03235472 </i>
    <i name="bandstr">   -660.08256099 </i>
    <i name="atom">   7408.64415014 </i>
    <i name="e_fr_energy">    -15.84544472 </i>
    <i name="e_wo_entrp">    -15.87779944 </i>
    <i name="e_0_energy">    -15.85622962 </i>
   </energy>
  </scstep>
  <scstep>
   <time name="dav">    4.59    4.70</time>
   <time name="total">    7.67    7.80</time>
   <energy>
    <i name="e_fr_energy">    -15.86515784 </i>
    <i name="e_wo_entrp">    -15.89668097 </i>
    <i name="e_0_energy">    -15.87566555 </i>
   </energy>
  </scstep>
  <scstep>
   <time name="dav">    4.85    5.13</time>
   <time name="total">    7.89    8.24</time>
   <energy>
    <i name="e_fr_energy">    -15.86436772 </i>
    <i name="e_wo_entrp">    -15.89369209 </i>
    <i name="e_0_energy">    -15.87414251 </i>
   </energy>
  </scstep>
  <scstep>
   <time name="dav">    4.88    5.13</time>
   <time name="total">    8.10    8.56</time>
   <energy>
    <i name="e_fr_energy">    -15.86384023 </i>
    <i name="e_wo_entrp">    -15.89079737 </i>
    <i name="e_0_energy">    -15.87282594 </i>
   </energy>
  </scstep>
  <scstep>
   <time name="dav">    3.62    3.63</time>
   <time name="total">    6.07    6.08</time>
   <energy>
    <i name="alphaZ">      6.74428445 </i>
    <i name="ewald">   7430.45246907 </i>
    <i name="hartreedc"> -14487.57727539 </i>
    <i name="XCdc">    113.92392643 </i>
    <i name="pawpsdc">   7735.84069232 </i>
    <i name="pawaedc">  -7563.67936674 </i>
    <i name="eentropy">      0.02618647 </i>
    <i name="bandstr">   -660.23890422 </i>
    <i name="atom">   7408.64415014 </i>
    <i name="e_fr_energy">    -15.86383748 </i>
    <i name="e_wo_entrp">    -15.89002394 </i>
    <i name="e_0_energy">    -15.87256630 </i>
   </energy>
  </scstep>
  <structure>
   <crystal>
    <varray name="basis" >
     <v>      22.64989573       0.00000000       0.00000000 </v>
     <v>       0.00000000      22.13197500       0.00000000 </v>
     <v>       0.00000000       0.00000000      22.04994986 </v>
    </varray>
    <i name="volume">  11053.35158622 </i>
    <varray name="rec_basis" >
     <v>       0.04415031       0.00000000       0.00000000 </v>
     <v>       0.00000000       0.04518350       0.00000000 </v>
     <v>       0.00000000       0.00000000       0.04535158 </v>
    </varray>
   </crystal>
   <varray name="positions" >
    <v>       0.52400185       0.53191703       0.57211784 </v>
    <v>       0.50206642       0.57448427       0.45425870 </v>
    <v>       0.59547906       0.61027078       0.51409990 </v>
    <v>       0.48409517       0.45277505       0.47387148 </v>
    <v>       0.39617681       0.40963104       0.41769593 </v>
    <v>       0.60231133       0.49207200       0.46686018 </v>
    <v>       0.45842581       0.43661785       0.59791637 </v>
    <v>       0.57201038       0.41325036       0.55294628 </v>
   </varray>
  </structure>
  <varray name="forces" >
   <v>      -0.09246165      -0.08612742      -0.05169234 </v>
   <v>      -0.19278302      -0.26881339      -0.06815235 </v>
   <v>       0.03501896       0.03843855       0.12994023 </v>
   <v>       0.29982520       0.02732098       0.11758183 </v>
   <v>      -0.11083402       0.13188314      -0.12731911 </v>
   <v>       0.00367338      -0.10707864       0.02897874 </v>
   <v>       0.17025738       0.11876762       0.08239835 </v>
   <v>      -0.11269624       0.14560916      -0.11173535 </v>
  </varray>
  <energy>
   <i name="e_fr_energy">    -15.86383748 </i>
   <i name="e_wo_entrp">    -15.89002394 </i>
   <i name="e_0_energy">    -15.87256630 </i>
  </energy>
  <time name="totalsc">   45.03   46.34</time>
 </calculation>
 <calculation>
  <scstep>
   <time name="dav">    4.24    4.24</time>
   <time name="total">    7.34    7.36</time>
   <energy>
    <i name="alphaZ">      6.74428445 </i>
    <i name="ewald">   7437.03882782 </i>
    <i name="hartreedc"> -14494.12552866 </i>
    <i name="XCdc">    113.96055475 </i>
    <i name="pawpsdc">   7735.74171506 </i>
    <i name="pawaedc">  -7563.57953202 </i>
    <i name="eentropy">      0.01874847 </i>
    <i name="bandstr">   -660.29949812 </i>
    <i name="atom">   7408.64415014 </i>
    <i name="e_fr_energy">    -15.85627812 </i>
    <i name="e_wo_entrp">    -15.87502659 </i>
    <i name="e_0_energy">    -15.86252761 </i>
   </energy>
  </scstep>
  <scstep>
   <time name="dav">    4.71    4.72</time>
   <time name="total">    7.84    7.91</time>
   <energy>
    <i name="e_fr_energy">    -15.87127084 </i>
    <i name="e_wo_entrp">    -15.89024232 </i>
    <i name="e_0_energy">    -15.87759466 </i>
   </energy>
  </scstep>
  <scstep>
   <time name="dav">    5.60    5.65</time>
   <time name="total">    8.69    8.76</time>
   <energy>
    <i name="e_fr_energy">    -15.87071358 </i>
    <i name="e_wo_entrp">    -15.88898181 </i>
    <i name="e_0_energy">    -15.87680299 </i>
   </energy>
  </scstep>
  <scstep>
   <time name="dav">    4.61    4.67</time>
   <time name="total">    7.89    8.15</time>
   <energy>
    <i name="e_fr_energy">    -15.87041305 </i>
    <i name="e_wo_entrp">    -15.88807577 </i>
    <i name="e_0_energy">    -15.87630062 </i>
   </energy>
  </scstep>
  <scstep>
   <time name="dav">    3.40    3.42</time>
   <time name="total">    5.83    5.86</time>
   <energy>
    <i name="alphaZ">      6.74428445 </i>
    <i name="ewald">   7437.03882782 </i>
    <i name="hartreedc"> -14493.93756007 </i>
    <i name="XCdc">    113.95638048 </i>
    <i name="pawpsdc">   7742.90472542 </i>
    <i name="pawaedc">  -7570.80598091 </i>
    <i name="eentropy">      0.01751285 </i>
    <i name="bandstr">   -660.43280507 </i>
    <i name="atom">   7408.64415014 </i>
    <i name="e_fr_energy">    -15.87046490 </i>
    <i name="e_wo_entrp">    -15.88797775 </i>
    <i name="e_0_energy">    -15.87630251 </i>
   </energy>
  </scstep>
  <structure>
   <crystal>
    <varray name="basis" >
     <v>      22.64989573       0.00000000       0.00000000 </v>
     <v>       0.00000000      22.13197500       0.00000000 </v>
     <v>       0.00000000       0.00000000      22.04994986 </v>
    </varray>
    <i name="volume">  11053.35158622 </i>
    <varray name="rec_basis" >
     <v>       0.04415031       0.00000000       0.00000000 </v>
     <v>       0.00000000       0.04518350       0.00000000 </v>
     <v>       0.00000000       0.00000000       0.04535158 </v>
    </varray>
   </crystal>
   <varray name="positions" >
    <v>       0.52351681       0.53179300       0.57217628 </v>
    <v>       0.50217599       0.57434858       0.45449684 </v>
    <v>       0.59448985       0.60999618       0.51421105 </v>
    <v>       0.48473091       0.45259297       0.47397821 </v>
    <v>       0.39576684       0.41000818       0.41727196 </v>
    <v>       0.60303104       0.49154424       0.46659141 </v>
    <v>       0.45875971       0.43738291       0.59847696 </v>
    <v>       0.57209569       0.41335232       0.55256398 </v>
   </varray>
  </structure>
  <varray name="forces" >
   <v>      -0.02182426       0.00271948      -0.04569194 </v>
   <v>      -0.32161360      -0.31416266      -0.17533108 </v>
   <v>       0.21113594       0.10468506       0.18863170 </v>
   <v>       0.09598298      -0.04918310      -0.01328045 </v>
   <v>       0.04271772       0.19994978      -0.03116703 </v>
   <v>      -0.01384066      -0.04460428       0.02415102 </v>
   <v>       0.10524689      -0.00361937       0.09776267 </v>
   <v>      -0.09780500       0.10421508      -0.04507490 </v>
  </varray>
  <energy>
   <i name="e_fr_energy">    -15.87046490 </i>
   <i name="e_wo_entrp">    -15.88797775 </i>
   <i name="e_0_energy">    -15.87630251 </i>
  </energy>
  <time name="totalsc">   45.19   45.70</time>
 </calculation>
 <calculation>
  <scstep>
   <time name="dav">    4.26    4.39</time>
   <time name="total">    7.37    7.52</time>
   <energy>
    <i name="alphaZ">      6.74428445 </i>
    <i name="ewald">   7440.30726333 </i>
    <i name="hartreedc"> -14497.25323452 </i>
    <i name="XCdc">    113.95225148 </i>
    <i name="pawpsdc">   7742.81079704 </i>
    <i name="pawaedc">  -7570.71097184 </i>
    <i name="eentropy">      0.01812996 </i>
    <i name="bandstr">   -660.39087566 </i>
    <i name="atom">   7408.64415014 </i>
    <i name="e_fr_energy">    -15.87820563 </i>
    <i name="e_wo_entrp">    -15.89633558 </i>
    <i name="e_0_energy">    -15.88424895 </i>
   </energy>
  </scstep>
  <scstep>
   <time name="dav">    4.84    4.87</time>
   <time name="total">    7.96    8.14</time>
   <energy>
    <i name="e_fr_energy">    -15.88650025 </i>
    <i name="e_wo_entrp">    -15.90369815 </i>
    <i name="e_0_energy">    -15.89223288 </i>
   </energy>
  </scstep>
  <scstep>
   <time name="dav">    4.49    4.53</time>
   <time name="total">    7.59    7.67</time>
   <energy>
    <i name="e_fr_energy">    -15.88624810 </i>
    <i name="e_wo_entrp">    -15.90349394 </i>
    <i name="e_0_energy">    -15.89199671 </i>
   </energy>
  </scstep>
  <scstep>
   <time name="dav">    4.59    4.63</time>
   <time name="total">    7.05    7.12</time>
   <energy>
    <i name="alphaZ">      6.74428445 </i>
    <i name="ewald">   7440.30726333 </i>
    <i name="hartreedc"> -14497.27507805 </i>
    <i name="XCdc">    113.95310626 </i>
    <i name="pawpsdc">   7742.06031100 </i>
    <i name="pawaedc">  -7569.95356318 </i>
    <i name="eentropy">      0.01710208 </i>
    <i name="bandstr">   -660.38375099 </i>
    <i name="atom">   7408.64415014 </i>
    <i name="e_fr_energy">    -15.88617498 </i>
    <i name="e_wo_entrp">    -15.90327706 </i>
    <i name="e_0_energy">    -15.89187567 </i>
   </energy>
  </scstep>
  <structure>
   <crystal>
    <varray name="basis" >
     <v>      22.64989573       0.00000000       0.00000000 </v>
     <v>       0.00000000      22.13197500       0.00000000 </v>
     <v>       0.00000000       0.00000000      22.04994986 </v>
    </varray>
    <i name="volume">  11053.35158622 </i>
    <varray name="rec_basis" >
     <v>       0.04415031       0.00000000       0.00000000 </v>
     <v>       0.00000000       0.04518350       0.00000000 </v>
     <v>       0.00000000       0.00000000       0.04535158 </v>
    </varray>
   </crystal>
   <varray name="positions" >
    <v>       0.52330161       0.53175546       0.57209855 </v>
    <v>       0.50154162       0.57362868       0.45420339 </v>
    <v>       0.59458564       0.61012426       0.51465517 </v>
    <v>       0.48515390       0.45242404       0.47398698 </v>
    <v>       0.39571287       0.41056801       0.41705679 </v>
    <v>       0.60325369       0.49126428       0.46654934 </v>
    <v>       0.45909657       0.43764262       0.59888297 </v>
    <v>       0.57192094       0.41361103       0.55233349 </v>
   </varray>
  </structure>
  <varray name="forces" >
   <v>       0.02617371       0.09701873      -0.06878066 </v>
   <v>      -0.15390063      -0.23371332      -0.08090563 </v>
   <v>       0.04970751       0.00732080       0.09123734 </v>
   <v>       0.00535414      -0.10613380      -0.06251242 </v>
   <v>       0.07902339       0.22247401      -0.00924510 </v>
   <v>      -0.00237762       0.03255654       0.00215208 </v>
   <v>       0.05849131      -0.05829172       0.11348130 </v>
   <v>      -0.06247181       0.03876877       0.01457310 </v>
  </varray>
  <energy>
   <i name="e_fr_energy">    -15.88617498 </i>
   <i name="e_wo_entrp">    -15.90327706 </i>
   <i name="e_0_energy">    -15.89187567 </i>
  </energy>
  <time name="totalsc">   37.55   38.36</time>
 </calculation>
 <calculation>
  <scstep>
   <time name="dav">    4.17    4.22</time>
   <time name="total">    7.20    7.34</time>
   <energy>
    <i name="alphaZ">      6.74428445 </i>
    <i name="ewald">   7445.00026208 </i>
    <i name="hartreedc"> -14502.01945957 </i>
    <i name="XCdc">    113.95238478 </i>
    <i name="pawpsdc">   7741.67562886 </i>
    <i name="pawaedc">  -7569.56737524 </i>
    <i name="eentropy">      0.01767193 </i>
    <i name="bandstr">   -660.32598848 </i>
    <i name="atom">   7408.64415014 </i>
    <i name="e_fr_energy">    -15.87844105 </i>
    <i name="e_wo_entrp">    -15.89611298 </i>
    <i name="e_0_energy">    -15.88433169 </i>
   </energy>
  </scstep>
  <scstep>
   <time name="dav">    4.72    4.74</time>
   <time name="total">    7.85    7.93</time>
   <energy>
    <i name="e_fr_energy">    -15.89471917 </i>
    <i name="e_wo_entrp">    -15.91122848 </i>
    <i name="e_0_energy">    -15.90022228 </i>
   </energy>
  </scstep>
  <scstep>
   <time name="dav">    4.49    4.51</time>
   <time name="total">    7.59    7.64</time>
   <energy>
    <i name="e_fr_energy">    -15.89426320 </i>
    <i name="e_wo_entrp">    -15.91083288 </i>
    <i name="e_0_energy">    -15.89978643 </i>
   </energy>
  </scstep>
  <scstep>
   <time name="dav">    4.68    4.69</time>
   <time name="total">    7.79    7.82</time>
   <energy>
    <i name="e_fr_energy">    -15.89405530 </i>
    <i name="e_wo_entrp">    -15.91046224 </i>
    <i name="e_0_energy">    -15.89952428 </i>
   </energy>
  </scstep>
  <scstep>
   <time name="dav">    3.38    3.39</time>
   <time name="total">    5.80    5.84</time>
   <energy>
    <i name="alphaZ">      6.74428445 </i>
    <i name="ewald">   7445.00026208 </i>
    <i name="hartreedc"> -14502.09176988 </i>
    <i name="XCdc">    113.95455222 </i>
    <i name="pawpsdc">   7741.50503323 </i>
    <i name="pawaedc">  -7569.39647013 </i>
    <i name="eentropy">      0.01641974 </i>
    <i name="bandstr">   -660.27056995 </i>
    <i name="atom">   7408.64415014 </i>
    <i name="e_fr_energy">    -15.89410811 </i>
    <i name="e_wo_entrp">    -15.91052784 </i>
    <i name="e_0_energy">    -15.89958135 </i>
   </energy>
  </scstep>
  <structure>
   <crystal>
    <varray name="basis" >
     <v>      22.64989573       0.00000000       0.00000000 </v>
     <v>       0.00000000      22.13197500       0.00000000 </v>
     <v>       0.00000000       0.00000000      22.04994986 </v>
    </varray>
    <i name="volume">  11053.35158622 </i>
    <varray name="rec_basis" >
     <v>       0.04415031       0.00000000       0.00000000 </v>
     <v>       0.00000000       0.04518350       0.00000000 </v>
     <v>       0.00000000       0.00000000       0.04535158 </v>
    </varray>
   </crystal>
   <varray name="positions" >
    <v>       0.52299969       0.53170281       0.57198949 </v>
    <v>       0.50065167       0.57261874       0.45379172 </v>
    <v>       0.59472004       0.61030395       0.51527823 </v>
    <v>       0.48574731       0.45218705       0.47399929 </v>
    <v>       0.39563716       0.41135339       0.41675492 </v>
    <v>       0.60356603       0.49087151       0.46649032 </v>
    <v>       0.45956914       0.43800695       0.59945256 </v>
    <v>       0.57167580       0.41397399       0.55201014 </v>
   </varray>
  </structure>
  <varray name="forces" >
   <v>       0.09616925       0.23486189      -0.09969323 </v>
   <v>       0.04878322      -0.11641156       0.03336272 </v>
   <v>      -0.14825686      -0.11895650      -0.02677223 </v>
   <v>      -0.13026629      -0.18479072      -0.13394999 </v>
   <v>       0.12917010       0.24657371       0.02261589 </v>
   <v>       0.02153145       0.13624555      -0.03483740 </v>
   <v>      -0.01126021      -0.13570167       0.13541836 </v>
   <v>      -0.00587067      -0.06182070       0.10385587 </v>
  </varray>
  <energy>
   <i name="e_fr_energy">    -15.89410811 </i>
   <i name="e_wo_entrp">    -15.91052784 </i>
   <i name="e_0_energy">    -15.89958135 </i>
  </energy>
  <time name="totalsc">   44.27   44.71</time>
 </calculation>
 <calculation>
  <scstep>
   <time name="dav">    4.26    4.29</time>
   <time name="total">    7.38    7.41</time>
   <energy>
    <i name="alphaZ">      6.74428445 </i>
    <i name="ewald">   7447.95986751 </i>
    <i name="hartreedc"> -14505.11479666 </i>
    <i name="XCdc">    113.95954018 </i>
    <i name="pawpsdc">   7741.46572295 </i>
    <i name="pawaedc">  -7569.35760739 </i>
    <i name="eentropy">      0.01598354 </i>
    <i name="bandstr">   -660.21401203 </i>
    <i name="atom">   7408.64415014 </i>
    <i name="e_fr_energy">    -15.89686730 </i>
    <i name="e_wo_entrp">    -15.91285084 </i>
    <i name="e_0_energy">    -15.90219515 </i>
   </energy>
  </scstep>
  <scstep>
   <time name="dav">    5.25    5.50</time>
   <time name="total">    8.72    9.14</time>
   <energy>
    <i name="e_fr_energy">    -15.90780055 </i>
    <i name="e_wo_entrp">    -15.92389959 </i>
    <i name="e_0_energy">    -15.91316690 </i>
   </energy>
  </scstep>
  <scstep>
   <time name="dav">    4.98    5.11</time>
   <time name="total">    8.37    8.51</time>
   <energy>
    <i name="e_fr_energy">    -15.90749107 </i>
    <i name="e_wo_entrp">    -15.92357232 </i>
    <i name="e_0_energy">    -15.91285148 </i>
   </energy>
  </scstep>
  <scstep>
   <time name="dav">    4.64    4.67</time>
   <time name="total">    7.73    7.77</time>
   <energy>
    <i name="e_fr_energy">    -15.90728717 </i>
    <i name="e_wo_entrp">    -15.92336991 </i>
    <i name="e_0_energy">    -15.91264808 </i>
   </energy>
  </scstep>
  <scstep>
   <time name="dav">    3.65    3.73</time>
   <time name="total">    6.07    6.18</time>
   <energy>
    <i name="alphaZ">      6.74428445 </i>
    <i name="ewald">   7447.95986751 </i>
    <i name="hartreedc"> -14505.11438434 </i>
    <i name="XCdc">    113.95640235 </i>
    <i name="pawpsdc">   7741.75905764 </i>
    <i name="pawaedc">  -7569.67808204 </i>
    <i name="eentropy">      0.01609874 </i>
    <i name="bandstr">   -660.19471784 </i>
    <i name="atom">   7408.64415014 </i>
    <i name="e_fr_energy">    -15.90732339 </i>
    <i name="e_wo_entrp">    -15.92342213 </i>
    <i name="e_0_energy">    -15.91268963 </i>
   </energy>
  </scstep>
  <structure>
   <crystal>
    <varray name="basis" >
     <v>      22.64989573       0.00000000       0.00000000 </v>
     <v>       0.00000000      22.13197500       0.00000000 </v>
     <v>       0.00000000       0.00000000      22.04994986 </v>
    </varray>
    <i name="volume">  11053.35158622 </i>
    <varray name="rec_basis" >
     <v>       0.04415031       0.00000000       0.00000000 </v>
     <v>       0.00000000       0.04518350       0.00000000 </v>
     <v>       0.00000000       0.00000000       0.04535158 </v>
    </varray>
   </crystal>
   <varray name="positions" >
    <v>       0.52303480       0.53218350       0.57171107 </v>
    <v>       0.50025699       0.57180047       0.45363399 </v>
    <v>       0.59448059       0.61014615       0.51556867 </v>
    <v>       0.48580302       0.45165297       0.47371413 </v>
    <v>       0.39586895       0.41232869       0.41663524 </v>
    <v>       0.60378660       0.49094759       0.46638132 </v>
    <v>       0.45980979       0.43791614       0.60006669 </v>
    <v>       0.57152609       0.41404289       0.55205556 </v>
   </varray>
  </structure>
  <varray name="forces" >
   <v>       0.00158791       0.08639844      -0.03082061 </v>
   <v>       0.09150486      -0.07118507       0.03639836 </v>
   <v>      -0.14262245      -0.07819126      -0.09228067 </v>
   <v>       0.00136395      -0.15701352      -0.01864402 </v>
   <v>       0.01171280       0.20261311      -0.05067458 </v>
   <v>      -0.00469896       0.11048633      -0.01391670 </v>
   <v>       0.05233608      -0.06284015       0.08345010 </v>
   <v>      -0.01118419      -0.03026789       0.08648813 </v>
  </varray>
  <energy>
   <i name="e_fr_energy">    -15.90732339 </i>
   <i name="e_wo_entrp">    -15.92342213 </i>
   <i name="e_0_energy">    -15.91268963 </i>
  </energy>
  <time name="totalsc">   45.93   47.01</time>
 </calculation>
 <calculation>
  <scstep>
   <time name="dav">    4.87    5.06</time>
   <time name="total">    7.96    8.17</time>
   <energy>
    <i name="alphaZ">      6.74428445 </i>
    <i name="ewald">   7452.32342344 </i>
    <i name="hartreedc"> -14509.56358219 </i>
    <i name="XCdc">    113.96817474 </i>
    <i name="pawpsdc">   7741.72658268 </i>
    <i name="pawaedc">  -7569.64560339 </i>
    <i name="eentropy">      0.01542311 </i>
    <i name="bandstr">   -660.10309935 </i>
    <i name="atom">   7408.64415014 </i>
    <i name="e_fr_energy">    -15.89024638 </i>
    <i name="e_wo_entrp">    -15.90566949 </i>
    <i name="e_0_energy">    -15.89538742 </i>
   </energy>
  </scstep>
  <scstep>
   <time name="dav">    4.60    4.69</time>
   <time name="total">    7.85    8.06</time>
   <energy>
    <i name="e_fr_energy">    -15.91495894 </i>
    <i name="e_wo_entrp">    -15.93055338 </i>
    <i name="e_0_energy">    -15.92015708 </i>
   </energy>
  </scstep>
  <scstep>
   <time name="dav">    4.65    4.69</time>
   <time name="total">    7.81    7.88</time>
   <energy>
    <i name="e_fr_energy">    -15.91423561 </i>
    <i name="e_wo_entrp">    -15.92980269 </i>
    <i name="e_0_energy">    -15.91942464 </i>
   </energy>
  </scstep>
  <scstep>
   <time name="dav">    4.86    5.05</time>
   <time name="total">    7.99    8.19</time>
   <energy>
    <i name="e_fr_energy">    -15.91373119 </i>
    <i name="e_wo_entrp">    -15.92930161 </i>
    <i name="e_0_energy">    -15.91892133 </i>
   </energy>
  </scstep>
  <scstep>
   <time name="dav">    3.76    3.84</time>
   <time name="total">    6.17    6.30</time>
   <energy>
    <i name="alphaZ">      6.74428445 </i>
    <i name="ewald">   7452.32342344 </i>
    <i name="hartreedc"> -14509.55259900 </i>
    <i name="XCdc">    113.96326405 </i>
    <i name="pawpsdc">   7743.79919896 </i>
    <i name="pawaedc">  -7571.76860868 </i>
    <i name="eentropy">      0.01559332 </i>
    <i name="bandstr">   -660.08248637 </i>
    <i name="atom">   7408.64415014 </i>
    <i name="e_fr_energy">    -15.91377969 </i>
    <i name="e_wo_entrp">    -15.92937301 </i>
    <i name="e_0_energy">    -15.91897747 </i>
   </energy>
  </scstep>
  <structure>
   <crystal>
    <varray name="basis" >
     <v>      22.64989573       0.00000000       0.00000000 </v>
     <v>       0.00000000      22.13197500       0.00000000 </v>
     <v>       0.00000000       0.00000000      22.04994986 </v>
    </varray>
    <i name="volume">  11053.35158622 </i>
    <varray name="rec_basis" >
     <v>       0.04415031       0.00000000       0.00000000 </v>
     <v>       0.00000000       0.04518350       0.00000000 </v>
     <v>       0.00000000       0.00000000       0.04535158 </v>
    </varray>
   </crystal>
   <varray name="positions" >
    <v>       0.52308766       0.53290729       0.57129186 </v>
    <v>       0.49966272       0.57056839       0.45339650 </v>
    <v>       0.59412005       0.60990853       0.51600598 </v>
    <v>       0.48588691       0.45084879       0.47328476 </v>
    <v>       0.39621795       0.41379721       0.41645503 </v>
    <v>       0.60411870       0.49106213       0.46621720 </v>
    <v>       0.46017216       0.43777940       0.60099140 </v>
    <v>       0.57130069       0.41414664       0.55212395 </v>
   </varray>
  </structure>
  <varray name="forces" >
   <v>      -0.14747846      -0.14257596       0.08643406 </v>
   <v>       0.14600974      -0.00382428       0.03377628 </v>
   <v>      -0.11367838      -0.00080861      -0.19272070 </v>
   <v>       0.21840530      -0.11169741       0.16008972 </v>
   <v>      -0.18195512       0.12746381      -0.17071985 </v>
   <v>      -0.04212836       0.06907168       0.01614798 </v>
   <v>       0.14129410       0.04342367       0.01026991 </v>
   <v>      -0.02046881       0.01894711       0.05672261 </v>
  </varray>
  <energy>
   <i name="e_fr_energy">    -15.91377969 </i>
   <i name="e_wo_entrp">    -15.92937301 </i>
   <i name="e_0_energy">    -15.91897747 </i>
  </energy>
  <time name="totalsc">   45.59   46.71</time>
 </calculation>
 <calculation>
  <scstep>
   <time name="dav">    5.56    5.62</time>
   <time name="total">    8.65    8.74</time>
   <energy>
    <i name="alphaZ">      6.74428445 </i>
    <i name="ewald">   7462.81359415 </i>
    <i name="hartreedc"> -14519.97804466 </i>
    <i name="XCdc">    113.99526764 </i>
    <i name="pawpsdc">   7743.71810006 </i>
    <i name="pawaedc">  -7571.68751011 </i>
    <i name="eentropy">      0.01467778 </i>
    <i name="bandstr">   -660.17804399 </i>
    <i name="atom">   7408.64415014 </i>
    <i name="e_fr_energy">    -15.91352454 </i>
    <i name="e_wo_entrp">    -15.92820233 </i>
    <i name="e_0_energy">    -15.91841714 </i>
   </energy>
  </scstep>
  <scstep>
   <time name="dav">    4.70    4.80</time>
   <time name="total">    7.79    7.92</time>
   <energy>
    <i name="e_fr_energy">    -15.92585572 </i>
    <i name="e_wo_entrp">    -15.94056965 </i>
    <i name="e_0_energy">    -15.93076036 </i>
   </energy>
  </scstep>
  <scstep>
   <time name="dav">    4.74    4.75</time>
   <time name="total">    7.86    7.90</time>
   <energy>
    <i name="e_fr_energy">    -15.92548718 </i>
    <i name="e_wo_entrp">    -15.94013178 </i>
    <i name="e_0_energy">    -15.93036871 </i>
   </energy>
  </scstep>
  <scstep>
   <time name="dav">    4.85    4.90</time>
   <time name="total">    7.94    8.02</time>
   <energy>
    <i name="e_fr_energy">    -15.92512709 </i>
    <i name="e_wo_entrp">    -15.93970822 </i>
    <i name="e_0_energy">    -15.92998747 </i>
   </energy>
  </scstep>
  <scstep>
   <time name="dav">    4.91    4.98</time>
   <time name="total">    7.34    7.68</time>
   <energy>
    <i name="alphaZ">      6.74428445 </i>
    <i name="ewald">   7462.81359415 </i>
    <i name="hartreedc"> -14519.82877969 </i>
    <i name="XCdc">    113.98931281 </i>
    <i name="pawpsdc">   7748.52739711 </i>
    <i name="pawaedc">  -7576.54415740 </i>
    <i name="eentropy">      0.01454407 </i>
    <i name="bandstr">   -660.28548855 </i>
    <i name="atom">   7408.64415014 </i>
    <i name="e_fr_energy">    -15.92514291 </i>
    <i name="e_wo_entrp">    -15.93968698 </i>
    <i name="e_0_energy">    -15.92999094 </i>
   </energy>
  </scstep>
  <structure>
   <crystal>
    <varray name="basis" >
     <v>      22.64989573       0.00000000       0.00000000 </v>
     <v>       0.00000000      22.13197500       0.00000000 </v>
     <v>       0.00000000       0.00000000      22.04994986 </v>
    </varray>
    <i name="volume">  11053.35158622 </i>
    <varray name="rec_basis" >
     <v>       0.04415031       0.00000000       0.00000000 </v>
     <v>       0.00000000       0.04518350       0.00000000 </v>
     <v>       0.00000000       0.00000000       0.04535158 </v>
    </varray>
   </crystal>
   <varray name="positions" >
    <v>       0.52285224       0.53307195       0.57120422 </v>
    <v>       0.49957492       0.56983182       0.45331864 </v>
    <v>       0.59370099       0.60976635       0.51590689 </v>
    <v>       0.48633157       0.45016592       0.47332794 </v>
    <v>       0.39609552       0.41490261       0.41603119 </v>
    <v>       0.60423915       0.49125780       0.46615003 </v>
    <v>       0.46064224       0.43777881       0.60155798 </v>
    <v>       0.57113021       0.41424313       0.55226981 </v>
   </varray>
  </structure>
  <varray name="forces" >
   <v>      -0.16369070      -0.16022393       0.12606659 </v>
   <v>       0.12176791       0.00771312       0.00322210 </v>
   <v>      -0.07491509       0.04629659      -0.20025517 </v>
   <v>       0.16257518      -0.13379611       0.12786663 </v>
   <v>      -0.15885865       0.14619769      -0.15819246 </v>
   <v>      -0.04198170       0.03463081       0.03430110 </v>
   <v>       0.11707786       0.03856282       0.01519318 </v>
   <v>       0.03802520       0.02061902       0.05179803 </v>
  </varray>
  <energy>
   <i name="e_fr_energy">    -15.92514291 </i>
   <i name="e_wo_entrp">    -15.93968698 </i>
   <i name="e_0_energy">    -15.92999094 </i>
  </energy>
  <time name="totalsc">   47.38   48.18</time>
 </calculation>
 <calculation>
  <scstep>
   <time name="dav">    4.29    4.38</time>
   <time name="total">    7.37    7.50</time>
   <energy>
    <i name="alphaZ">      6.74428445 </i>
    <i name="ewald">   7491.99171453 </i>
    <i name="hartreedc"> -14548.92880206 </i>
    <i name="XCdc">    114.08383477 </i>
    <i name="pawpsdc">   7748.54136988 </i>
    <i name="pawaedc">  -7576.55852797 </i>
    <i name="eentropy">      0.01285361 </i>
    <i name="bandstr">   -660.37733415 </i>
    <i name="atom">   7408.64415014 </i>
    <i name="e_fr_energy">    -15.84645680 </i>
    <i name="e_wo_entrp">    -15.85931041 </i>
    <i name="e_0_energy">    -15.85074134 </i>
   </energy>
  </scstep>
  <scstep>
   <time name="dav">    4.61    4.64</time>
   <time name="total">    7.70    7.76</time>
   <energy>
    <i name="e_fr_energy">    -15.95657850 </i>
    <i name="e_wo_entrp">    -15.96950071 </i>
    <i name="e_0_energy">    -15.96088590 </i>
   </energy>
  </scstep>
  <scstep>
   <time name="dav">    4.62    4.66</time>
   <time name="total">    7.83    7.92</time>
   <energy>
    <i name="e_fr_energy">    -15.95317272 </i>
    <i name="e_wo_entrp">    -15.96599305 </i>
    <i name="e_0_energy">    -15.95744616 </i>
   </energy>
  </scstep>
  <scstep>
   <time name="dav">    4.68    4.69</time>
   <time name="total">    7.78    7.82</time>
   <energy>
    <i name="e_fr_energy">    -15.94974856 </i>
    <i name="e_wo_entrp">    -15.96247519 </i>
    <i name="e_0_energy">    -15.95399077 </i>
   </energy>
  </scstep>
  <scstep>
   <time name="dav">    4.63    4.64</time>
   <time name="total">    7.86    7.93</time>
   <energy>
    <i name="e_fr_energy">    -15.94974187 </i>
    <i name="e_wo_entrp">    -15.96243132 </i>
    <i name="e_0_energy">    -15.95397169 </i>
   </energy>
  </scstep>
  <scstep>
   <time name="dav">    3.70    3.71</time>
   <time name="total">    6.14    6.16</time>
   <energy>
    <i name="alphaZ">      6.74428445 </i>
    <i name="ewald">   7491.99171453 </i>
    <i name="hartreedc"> -14548.38694762 </i>
    <i name="XCdc">    114.06289982 </i>
    <i name="pawpsdc">   7763.46487390 </i>
    <i name="pawaedc">  -7591.61162359 </i>
    <i name="eentropy">      0.01270672 </i>
    <i name="bandstr">   -660.87180124 </i>
    <i name="atom">   7408.64415014 </i>
    <i name="e_fr_energy">    -15.94974289 </i>
    <i name="e_wo_entrp">    -15.96244961 </i>
    <i name="e_0_energy">    -15.95397846 </i>
   </energy>
  </scstep>
  <structure>
   <crystal>
    <varray name="basis" >
     <v>      22.64989573       0.00000000       0.00000000 </v>
     <v>       0.00000000      22.13197500       0.00000000 </v>
     <v>       0.00000000       0.00000000      22.04994986 </v>
    </varray>
    <i name="volume">  11053.35158622 </i>
    <varray name="rec_basis" >
     <v>       0.04415031       0.00000000       0.00000000 </v>
     <v>       0.00000000       0.04518350       0.00000000 </v>
     <v>       0.00000000       0.00000000       0.04535158 </v>
    </varray>
   </crystal>
   <varray name="positions" >
    <v>       0.52214598       0.53356593       0.57094129 </v>
    <v>       0.49931152       0.56762209       0.45308504 </v>
    <v>       0.59244381       0.60933980       0.51560960 </v>
    <v>       0.48766554       0.44811730       0.47345747 </v>
    <v>       0.39572823       0.41821882       0.41475964 </v>
    <v>       0.60460049       0.49184478       0.46594851 </v>
    <v>       0.46205248       0.43777705       0.60325772 </v>
    <v>       0.57061877       0.41453262       0.55270741 </v>
   </varray>
  </structure>
  <varray name="forces" >
   <v>      -0.21106943      -0.21805235       0.24798893 </v>
   <v>       0.03701715       0.04667689      -0.09437469 </v>
   <v>       0.05418972       0.19514155      -0.21497549 </v>
   <v>      -0.06578461      -0.18062284      -0.01644263 </v>
   <v>      -0.04072210       0.18978964      -0.08456081 </v>
   <v>      -0.03574454      -0.07388267       0.08192963 </v>
   <v>       0.02270836       0.02834385       0.03373555 </v>
   <v>       0.23940543       0.01260593       0.04669950 </v>
  </varray>
  <energy>
   <i name="e_fr_energy">    -15.94974289 </i>
   <i name="e_wo_entrp">    -15.96244961 </i>
   <i name="e_0_energy">    -15.95397846 </i>
  </energy>
  <time name="totalsc">   52.35   52.93</time>
 </calculation>
 <calculation>
  <scstep>
   <time name="dav">    4.30    4.41</time>
   <time name="total">    7.38    7.52</time>
   <energy>
    <i name="alphaZ">      6.74428445 </i>
    <i name="ewald">   7540.16698468 </i>
    <i name="hartreedc"> -14596.67250495 </i>
    <i name="XCdc">    114.23998714 </i>
    <i name="pawpsdc">   7763.08138004 </i>
    <i name="pawaedc">  -7591.22955049 </i>
    <i name="eentropy">      0.01174992 </i>
    <i name="bandstr">   -660.52360154 </i>
    <i name="atom">   7408.64415014 </i>
    <i name="e_fr_energy">    -15.53712061 </i>
    <i name="e_wo_entrp">    -15.54887054 </i>
    <i name="e_0_energy">    -15.54103726 </i>
   </energy>
  </scstep>
  <scstep>
   <time name="dav">    4.70    4.73</time>
   <time name="total">    7.89    7.95</time>
   <energy>
    <i name="e_fr_energy">    -15.96958937 </i>
    <i name="e_wo_entrp">    -15.98136459 </i>
    <i name="e_0_energy">    -15.97351444 </i>
   </energy>
  </scstep>
  <scstep>
   <time name="dav">    4.88    5.06</time>
   <time name="total">    7.97    8.20</time>
   <energy>
    <i name="e_fr_energy">    -15.95687307 </i>
    <i name="e_wo_entrp">    -15.96861518 </i>
    <i name="e_0_energy">    -15.96078711 </i>
   </energy>
  </scstep>
  <scstep>
   <time name="dav">    4.39    4.50</time>
   <time name="total">    7.51    7.62</time>
   <energy>
    <i name="e_fr_energy">    -15.94471171 </i>
    <i name="e_wo_entrp">    -15.95642441 </i>
    <i name="e_0_energy">    -15.94861594 </i>
   </energy>
  </scstep>
  <scstep>
   <time name="dav">    4.75    4.76</time>
   <time name="total">    7.97    8.02</time>
   <energy>
    <i name="e_fr_energy">    -15.94478417 </i>
[...]
       <r>    -1.9484     1.7076    48.0875 </r>
       <r>    -1.8991     2.8405    48.2275 </r>
       <r>    -1.8498     3.7065    48.4101 </r>
       <r>    -1.8005     3.9970    48.6071 </r>
       <r>    -1.7512     3.7418    48.7915 </r>
       <r>    -1.7020     3.3114    48.9547 </r>
       <r>    -1.6527     3.1196    49.1084 </r>
       <r>    -1.6034     3.2806    49.2700 </r>
       <r>    -1.5541     3.5584    49.4454 </r>
       <r>    -1.5048     3.6709    49.6263 </r>
       <r>    -1.4556     3.6499    49.8062 </r>
       <r>    -1.4063     3.8736    49.9970 </r>
       <r>    -1.3570     4.7002    50.2287 </r>
       <r>    -1.3077     6.0355    50.5261 </r>
       <r>    -1.2585     7.2554    50.8836 </r>
       <r>    -1.2092     7.5922    51.2577 </r>
       <r>    -1.1599     6.6779    51.5868 </r>
       <r>    -1.1106     4.8147    51.8241 </r>
       <r>    -1.0613     2.7925    51.9617 </r>
       <r>    -1.0121     1.4302    52.0322 </r>
       <r>    -0.9628     1.1589    52.0893 </r>
       <r>    -0.9135     1.8534    52.1806 </r>
       <r>    -0.8642     2.9434    52.3257 </r>
       <r>    -0.8149     3.7256    52.5093 </r>
       <r>    -0.7657     3.7338    52.6933 </r>
       <r>    -0.7164     2.9808    52.8401 </r>
       <r>    -0.6671     1.9263    52.9351 </r>
       <r>    -0.6178     1.1912    52.9938 </r>
       <r>    -0.5686     1.2045    53.0531 </r>
       <r>    -0.5193     1.9959    53.1515 </r>
       <r>    -0.4700     3.2344    53.3109 </r>
       <r>    -0.4207     4.4537    53.5303 </r>
       <r>    -0.3714     5.2982    53.7914 </r>
       <r>    -0.3222     5.6341    54.0691 </r>
       <r>    -0.2729     5.5138    54.3408 </r>
       <r>    -0.2236     5.1001    54.5921 </r>
       <r>    -0.1743     4.6230    54.8199 </r>
       <r>    -0.1250     4.3131    55.0325 </r>
       <r>    -0.0758     4.2600    55.2424 </r>
       <r>    -0.0265     4.3032    55.4544 </r>
       <r>     0.0228     4.1191    55.6574 </r>
       <r>     0.0721     3.4783    55.8288 </r>
       <r>     0.1213     2.4440    55.9493 </r>
       <r>     0.1706     1.3241    56.0145 </r>
       <r>     0.2199     0.4415    56.0363 </r>
       <r>     0.2692    -0.0580    56.0334 </r>
       <r>     0.3185    -0.2264    56.0223 </r>
       <r>     0.3677    -0.2086    56.0120 </r>
       <r>     0.4170    -0.1331    56.0054 </r>
       <r>     0.4663    -0.0674    56.0021 </r>
       <r>     0.5156    -0.0284    56.0007 </r>
       <r>     0.5649    -0.0101    56.0002 </r>
       <r>     0.6141    -0.0031    56.0001 </r>
       <r>     0.6634    -0.0008    56.0000 </r>
       <r>     0.7127    -0.0002    56.0000 </r>
       <r>     0.7620    -0.0000    56.0000 </r>
       <r>     0.8112    -0.0000    56.0000 </r>
       <r>     0.8605    -0.0000    56.0000 </r>
       <r>     0.9098    -0.0000    56.0000 </r>
       <r>     0.9591    -0.0000    56.0000 </r>
       <r>     1.0084    -0.0000    56.0000 </r>
       <r>     1.0576    -0.0000    56.0000 </r>
       <r>     1.1069    -0.0000    56.0000 </r>
       <r>     1.1562    -0.0000    56.0000 </r>
       <r>     1.2055    -0.0000    56.0000 </r>
       <r>     1.2548    -0.0000    56.0000 </r>
       <r>     1.3040     0.0000    56.0000 </r>
       <r>     1.3533     0.0000    56.0000 </r>
       <r>     1.4026     0.0000    56.0000 </r>
       <r>     1.4519     0.0000    56.0000 </r>
       <r>     1.5011     0.0000    56.0000 </r>
       <r>     1.5504     0.0000    56.0000 </r>
       <r>     1.5997     0.0000    56.0000 </r>
       <r>     1.6490     0.0000    56.0000 </r>
       <r>     1.6983     0.0000    56.0000 </r>
       <r>     1.7475     0.0000    56.0000 </r>
       <r>     1.7968     0.0000    56.0000 </r>
       <r>     1.8461     0.0000    56.0000 </r>
       <r>     1.8954     0.0000    56.0000 </r>
       <r>     1.9447     0.0000    56.0000 </r>
       <r>     1.9939     0.0000    56.0000 </r>
      </set>
      <set comment="spin 2">
       <r>   -12.7896     0.0000     0.0000 </r>
       <r>   -12.7404     0.0000     0.0000 </r>
       <r>   -12.6911     0.0000     0.0000 </r>
       <r>   -12.6418     0.0000     0.0000 </r>
       <r>   -12.5925     0.0000     0.0000 </r>
       <r>   -12.5432     0.0000     0.0000 </r>
       <r>   -12.4940     0.0000     0.0000 </r>
       <r>   -12.4447     0.0000     0.0000 </r>
       <r>   -12.3954    -0.0000    -0.0000 </r>
       <r>   -12.3461    -0.0000    -0.0000 </r>
       <r>   -12.2968    -0.0000    -0.0000 </r>
       <r>   -12.2476    -0.0000    -0.0000 </r>
       <r>   -12.1983    -0.0000    -0.0000 </r>
       <r>   -12.1490    -0.0000    -0.0000 </r>
       <r>   -12.0997    -0.0000    -0.0000 </r>
       <r>   -12.0505    -0.0000    -0.0000 </r>
       <r>   -12.0012    -0.0000    -0.0000 </r>
       <r>   -11.9519    -0.0000    -0.0000 </r>
       <r>   -11.9026    -0.0000    -0.0000 </r>
       <r>   -11.8533    -0.0000    -0.0000 </r>
       <r>   -11.8041    -0.0000    -0.0000 </r>
       <r>   -11.7548    -0.0000    -0.0000 </r>
       <r>   -11.7055    -0.0000    -0.0000 </r>
       <r>   -11.6562    -0.0000    -0.0000 </r>
       <r>   -11.6069    -0.0000    -0.0000 </r>
       <r>   -11.5577    -0.0000    -0.0000 </r>
       <r>   -11.5084    -0.0000    -0.0000 </r>
       <r>   -11.4591    -0.0002    -0.0000 </r>
       <r>   -11.4098    -0.0008    -0.0001 </r>
       <r>   -11.3606    -0.0031    -0.0002 </r>
       <r>   -11.3113    -0.0101    -0.0007 </r>
       <r>   -11.2620    -0.0283    -0.0021 </r>
       <r>   -11.2127    -0.0672    -0.0054 </r>
       <r>   -11.1634    -0.1322    -0.0119 </r>
       <r>   -11.1142    -0.2049    -0.0220 </r>
       <r>   -11.0649    -0.2148    -0.0326 </r>
       <r>   -11.0156    -0.0260    -0.0339 </r>
       <r>   -10.9663     0.5166    -0.0084 </r>
       <r>   -10.9170     1.4706     0.0640 </r>
       <r>   -10.8678     2.6715     0.1957 </r>
       <r>   -10.8185     3.7257     0.3793 </r>
       <r>   -10.7692     4.1929     0.5859 </r>
       <r>   -10.7199     3.8576     0.7760 </r>
       <r>   -10.6707     2.8755     0.9177 </r>
       <r>   -10.6214     1.6672     0.9999 </r>
       <r>   -10.5721     0.6517     1.0320 </r>
       <r>   -10.5228     0.0371     1.0338 </r>
       <r>   -10.4735    -0.2051     1.0237 </r>
       <r>   -10.4243    -0.2268     1.0125 </r>
       <r>   -10.3750    -0.1799     1.0037 </r>
       <r>   -10.3257    -0.1570     0.9959 </r>
       <r>   -10.2764    -0.1883     0.9866 </r>
       <r>   -10.2271    -0.2501     0.9743 </r>
       <r>   -10.1779    -0.2586     0.9616 </r>
       <r>   -10.1286    -0.0727     0.9580 </r>
       <r>   -10.0793     0.4597     0.9806 </r>
       <r>   -10.0300     1.4040     1.0498 </r>
       <r>    -9.9808     2.6588     1.1809 </r>
       <r>    -9.9315     3.9832     1.3771 </r>
       <r>    -9.8822     5.1414     1.6305 </r>
       <r>    -9.8329     6.0393     1.9281 </r>
       <r>    -9.7836     6.7152     2.2590 </r>
       <r>    -9.7344     7.1912     2.6134 </r>
       <r>    -9.6851     7.3500     2.9756 </r>
       <r>    -9.6358     6.9768     3.3194 </r>
       <r>    -9.5865     5.9412     3.6122 </r>
       <r>    -9.5372     4.3530     3.8267 </r>
       <r>    -9.4880     2.5594     3.9528 </r>
       <r>    -9.4387     0.9950     4.0018 </r>
       <r>    -9.3894     0.0088     4.0023 </r>
       <r>    -9.3401    -0.2196     3.9915 </r>
       <r>    -9.2909     0.3272     4.0076 </r>
       <r>    -9.2416     1.5414     4.0835 </r>
       <r>    -9.1923     3.2228     4.2424 </r>
       <r>    -9.1430     5.1193     4.4946 </r>
       <r>    -9.0937     6.9716     4.8382 </r>
       <r>    -9.0445     8.5304     5.2585 </r>
       <r>    -8.9952     9.5546     5.7294 </r>
       <r>    -8.9459     9.8507     6.2148 </r>
       <r>    -8.8966     9.3735     6.6767 </r>
       <r>    -8.8474     8.3073     7.0861 </r>
       <r>    -8.7981     7.0405     7.4330 </r>
       <r>    -8.7488     6.0287     7.7301 </r>
       <r>    -8.6995     5.6078     8.0065 </r>
       <r>    -8.6502     5.8308     8.2938 </r>
       <r>    -8.6010     6.4350     8.6109 </r>
       <r>    -8.5517     7.0304     8.9573 </r>
       <r>    -8.5024     7.4355     9.3238 </r>
       <r>    -8.4531     7.8730     9.7117 </r>
       <r>    -8.4038     8.7795    10.1444 </r>
       <r>    -8.3546    10.3414    10.6540 </r>
       <r>    -8.3053    12.1929    11.2548 </r>
       <r>    -8.2560    13.6061    11.9253 </r>
       <r>    -8.2067    14.0192    12.6162 </r>
       <r>    -8.1575    13.4114    13.2771 </r>
       <r>    -8.1082    12.2036    13.8784 </r>
       <r>    -8.0589    10.8528    14.4132 </r>
       <r>    -8.0096     9.5772    14.8852 </r>
       <r>    -7.9603     8.4343    15.3008 </r>
       <r>    -7.9111     7.5494    15.6728 </r>
       <r>    -7.8618     7.1402    16.0247 </r>
       <r>    -7.8125     7.2680    16.3829 </r>
       <r>    -7.7632     7.6408    16.7594 </r>
       <r>    -7.7139     7.7994    17.1437 </r>
       <r>    -7.6647     7.5793    17.5172 </r>
       <r>    -7.6154     7.3553    17.8797 </r>
       <r>    -7.5661     7.7396    18.2611 </r>
       <r>    -7.5168     8.9915    18.7042 </r>
       <r>    -7.4676    10.7251    19.2327 </r>
       <r>    -7.4183    12.2015    19.8340 </r>
       <r>    -7.3690    12.9038    20.4698 </r>
       <r>    -7.3197    12.8646    21.1038 </r>
       <r>    -7.2704    12.5197    21.7207 </r>
       <r>    -7.2212    12.3013    22.3269 </r>
       <r>    -7.1719    12.3212    22.9341 </r>
       <r>    -7.1226    12.3311    23.5418 </r>
       <r>    -7.0733    11.9464    24.1305 </r>
       <r>    -7.0240    11.0058    24.6728 </r>
       <r>    -6.9748     9.8607    25.1587 </r>
       <r>    -6.9255     9.3559    25.6198 </r>
       <r>    -6.8762    10.4027    26.1324 </r>
       <r>    -6.8269    13.3486    26.7902 </r>
       <r>    -6.7777    17.5880    27.6569 </r>
       <r>    -6.7284    21.7697    28.7297 </r>
       <r>    -6.6791    24.5300    29.9385 </r>
       <r>    -6.6298    25.2493    31.1828 </r>
       <r>    -6.5805    24.2830    32.3794 </r>
       <r>    -6.5313    22.5289    33.4896 </r>
       <r>    -6.4820    20.7098    34.5101 </r>
       <r>    -6.4327    18.9368    35.4433 </r>
       <r>    -6.3834    16.8450    36.2734 </r>
       <r>    -6.3341    14.1223    36.9693 </r>
       <r>    -6.2849    10.9726    37.5100 </r>
       <r>    -6.2356     8.1517    37.9117 </r>
       <r>    -6.1863     6.5732    38.2357 </r>
       <r>    -6.1370     6.7945    38.5705 </r>
       <r>    -6.0878     8.7086    38.9996 </r>
       <r>    -6.0385    11.5565    39.5691 </r>
       <r>    -5.9892    14.1895    40.2684 </r>
       <r>    -5.9399    15.4791    41.0311 </r>
       <r>    -5.8906    14.7598    41.7585 </r>
       <r>    -5.8414    12.1205    42.3558 </r>
       <r>    -5.7921     8.3510    42.7673 </r>
       <r>    -5.7428     4.5437    42.9912 </r>
       <r>    -5.6935     1.6000    43.0700 </r>
       <r>    -5.6442    -0.0495    43.0676 </r>
       <r>    -5.5950    -0.4145    43.0472 </r>
       <r>    -5.5457     0.2373    43.0589 </r>
       <r>    -5.4964     1.5075    43.1332 </r>
       <r>    -5.4471     2.9015    43.2761 </r>
       <r>    -5.3979     3.8931    43.4680 </r>
       <r>    -5.3486     4.1036    43.6702 </r>
       <r>    -5.2993     3.4912    43.8423 </r>
       <r>    -5.2500     2.3690    43.9590 </r>
       <r>    -5.2007     1.2028    44.0183 </r>
       <r>    -5.1515     0.3450    44.0353 </r>
       <r>    -5.1022    -0.0994    44.0304 </r>
       <r>    -5.0529    -0.2246    44.0193 </r>
       <r>    -5.0036    -0.1891    44.0100 </r>
       <r>    -4.9543    -0.1142    44.0044 </r>
       <r>    -4.9051    -0.0553    44.0016 </r>
       <r>    -4.8558    -0.0223    44.0005 </r>
       <r>    -4.8065    -0.0077    44.0001 </r>
       <r>    -4.7572    -0.0023    44.0000 </r>
       <r>    -4.7080    -0.0006    44.0000 </r>
       <r>    -4.6587    -0.0001    44.0000 </r>
       <r>    -4.6094    -0.0001    44.0000 </r>
       <r>    -4.5601    -0.0002    44.0000 </r>
       <r>    -4.5108    -0.0008    43.9999 </r>
       <r>    -4.4616    -0.0031    43.9998 </r>
       <r>    -4.4123    -0.0101    43.9993 </r>
       <r>    -4.3630    -0.0283    43.9979 </r>
       <r>    -4.3137    -0.0677    43.9946 </r>
       <r>    -4.2644    -0.1348    43.9879 </r>
       <r>    -4.2152    -0.2150    43.9773 </r>
       <r>    -4.1659    -0.2448    43.9653 </r>
       <r>    -4.1166    -0.0997    43.9604 </r>
       <r>    -4.0673     0.3669    43.9784 </r>
       <r>    -4.0181     1.2259    44.0388 </r>
       <r>    -3.9688     2.3763    44.1559 </r>
       <r>    -3.9195     3.5571    44.3312 </r>
       <r>    -3.8702     4.5021    44.5531 </r>
       <r>    -3.8209     5.1214    44.8055 </r>
       <r>    -3.7717     5.5323    45.0781 </r>
       <r>    -3.7224     5.9019    45.3689 </r>
       <r>    -3.6731     6.2563    45.6772 </r>
       <r>    -3.6238     6.4486    45.9950 </r>
       <r>    -3.5745     6.3115    46.3060 </r>
       <r>    -3.5253     5.8455    46.5941 </r>
       <r>    -3.4760     5.2612    46.8533 </r>
       <r>    -3.4267     4.8208    47.0909 </r>
       <r>    -3.3774     4.6040    47.3178 </r>
       <r>    -3.3282     4.4197    47.5356 </r>
       <r>    -3.2789     3.9666    47.7310 </r>
       <r>    -3.2296     3.1057    47.8841 </r>
       <r>    -3.1803     1.9882    47.9821 </r>
       <r>    -3.1310     0.9333    48.0281 </r>
       <r>    -3.0818     0.1974    48.0378 </r>
       <r>    -3.0325    -0.1589    48.0300 </r>
       <r>    -2.9832    -0.2371    48.0183 </r>
       <r>    -2.9339    -0.1843    48.0092 </r>
       <r>    -2.8846    -0.1069    48.0039 </r>
       <r>    -2.8354    -0.0504    48.0014 </r>
       <r>    -2.7861    -0.0199    48.0005 </r>
       <r>    -2.7368    -0.0067    48.0001 </r>
       <r>    -2.6875    -0.0020    48.0000 </r>
       <r>    -2.6383    -0.0005    48.0000 </r>
       <r>    -2.5890    -0.0001    48.0000 </r>
       <r>    -2.5397    -0.0001    48.0000 </r>
       <r>    -2.4904    -0.0003    48.0000 </r>
       <r>    -2.4411    -0.0012    47.9999 </r>
       <r>    -2.3919    -0.0044    47.9997 </r>
       <r>    -2.3426    -0.0137    47.9990 </r>
       <r>    -2.2933    -0.0368    47.9972 </r>
       <r>    -2.2440    -0.0831    47.9931 </r>
       <r>    -2.1947    -0.1541    47.9855 </r>
       <r>    -2.1455    -0.2203    47.9747 </r>
       <r>    -2.0962    -0.1938    47.9651 </r>
       <r>    -2.0469     0.0702    47.9686 </r>
       <r>    -1.9976     0.7055    48.0033 </r>
       <r>    -1.9484     1.7076    48.0875 </r>
       <r>    -1.8991     2.8405    48.2275 </r>
       <r>    -1.8498     3.7065    48.4101 </r>
       <r>    -1.8005     3.9970    48.6071 </r>
       <r>    -1.7512     3.7417    48.7915 </r>
       <r>    -1.7020     3.3114    48.9547 </r>
       <r>    -1.6527     3.1195    49.1084 </r>
       <r>    -1.6034     3.2806    49.2700 </r>
       <r>    -1.5541     3.5583    49.4454 </r>
       <r>    -1.5048     3.6709    49.6263 </r>
       <r>    -1.4556     3.6500    49.8061 </r>
       <r>    -1.4063     3.8737    49.9970 </r>
       <r>    -1.3570     4.7003    50.2287 </r>
       <r>    -1.3077     6.0355    50.5261 </r>
       <r>    -1.2585     7.2554    50.8836 </r>
       <r>    -1.2092     7.5922    51.2577 </r>
       <r>    -1.1599     6.6779    51.5868 </r>
       <r>    -1.1106     4.8147    51.8241 </r>
       <r>    -1.0613     2.7925    51.9617 </r>
       <r>    -1.0121     1.4302    52.0322 </r>
       <r>    -0.9628     1.1588    52.0893 </r>
       <r>    -0.9135     1.8533    52.1806 </r>
       <r>    -0.8642     2.9434    52.3257 </r>
       <r>    -0.8149     3.7256    52.5093 </r>
       <r>    -0.7657     3.7338    52.6933 </r>
       <r>    -0.7164     2.9808    52.8401 </r>
       <r>    -0.6671     1.9263    52.9351 </r>
       <r>    -0.6178     1.1912    52.9938 </r>
       <r>    -0.5686     1.2045    53.0531 </r>
       <r>    -0.5193     1.9959    53.1515 </r>
       <r>    -0.4700     3.2344    53.3109 </r>
       <r>    -0.4207     4.4537    53.5303 </r>
       <r>    -0.3714     5.2982    53.7914 </r>
       <r>    -0.3222     5.6341    54.0691 </r>
       <r>    -0.2729     5.5138    54.3408 </r>
       <r>    -0.2236     5.1001    54.5921 </r>
       <r>    -0.1743     4.6230    54.8199 </r>
       <r>    -0.1250     4.3131    55.0325 </r>
       <r>    -0.0758     4.2599    55.2424 </r>
       <r>    -0.0265     4.3032    55.4544 </r>
       <r>     0.0228     4.1191    55.6574 </r>
       <r>     0.0721     3.4783    55.8288 </r>
       <r>     0.1213     2.4440    55.9493 </r>
       <r>     0.1706     1.3241    56.0145 </r>
       <r>     0.2199     0.4415    56.0363 </r>
       <r>     0.2692    -0.0580    56.0334 </r>
       <r>     0.3185    -0.2264    56.0223 </r>
       <r>     0.3677    -0.2086    56.0120 </r>
       <r>     0.4170    -0.1331    56.0054 </r>
       <r>     0.4663    -0.0674    56.0021 </r>
       <r>     0.5156    -0.0284    56.0007 </r>
       <r>     0.5649    -0.0101    56.0002 </r>
       <r>     0.6141    -0.0031    56.0001 </r>
       <r>     0.6634    -0.0008    56.0000 </r>
       <r>     0.7127    -0.0002    56.0000 </r>
       <r>     0.7620    -0.0000    56.0000 </r>
       <r>     0.8112    -0.0000    56.0000 </r>
       <r>     0.8605    -0.0000    56.0000 </r>
       <r>     0.9098    -0.0000    56.0000 </r>
       <r>     0.9591    -0.0000    56.0000 </r>
       <r>     1.0084    -0.0000    56.0000 </r>
       <r>     1.0576    -0.0000    56.0000 </r>
       <r>     1.1069    -0.0000    56.0000 </r>
       <r>     1.1562    -0.0000    56.0000 </r>
       <r>     1.2055    -0.0000    56.0000 </r>
       <r>     1.2548    -0.0000    56.0000 </r>
       <r>     1.3040     0.0000    56.0000 </r>
       <r>     1.3533     0.0000    56.0000 </r>
       <r>     1.4026     0.0000    56.0000 </r>
       <r>     1.4519     0.0000    56.0000 </r>
       <r>     1.5011     0.0000    56.0000 </r>
       <r>     1.5504     0.0000    56.0000 </r>
       <r>     1.5997     0.0000    56.0000 </r>
       <r>     1.6490     0.0000    56.0000 </r>
       <r>     1.6983     0.0000    56.0000 </r>
       <r>     1.7475     0.0000    56.0000 </r>
       <r>     1.7968     0.0000    56.0000 </r>
       <r>     1.8461     0.0000    56.0000 </r>
       <r>     1.8954     0.0000    56.0000 </r>
       <r>     1.9447     0.0000    56.0000 </r>
       <r>     1.9939     0.0000    56.0000 </r>
      </set>
     </set>
    </array>
   </total>
  </dos>
 </calculation>
 <structure name="finalpos" >
  <crystal>
   <varray name="basis" >
    <v>      22.64989573       0.00000000       0.00000000 </v>
    <v>       0.00000000      22.13197500       0.00000000 </v>
    <v>       0.00000000       0.00000000      22.04994986 </v>
   </varray>
   <i name="volume">  11053.35158622 </i>
   <varray name="rec_basis" >
    <v>       0.04415031       0.00000000       0.00000000 </v>
    <v>       0.00000000       0.04518350       0.00000000 </v>
    <v>       0.00000000       0.00000000       0.04535158 </v>
   </varray>
  </crystal>
  <varray name="positions" >
   <v>       0.51874986       0.53113541       0.57541538 </v>
   <v>       0.48287773       0.54136295       0.45287498 </v>
   <v>       0.56708822       0.61128379       0.49983778 </v>
   <v>       0.51020666       0.41785675       0.43782566 </v>
   <v>       0.41391686       0.47005609       0.39091148 </v>
   <v>       0.59749264       0.49090031       0.48012740 </v>
   <v>       0.49968480       0.44963462       0.65857637 </v>
   <v>       0.54455006       0.40878847       0.55419763 </v>
  </varray>
 </structure>
</modeling>
