unknown system                          
            1
    22.649896    0.000000    0.000000
     0.000000   22.131975    0.000000
     0.000000    0.000000   22.049950
   Au
     8
Direct configuration=     1
   0.52687000  0.53023403  0.56811548
   0.50491119  0.57241553  0.45603396
   0.59725638  0.60733190  0.51230175
   0.48151999  0.45328313  0.47506796
   0.39999556  0.40951331  0.42083508
   0.59537677  0.49773583  0.47081709
   0.46211943  0.43421386  0.59206409
   0.56651751  0.41629080  0.55453127
Direct configuration=     2
   0.52550483  0.53141166  0.57122104
   0.50153045  0.57374051  0.45361346
   0.59917335  0.61108975  0.51381279
   0.48394339  0.45430960  0.47498202
   0.39676185  0.40818679  0.41852692
   0.59868882  0.49386884  0.46854328
   0.45845464  0.43431454  0.59532277
   0.57050950  0.41409669  0.55374439
Direct configuration=     3
   0.52537577  0.53152300  0.57151465
   0.50121083  0.57386578  0.45338462
   0.59935458  0.61144502  0.51395565
   0.48417250  0.45440665  0.47497390
   0.39645612  0.40806138  0.41830870
   0.59900195  0.49350324  0.46832830
   0.45810816  0.43432406  0.59563086
   0.57088692  0.41388926  0.55366999
Direct configuration=     4
   0.52503070  0.53174971  0.57174116
   0.50151916  0.57419300  0.45363835
   0.59819724  0.61108217  0.51396264
   0.48383118  0.45380562  0.47445626
   0.39653713  0.40854154  0.41825561
   0.60005092  0.49315469  0.46783844
   0.45808028  0.43492187  0.59632444
   0.57132022  0.41356979  0.55354979
Direct configuration=     5
   0.52455914  0.53205953  0.57205070
   0.50194052  0.57464017  0.45398509
   0.59661562  0.61058629  0.51397220
   0.48336474  0.45298425  0.47374886
   0.39664784  0.40919774  0.41818305
   0.60148442  0.49267837  0.46716899
   0.45804218  0.43573883  0.59727227
   0.57191237  0.41313321  0.55338553
Direct configuration=     6
   0.52400185  0.53191703  0.57211784
   0.50206642  0.57448427  0.45425870
   0.59547906  0.61027078  0.51409990
   0.48409517  0.45277505  0.47387148
   0.39617681  0.40963104  0.41769593
   0.60231133  0.49207200  0.46686018
   0.45842581  0.43661785  0.59791637
   0.57201038  0.41325036  0.55294628
Direct configuration=     7
   0.52351681  0.53179300  0.57217628
   0.50217599  0.57434858  0.45449684
   0.59448985  0.60999618  0.51421105
   0.48473091  0.45259297  0.47397821
   0.39576684  0.41000818  0.41727196
   0.60303104  0.49154424  0.46659141
   0.45875971  0.43738291  0.59847696
   0.57209569  0.41335232  0.55256398
Direct configuration=     8
   0.52330161  0.53175546  0.57209855
   0.50154162  0.57362868  0.45420339
   0.59458564  0.61012426  0.51465517
   0.48515390  0.45242404  0.47398698
   0.39571287  0.41056801  0.41705679
   0.60325369  0.49126428  0.46654934
   0.45909657  0.43764262  0.59888297
   0.57192094  0.41361103  0.55233349
Direct configuration=     9
   0.52299969  0.53170281  0.57198949
   0.50065167  0.57261874  0.45379172
   0.59472004  0.61030395  0.51527823
   0.48574731  0.45218705  0.47399929
   0.39563716  0.41135339  0.41675492
   0.60356603  0.49087151  0.46649032
   0.45956914  0.43800695  0.59945256
   0.57167580  0.41397399  0.55201014
Direct configuration=    10
   0.52303480  0.53218350  0.57171107
   0.50025699  0.57180047  0.45363399
   0.59448059  0.61014615  0.51556867
   0.48580302  0.45165297  0.47371413
   0.39586895  0.41232869  0.41663524
   0.60378660  0.49094759  0.46638132
   0.45980979  0.43791614  0.60006669
   0.57152609  0.41404289  0.55205556
Direct configuration=    11
   0.52308766  0.53290729  0.57129186
   0.49966272  0.57056839  0.45339650
   0.59412005  0.60990853  0.51600598
   0.48588691  0.45084879  0.47328476
   0.39621795  0.41379721  0.41645503
   0.60411870  0.49106213  0.46621720
   0.46017216  0.43777940  0.60099140
   0.57130069  0.41414664  0.55212395
Direct configuration=    12
   0.52285224  0.53307195  0.57120422
   0.49957492  0.56983182  0.45331864
   0.59370099  0.60976635  0.51590689
   0.48633157  0.45016592  0.47332794
   0.39609552  0.41490261  0.41603119
   0.60423915  0.49125780  0.46615003
   0.46064224  0.43777881  0.60155798
   0.57113021  0.41424313  0.55226981
Direct configuration=    13
   0.52214598  0.53356593  0.57094129
   0.49931152  0.56762209  0.45308504
   0.59244381  0.60933980  0.51560960
   0.48766554  0.44811730  0.47345747
   0.39572823  0.41821882  0.41475964
   0.60460049  0.49184478  0.46594851
   0.46205248  0.43777705  0.60325772
   0.57061877  0.41453262  0.55270741
Direct configuration=    14
   0.52073347  0.53455389  0.57041545
   0.49878473  0.56320264  0.45261784
   0.58992946  0.60848671  0.51501503
   0.49033349  0.44402005  0.47371653
   0.39499366  0.42485124  0.41221655
   0.60532316  0.49301875  0.46554546
   0.46487298  0.43777352  0.60665721
   0.56959590  0.41511159  0.55358260
Direct configuration=    15
   0.52156920  0.53396935  0.57072657
   0.49909641  0.56581748  0.45289426
   0.59141712  0.60899145  0.51536682
   0.48875496  0.44644425  0.47356325
   0.39542828  0.42092707  0.41372121
   0.60489558  0.49232416  0.46578393
   0.46320419  0.43777561  0.60464585
   0.57020109  0.41476903  0.55306478
Direct configuration=    16
   0.52130653  0.53395851  0.57081938
   0.49902335  0.56536855  0.45276794
   0.59121078  0.60903497  0.51520285
   0.48892362  0.44590770  0.47351753
   0.39538415  0.42175062  0.41344116
   0.60496319  0.49238310  0.46578942
   0.46348812  0.43778516  0.60504176
   0.57026708  0.41482978  0.55318664
Direct configuration=    17
   0.52051852  0.53392600  0.57109779
   0.49880418  0.56402179  0.45238899
   0.59059178  0.60916551  0.51471095
   0.48942960  0.44429804  0.47338037
   0.39525175  0.42422129  0.41260099
   0.60516602  0.49255992  0.46580590
   0.46433993  0.43781383  0.60622949
   0.57046505  0.41501201  0.55355221
Direct configuration=    18
   0.51894249  0.53386098  0.57165462
   0.49836584  0.56132825  0.45163107
   0.58935378  0.60942659  0.51372716
   0.49044156  0.44107871  0.47310604
   0.39498694  0.42916263  0.41092065
   0.60557169  0.49291357  0.46583885
   0.46604354  0.43787116  0.60860494
   0.57086098  0.41537649  0.55428335
Direct configuration=    19
   0.51579044  0.53373094  0.57276829
   0.49748915  0.55594117  0.45011524
   0.58687778  0.60994876  0.51175956
   0.49246549  0.43464007  0.47255737
   0.39445734  0.43904531  0.40755997
   0.60638303  0.49362086  0.46590475
   0.46945076  0.43798583  0.61335584
   0.57165285  0.41610544  0.55574565
Direct configuration=    20
   0.51546437  0.53382869  0.57282977
   0.49736271  0.55523299  0.44993945
   0.58651790  0.60998759  0.51150293
   0.49259647  0.43387108  0.47240135
   0.39452721  0.44032936  0.40721334
   0.60644444  0.49365355  0.46596954
   0.46979090  0.43790850  0.61400097
   0.57186284  0.41620664  0.55590932
Direct configuration=    21
   0.51448616  0.53412192  0.57301422
   0.49698339  0.55310843  0.44941210
   0.58543826  0.61010407  0.51073303
   0.49298941  0.43156411  0.47193330
   0.39473684  0.44418149  0.40617345
   0.60662866  0.49375164  0.46616391
   0.47081129  0.43767649  0.61593634
   0.57249283  0.41651024  0.55640033
Direct configuration=    22
   0.51252973  0.53470838  0.57338312
   0.49622474  0.54885933  0.44835738
   0.58327897  0.61033702  0.50919323
   0.49377529  0.42695016  0.47099719
   0.39515609  0.45188577  0.40409367
   0.60699712  0.49394781  0.46655264
   0.47285209  0.43721249  0.61980709
   0.57375280  0.41711743  0.55738235
Direct configuration=    23
   0.50861688  0.53588131  0.57412092
   0.49470746  0.54036111  0.44624795
   0.57896039  0.61080294  0.50611364
   0.49534705  0.41772226  0.46912498
   0.39599459  0.46729432  0.39993411
   0.60773403  0.49434014  0.46733010
   0.47693368  0.43628448  0.62754858
   0.57627276  0.41833182  0.55934640
Direct configuration=    24
   0.51011605  0.53543191  0.57383824
   0.49528879  0.54361710  0.44705615
   0.58061501  0.61062443  0.50729355
   0.49474485  0.42125783  0.46984229
   0.39567333  0.46139071  0.40152780
   0.60745169  0.49418982  0.46703222
   0.47536986  0.43664004  0.62458252
   0.57530726  0.41786654  0.55859390
Direct configuration=    25
   0.50944233  0.53582845  0.57362141
   0.49460147  0.54126189  0.44663523
   0.57919123  0.61037656  0.50648880
   0.49483152  0.41955442  0.46916026
   0.39701843  0.46525920  0.40117231
   0.60735231  0.49404260  0.46750553
   0.47636464  0.43634556  0.62642750
   0.57576491  0.41834971  0.55875564
Direct configuration=    26
   0.50760366  0.53691066  0.57302963
   0.49272567  0.53483413  0.44548646
   0.57530552  0.60970009  0.50429253
   0.49506808  0.41490555  0.46729888
   0.40068942  0.47581691  0.40020211
   0.60708109  0.49364079  0.46879727
   0.47907952  0.43554188  0.63146273
   0.57701387  0.41966836  0.55919707
Direct configuration=    27
   0.50816005  0.53658318  0.57320871
   0.49329329  0.53677918  0.44583408
   0.57648134  0.60990479  0.50495712
   0.49499650  0.41631230  0.46786214
   0.39957857  0.47262214  0.40049569
   0.60716316  0.49376238  0.46840639
   0.47825799  0.43578508  0.62993906
   0.57663594  0.41926934  0.55906350
Direct configuration=    28
   0.50796827  0.53669606  0.57314698
   0.49309764  0.53610876  0.44571426
   0.57607606  0.60983424  0.50472805
   0.49502117  0.41582743  0.46766800
   0.39996146  0.47372331  0.40039450
   0.60713487  0.49372047  0.46854111
   0.47854116  0.43570125  0.63046424
   0.57676620  0.41940687  0.55910954
Direct configuration=    29
   0.50818962  0.53625481  0.57293249
   0.49292033  0.53624638  0.44592913
   0.57558236  0.60935588  0.50454695
   0.49500106  0.41642246  0.46761987
   0.40113321  0.47358224  0.40108901
   0.60680656  0.49353869  0.46874777
   0.47885895  0.43604989  0.63011957
   0.57607474  0.41956805  0.55878188
Direct configuration=    30
   0.50885366  0.53493106  0.57228899
   0.49238840  0.53665921  0.44657376
   0.57410124  0.60792082  0.50400364
   0.49494074  0.41820755  0.46747550
   0.40464847  0.47315905  0.40317255
   0.60582165  0.49299335  0.46936775
   0.47981232  0.43709578  0.62908556
   0.57400036  0.42005156  0.55779892
Direct configuration=    31
   0.50912808  0.53438400  0.57202305
   0.49216857  0.53682982  0.44684016
   0.57348914  0.60732776  0.50377911
   0.49491581  0.41894527  0.46741584
   0.40610120  0.47298415  0.40403361
   0.60541461  0.49276798  0.46962397
   0.48020632  0.43752802  0.62865824
   0.57314309  0.42025138  0.55739270
Direct configuration=    32
   0.50955587  0.53423761  0.57159664
   0.49231234  0.53872510  0.44720957
   0.57278800  0.60723096  0.50327371
   0.49485999  0.41908907  0.46719550
   0.40726343  0.47215973  0.40474904
   0.60527384  0.49238792  0.46943357
   0.47991714  0.43741889  0.62911761
   0.57259623  0.41976910  0.55719103
Direct configuration=    33
   0.51017110  0.53402708  0.57098340
   0.49251911  0.54145082  0.44774084
   0.57177963  0.60709175  0.50254687
   0.49477970  0.41929589  0.46687861
   0.40893490  0.47097408  0.40577795
   0.60507139  0.49184131  0.46915976
   0.47950125  0.43726194  0.62977825
   0.57180976  0.41907550  0.55690101
Direct configuration=    34
   0.51040741  0.53315061  0.57123477
   0.49155624  0.54335242  0.44728390
   0.57212555  0.60859861  0.50198657
   0.49531843  0.41954939  0.46664865
   0.40987952  0.47010384  0.40622532
   0.60498418  0.49105855  0.46864468
   0.47888048  0.43720531  0.63071406
   0.57141502  0.41799964  0.55702873
Direct configuration=    35
   0.51056742  0.53255715  0.57140498
   0.49090428  0.54464000  0.44697450
   0.57235978  0.60961892  0.50160718
   0.49568320  0.41972104  0.46649294
   0.41051912  0.46951460  0.40652823
   0.60492514  0.49052854  0.46829593
   0.47846016  0.43716697  0.63134771
   0.57114773  0.41727118  0.55711521
Direct configuration=    36
   0.51110574  0.53214906  0.57090613
   0.49023222  0.54506784  0.44687756
   0.57265065  0.61004313  0.50157183
   0.49709243  0.42019626  0.46657689
   0.41003045  0.46950339  0.40595818
   0.60413482  0.49023260  0.46830847
   0.47822557  0.43716406  0.63197463
   0.57109495  0.41666203  0.55759299
Direct configuration=    37
   0.51173952  0.53166862  0.57031883
   0.48944099  0.54557153  0.44676344
   0.57299310  0.61054256  0.50153021
   0.49875154  0.42075575  0.46667572
   0.40945513  0.46949020  0.40528704
   0.60320437  0.48988419  0.46832324
   0.47794938  0.43716065  0.63271271
   0.57103280  0.41594488  0.55815548
Direct configuration=    38
   0.51230146  0.53118477  0.56977645
   0.48889337  0.54571543  0.44680223
   0.57302303  0.61039334  0.50147329
   0.49931487  0.42149906  0.46604341
   0.40943524  0.46948238  0.40500988
   0.60241412  0.48989070  0.46852759
   0.47798720  0.43739157  0.63306545
   0.57119754  0.41546114  0.55906837
Direct configuration=    39
   0.51346348  0.53018423  0.56865486
   0.48776095  0.54601298  0.44688245
   0.57308493  0.61008477  0.50135561
   0.50047976  0.42303611  0.46473587
   0.40939411  0.46946619  0.40443676
   0.60078001  0.48990417  0.46895015
   0.47806541  0.43786910  0.63379487
   0.57153820  0.41446083  0.56095611
Direct configuration=    40
   0.51320551  0.53040635  0.56890385
   0.48801234  0.54594692  0.44686464
   0.57307118  0.61015328  0.50138173
   0.50022116  0.42269489  0.46502614
   0.40940324  0.46946979  0.40456399
   0.60114277  0.48990118  0.46885635
   0.47804805  0.43776309  0.63363294
   0.57146257  0.41468289  0.56053704
Direct configuration=    41
   0.51340498  0.52992874  0.56891201
   0.48784245  0.54627332  0.44690471
   0.57285332  0.60977201  0.50117721
   0.49994569  0.42263535  0.46464271
   0.40965761  0.46942915  0.40459529
   0.60123450  0.49013767  0.46931302
   0.47830338  0.43814839  0.63363198
   0.57132491  0.41469376  0.56058974
Direct configuration=    42
   0.51370431  0.52921201  0.56892425
   0.48758750  0.54676313  0.44696484
   0.57252638  0.60919987  0.50087030
   0.49953230  0.42254600  0.46406732
   0.41003934  0.46936816  0.40464226
   0.60137215  0.49049255  0.46999832
   0.47868654  0.43872659  0.63363055
   0.57111832  0.41471008  0.56066883
Direct configuration=    43
   0.51410821  0.52896054  0.56864243
   0.48716034  0.54711205  0.44697482
   0.57234137  0.60894800  0.50062482
   0.49967016  0.42236079  0.46384217
   0.41012557  0.46943297  0.40445850
   0.60149777  0.49066132  0.47079012
   0.47880790  0.43896489  0.63417449
   0.57085552  0.41457783  0.56025934
Direct configuration=    44
   0.51476478  0.52855175  0.56818430
   0.48646595  0.54767925  0.44699103
   0.57204063  0.60853857  0.50022576
   0.49989426  0.42205972  0.46347618
   0.41026575  0.46953831  0.40415978
   0.60170195  0.49093566  0.47207723
   0.47900518  0.43935227  0.63505871
   0.57042832  0.41436286  0.55959369
Direct configuration=    45
   0.51500512  0.52830456  0.56804481
   0.48589637  0.54772042  0.44692947
   0.57211827  0.60885062  0.49996530
   0.50014458  0.42208130  0.46313401
   0.41026926  0.46960967  0.40388126
   0.60186375  0.49107690  0.47260135
   0.47918080  0.43955193  0.63573339
   0.57008867  0.41382299  0.55947708
Direct configuration=    46
   0.51572612  0.52756301  0.56762635
   0.48418763  0.54784395  0.44674479
   0.57235120  0.60978677  0.49918393
   0.50089552  0.42214602  0.46210748
   0.41027980  0.46982373  0.40304572
   0.60234915  0.49150062  0.47417371
   0.47970768  0.44015092  0.63775745
   0.56906974  0.41220337  0.55912726
Direct configuration=    47
   0.51590397  0.52736395  0.56749316
   0.48401441  0.54796333  0.44693045
   0.57225637  0.60999184  0.49889394
   0.50111184  0.42234020  0.46163875
   0.41018797  0.46973189  0.40271632
   0.60239958  0.49164900  0.47455546
   0.48000375  0.44038900  0.63830062
   0.56868894  0.41158916  0.55923797
Direct configuration=    48
   0.51643751  0.52676679  0.56709358
   0.48349477  0.54832147  0.44748745
   0.57197189  0.61060707  0.49802397
   0.50176080  0.42292276  0.46023258
   0.40991248  0.46945639  0.40172814
   0.60255088  0.49209416  0.47570072
   0.48089194  0.44110324  0.63993012
   0.56754657  0.40974652  0.55957011
Direct configuration=    49
   0.51750459  0.52557246  0.56629442
   0.48245549  0.54903774  0.44860145
   0.57140293  0.61183752  0.49628403
   0.50305871  0.42408786  0.45742024
   0.40936151  0.46890538  0.39975177
   0.60285347  0.49298447  0.47799124
   0.48266833  0.44253172  0.64318914
   0.56526182  0.40606124  0.56023438
Direct configuration=    50
   0.51676596  0.52639917  0.56684760
   0.48317488  0.54854194  0.44783035
   0.57179676  0.61098581  0.49748841
   0.50216030  0.42328138  0.45936693
   0.40974289  0.46928679  0.40111980
   0.60264402  0.49236820  0.47640575
   0.48143872  0.44154293  0.64093326
   0.56684331  0.40861217  0.55977458
Direct configuration=    51
   0.51692646  0.52620468  0.56684691
   0.48320569  0.54842414  0.44805588
   0.57139412  0.61091889  0.49731153
   0.50245040  0.42373342  0.45882376
   0.40993556  0.46925684  0.40095488
   0.60238327  0.49216977  0.47684057
   0.48200954  0.44193958  0.64123978
   0.56626180  0.40837105  0.55969336
Direct configuration=    52
   0.51724681  0.52581651  0.56684553
   0.48326720  0.54818901  0.44850604
   0.57059048  0.61078532  0.49695848
   0.50302942  0.42463568  0.45773963
   0.41032012  0.46919707  0.40062571
   0.60186282  0.49177372  0.47770845
   0.48314887  0.44273128  0.64185158
   0.56510112  0.40788978  0.55953126
Direct configuration=    53
   0.51738223  0.52610188  0.56707168
   0.48302774  0.54799415  0.44839000
   0.57021271  0.61081255  0.49706007
   0.50330317  0.42463552  0.45702864
   0.41052049  0.46932795  0.40041588
   0.60192660  0.49145185  0.47799928
   0.48370120  0.44301903  0.64250589
   0.56449270  0.40767546  0.55929523
Direct configuration=    54
   0.51778848  0.52695800  0.56775011
   0.48230937  0.54740954  0.44804188
   0.56907940  0.61089424  0.49736483
   0.50412441  0.42463502  0.45489569
   0.41112161  0.46972059  0.39978639
   0.60211793  0.49048624  0.47887179
   0.48535819  0.44388226  0.64446884
   0.56266744  0.40703249  0.55858715
Direct configuration=    55
   0.51783111  0.52711259  0.56795020
   0.48228800  0.54743997  0.44806121
   0.56887463  0.61088977  0.49742161
   0.50431241  0.42448000  0.45444385
   0.41106016  0.46972281  0.39952814
   0.60221692  0.49038536  0.47899866
   0.48571303  0.44407110  0.64487569
   0.56227059  0.40691680  0.55848731
Direct configuration=    56
   0.51795901  0.52757636  0.56855046
   0.48222389  0.54753127  0.44811922
   0.56826031  0.61087635  0.49759197
   0.50487643  0.42401494  0.45308832
   0.41087578  0.46972946  0.39875337
   0.60251386  0.49008271  0.47937928
   0.48677753  0.44463761  0.64609626
   0.56108003  0.40656971  0.55818781
Direct configuration=    57
   0.51821480  0.52850391  0.56975097
   0.48209567  0.54771385  0.44823523
   0.56703166  0.61084951  0.49793268
   0.50600445  0.42308480  0.45037726
   0.41050704  0.46974275  0.39720384
   0.60310775  0.48947740  0.48014051
   0.48890652  0.44577063  0.64853739
   0.55869893  0.40587553  0.55758879
Direct configuration=    58
   0.51809334  0.52806348  0.56918092
   0.48215655  0.54762715  0.44818014
   0.56761507  0.61086225  0.49777090
   0.50546882  0.42352647  0.45166458
   0.41068214  0.46973644  0.39793962
   0.60282575  0.48976483  0.47977905
   0.48789559  0.44523262  0.64737824
   0.55982957  0.40620515  0.55787323
Direct configuration=    59
   0.51806879  0.52799008  0.56948300
   0.48213652  0.54740802  0.44829178
   0.56764743  0.61092644  0.49783030
   0.50561453  0.42339339  0.45098888
   0.41065536  0.46970163  0.39761750
   0.60278061  0.48983469  0.47989042
   0.48839269  0.44550490  0.64782206
   0.55927092  0.40625923  0.55784273
Direct configuration=    60
   0.51799514  0.52776991  0.57038925
   0.48207644  0.54675062  0.44862670
   0.56774448  0.61111901  0.49800850
   0.50605164  0.42299416  0.44896179
   0.41057502  0.46959721  0.39665112
   0.60264518  0.49004430  0.48022455
   0.48988399  0.44632171  0.64915352
   0.55759494  0.40642147  0.55775125
Direct configuration=    61
   0.51804302  0.52784047  0.57043774
   0.48213892  0.54637162  0.44887323
   0.56782084  0.61105267  0.49810498
   0.50626581  0.42290484  0.44828106
   0.41061798  0.46957404  0.39632728
   0.60235635  0.49019334  0.48033398
   0.49032455  0.44649009  0.64983675
   0.55699937  0.40659133  0.55757167
Direct configuration=    62
   0.51818666  0.52805216  0.57058322
   0.48232637  0.54523463  0.44961283
   0.56804993  0.61085363  0.49839441
   0.50690831  0.42263686  0.44623884
   0.41074685  0.46950453  0.39535574
   0.60148985  0.49064048  0.48066226
   0.49164621  0.44699521  0.65188644
   0.55521266  0.40710089  0.55703293
Direct configuration=    63
   0.51847394  0.52847555  0.57087417
   0.48270127  0.54296066  0.45109203
   0.56850811  0.61045554  0.49897329
   0.50819331  0.42210092  0.44215442
   0.41100458  0.46936551  0.39341267
   0.59975686  0.49153475  0.48131884
   0.49428952  0.44800544  0.65598581
   0.55163924  0.40812001  0.55595546
Direct configuration=    64
   0.51830772  0.52823058  0.57070583
   0.48248436  0.54427636  0.45023618
   0.56824301  0.61068587  0.49863836
   0.50744982  0.42241101  0.44451762
   0.41085546  0.46944595  0.39453691
   0.60075955  0.49101733  0.48093895
   0.49276013  0.44742093  0.65361396
   0.55370679  0.40753035  0.55657888
Direct configuration=    65
   0.51820840  0.52825238  0.57134098
   0.48257854  0.54365178  0.45068717
   0.56837789  0.61069284  0.49873295
   0.50801219  0.42189720  0.44329789
   0.41107770  0.46952285  0.39393498
   0.60019193  0.49127976  0.48087950
   0.49375469  0.44790038  0.65470366
   0.55236549  0.40782120  0.55618954
Direct configuration=    66
   0.51794868  0.52830936  0.57300186
   0.48282481  0.54201856  0.45186647
   0.56873057  0.61071106  0.49898030
   0.50948272  0.42055364  0.44010841
   0.41165886  0.46972396  0.39236098
   0.59870768  0.49196597  0.48072406
   0.49635538  0.44915409  0.65755312
   0.54885814  0.40858174  0.55517148
Direct configuration=    67
   0.51789260  0.52923103  0.57402377
   0.48289139  0.54149657  0.45242481
   0.56839698  0.61065499  0.49928990
   0.51019591  0.41932713  0.43845566
   0.41239963  0.46997151  0.39166858
   0.59810346  0.49206458  0.48035536
   0.49791645  0.44965086  0.65886058
   0.54677041  0.40862171  0.55468803
Direct configuration=    68
   0.51786408  0.52969979  0.57454351
   0.48292525  0.54123109  0.45270878
   0.56822732  0.61062648  0.49944735
   0.51055863  0.41870333  0.43761509
   0.41277639  0.47009742  0.39131642
   0.59779617  0.49211473  0.48016784
   0.49871040  0.44990351  0.65952554
   0.54570860  0.40864204  0.55444214
Direct configuration=    69
   0.51809471  0.53021973  0.57477650
   0.48282233  0.54120990  0.45268502
   0.56777987  0.61075827  0.49968732
   0.51062938  0.41848122  0.43772989
   0.41326974  0.47018873  0.39132604
   0.59758644  0.49148308  0.48014055
   0.49915424  0.44984821  0.65911790
   0.54523013  0.40882924  0.55430346
Direct configuration=    70
   0.51830365  0.53069078  0.57498758
   0.48272909  0.54119069  0.45266349
   0.56737450  0.61087767  0.49990471
   0.51069348  0.41828000  0.43783390
   0.41371670  0.47027146  0.39133476
   0.59739644  0.49091083  0.48011582
   0.49955634  0.44979812  0.65874859
   0.54479665  0.40899884  0.55417781
Direct configuration=    71
   0.51860383  0.53119440  0.57519387
   0.48296708  0.54153984  0.45293615
   0.56697011  0.61097683  0.49994549
   0.51044093  0.41789197  0.43780968
   0.41384416  0.47007808  0.39103236
   0.59746654  0.49078040  0.48010304
   0.49978023  0.44965095  0.65848332
   0.54449396  0.40890592  0.55426277
Direct configuration=    72
   0.51851946  0.53105285  0.57513589
   0.48290018  0.54144170  0.45285952
   0.56708377  0.61094896  0.49993403
   0.51051192  0.41800104  0.43781649
   0.41380833  0.47013244  0.39111736
   0.59744683  0.49081706  0.48010663
   0.49971730  0.44969232  0.65855788
   0.54457904  0.40893203  0.55423889
Direct configuration=    73
   0.51870586  0.53111964  0.57536201
   0.48288202  0.54137799  0.45287203
   0.56708737  0.61121985  0.49985616
   0.51026496  0.41788431  0.43782391
   0.41389613  0.47007067  0.39095080
   0.59748389  0.49088441  0.48012343
   0.49969101  0.44964564  0.65857284
   0.54455559  0.40881588  0.55420551
Direct configuration=    74
   0.51874986  0.53113541  0.57541538
   0.48287773  0.54136295  0.45287498
   0.56708822  0.61128379  0.49983778
   0.51020666  0.41785675  0.43782566
   0.41391686  0.47005609  0.39091148
   0.59749264  0.49090031  0.48012740
   0.49968480  0.44963462  0.65857637
   0.54455006  0.40878847  0.55419763
