  13  13   0   0
  0.9150809E+03  0.2088930E-08  0.2246149E-08  0.2535364E-08  0.5000000E-15
   1.0000000000000000E-004
  CAR 
 unknown system                          
      2.38125467    -12.52926581  301     -4.03018027      1.00000000
    -12.529  0.0000E+00  0.0000E+00  0.0000E+00  0.0000E+00
    -12.480  0.0000E+00  0.0000E+00  0.0000E+00  0.0000E+00
    -12.430  0.0000E+00  0.0000E+00  0.0000E+00  0.0000E+00
    -12.380  0.0000E+00  0.0000E+00  0.0000E+00  0.0000E+00
    -12.330  0.0000E+00  0.0000E+00  0.0000E+00  0.0000E+00
    -12.281  0.0000E+00  0.0000E+00  0.0000E+00  0.0000E+00
    -12.231  0.0000E+00  0.0000E+00  0.0000E+00  0.0000E+00
    -12.181  0.0000E+00  0.0000E+00  0.0000E+00  0.0000E+00
    -12.132 -0.6025E-29 -0.5893E-29 -0.2994E-30 -0.2929E-30
    -12.082 -0.2883E-27 -0.2822E-27 -0.1463E-28 -0.1432E-28
    -12.032 -0.1240E-25 -0.1215E-25 -0.6310E-27 -0.6180E-27
    -11.983 -0.4707E-24 -0.4614E-24 -0.2403E-25 -0.2355E-25
    -11.933 -0.1577E-22 -0.1546E-22 -0.8077E-24 -0.7922E-24
    -11.883 -0.4659E-21 -0.4573E-21 -0.2396E-22 -0.2352E-22
    -11.833 -0.1215E-19 -0.1193E-19 -0.6276E-21 -0.6164E-21
    -11.784 -0.2792E-18 -0.2745E-18 -0.1451E-19 -0.1426E-19
    -11.734 -0.5661E-17 -0.5568E-17 -0.2958E-18 -0.2910E-18
    -11.684 -0.9781E-16 -0.9622E-16 -0.5157E-17 -0.5073E-17
    -11.635 -0.1542E-14 -0.1519E-14 -0.8179E-16 -0.8058E-16
    -11.585 -0.2132E-13 -0.2102E-13 -0.1142E-14 -0.1125E-14
    -11.535 -0.2596E-12 -0.2561E-12 -0.1404E-13 -0.1385E-13
    -11.486 -0.2780E-11 -0.2745E-11 -0.1522E-12 -0.1503E-12
    -11.436 -0.2618E-10 -0.2586E-10 -0.1454E-11 -0.1436E-11
    -11.386 -0.2166E-09 -0.2141E-09 -0.1222E-10 -0.1208E-10
    -11.336 -0.1572E-08 -0.1555E-08 -0.9036E-10 -0.8939E-10
    -11.287 -0.1000E-07 -0.9904E-08 -0.5876E-09 -0.5816E-09
    -11.237 -0.5570E-07 -0.5519E-07 -0.3356E-08 -0.3325E-08
    -11.187 -0.2708E-06 -0.2685E-06 -0.1682E-07 -0.1667E-07
    -11.138 -0.1147E-05 -0.1138E-05 -0.7381E-07 -0.7322E-07
    -11.088 -0.4211E-05 -0.4182E-05 -0.2831E-06 -0.2811E-06
    -11.038 -0.1334E-04 -0.1326E-04 -0.9460E-06 -0.9400E-06
    -10.989 -0.3611E-04 -0.3592E-04 -0.2740E-05 -0.2725E-05
    -10.939 -0.8231E-04 -0.8197E-04 -0.6831E-05 -0.6799E-05
    -10.889 -0.1535E-03 -0.1531E-03 -0.1446E-04 -0.1441E-04
    -10.839 -0.2190E-03 -0.2188E-03 -0.2535E-04 -0.2528E-04
    -10.790 -0.1867E-03 -0.1875E-03 -0.3463E-04 -0.3460E-04
    -10.740  0.9635E-04  0.9375E-04 -0.2984E-04 -0.2994E-04
    -10.690  0.7742E-03  0.7692E-03  0.8639E-05  0.8290E-05
    -10.641  0.1846E-02  0.1839E-02  0.1004E-03  0.9969E-04
    -10.591  0.3059E-02  0.3053E-02  0.2524E-03  0.2514E-03
    -10.541  0.3967E-02  0.3964E-02  0.4496E-03  0.4484E-03
    -10.491  0.4167E-02  0.4168E-02  0.6567E-03  0.6556E-03
    -10.442  0.3563E-02  0.3568E-02  0.8338E-03  0.8329E-03
    -10.392  0.2436E-02  0.2443E-02  0.9548E-03  0.9543E-03
    -10.342  0.1249E-02  0.1255E-02  0.1017E-02  0.1017E-02
    -10.293  0.3675E-03  0.3712E-03  0.1035E-02  0.1035E-02
    -10.243 -0.9261E-04 -0.9109E-04  0.1031E-02  0.1031E-02
    -10.193 -0.2241E-03 -0.2240E-03  0.1019E-02  0.1019E-02
    -10.144 -0.1896E-03 -0.1900E-03  0.1010E-02  0.1010E-02
    -10.094 -0.1142E-03 -0.1146E-03  0.1004E-02  0.1004E-02
    -10.044 -0.5491E-04 -0.5517E-04  0.1002E-02  0.1002E-02
     -9.994 -0.2220E-04 -0.2232E-04  0.1000E-02  0.1001E-02
     -9.945 -0.8497E-05 -0.8536E-05  0.1000E-02  0.1000E-02
     -9.895 -0.6014E-05 -0.6000E-05  0.9998E-03  0.9998E-03
     -9.845 -0.1284E-04 -0.1275E-04  0.9991E-03  0.9991E-03
     -9.796 -0.3379E-04 -0.3359E-04  0.9975E-03  0.9975E-03
     -9.746 -0.7784E-04 -0.7748E-04  0.9936E-03  0.9936E-03
     -9.696 -0.1476E-03 -0.1471E-03  0.9863E-03  0.9863E-03
     -9.647 -0.2159E-03 -0.2156E-03  0.9755E-03  0.9756E-03
     -9.597 -0.1958E-03 -0.1965E-03  0.9658E-03  0.9658E-03
     -9.547  0.6229E-04  0.5955E-04  0.9689E-03  0.9688E-03
     -9.497  0.7075E-03  0.7020E-03  0.1004E-02  0.1004E-02
     -9.448  0.1755E-02  0.1747E-02  0.1091E-02  0.1091E-02
     -9.398  0.2972E-02  0.2964E-02  0.1239E-02  0.1238E-02
     -9.348  0.3919E-02  0.3915E-02  0.1434E-02  0.1432E-02
     -9.299  0.4181E-02  0.4182E-02  0.1642E-02  0.1640E-02
     -9.249  0.3632E-02  0.3638E-02  0.1822E-02  0.1821E-02
     -9.199  0.2529E-02  0.2537E-02  0.1948E-02  0.1947E-02
     -9.150  0.1331E-02  0.1338E-02  0.2014E-02  0.2014E-02
     -9.100  0.4195E-03  0.4240E-03  0.2035E-02  0.2035E-02
     -9.050 -0.7115E-04 -0.6926E-04  0.2031E-02  0.2031E-02
     -9.000 -0.2220E-03 -0.2218E-03  0.2020E-02  0.2020E-02
     -8.951 -0.1952E-03 -0.1956E-03  0.2011E-02  0.2011E-02
     -8.901 -0.1210E-03 -0.1215E-03  0.2005E-02  0.2005E-02
     -8.851 -0.6346E-04 -0.6374E-04  0.2001E-02  0.2001E-02
     -8.802 -0.4019E-04 -0.4028E-04  0.1999E-02  0.1999E-02
     -8.752 -0.5453E-04 -0.5445E-04  0.1997E-02  0.1997E-02
     -8.702 -0.1133E-03 -0.1131E-03  0.1991E-02  0.1991E-02
     -8.653 -0.2218E-03 -0.2214E-03  0.1980E-02  0.1980E-02
     -8.603 -0.3518E-03 -0.3513E-03  0.1963E-02  0.1963E-02
     -8.553 -0.3910E-03 -0.3910E-03  0.1943E-02  0.1943E-02
     -8.503 -0.1141E-03 -0.1157E-03  0.1937E-02  0.1937E-02
     -8.454  0.7578E-03  0.7538E-03  0.1975E-02  0.1975E-02
     -8.404  0.2372E-02  0.2365E-02  0.2093E-02  0.2092E-02
     -8.354  0.4517E-02  0.4509E-02  0.2318E-02  0.2317E-02
     -8.305  0.6560E-02  0.6553E-02  0.2644E-02  0.2642E-02
     -8.255  0.7709E-02  0.7706E-02  0.3027E-02  0.3025E-02
     -8.205  0.7500E-02  0.7502E-02  0.3399E-02  0.3398E-02
     -8.156  0.6150E-02  0.6155E-02  0.3705E-02  0.3704E-02
     -8.106  0.4451E-02  0.4454E-02  0.3926E-02  0.3925E-02
     -8.056  0.3255E-02  0.3255E-02  0.4088E-02  0.4087E-02
     -8.006  0.2960E-02  0.2957E-02  0.4235E-02  0.4234E-02
     -7.957  0.3389E-02  0.3385E-02  0.4404E-02  0.4402E-02
     -7.907  0.4108E-02  0.4106E-02  0.4608E-02  0.4606E-02
     -7.857  0.4848E-02  0.4848E-02  0.4849E-02  0.4847E-02
     -7.808  0.5661E-02  0.5660E-02  0.5130E-02  0.5129E-02
     -7.758  0.6755E-02  0.6752E-02  0.5466E-02  0.5464E-02
     -7.708  0.8220E-02  0.8214E-02  0.5874E-02  0.5873E-02
     -7.658  0.9847E-02  0.9841E-02  0.6364E-02  0.6362E-02
     -7.609  0.1114E-01  0.1114E-01  0.6918E-02  0.6915E-02
     -7.559  0.1150E-01  0.1150E-01  0.7489E-02  0.7487E-02
     -7.509  0.1059E-01  0.1060E-01  0.8016E-02  0.8014E-02
     -7.460  0.8665E-02  0.8674E-02  0.8446E-02  0.8445E-02
     -7.410  0.6677E-02  0.6683E-02  0.8778E-02  0.8777E-02
     -7.360  0.5781E-02  0.5779E-02  0.9065E-02  0.9064E-02
     -7.311  0.6586E-02  0.6578E-02  0.9393E-02  0.9391E-02
     -7.261  0.8713E-02  0.8701E-02  0.9826E-02  0.9824E-02
     -7.211  0.1109E-01  0.1108E-01  0.1038E-01  0.1037E-01
     -7.161  0.1278E-01  0.1278E-01  0.1101E-01  0.1101E-01
     -7.112  0.1370E-01  0.1370E-01  0.1169E-01  0.1169E-01
     -7.062  0.1455E-01  0.1454E-01  0.1242E-01  0.1241E-01
     -7.012  0.1614E-01  0.1613E-01  0.1322E-01  0.1321E-01
     -6.963  0.1878E-01  0.1877E-01  0.1415E-01  0.1415E-01
     -6.913  0.2203E-01  0.2202E-01  0.1525E-01  0.1524E-01
     -6.863  0.2499E-01  0.2498E-01  0.1649E-01  0.1648E-01
     -6.814  0.2684E-01  0.2683E-01  0.1782E-01  0.1782E-01
     -6.764  0.2724E-01  0.2724E-01  0.1918E-01  0.1917E-01
     -6.714  0.2646E-01  0.2646E-01  0.2049E-01  0.2049E-01
     -6.664  0.2505E-01  0.2505E-01  0.2174E-01  0.2173E-01
     -6.615  0.2342E-01  0.2343E-01  0.2290E-01  0.2290E-01
     -6.565  0.2156E-01  0.2157E-01  0.2397E-01  0.2397E-01
     -6.515  0.1918E-01  0.1920E-01  0.2493E-01  0.2492E-01
     -6.466  0.1616E-01  0.1618E-01  0.2573E-01  0.2573E-01
     -6.416  0.1294E-01  0.1296E-01  0.2637E-01  0.2637E-01
     -6.366  0.1042E-01  0.1043E-01  0.2689E-01  0.2689E-01
     -6.317  0.9518E-02  0.9520E-02  0.2736E-01  0.2736E-01
     -6.267  0.1059E-01  0.1058E-01  0.2789E-01  0.2789E-01
     -6.217  0.1329E-01  0.1328E-01  0.2855E-01  0.2855E-01
     -6.167  0.1678E-01  0.1676E-01  0.2938E-01  0.2938E-01
     -6.118  0.2013E-01  0.2012E-01  0.3039E-01  0.3038E-01
     -6.068  0.2269E-01  0.2268E-01  0.3151E-01  0.3151E-01
     -6.018  0.2436E-01  0.2436E-01  0.3272E-01  0.3272E-01
     -5.969  0.2574E-01  0.2574E-01  0.3400E-01  0.3400E-01
     -5.919  0.2783E-01  0.2783E-01  0.3539E-01  0.3538E-01
     -5.869  0.3136E-01  0.3135E-01  0.3695E-01  0.3694E-01
     -5.820  0.3603E-01  0.3601E-01  0.3874E-01  0.3873E-01
     -5.770  0.4054E-01  0.4053E-01  0.4075E-01  0.4074E-01
     -5.720  0.4347E-01  0.4347E-01  0.4291E-01  0.4290E-01
     -5.670  0.4420E-01  0.4420E-01  0.4511E-01  0.4510E-01
     -5.621  0.4327E-01  0.4327E-01  0.4726E-01  0.4725E-01
     -5.571  0.4181E-01  0.4181E-01  0.4934E-01  0.4933E-01
     -5.521  0.4082E-01  0.4081E-01  0.5137E-01  0.5136E-01
     -5.472  0.4077E-01  0.4076E-01  0.5339E-01  0.5338E-01
     -5.422  0.4167E-01  0.4166E-01  0.5546E-01  0.5545E-01
     -5.372  0.4312E-01  0.4311E-01  0.5761E-01  0.5760E-01
     -5.323  0.4422E-01  0.4422E-01  0.5980E-01  0.5979E-01
     -5.273  0.4376E-01  0.4377E-01  0.6198E-01  0.6197E-01
     -5.223  0.4071E-01  0.4073E-01  0.6400E-01  0.6399E-01
     -5.173  0.3483E-01  0.3485E-01  0.6573E-01  0.6573E-01
     -5.124  0.2698E-01  0.2700E-01  0.6707E-01  0.6707E-01
     -5.074  0.1872E-01  0.1874E-01  0.6800E-01  0.6800E-01
     -5.024  0.1160E-01  0.1162E-01  0.6858E-01  0.6858E-01
     -4.975  0.6572E-02  0.6586E-02  0.6891E-01  0.6890E-01
     -4.925  0.3808E-02  0.3818E-02  0.6910E-01  0.6909E-01
     -4.875  0.2889E-02  0.2895E-02  0.6924E-01  0.6924E-01
     -4.825  0.3049E-02  0.3052E-02  0.6939E-01  0.6939E-01
     -4.776  0.3438E-02  0.3441E-02  0.6956E-01  0.6956E-01
     -4.726  0.3406E-02  0.3410E-02  0.6973E-01  0.6973E-01
     -4.676  0.2738E-02  0.2745E-02  0.6987E-01  0.6987E-01
     -4.627  0.1698E-02  0.1706E-02  0.6995E-01  0.6995E-01
     -4.577  0.8135E-03  0.8178E-03  0.6999E-01  0.6999E-01
     -4.527  0.5518E-03  0.5507E-03  0.7002E-01  0.7002E-01
     -4.478  0.1073E-02  0.1067E-02  0.7007E-01  0.7007E-01
     -4.428  0.2144E-02  0.2136E-02  0.7018E-01  0.7018E-01
     -4.378  0.3246E-02  0.3240E-02  0.7034E-01  0.7034E-01
     -4.328  0.3848E-02  0.3847E-02  0.7053E-01  0.7053E-01
     -4.279  0.3738E-02  0.3738E-02  0.7072E-01  0.7072E-01
     -4.229  0.3175E-02  0.3168E-02  0.7088E-01  0.7087E-01
     -4.179  0.2707E-02  0.2688E-02  0.7101E-01  0.7101E-01
     -4.130  0.2759E-02  0.2729E-02  0.7115E-01  0.7114E-01
     -4.080  0.3294E-02  0.3264E-02  0.7131E-01  0.7131E-01
     -4.030  0.3851E-02  0.3837E-02  0.7150E-01  0.7150E-01
     -3.981  0.3911E-02  0.3920E-02  0.7170E-01  0.7169E-01
     -3.931  0.3278E-02  0.3308E-02  0.7186E-01  0.7186E-01
     -3.881  0.2180E-02  0.2217E-02  0.7197E-01  0.7197E-01
     -3.831  0.1046E-02  0.1077E-02  0.7202E-01  0.7202E-01
     -3.782  0.2033E-03  0.2222E-03  0.7203E-01  0.7203E-01
     -3.732 -0.2652E-03 -0.2576E-03  0.7202E-01  0.7202E-01
     -3.682 -0.4530E-03 -0.4523E-03  0.7199E-01  0.7200E-01
     -3.633 -0.4600E-03 -0.4625E-03  0.7197E-01  0.7197E-01
     -3.583 -0.2722E-03 -0.2768E-03  0.7196E-01  0.7196E-01
     -3.533  0.2373E-03  0.2298E-03  0.7197E-01  0.7197E-01
     -3.484  0.1195E-02  0.1185E-02  0.7203E-01  0.7203E-01
     -3.434  0.2586E-02  0.2574E-02  0.7216E-01  0.7216E-01
     -3.384  0.4178E-02  0.4169E-02  0.7237E-01  0.7236E-01
     -3.334  0.5594E-02  0.5589E-02  0.7264E-01  0.7264E-01
     -3.285  0.6451E-02  0.6453E-02  0.7296E-01  0.7296E-01
     -3.235  0.6504E-02  0.6512E-02  0.7329E-01  0.7329E-01
     -3.185  0.5723E-02  0.5734E-02  0.7357E-01  0.7357E-01
     -3.136  0.4312E-02  0.4323E-02  0.7379E-01  0.7379E-01
     -3.086  0.2685E-02  0.2693E-02  0.7392E-01  0.7392E-01
     -3.036  0.1356E-02  0.1358E-02  0.7399E-01  0.7399E-01
     -2.987  0.7584E-03  0.7523E-03  0.7403E-01  0.7402E-01
     -2.937  0.1045E-02  0.1031E-02  0.7408E-01  0.7408E-01
     -2.887  0.1989E-02  0.1973E-02  0.7418E-01  0.7417E-01
     -2.837  0.3069E-02  0.3057E-02  0.7433E-01  0.7433E-01
     -2.788  0.3749E-02  0.3746E-02  0.7451E-01  0.7451E-01
     -2.738  0.3803E-02  0.3809E-02  0.7470E-01  0.7470E-01
     -2.688  0.3462E-02  0.3473E-02  0.7488E-01  0.7487E-01
     -2.639  0.3225E-02  0.3233E-02  0.7504E-01  0.7503E-01
     -2.589  0.3476E-02  0.3473E-02  0.7521E-01  0.7521E-01
     -2.539  0.4218E-02  0.4205E-02  0.7542E-01  0.7542E-01
     -2.490  0.5130E-02  0.5109E-02  0.7567E-01  0.7567E-01
     -2.440  0.5799E-02  0.5777E-02  0.7596E-01  0.7596E-01
     -2.390  0.5929E-02  0.5916E-02  0.7626E-01  0.7625E-01
     -2.340  0.5403E-02  0.5405E-02  0.7652E-01  0.7652E-01
     -2.291  0.4298E-02  0.4316E-02  0.7674E-01  0.7673E-01
     -2.241  0.2910E-02  0.2937E-02  0.7688E-01  0.7688E-01
     -2.191  0.1702E-02  0.1724E-02  0.7697E-01  0.7697E-01
     -2.142  0.1129E-02  0.1137E-02  0.7702E-01  0.7702E-01
     -2.092  0.1397E-02  0.1388E-02  0.7709E-01  0.7709E-01
     -2.042  0.2335E-02  0.2316E-02  0.7721E-01  0.7721E-01
     -1.992  0.3502E-02  0.3485E-02  0.7738E-01  0.7738E-01
     -1.943  0.4460E-02  0.4454E-02  0.7761E-01  0.7760E-01
     -1.893  0.4998E-02  0.5003E-02  0.7785E-01  0.7785E-01
     -1.843  0.5134E-02  0.5148E-02  0.7811E-01  0.7811E-01
     -1.794  0.4963E-02  0.4977E-02  0.7836E-01  0.7835E-01
     -1.744  0.4551E-02  0.4560E-02  0.7858E-01  0.7858E-01
     -1.694  0.4006E-02  0.4008E-02  0.7878E-01  0.7878E-01
     -1.645  0.3550E-02  0.3543E-02  0.7896E-01  0.7896E-01
     -1.595  0.3397E-02  0.3384E-02  0.7913E-01  0.7912E-01
     -1.545  0.3539E-02  0.3527E-02  0.7930E-01  0.7930E-01
     -1.495  0.3701E-02  0.3697E-02  0.7949E-01  0.7948E-01
     -1.446  0.3599E-02  0.3602E-02  0.7966E-01  0.7966E-01
     -1.396  0.3271E-02  0.3274E-02  0.7983E-01  0.7982E-01
     -1.346  0.3120E-02  0.3109E-02  0.7998E-01  0.7998E-01
     -1.297  0.3574E-02  0.3541E-02  0.8016E-01  0.8015E-01
     -1.247  0.4669E-02  0.4620E-02  0.8039E-01  0.8038E-01
     -1.197  0.5941E-02  0.5893E-02  0.8069E-01  0.8068E-01
     -1.148  0.6729E-02  0.6707E-02  0.8102E-01  0.8101E-01
     -1.098  0.6687E-02  0.6705E-02  0.8135E-01  0.8134E-01
     -1.048  0.6080E-02  0.6137E-02  0.8166E-01  0.8165E-01
     -0.998  0.5617E-02  0.5694E-02  0.8194E-01  0.8193E-01
     -0.949  0.5894E-02  0.5968E-02  0.8223E-01  0.8223E-01
     -0.899  0.6872E-02  0.6923E-02  0.8257E-01  0.8257E-01
     -0.849  0.7825E-02  0.7845E-02  0.8296E-01  0.8296E-01
     -0.800  0.7857E-02  0.7850E-02  0.8335E-01  0.8335E-01
     -0.750  0.6567E-02  0.6546E-02  0.8368E-01  0.8368E-01
     -0.700  0.4329E-02  0.4308E-02  0.8389E-01  0.8389E-01
     -0.651  0.2004E-02  0.1990E-02  0.8399E-01  0.8399E-01
     -0.601  0.4245E-03  0.4164E-03  0.8401E-01  0.8401E-01
     -0.551  0.5340E-04  0.4752E-04  0.8401E-01  0.8401E-01
     -0.501  0.9312E-03  0.9219E-03  0.8406E-01  0.8406E-01
     -0.452  0.2743E-02  0.2725E-02  0.8420E-01  0.8420E-01
     -0.402  0.4891E-02  0.4860E-02  0.8444E-01  0.8444E-01
     -0.352  0.6642E-02  0.6594E-02  0.8477E-01  0.8476E-01
     -0.303  0.7419E-02  0.7354E-02  0.8514E-01  0.8513E-01
     -0.253  0.7116E-02  0.7057E-02  0.8549E-01  0.8548E-01
     -0.203  0.6172E-02  0.6178E-02  0.8580E-01  0.8579E-01
     -0.154  0.5277E-02  0.5440E-02  0.8606E-01  0.8606E-01
     -0.104  0.4912E-02  0.5314E-02  0.8631E-01  0.8632E-01
     -0.054  0.5096E-02  0.5751E-02  0.8656E-01  0.8661E-01
     -0.004  0.5541E-02  0.6388E-02  0.8683E-01  0.8693E-01
      0.045  0.6051E-02  0.7031E-02  0.8714E-01  0.8728E-01
      0.095  0.6794E-02  0.7942E-02  0.8747E-01  0.8767E-01
      0.145  0.8192E-02  0.9581E-02  0.8788E-01  0.8815E-01
      0.194  0.1045E-01  0.1200E-01  0.8840E-01  0.8874E-01
      0.244  0.1312E-01  0.1443E-01  0.8905E-01  0.8946E-01
      0.294  0.1511E-01  0.1561E-01  0.8980E-01  0.9023E-01
      0.343  0.1530E-01  0.1460E-01  0.9056E-01  0.9096E-01
      0.393  0.1327E-01  0.1150E-01  0.9122E-01  0.9153E-01
      0.443  0.9633E-02  0.7367E-02  0.9170E-01  0.9190E-01
      0.493  0.5605E-02  0.3536E-02  0.9198E-01  0.9207E-01
      0.542  0.2318E-02  0.8972E-03  0.9209E-01  0.9212E-01
      0.592  0.3011E-03 -0.4021E-03  0.9211E-01  0.9210E-01
      0.642 -0.5513E-03 -0.7357E-03  0.9208E-01  0.9206E-01
      0.691 -0.6721E-03 -0.6036E-03  0.9205E-01  0.9203E-01
      0.741 -0.4930E-03 -0.3644E-03  0.9202E-01  0.9201E-01
      0.791 -0.2796E-03 -0.1786E-03  0.9201E-01  0.9201E-01
      0.841 -0.1311E-03 -0.7369E-04  0.9200E-01  0.9200E-01
      0.890 -0.5225E-04 -0.2606E-04  0.9200E-01  0.9200E-01
      0.940 -0.1795E-04 -0.7979E-05  0.9200E-01  0.9200E-01
      0.990 -0.5354E-05 -0.2127E-05  0.9200E-01  0.9200E-01
      1.039 -0.1394E-05 -0.4956E-06  0.9200E-01  0.9200E-01
      1.089 -0.3175E-06 -0.1012E-06  0.9200E-01  0.9200E-01
      1.139 -0.6342E-07 -0.1814E-07  0.9200E-01  0.9200E-01
      1.188 -0.1112E-07 -0.2858E-08  0.9200E-01  0.9200E-01
      1.238 -0.1715E-08 -0.3962E-09  0.9200E-01  0.9200E-01
      1.288 -0.2326E-09 -0.4836E-10  0.9200E-01  0.9200E-01
      1.338 -0.2776E-10 -0.5199E-11  0.9200E-01  0.9200E-01
      1.387 -0.2918E-11 -0.4925E-12  0.9200E-01  0.9200E-01
      1.437 -0.2701E-12 -0.4113E-13  0.9200E-01  0.9200E-01
      1.487 -0.2203E-13 -0.3020E-14  0.9200E-01  0.9200E-01
      1.536 -0.1590E-14 -0.2010E-15  0.9200E-01  0.9200E-01
      1.586 -0.9829E-16 -0.1340E-16  0.9200E-01  0.9200E-01
      1.636 -0.4468E-17  0.0000E+00  0.9200E-01  0.9200E-01
      1.685  0.0000E+00  0.0000E+00  0.9200E-01  0.9200E-01
      1.735  0.0000E+00  0.0000E+00  0.9200E-01  0.9200E-01
      1.785  0.0000E+00  0.0000E+00  0.9200E-01  0.9200E-01
      1.835  0.0000E+00  0.0000E+00  0.9200E-01  0.9200E-01
      1.884  0.0000E+00  0.0000E+00  0.9200E-01  0.9200E-01
      1.934  0.0000E+00  0.0000E+00  0.9200E-01  0.9200E-01
      1.984  0.0000E+00  0.0000E+00  0.9200E-01  0.9200E-01
      2.033  0.0000E+00  0.0000E+00  0.9200E-01  0.9200E-01
      2.083  0.0000E+00  0.0000E+00  0.9200E-01  0.9200E-01
      2.133  0.0000E+00  0.0000E+00  0.9200E-01  0.9200E-01
      2.182  0.0000E+00  0.0000E+00  0.9200E-01  0.9200E-01
      2.232  0.0000E+00  0.0000E+00  0.9200E-01  0.9200E-01
      2.282  0.0000E+00  0.0000E+00  0.9200E-01  0.9200E-01
      2.332  0.0000E+00  0.0000E+00  0.9200E-01  0.9200E-01
      2.381  0.0000E+00  0.0000E+00  0.9200E-01  0.9200E-01
