   13   13 1000    2
  0.9150809E+03  0.2088930E-08  0.2246149E-08  0.2535364E-08  0.5000000E-15
   1.0000000000000000E-004
  CAR 
 unknown system                          
    143      1     92
 
  0.1262379E-14  0.1262379E-14  0.1262379E-14  0.1000000E+01
    1      -10.529266    -10.528987   1.000000   1.000000
    2       -9.332648     -9.332331   1.000000   1.000000
    3       -8.293399     -8.293268   1.000000   1.000000
    4       -8.229043     -8.228798   1.000000   1.000000
    5       -7.936192     -7.935862   1.000000   1.000000
    6       -7.745171     -7.745012   1.000000   1.000000
    7       -7.636875     -7.636609   1.000000   1.000000
    8       -7.531246     -7.531053   1.000000   1.000000
    9       -7.516808     -7.516649   1.000000   1.000000
   10       -7.226212     -7.225977   1.000000   1.000000
   11       -7.224731     -7.224530   1.000000   1.000000
   12       -7.170113     -7.169884   1.000000   1.000000
   13       -7.035932     -7.035701   1.000000   1.000000
   14       -6.998349     -6.998125   1.000000   1.000000
   15       -6.938041     -6.937857   1.000000   1.000000
   16       -6.873791     -6.873665   1.000000   1.000000
   17       -6.857875     -6.857659   1.000000   1.000000
   18       -6.835066     -6.834817   1.000000   1.000000
   19       -6.804418     -6.804209   1.000000   1.000000
   20       -6.741293     -6.741058   1.000000   1.000000
   21       -6.740375     -6.740154   1.000000   1.000000
   22       -6.661281     -6.661106   1.000000   1.000000
   23       -6.641310     -6.641055   1.000000   1.000000
   24       -6.576203     -6.575961   1.000000   1.000000
   25       -6.517787     -6.517527   1.000000   1.000000
   26       -6.515957     -6.515721   1.000000   1.000000
   27       -6.436906     -6.436735   1.000000   1.000000
   28       -6.276235     -6.276045   1.000000   1.000000
   29       -6.200008     -6.199819   1.000000   1.000000
   30       -6.178950     -6.178767   1.000000   1.000000
   31       -6.078305     -6.078091   1.000000   1.000000
   32       -6.074351     -6.074163   1.000000   1.000000
   33       -6.042563     -6.042358   1.000000   1.000000
   34       -5.995170     -5.994956   1.000000   1.000000
   35       -5.983263     -5.983062   1.000000   1.000000
   36       -5.921150     -5.920999   1.000000   1.000000
   37       -5.845726     -5.845548   1.000000   1.000000
   38       -5.833984     -5.833817   1.000000   1.000000
   39       -5.809639     -5.809414   1.000000   1.000000
   40       -5.784525     -5.784368   1.000000   1.000000
   41       -5.758639     -5.758461   1.000000   1.000000
   42       -5.754811     -5.754619   1.000000   1.000000
   43       -5.748038     -5.747840   1.000000   1.000000
   44       -5.730711     -5.730528   1.000000   1.000000
   45       -5.694406     -5.694263   1.000000   1.000000
   46       -5.665956     -5.665798   1.000000   1.000000
   47       -5.659114     -5.658957   1.000000   1.000000
   48       -5.612323     -5.612146   1.000000   1.000000
   49       -5.588748     -5.588593   1.000000   1.000000
   50       -5.558160     -5.557952   1.000000   1.000000
   51       -5.537968     -5.537732   1.000000   1.000000
   52       -5.509033     -5.508806   1.000000   1.000000
   53       -5.503103     -5.502915   1.000000   1.000000
   54       -5.477200     -5.477030   1.000000   1.000000
   55       -5.461745     -5.461562   1.000000   1.000000
   56       -5.396952     -5.396735   1.000000   1.000000
   57       -5.381165     -5.380962   1.000000   1.000000
   58       -5.377428     -5.377225   1.000000   1.000000
   59       -5.328766     -5.328518   1.000000   1.000000
   60       -5.324546     -5.324409   1.000000   1.000000
   61       -5.313626     -5.313322   1.000000   1.000000
   62       -5.272955     -5.272766   1.000000   1.000000
   63       -5.255951     -5.255734   1.000000   1.000000
   64       -5.234185     -5.234006   1.000000   1.000000
   65       -5.214916     -5.214751   1.000000   1.000000
   66       -5.212777     -5.212530   1.000000   1.000000
   67       -5.159182     -5.159027   1.000000   1.000000
   68       -5.142765     -5.142596   1.000000   1.000000
   69       -5.017584     -5.017019   1.000000   1.000000
   70       -4.773994     -4.773640   1.000001   1.000001
   71       -4.341673     -4.341287   1.025034   1.025123
   72       -4.025000     -4.023505   0.478090   0.471770
   73       -3.354717     -3.354284  -0.000010  -0.000010
   74       -3.204564     -3.204388  -0.000000  -0.000000
   75       -2.798524     -2.797854  -0.000000  -0.000000
   76       -2.516548     -2.516163  -0.000000  -0.000000
   77       -2.346738     -2.345616  -0.000000  -0.000000
   78       -1.969342     -1.968454  -0.000000  -0.000000
   79       -1.763841     -1.763471  -0.000000  -0.000000
   80       -1.492957     -1.492019  -0.000000  -0.000000
   81       -1.207993     -1.206773  -0.000000  -0.000000
   82       -1.101910     -1.100147  -0.000000  -0.000000
   83       -0.853476     -0.854650  -0.000000  -0.000000
   84       -0.823982     -0.823554  -0.000000  -0.000000
   85       -0.371259     -0.371031  -0.000000  -0.000000
   86       -0.281642     -0.281233  -0.000000  -0.000000
   87       -0.057388     -0.056130  -0.000000  -0.000000
   88        0.081686      0.048915  -0.000000  -0.000000
   89        0.255186      0.227689  -0.000000  -0.000000
   90        0.293389      0.271898  -0.000000  -0.000000
   91        0.310954      0.287100  -0.000000  -0.000000
   92        0.381255      0.342875  -0.000000  -0.000000
