       N       E                     dE             d eps       ncg     rms          rms(c)
DAV:   1     0.975827879202E+03    0.97583E+03   -0.26058E+04   368   0.756E+02
DAV:   2     0.235084759476E+03   -0.74074E+03   -0.67210E+03   368   0.226E+02
DAV:   3     0.742551621627E+01   -0.22766E+03   -0.21817E+03   472   0.133E+02
DAV:   4    -0.351427424852E+02   -0.42568E+02   -0.38937E+02   448   0.108E+02
DAV:   5    -0.372313863248E+02   -0.20886E+01   -0.20648E+01   512   0.229E+01    0.286E+01
DAV:   6    -0.142204590379E+02    0.23011E+02   -0.13942E+02   396   0.897E+01    0.118E+01
DAV:   7    -0.109503080225E+02    0.32702E+01   -0.30450E+01   440   0.629E+01    0.504E+00
DAV:   8    -0.105276480563E+02    0.42266E+00   -0.57230E+00   440   0.508E+01    0.439E+00
DAV:   9    -0.116801543910E+02   -0.11525E+01   -0.12553E+00   480   0.275E+01    0.269E+00
DAV:  10    -0.180322681027E+02   -0.63521E+01   -0.38546E+00   512   0.153E+01    0.258E+00
DAV:  11    -0.188669168186E+02   -0.83465E+00   -0.44873E-01   480   0.101E+01    0.219E+00
DAV:  12    -0.191544095419E+02   -0.28749E+00   -0.83443E-02   480   0.231E+00    0.206E+00
DAV:  13    -0.226883833727E+02   -0.35340E+01   -0.17881E+00   452   0.465E+00    0.149E+00
DAV:  14    -0.261147501751E+02   -0.34264E+01   -0.16270E+00   528   0.786E+00    0.106E+00
DAV:  15    -0.282651160259E+02   -0.21504E+01   -0.59301E-01   512   0.667E+00    0.874E-01
DAV:  16    -0.297396220888E+02   -0.14745E+01   -0.31271E-01   488   0.424E+00    0.725E-01
DAV:  17    -0.311092190330E+02   -0.13696E+01   -0.28972E-01   492   0.322E+00    0.450E-01
DAV:  18    -0.317725436697E+02   -0.66332E+00   -0.10507E-01   520   0.351E+00    0.406E-01
DAV:  19    -0.320495706065E+02   -0.27703E+00   -0.23533E-02   560   0.153E+00    0.268E-01
DAV:  20    -0.324667500208E+02   -0.41718E+00   -0.23354E-02   524   0.170E+00    0.182E-01
DAV:  21    -0.327258733288E+02   -0.25912E+00   -0.91857E-03   520   0.120E+00    0.125E-01
DAV:  22    -0.328243985436E+02   -0.98525E-01   -0.38206E-03   536   0.770E-01    0.844E-02
DAV:  23    -0.328729060192E+02   -0.48507E-01   -0.16843E-03   476   0.501E-01    0.586E-02
DAV:  24    -0.329164695500E+02   -0.43564E-01   -0.15907E-03   476   0.362E-01    0.457E-02
DAV:  25    -0.329388743591E+02   -0.22405E-01   -0.59770E-04   352   0.321E-01    0.364E-02
DAV:  26    -0.329539163202E+02   -0.15042E-01   -0.63825E-04   408   0.267E-01    0.260E-02
DAV:  27    -0.329624480352E+02   -0.85317E-02   -0.35212E-04   304   0.166E-01    0.208E-02
DAV:  28    -0.329656012848E+02   -0.31532E-02   -0.18103E-04   296   0.151E-01    0.159E-02
DAV:  29    -0.329679849362E+02   -0.23837E-02   -0.14178E-04   272   0.126E-01    0.129E-02
DAV:  30    -0.329703235685E+02   -0.23386E-02   -0.11603E-04   268   0.934E-02    0.826E-03
DAV:  31    -0.329716596376E+02   -0.13361E-02   -0.67128E-05   268   0.724E-02    0.753E-03
DAV:  32    -0.329722994281E+02   -0.63979E-03   -0.39388E-05   256   0.566E-02    0.557E-03
DAV:  33    -0.329727943783E+02   -0.49495E-03   -0.31182E-05   244   0.428E-02    0.483E-03
DAV:  34    -0.329730988507E+02   -0.30447E-03   -0.23846E-05   264   0.383E-02    0.507E-03
DAV:  35    -0.329732468461E+02   -0.14800E-03   -0.15118E-05   256   0.320E-02    0.345E-03
DAV:  36    -0.329734111246E+02   -0.16428E-03   -0.11948E-05   248   0.214E-02    0.317E-03
DAV:  37    -0.329736130397E+02   -0.20192E-03   -0.10298E-05   256   0.257E-02    0.341E-03
DAV:  38    -0.329737840724E+02   -0.17103E-03   -0.88996E-06   252   0.266E-02    0.220E-03
DAV:  39    -0.329739025906E+02   -0.11852E-03   -0.65529E-06   256   0.178E-02    0.196E-03
DAV:  40    -0.329739769193E+02   -0.74329E-04   -0.39901E-06   256   0.145E-02
   1 F= -.32973977E+02 E0= -.32961672E+02  d E =-.329740E+02  mag=     0.0066
       N       E                     dE             d eps       ncg     rms          rms(c)
DAV:   1    -0.329742973298E+02   -0.39474E-03   -0.17405E-01   408   0.142E+00    0.230E-02
DAV:   2    -0.329745817086E+02   -0.28438E-03   -0.27083E-03   536   0.361E-01    0.254E-02
DAV:   3    -0.329745844518E+02   -0.27431E-05   -0.55407E-05   256   0.154E-01
   2 F= -.32974584E+02 E0= -.32962263E+02  d E =-.607532E-03  mag=     0.0067
       N       E                     dE             d eps       ncg     rms          rms(c)
DAV:   1    -0.329747183528E+02   -0.13664E-03   -0.18948E-01   400   0.148E+00    0.297E-02
DAV:   2    -0.329750230833E+02   -0.30473E-03   -0.30929E-03   552   0.408E-01    0.387E-02
DAV:   3    -0.329750141287E+02    0.89546E-05   -0.92212E-05   248   0.210E-01
   3 F= -.32975014E+02 E0= -.32962676E+02  d E =-.103721E-02  mag=     0.0067
