 vasp.6.1.2 22Jul20 (build Aug  2 2021 21:04:21) gamma-only                      
 executed on             LinuxPGI date 2021.12.25  03:17:14
 running on   16 total cores
 distrk:  each k-point on   16 cores,    1 groups
 distr:  one band on NCORE=  16 cores,    1 groups


--------------------------------------------------------------------------------------------------------


 INCAR:
 POTCAR:    PAW_PBE Cu 22Jun2005                  
 -----------------------------------------------------------------------------
|                                                                             |
|           W    W    AA    RRRRR   N    N  II  N    N   GGGG   !!!           |
|           W    W   A  A   R    R  NN   N  II  NN   N  G    G  !!!           |
|           W    W  A    A  R    R  N N  N  II  N N  N  G       !!!           |
|           W WW W  AAAAAA  RRRRR   N  N N  II  N  N N  G  GGG   !            |
|           WW  WW  A    A  R   R   N   NN  II  N   NN  G    G                |
|           W    W  A    A  R    R  N    N  II  N    N   GGGG   !!!           |
|                                                                             |
|     You use a magnetic or noncollinear calculation, but did not specify     |
|     the initial magnetic moment with the MAGMOM tag. Note that a            |
|     default of 1 will be used for all atoms. This ferromagnetic setup       |
|     may break the symmetry of the crystal, in particular it may rule        |
|     out finding an antiferromagnetic solution. Thence, we recommend         |
|     setting the initial magnetic moment manually or verifying carefully     |
|     that this magnetic setup is desired.                                    |
|                                                                             |
 -----------------------------------------------------------------------------

 -----------------------------------------------------------------------------
|                                                                             |
|           W    W    AA    RRRRR   N    N  II  N    N   GGGG   !!!           |
|           W    W   A  A   R    R  NN   N  II  NN   N  G    G  !!!           |
|           W    W  A    A  R    R  N N  N  II  N N  N  G       !!!           |
|           W WW W  AAAAAA  RRRRR   N  N N  II  N  N N  G  GGG   !            |
|           WW  WW  A    A  R   R   N   NN  II  N   NN  G    G                |
|           W    W  A    A  R    R  N    N  II  N    N   GGGG   !!!           |
|                                                                             |
|     For optimal performance we recommend to set                             |
|       NCORE = 4 - approx SQRT(number of cores).                             |
|     NCORE specifies how many cores store one orbital (NPAR=cpu/NCORE).      |
|     This setting can greatly improve the performance of VASP for DFT.       |
|     The default, NCORE=1 might be grossly inefficient on modern             |
|     multi-core architectures or massively parallel machines. Do your        |
|     own testing!!!!                                                         |
|     Unfortunately you need to use the default for GW and RPA                |
|     calculations (for HF NCORE is supported but not extensively tested      |
|     yet).                                                                   |
|                                                                             |
 -----------------------------------------------------------------------------

 POTCAR:    PAW_PBE Cu 22Jun2005                  
   SHA256 =  0e71e558f37a4e8407882b4609ceaae59938afaad9ced71dfe8490308a0ab630 Cu/POTCAR             
   COPYR  = (c) Copyright 22Jun2005 Georg Kresse                                                    
   COPYR  = This file is part of the software VASP. Any use, copying, and all other rights are regul
   COPYR  = If you do not have a valid VASP license, you may not use, copy or distribute this file. 
   VRHFIN =Cu: d10 p1                                                                               
   LEXCH  = PE                                                                                      
   EATOM  =  1390.9808 eV,  102.2342 Ry                                                             
                                                                                                    
   TITEL  = PAW_PBE Cu 22Jun2005                                                                    
   LULTRA =        F    use ultrasoft PP ?                                                          
   IUNSCR =        1    unscreen: 0-lin 1-nonlin 2-no                                               
   RPACOR =    2.000    partial core radius                                                         
   POMASS =   63.546; ZVAL   =   11.000    mass and valenz                                          
   RCORE  =    2.300    outmost cutoff radius                                                       
   RWIGS  =    2.200; RWIGS  =    1.164    wigner-seitz radius (au A)                               
   ENMAX  =  295.446; ENMIN  =  221.585 eV                                                          
   ICORE  =        3    local potential                                                             
   LCOR   =        T    correct aug charges                                                         
   LPAW   =        T    paw PP                                                                      
   EAUG   =  586.980                                                                                
   DEXC   =    0.000                                                                                
   RMAX   =    2.344    core radius for proj-oper                                                   
   RAUG   =    1.300    factor for augmentation sphere                                              
   RDEP   =    2.302    radius for radial grids                                                     
   RDEPT  =    1.771    core radius for aug-charge                                                  
                                                                                                    
   Atomic configuration                                                                             
    9 entries                                                                                       
     n  l   j            E        occ.                                                              
     1  0  0.50     -8850.2468   2.0000                                                             
     2  0  0.50     -1062.3498   2.0000                                                             
     2  1  1.50      -916.8226   6.0000                                                             
     3  0  0.50      -114.6929   2.0000                                                             
     3  1  1.50       -72.1325   6.0000                                                             
     3  2  2.50        -5.0394  10.0000                                                             
     4  0  0.50        -4.6097   1.0000                                                             
     4  1  0.50        -4.0817   0.0000                                                             
     4  3  2.50        -1.3606   0.0000                                                             
   Description                                                                                      
     l       E           TYP  RCUT    TYP  RCUT                                                     
     2     -5.0393973     23  2.200                                                                 
     2     10.8846608     23  2.200                                                                 
     0     -4.6097109     23  2.200                                                                 
     0      8.2520465     23  2.200                                                                 
     1     -2.7211652     23  2.200                                                                 
     1     21.7055443     23  2.200                                                                 
     3      2.7211652     23  2.300                                                                 
  local pseudopotential read in
  partial core-charges read in
  partial kinetic energy density read in
  atomic valenz-charges read in
  non local Contribution for L=            2  read in
    real space projection operators read in
  non local Contribution for L=            2  read in
    real space projection operators read in
  non local Contribution for L=            0  read in
    real space projection operators read in
  non local Contribution for L=            0  read in
    real space projection operators read in
  non local Contribution for L=            1  read in
    real space projection operators read in
  non local Contribution for L=            1  read in
    real space projection operators read in
    PAW grid and wavefunctions read in
 
   number of l-projection  operators is LMAX  =            6
   number of lm-projection operators is LMMAX =           18
 
  PAW_PBE Cu 22Jun2005                  :
 energy of atom  1       EATOM=-1390.9808
 kinetic energy error for atom=    0.0232 (will be added to EATOM!!)
 
 
 POSCAR: Cu
  positions in cartesian coordinates
  No initial velocities read in
 exchange correlation table for  LEXCH =        8
   RHO(1)=    0.500       N(1)  =     2000
   RHO(2)=  100.500       N(2)  =     4000
 


--------------------------------------------------------------------------------------------------------


 ion  position               nearest neighbor table
   1  0.435  0.509  0.536-   8 2.40   5 2.42   4 2.44  10 2.44   9 2.46   7 2.46   3 2.61  11 2.71

   2  0.617  0.452  0.524-   6 2.41   4 2.42  12 2.46  11 2.48   9 2.49
   3  0.498  0.568  0.608-  10 2.39  11 2.42   8 2.44   9 2.46   5 2.46   1 2.61
   4  0.509  0.443  0.491-   6 2.40   2 2.42   1 2.44  13 2.44   7 2.46   9 2.47  12 2.62  11 2.72

   5  0.461  0.613  0.525-   8 2.41   1 2.42   3 2.46  11 2.49   7 2.50
   6  0.597  0.401  0.442-   4 2.40   2 2.41  12 2.44  13 2.45
   7  0.482  0.541  0.452-  13 2.46   4 2.46  12 2.46   1 2.46  11 2.47   5 2.50
   8  0.384  0.583  0.591-   1 2.40   5 2.41   3 2.44  10 2.45
   9  0.524  0.464  0.585-  10 2.45   1 2.46   3 2.46   4 2.47  11 2.47   2 2.49
  10  0.425  0.491  0.631-   3 2.39   1 2.44   9 2.45   8 2.45
  11  0.557  0.548  0.528-   3 2.42  12 2.42   9 2.47   7 2.47   2 2.48   5 2.49   1 2.71   4 2.72

  12  0.595  0.510  0.444-  13 2.39  11 2.42   6 2.44   7 2.46   2 2.46   4 2.62
  13  0.515  0.457  0.395-  12 2.39   4 2.44   6 2.45   7 2.46
 

IMPORTANT INFORMATION: All symmetrisations will be switched off!
NOSYMM: (Re-)initialisation of all symmetry stuff for point group C_1.


----------------------------------------------------------------------------------------

                                     Primitive cell                                     

  volume of cell :   11896.0513

  direct lattice vectors                    reciprocal lattice vectors
    20.889299820  0.000000000  0.000000000     0.047871399  0.000000000  0.000000000
     0.000000000 22.461491198  0.000000000     0.000000000  0.044520642  0.000000000
     0.000000000  0.000000000 25.353642335     0.000000000  0.000000000  0.039442065

  length of vectors
    20.889299820 22.461491198 25.353642335     0.047871399  0.044520642  0.039442065

  position of ions in fractional coordinates (direct lattice)
     0.434673540  0.509042713  0.536403553
     0.616593383  0.452041454  0.524452847
     0.498379252  0.568170225  0.608033043
     0.508870729  0.443306703  0.490577210
     0.460970121  0.612952476  0.524872294
     0.596840498  0.401095777  0.442476092
     0.482368897  0.540772497  0.452092193
     0.384482871  0.582725801  0.590850377
     0.524213795  0.464292630  0.585391888
     0.424895870  0.490887927  0.631139047
     0.556965648  0.547663428  0.527647456
     0.594953103  0.509770356  0.443841840
     0.514537212  0.457439540  0.395284794

  ion indices of the primitive-cell ions
   primitive index   ion index
                 1           1
                 2           2
                 3           3
                 4           4
                 5           5
                 6           6
                 7           7
                 8           8
                 9           9
                10          10
                11          11
                12          12
                13          13

----------------------------------------------------------------------------------------

 
 
 KPOINTS: KPOINTS created by Atomic Simulation Env

Automatic generation of k-mesh.
Space group operators:
 irot       det(A)        alpha          n_x          n_y          n_z        tau_x        tau_y        tau_z
    1     1.000000     0.000001     1.000000     0.000000     0.000000     0.000000     0.000000     0.000000
 
 Subroutine IBZKPT returns following result:
 ===========================================
 
 Found      1 irreducible k-points:
 
 Following reciprocal coordinates:
            Coordinates               Weight
  0.000000  0.000000  0.000000      1.000000
 
 Following cartesian coordinates:
            Coordinates               Weight
  0.000000  0.000000  0.000000      1.000000
 


--------------------------------------------------------------------------------------------------------




 Dimension of arrays:
   k-points           NKPTS =      1   k-points in BZ     NKDIM =      1   number of bands    NBANDS=     92
   number of dos      NEDOS =    301   number of ions     NIONS =     13
   non local maximal  LDIM  =      6   non local SUM 2l+1 LMDIM =     18
   total plane-waves  NPLWV = ******
   max r-space proj   IRMAX =      1   max aug-charges    IRDMAX=   3910
   dimension x,y,z NGX =   108 NGY =  112 NGZ =  126
   dimension x,y,z NGXF=   216 NGYF=  224 NGZF=  252
   support grid    NGXF=   216 NGYF=  224 NGZF=  252
   ions per type =              13
   NGX,Y,Z   is equivalent  to a cutoff of   8.60,  8.29,  8.26 a.u.
   NGXF,Y,Z  is equivalent  to a cutoff of  17.19, 16.58, 16.52 a.u.

 SYSTEM =  unknown system                          
 POSCAR =  Cu                                      

 Startparameter for this run:
   NWRITE =      2    write-flag & timer
   PREC   = normal    normal or accurate (medium, high low for compatibility)
   ISTART =      0    job   : 0-new  1-cont  2-samecut
   ICHARG =      2    charge: 1-file 2-atom 10-const
   ISPIN  =      2    spin polarized calculation?
   LNONCOLLINEAR =      F non collinear calculations
   LSORBIT =      F    spin-orbit coupling
   INIWAV =      1    electr: 0-lowe 1-rand  2-diag
   LASPH  =      F    aspherical Exc in radial PAW
   METAGGA=      F    non-selfconsistent MetaGGA calc.

 Electronic Relaxation 1
   ENCUT  =  400.0 eV  29.40 Ry    5.42 a.u.  34.07 36.63 41.35*2*pi/ulx,y,z
   ENINI  =  400.0     initial cutoff
   ENAUG  =  587.0 eV  augmentation charge cutoff
   NELM   =     60;   NELMIN=  2; NELMDL=  0     # of ELM steps 
   EDIFF  = 0.1E-03   stopping-criterion for ELM
   LREAL  =      F    real-space projection
   NLSPLINE    = F    spline interpolate recip. space projectors
   LCOMPAT=      F    compatible to vasp.4.4
   GGA_COMPAT  = T    GGA compatible to vasp.4.4-vasp.4.6
   LMAXPAW     = -100 max onsite density
   LMAXMIX     =    2 max onsite mixed and CHGCAR
   VOSKOWN=      0    Vosko Wilk Nusair interpolation
   ROPT   =    0.00000
 Ionic relaxation
   EDIFFG = 0.1E-02   stopping-criterion for IOM
   NSW    =   1000    number of steps for IOM
   NBLOCK =      1;   KBLOCK =   1000    inner block; outer block 
   IBRION =      2    ionic relax: 0-MD 1-quasi-New 2-CG
   NFREE  =      1    steps in history (QN), initial steepest desc. (CG)
   ISIF   =      0    stress and relaxation
   IWAVPR =     11    prediction:  0-non 1-charg 2-wave 3-comb
   ISYM   =      0    0-nonsym 1-usesym 2-fastsym
   LCORR  =      T    Harris-Foulkes like correction to forces

   POTIM  = 0.5000    time-step for ionic-motion
   TEIN   =    0.0    initial temperature
   TEBEG  =    0.0;   TEEND  =   0.0 temperature during run
   SMASS  =  -3.00    Nose mass-parameter (am)
   estimated Nose-frequenzy (Omega)   =  0.10E-29 period in steps = 0.13E+47 mass=  -0.997E-26a.u.
   SCALEE = 1.0000    scale energy and forces
   NPACO  =    256;   APACO  = 16.0  distance and # of slots for P.C.
   PSTRESS=    0.0 pullay stress

  Mass of Ions in am
   POMASS =  63.55
  Ionic Valenz
   ZVAL   =  11.00
  Atomic Wigner-Seitz radii
   RWIGS  =  -1.00
  virtual crystal weights 
   VCA    =   1.00
   NELECT =     143.0000    total number of electrons
   NUPDOWN=      -1.0000    fix difference up-down

 DOS related values:
   EMIN   =  10.00;   EMAX   =-10.00  energy-range for DOS
   EFERMI =   0.00
   ISMEAR =     1;   SIGMA  =   0.20  broadening in eV -4-tet -1-fermi 0-gaus

 Electronic relaxation 2 (details)
   IALGO  =     38    algorithm
   LDIAG  =      T    sub-space diagonalisation (order eigenvalues)
   LSUBROT=      F    optimize rotation matrix (better conditioning)
   TURBO    =      0    0=normal 1=particle mesh
   IRESTART =      0    0=no restart 2=restart with 2 vectors
   NREBOOT  =      0    no. of reboots
   NMIN     =      0    reboot dimension
   EREF     =   0.00    reference energy to select bands
   IMIX   =      4    mixing-type and parameters
     AMIX     =   0.40;   BMIX     =  1.00
     AMIX_MAG =   1.60;   BMIX_MAG =  1.00
     AMIN     =   0.10
     WC   =   100.;   INIMIX=   1;  MIXPRE=   1;  MAXMIX= -45

 Intra band minimization:
   WEIMIN = 0.0010     energy-eigenvalue tresh-hold
   EBREAK =  0.27E-06  absolut break condition
   DEPER  =   0.30     relativ break condition  

   TIME   =   0.40     timestep for ELM

  volume/ion in A,a.u.               =     915.08      6175.27
  Fermi-wavevector in a.u.,A,eV,Ry     =   0.375018  0.708682  1.913507  0.140639
  Thomas-Fermi vector in A             =   1.305811
 
 Write flags
   LWAVE        =      F    write WAVECAR
   LDOWNSAMPLE  =      F    k-point downsampling of WAVECAR
   LCHARG       =      F    write CHGCAR
   LVTOT        =      F    write LOCPOT, total local potential
   LVHAR        =      F    write LOCPOT, Hartree potential only
   LELF         =      F    write electronic localiz. function (ELF)
   LORBIT       =      0    0 simple, 1 ext, 2 COOP (PROOUT), +10 PAW based schemes


 Dipole corrections
   LMONO  =      F    monopole corrections only (constant potential shift)
   LDIPOL =      F    correct potential (dipole corrections)
   IDIPOL =      0    1-x, 2-y, 3-z, 4-all directions 
   EPSILON=  1.0000000 bulk dielectric constant

 Exchange correlation treatment:
   GGA     =    PE    GGA type
   LEXCH   =     8    internal setting for exchange type
   VOSKOWN=      0    Vosko Wilk Nusair interpolation
   LHFCALC =     F    Hartree Fock is set to
   LHFONE  =     F    Hartree Fock one center treatment
   AEXX    =    0.0000 exact exchange contribution

 Linear response parameters
   LEPSILON=     F    determine dielectric tensor
   LRPA    =     F    only Hartree local field effects (RPA)
   LNABLA  =     F    use nabla operator in PAW spheres
   LVEL    =     F    velocity operator in full k-point grid
   LINTERFAST=   F  fast interpolation
   KINTER  =     0    interpolate to denser k-point grid
   CSHIFT  =0.1000    complex shift for real part using Kramers Kronig
   OMEGAMAX=  -1.0    maximum frequency
   DEG_THRESHOLD= 0.2000000E-02 threshold for treating states as degnerate
   RTIME   =   -0.100 relaxation time in fs
  (WPLASMAI=    0.000 imaginary part of plasma frequency in eV, 0.658/RTIME)
   DFIELD  = 0.0000000 0.0000000 0.0000000 field for delta impulse in time
 
 Orbital magnetization related:
   ORBITALMAG=     F  switch on orbital magnetization
   LCHIMAG   =     F  perturbation theory with respect to B field
   DQ        =  0.001000  dq finite difference perturbation B field
   LLRAUG    =     F  two centre corrections for induced B field



--------------------------------------------------------------------------------------------------------


 conjugate gradient relaxation of ions
 charge density and potential will be updated during run
 spin polarized calculation
 Variant of blocked Davidson
 Davidson routine will perform the subspace rotation
 perform sub-space diagonalisation
    after iterative eigenvector-optimisation
 modified Broyden-mixing scheme, WC =      100.0
 initial mixing is a Kerker type mixing with AMIX =  0.4000 and BMIX =      1.0000
 Hartree-type preconditioning will be used
 using additional bands            20
 reciprocal scheme for non local part
 use partial core corrections
 calculate Harris-corrections to forces 
   (improved forces if not selfconsistent)
 use gradient corrections 
 use of overlap-Matrix (Vanderbilt PP)
 Methfessel and Paxton  Order N= 1 SIGMA  =   0.20


--------------------------------------------------------------------------------------------------------


  energy-cutoff  :      400.00
  volume of cell :    11896.05
      direct lattice vectors                 reciprocal lattice vectors
    20.889299820  0.000000000  0.000000000     0.047871399  0.000000000  0.000000000
     0.000000000 22.461491198  0.000000000     0.000000000  0.044520642  0.000000000
     0.000000000  0.000000000 25.353642335     0.000000000  0.000000000  0.039442065

  length of vectors
    20.889299820 22.461491198 25.353642335     0.047871399  0.044520642  0.039442065


 
 k-points in units of 2pi/SCALE and weight: KPOINTS created by Atomic Simulation Env
   0.00000000  0.00000000  0.00000000       1.000
 
 k-points in reciprocal lattice and weights: KPOINTS created by Atomic Simulation Env
   0.00000000  0.00000000  0.00000000       1.000
 
 position of ions in fractional coordinates (direct lattice) 
   0.43467354  0.50904271  0.53640355
   0.61659338  0.45204145  0.52445285
   0.49837925  0.56817022  0.60803304
   0.50887073  0.44330670  0.49057721
   0.46097012  0.61295248  0.52487229
   0.59684050  0.40109578  0.44247609
   0.48236890  0.54077250  0.45209219
   0.38448287  0.58272580  0.59085038
   0.52421379  0.46429263  0.58539189
   0.42489587  0.49088793  0.63113905
   0.55696565  0.54766343  0.52764746
   0.59495310  0.50977036  0.44384184
   0.51453721  0.45743954  0.39528479
 
 position of ions in cartesian coordinates  (Angst):
   9.08002590 11.43385842 13.59978383
  12.88020405 10.15352514 13.29678990
  10.41079362 12.76195050 15.41585231
  10.62995322  9.95732960 12.43791912
   9.62934308 13.76782665 13.30742440
  12.46758011  9.00920927 11.21838058
  10.07634851 12.14655668 11.46218376
   8.03157796 13.08889045 14.98020912
  10.95045913 10.42870483 14.84181656
   8.87577723 11.02607484 16.00167367
  11.63462241 12.30133727 13.37778488
  12.42815375 11.45020236 11.25300726
  10.74832209 10.27477420 10.02190928
 


--------------------------------------------------------------------------------------------------------


 use parallel FFT for orbitals z direction half grid
 k-point   1 :   0.0000 0.0000 0.0000  plane waves:  108052

 maximum and minimum number of plane-waves per node :      6763     6743

 maximum number of plane-waves:    108052
 maximum index in each direction: 
   IXMAX=   34   IYMAX=   36   IZMAX=   41
   IXMIN=  -34   IYMIN=  -36   IZMIN=    0


 parallel 3D FFT for wavefunctions:
    minimum data exchange during FFTs selected (reduces bandwidth)
 parallel 3D FFT for charge:
    minimum data exchange during FFTs selected (reduces bandwidth)


 total amount of memory used by VASP MPI-rank0   146080. kBytes
=======================================================================

   base      :      30000. kBytes
   nonl-proj :       2380. kBytes
   fftplans  :      28571. kBytes
   grid      :      65178. kBytes
   one-center:         15. kBytes
   wavefun   :      19936. kBytes
 
     INWAV:  cpu time    0.0000: real time    0.0000
 Broyden mixing: mesh for mixing (old mesh)
   NGX = 69   NGY = 73   NGZ = 83
  (NGX  =216   NGY  =224   NGZ  =252)
  gives a total of 418071 points

 initial charge density was supplied:
 charge density of overlapping atoms calculated
 number of electron     143.0000000 magnetization      13.0000000
 keeping initial charge density in first step


--------------------------------------------------------------------------------------------------------


 Maximum index for augmentation-charges           279 (set IRDMAX)


--------------------------------------------------------------------------------------------------------


 First call to EWALD:  gamma=   0.078
 Maximum number of real-space cells 3x 3x 3
 Maximum number of reciprocal cells 3x 3x 3

    FEWALD:  cpu time    0.0008: real time    0.0008


--------------------------------------- Iteration      1(   1)  ---------------------------------------


    POTLOK:  cpu time    2.0438: real time    2.0655
    SETDIJ:  cpu time    0.0186: real time    0.0188
     EDDAV:  cpu time    7.6109: real time    7.7767
       DOS:  cpu time    0.0030: real time    0.0030
    --------------------------------------------
      LOOP:  cpu time    9.6764: real time    9.8640

 eigenvalue-minimisations  :   368
 total energy-change (2. order) : 0.9758279E+03  (-0.2605811E+04)
 number of electron     143.0000000 magnetization      13.0000000
 augmentation part      143.0000000 magnetization      13.0000000

 Free energy of the ion-electron system (eV)
  ---------------------------------------------------
  alpha Z        PSCENC =        10.38953475
  Ewald energy   TEWEN  =     24000.17857640
  -Hartree energ DENC   =    -40459.70663686
  -exchange      EXHF   =         0.00000000
  -V(xc)+E(xc)   XCENC  =       584.87688564
  PAW double counting   =     15965.26744864   -17340.97210982
  entropy T*S    EENTRO =        -0.00730077
  eigenvalues    EBANDS =       133.35215863
  atomic energy  EATOM  =     18082.44932260
  Solvation  Ediel_sol  =         0.00000000
  ---------------------------------------------------
  free energy    TOTEN  =       975.82787920 eV

  energy without entropy =      975.83517997  energy(sigma->0) =      975.83031279


--------------------------------------------------------------------------------------------------------




--------------------------------------- Iteration      1(   2)  ---------------------------------------


     EDDAV:  cpu time    7.1706: real time    7.2075
       DOS:  cpu time    0.0071: real time    0.0071
    --------------------------------------------
      LOOP:  cpu time    7.1777: real time    7.2146

 eigenvalue-minimisations  :   368
 total energy-change (2. order) :-0.7407431E+03  (-0.6721009E+03)
 number of electron     143.0000000 magnetization      13.0000000
 augmentation part      143.0000000 magnetization      13.0000000

 Free energy of the ion-electron system (eV)
  ---------------------------------------------------
  alpha Z        PSCENC =        10.38953475
  Ewald energy   TEWEN  =     24000.17857640
  -Hartree energ DENC   =    -40459.70663686
  -exchange      EXHF   =         0.00000000
  -V(xc)+E(xc)   XCENC  =       584.87688564
  PAW double counting   =     15965.26744864   -17340.97210982
  entropy T*S    EENTRO =         0.02861623
  eigenvalues    EBANDS =      -607.42687810
  atomic energy  EATOM  =     18082.44932260
  Solvation  Ediel_sol  =         0.00000000
  ---------------------------------------------------
  free energy    TOTEN  =       235.08475948 eV

  energy without entropy =      235.05614324  energy(sigma->0) =      235.07522073


--------------------------------------------------------------------------------------------------------




--------------------------------------- Iteration      1(   3)  ---------------------------------------


     EDDAV:  cpu time    9.2879: real time    9.3269
       DOS:  cpu time    0.0032: real time    0.0032
    --------------------------------------------
      LOOP:  cpu time    9.2912: real time    9.3302

 eigenvalue-minimisations  :   472
 total energy-change (2. order) :-0.2276592E+03  (-0.2181749E+03)
 number of electron     143.0000000 magnetization      13.0000000
 augmentation part      143.0000000 magnetization      13.0000000

 Free energy of the ion-electron system (eV)
  ---------------------------------------------------
  alpha Z        PSCENC =        10.38953475
  Ewald energy   TEWEN  =     24000.17857640
  -Hartree energ DENC   =    -40459.70663686
  -exchange      EXHF   =         0.00000000
  -V(xc)+E(xc)   XCENC  =       584.87688564
  PAW double counting   =     15965.26744864   -17340.97210982
  entropy T*S    EENTRO =        -0.01290858
  eigenvalues    EBANDS =      -835.04459655
  atomic energy  EATOM  =     18082.44932260
  Solvation  Ediel_sol  =         0.00000000
  ---------------------------------------------------
  free energy    TOTEN  =         7.42551622 eV

  energy without entropy =        7.43842479  energy(sigma->0) =        7.42981907


--------------------------------------------------------------------------------------------------------




--------------------------------------- Iteration      1(   4)  ---------------------------------------


     EDDAV:  cpu time    8.1646: real time    8.2461
       DOS:  cpu time    0.0027: real time    0.0027
    --------------------------------------------
      LOOP:  cpu time    8.1674: real time    8.2488

 eigenvalue-minimisations  :   448
 total energy-change (2. order) :-0.4256826E+02  (-0.3893656E+02)
 number of electron     143.0000000 magnetization      13.0000000
 augmentation part      143.0000000 magnetization      13.0000000

 Free energy of the ion-electron system (eV)
  ---------------------------------------------------
  alpha Z        PSCENC =        10.38953475
  Ewald energy   TEWEN  =     24000.17857640
  -Hartree energ DENC   =    -40459.70663686
  -exchange      EXHF   =         0.00000000
  -V(xc)+E(xc)   XCENC  =       584.87688564
  PAW double counting   =     15965.26744864   -17340.97210982
  entropy T*S    EENTRO =         0.05047108
  eigenvalues    EBANDS =      -877.67623490
  atomic energy  EATOM  =     18082.44932260
  Solvation  Ediel_sol  =         0.00000000
  ---------------------------------------------------
  free energy    TOTEN  =       -35.14274249 eV

  energy without entropy =      -35.19321356  energy(sigma->0) =      -35.15956618


--------------------------------------------------------------------------------------------------------




--------------------------------------- Iteration      1(   5)  ---------------------------------------


     EDDAV:  cpu time    9.8147: real time   10.0081
       DOS:  cpu time    0.0041: real time    0.0041
    CHARGE:  cpu time    0.8376: real time    0.8427
    MIXING:  cpu time    0.0537: real time    0.0538
    --------------------------------------------
      LOOP:  cpu time   10.7101: real time   10.9087

 eigenvalue-minimisations  :   512
 total energy-change (2. order) :-0.2088644E+01  (-0.2064800E+01)
 number of electron     143.0000036 magnetization      11.8822464
 augmentation part       87.5949090 magnetization      12.2138694

 Broyden mixing:
  rms(total) = 0.28649E+01    rms(broyden)= 0.28647E+01
  rms(prec ) = 0.29273E+01
  weight for this iteration     100.00

 Free energy of the ion-electron system (eV)
  ---------------------------------------------------
  alpha Z        PSCENC =        10.38953475
  Ewald energy   TEWEN  =     24000.17857640
  -Hartree energ DENC   =    -40459.70663686
  -exchange      EXHF   =         0.00000000
  -V(xc)+E(xc)   XCENC  =       584.87688564
  PAW double counting   =     15965.26744864   -17340.97210982
  entropy T*S    EENTRO =         0.04302001
  eigenvalues    EBANDS =      -879.75742768
  atomic energy  EATOM  =     18082.44932260
  Solvation  Ediel_sol  =         0.00000000
  ---------------------------------------------------
  free energy    TOTEN  =       -37.23138632 eV

  energy without entropy =      -37.27440634  energy(sigma->0) =      -37.24572633


--------------------------------------------------------------------------------------------------------




--------------------------------------- Iteration      1(   6)  ---------------------------------------


    POTLOK:  cpu time    2.0619: real time    2.0814
    SETDIJ:  cpu time    0.0236: real time    0.0236
     EDDAV:  cpu time    7.4485: real time    7.5372
       DOS:  cpu time    0.0033: real time    0.0033
    CHARGE:  cpu time    0.8039: real time    0.8042
    MIXING:  cpu time    0.0663: real time    0.0687
    --------------------------------------------
      LOOP:  cpu time   10.4074: real time   10.5184

 eigenvalue-minimisations  :   396
 total energy-change (2. order) : 0.2301093E+02  (-0.1394152E+02)
 number of electron     143.0000039 magnetization      11.2673547
 augmentation part       94.7957943 magnetization       7.0812147

 Broyden mixing:
  rms(total) = 0.11821E+01    rms(broyden)= 0.11818E+01
  rms(prec ) = 0.12444E+01
  weight for this iteration     100.00

 eigenvalues of (default mixing * dielectric matrix)
  average eigenvalue GAMMA=   0.8233
  0.8233

 Free energy of the ion-electron system (eV)
  ---------------------------------------------------
  alpha Z        PSCENC =        10.38953475
  Ewald energy   TEWEN  =     24000.17857640
  -Hartree energ DENC   =    -40253.08465624
  -exchange      EXHF   =         0.00000000
  -V(xc)+E(xc)   XCENC  =       588.07991533
  PAW double counting   =     16163.92945045   -17496.18586835
  entropy T*S    EENTRO =        -0.00138517
  eigenvalues    EBANDS =     -1109.97534880
  atomic energy  EATOM  =     18082.44932260
  Solvation  Ediel_sol  =         0.00000000
  ---------------------------------------------------
  free energy    TOTEN  =       -14.22045904 eV

  energy without entropy =      -14.21907387  energy(sigma->0) =      -14.21999732


--------------------------------------------------------------------------------------------------------




--------------------------------------- Iteration      1(   7)  ---------------------------------------


    POTLOK:  cpu time    2.6236: real time    2.6266
    SETDIJ:  cpu time    0.0335: real time    0.0335
     EDDAV:  cpu time    7.9816: real time    7.9865
       DOS:  cpu time    0.0047: real time    0.0047
    CHARGE:  cpu time    0.8134: real time    0.8138
    MIXING:  cpu time    0.0705: real time    0.0705
    --------------------------------------------
      LOOP:  cpu time   11.5272: real time   11.5357

 eigenvalue-minimisations  :   440
 total energy-change (2. order) : 0.3270151E+01  (-0.3044992E+01)
 number of electron     143.0000042 magnetization      10.5111732
 augmentation part       91.8290406 magnetization       6.3754856

 Broyden mixing:
  rms(total) = 0.50421E+00    rms(broyden)= 0.50408E+00
  rms(prec ) = 0.52360E+00
  weight for this iteration     100.00

 eigenvalues of (default mixing * dielectric matrix)
  average eigenvalue GAMMA=   0.8373
  1.0331  0.6415

 Free energy of the ion-electron system (eV)
  ---------------------------------------------------
  alpha Z        PSCENC =        10.38953475
  Ewald energy   TEWEN  =     24000.17857640
  -Hartree energ DENC   =    -40409.92347305
  -exchange      EXHF   =         0.00000000
  -V(xc)+E(xc)   XCENC  =       594.13400663
  PAW double counting   =     16481.58633586   -17866.66485304
  entropy T*S    EENTRO =        -0.02497987
  eigenvalues    EBANDS =      -903.07477830
  atomic energy  EATOM  =     18082.44932260
  Solvation  Ediel_sol  =         0.00000000
  ---------------------------------------------------
  free energy    TOTEN  =       -10.95030802 eV

  energy without entropy =      -10.92532815  energy(sigma->0) =      -10.94198140


--------------------------------------------------------------------------------------------------------




--------------------------------------- Iteration      1(   8)  ---------------------------------------


    POTLOK:  cpu time    2.0796: real time    2.0821
    SETDIJ:  cpu time    0.0336: real time    0.0336
     EDDAV:  cpu time    8.0189: real time    8.0236
       DOS:  cpu time    0.0031: real time    0.0031
    CHARGE:  cpu time    0.8109: real time    0.8114
    MIXING:  cpu time    0.0737: real time    0.0737
    --------------------------------------------
      LOOP:  cpu time   11.0198: real time   11.0275

 eigenvalue-minimisations  :   440
 total energy-change (2. order) : 0.4226600E+00  (-0.5723004E+00)
 number of electron     143.0000037 magnetization       9.9499040
 augmentation part       91.5529139 magnetization       5.7874372

 Broyden mixing:
  rms(total) = 0.43945E+00    rms(broyden)= 0.43939E+00
  rms(prec ) = 0.45719E+00
  weight for this iteration     100.00

 eigenvalues of (default mixing * dielectric matrix)
  average eigenvalue GAMMA=   0.7891
  1.1903  0.6243  0.5527

 Free energy of the ion-electron system (eV)
  ---------------------------------------------------
  alpha Z        PSCENC =        10.38953475
  Ewald energy   TEWEN  =     24000.17857640
  -Hartree energ DENC   =    -40433.56632765
  -exchange      EXHF   =         0.00000000
  -V(xc)+E(xc)   XCENC  =       594.16039772
  PAW double counting   =     16676.33802065   -18070.22573543
  entropy T*S    EENTRO =        -0.02479506
  eigenvalues    EBANDS =      -870.22664204
  atomic energy  EATOM  =     18082.44932260
  Solvation  Ediel_sol  =         0.00000000
  ---------------------------------------------------
  free energy    TOTEN  =       -10.52764806 eV

  energy without entropy =      -10.50285299  energy(sigma->0) =      -10.51938304


--------------------------------------------------------------------------------------------------------




--------------------------------------- Iteration      1(   9)  ---------------------------------------


    POTLOK:  cpu time    2.0662: real time    2.0678
    SETDIJ:  cpu time    0.0333: real time    0.0333
     EDDAV:  cpu time    8.9435: real time    9.0325
       DOS:  cpu time    0.0010: real time    0.0010
    CHARGE:  cpu time    0.8360: real time    0.8370
    MIXING:  cpu time    0.0630: real time    0.0631
    --------------------------------------------
      LOOP:  cpu time   11.9430: real time   12.0347

 eigenvalue-minimisations  :   480
 total energy-change (2. order) :-0.1152506E+01  (-0.1255342E+00)
 number of electron     143.0000040 magnetization       8.7128608
 augmentation part       91.5489967 magnetization       4.5786310

 Broyden mixing:
  rms(total) = 0.26935E+00    rms(broyden)= 0.26933E+00
  rms(prec ) = 0.27574E+00
  weight for this iteration     100.00

 eigenvalues of (default mixing * dielectric matrix)
  average eigenvalue GAMMA=   1.0013
  1.4073  1.4073  0.7221  0.4685

 Free energy of the ion-electron system (eV)
  ---------------------------------------------------
  alpha Z        PSCENC =        10.38953475
  Ewald energy   TEWEN  =     24000.17857640
  -Hartree energ DENC   =    -40440.31722188
  -exchange      EXHF   =         0.00000000
  -V(xc)+E(xc)   XCENC  =       592.67162574
  PAW double counting   =     16766.60840965   -18162.41477968
  entropy T*S    EENTRO =        -0.02825775
  eigenvalues    EBANDS =      -861.21736424
  atomic energy  EATOM  =     18082.44932260
  Solvation  Ediel_sol  =         0.00000000
  ---------------------------------------------------
  free energy    TOTEN  =       -11.68015439 eV

  energy without entropy =      -11.65189665  energy(sigma->0) =      -11.67073514


--------------------------------------------------------------------------------------------------------




--------------------------------------- Iteration      1(  10)  ---------------------------------------


    POTLOK:  cpu time    2.0829: real time    2.0863
    SETDIJ:  cpu time    0.0241: real time    0.0241
     EDDAV:  cpu time    9.1663: real time    9.2017
       DOS:  cpu time    0.0017: real time    0.0018
    CHARGE:  cpu time    0.8425: real time    0.8436
    MIXING:  cpu time    0.0712: real time    0.0714
    --------------------------------------------
      LOOP:  cpu time   12.1887: real time   12.2289

 eigenvalue-minimisations  :   512
 total energy-change (2. order) :-0.6352114E+01  (-0.3854556E+00)
 number of electron     143.0000041 magnetization       8.2549216
 augmentation part       91.9639064 magnetization       5.5238345

 Broyden mixing:
  rms(total) = 0.25807E+00    rms(broyden)= 0.25796E+00
  rms(prec ) = 0.26585E+00
  weight for this iteration     100.00

 eigenvalues of (default mixing * dielectric matrix)
  average eigenvalue GAMMA=   0.9519
  1.5711  1.5711  0.6991  0.4591  0.4591

 Free energy of the ion-electron system (eV)
  ---------------------------------------------------
  alpha Z        PSCENC =        10.38953475
  Ewald energy   TEWEN  =     24000.17857640
  -Hartree energ DENC   =    -40435.19777650
  -exchange      EXHF   =         0.00000000
  -V(xc)+E(xc)   XCENC  =       586.83053004
  PAW double counting   =     16835.44616687   -18227.83209004
  entropy T*S    EENTRO =        -0.05139310
  eigenvalues    EBANDS =      -870.24513911
  atomic energy  EATOM  =     18082.44932260
  Solvation  Ediel_sol  =         0.00000000
  ---------------------------------------------------
  free energy    TOTEN  =       -18.03226810 eV

  energy without entropy =      -17.98087501  energy(sigma->0) =      -18.01513707


--------------------------------------------------------------------------------------------------------




--------------------------------------- Iteration      1(  11)  ---------------------------------------


    POTLOK:  cpu time    2.0818: real time    2.0911
    SETDIJ:  cpu time    0.0227: real time    0.0227
     EDDAV:  cpu time    8.7285: real time    8.8482
       DOS:  cpu time    0.0034: real time    0.0034
    CHARGE:  cpu time    0.9225: real time    1.0349
    MIXING:  cpu time    0.0824: real time    0.1225
    --------------------------------------------
      LOOP:  cpu time   11.8413: real time   12.1227

 eigenvalue-minimisations  :   480
 total energy-change (2. order) :-0.8346487E+00  (-0.4487330E-01)
 number of electron     143.0000040 magnetization       8.0761279
 augmentation part       91.9923203 magnetization       5.7627394

 Broyden mixing:
  rms(total) = 0.21906E+00    rms(broyden)= 0.21903E+00
  rms(prec ) = 0.22545E+00
  weight for this iteration     100.00

 eigenvalues of (default mixing * dielectric matrix)
  average eigenvalue GAMMA=   0.8761
  1.7029  1.4495  0.6872  0.4660  0.4755  0.4755

 Free energy of the ion-electron system (eV)
  ---------------------------------------------------
  alpha Z        PSCENC =        10.38953475
  Ewald energy   TEWEN  =     24000.17857640
  -Hartree energ DENC   =    -40441.76814221
  -exchange      EXHF   =         0.00000000
  -V(xc)+E(xc)   XCENC  =       586.31064996
  PAW double counting   =     16859.30908323   -18252.99252932
  entropy T*S    EENTRO =        -0.02823037
  eigenvalues    EBANDS =      -862.71518185
  atomic energy  EATOM  =     18082.44932260
  Solvation  Ediel_sol  =         0.00000000
  ---------------------------------------------------
  free energy    TOTEN  =       -18.86691682 eV

  energy without entropy =      -18.83868645  energy(sigma->0) =      -18.85750670


--------------------------------------------------------------------------------------------------------




--------------------------------------- Iteration      1(  12)  ---------------------------------------


    POTLOK:  cpu time    2.0718: real time    2.0767
    SETDIJ:  cpu time    0.0330: real time    0.0330
     EDDAV:  cpu time    8.5192: real time    8.5240
       DOS:  cpu time    0.0036: real time    0.0036
    CHARGE:  cpu time    0.8088: real time    0.8091
    MIXING:  cpu time    0.0949: real time    0.0949
    --------------------------------------------
      LOOP:  cpu time   11.5312: real time   11.5412

 eigenvalue-minimisations  :   480
 total energy-change (2. order) :-0.2874927E+00  (-0.8344324E-02)
 number of electron     143.0000040 magnetization       6.6903336
 augmentation part       91.9558652 magnetization       4.5140244

 Broyden mixing:
  rms(total) = 0.20601E+00    rms(broyden)= 0.20601E+00
  rms(prec ) = 0.21158E+00
  weight for this iteration     100.00

 eigenvalues of (default mixing * dielectric matrix)
  average eigenvalue GAMMA=   1.0431
  1.9485  1.9485  0.8956  0.8956  0.6837  0.4647  0.4647

 Free energy of the ion-electron system (eV)
  ---------------------------------------------------
  alpha Z        PSCENC =        10.38953475
  Ewald energy   TEWEN  =     24000.17857640
  -Hartree energ DENC   =    -40445.49406885
  -exchange      EXHF   =         0.00000000
  -V(xc)+E(xc)   XCENC  =       586.21674360
  PAW double counting   =     16863.45801836   -18257.93186375
  entropy T*S    EENTRO =        -0.01868306
  eigenvalues    EBANDS =      -858.40198958
  atomic energy  EATOM  =     18082.44932260
  Solvation  Ediel_sol  =         0.00000000
  ---------------------------------------------------
  free energy    TOTEN  =       -19.15440954 eV

  energy without entropy =      -19.13572648  energy(sigma->0) =      -19.14818185


--------------------------------------------------------------------------------------------------------




--------------------------------------- Iteration      1(  13)  ---------------------------------------


    POTLOK:  cpu time    2.0784: real time    2.0842
    SETDIJ:  cpu time    0.0332: real time    0.0332
     EDDAV:  cpu time    8.6011: real time    8.8175
       DOS:  cpu time    0.0010: real time    0.0010
    CHARGE:  cpu time    0.8287: real time    0.8343
    MIXING:  cpu time    0.0792: real time    0.0795
    --------------------------------------------
      LOOP:  cpu time   11.6216: real time   11.8498

 eigenvalue-minimisations  :   452
 total energy-change (2. order) :-0.3533974E+01  (-0.1788087E+00)
 number of electron     143.0000040 magnetization       5.3268488
 augmentation part       91.8409217 magnetization       3.8113749

 Broyden mixing:
  rms(total) = 0.14900E+00    rms(broyden)= 0.14896E+00
  rms(prec ) = 0.15250E+00
  weight for this iteration     100.00

 eigenvalues of (default mixing * dielectric matrix)
  average eigenvalue GAMMA=   1.1380
  3.0984  1.6846  0.9765  0.9765  0.7801  0.5676  0.5515  0.4685

 Free energy of the ion-electron system (eV)
  ---------------------------------------------------
  alpha Z        PSCENC =        10.38953475
  Ewald energy   TEWEN  =     24000.17857640
  -Hartree energ DENC   =    -40456.00509467
  -exchange      EXHF   =         0.00000000
  -V(xc)+E(xc)   XCENC  =       583.84478709
  PAW double counting   =     16848.51629496   -18244.24151414
  entropy T*S    EENTRO =         0.03513815
  eigenvalues    EBANDS =      -847.85542851
  atomic energy  EATOM  =     18082.44932260
  Solvation  Ediel_sol  =         0.00000000
  ---------------------------------------------------
  free energy    TOTEN  =       -22.68838337 eV

  energy without entropy =      -22.72352152  energy(sigma->0) =      -22.70009609


--------------------------------------------------------------------------------------------------------




--------------------------------------- Iteration      1(  14)  ---------------------------------------


    POTLOK:  cpu time    2.4488: real time    2.4671
    SETDIJ:  cpu time    0.1943: real time    0.1944
     EDDAV:  cpu time    9.1709: real time    9.2268
       DOS:  cpu time    0.0010: real time    0.0010
    CHARGE:  cpu time    0.8251: real time    0.8269
    MIXING:  cpu time    0.0870: real time    0.0873
    --------------------------------------------
      LOOP:  cpu time   12.7272: real time   12.8035

 eigenvalue-minimisations  :   528
 total energy-change (2. order) :-0.3426367E+01  (-0.1627011E+00)
 number of electron     143.0000040 magnetization       4.9299742
 augmentation part       91.7411757 magnetization       3.5893130

 Broyden mixing:
  rms(total) = 0.10573E+00    rms(broyden)= 0.10572E+00
  rms(prec ) = 0.10860E+00
  weight for this iteration     100.00

 eigenvalues of (default mixing * dielectric matrix)
  average eigenvalue GAMMA=   1.1916
  2.6548  2.6548  1.2118  1.2118  0.7415  0.7415  0.5111  0.5111  0.4858

 Free energy of the ion-electron system (eV)
  ---------------------------------------------------
  alpha Z        PSCENC =        10.38953475
  Ewald energy   TEWEN  =     24000.17857640
  -Hartree energ DENC   =    -40461.92361681
  -exchange      EXHF   =         0.00000000
  -V(xc)+E(xc)   XCENC  =       581.30142698
  PAW double counting   =     16832.67106220   -18228.77181247
  entropy T*S    EENTRO =         0.03053579
  eigenvalues    EBANDS =      -842.43977962
  atomic energy  EATOM  =     18082.44932260
  Solvation  Ediel_sol  =         0.00000000
  ---------------------------------------------------
  free energy    TOTEN  =       -26.11475018 eV

  energy without entropy =      -26.14528597  energy(sigma->0) =      -26.12492877


--------------------------------------------------------------------------------------------------------




--------------------------------------- Iteration      1(  15)  ---------------------------------------


    POTLOK:  cpu time    2.0640: real time    2.0903
    SETDIJ:  cpu time    0.0204: real time    0.0204
     EDDAV:  cpu time    9.4433: real time    9.5566
       DOS:  cpu time    0.0011: real time    0.0012
    CHARGE:  cpu time    0.8258: real time    0.8352
    MIXING:  cpu time    0.0955: real time    0.0958
    --------------------------------------------
      LOOP:  cpu time   12.4501: real time   12.5995

 eigenvalue-minimisations  :   512
 total energy-change (2. order) :-0.2150366E+01  (-0.5930088E-01)
 number of electron     143.0000040 magnetization       4.2799787
 augmentation part       91.8124659 magnetization       3.0758316

 Broyden mixing:
  rms(total) = 0.87439E-01    rms(broyden)= 0.87428E-01
  rms(prec ) = 0.89388E-01
  weight for this iteration     100.00

 eigenvalues of (default mixing * dielectric matrix)
  average eigenvalue GAMMA=   1.2292
  3.1471  3.1471  1.1875  1.1875  0.7546  0.7546  0.5844  0.5844  0.4776  0.4678

 Free energy of the ion-electron system (eV)
  ---------------------------------------------------
  alpha Z        PSCENC =        10.38953475
  Ewald energy   TEWEN  =     24000.17857640
  -Hartree energ DENC   =    -40451.29874659
  -exchange      EXHF   =         0.00000000
  -V(xc)+E(xc)   XCENC  =       579.35967151
  PAW double counting   =     16796.99038742   -18190.70598860
  entropy T*S    EENTRO =         0.03191365
  eigenvalues    EBANDS =      -855.65978717
  atomic energy  EATOM  =     18082.44932260
  Solvation  Ediel_sol  =         0.00000000
  ---------------------------------------------------
  free energy    TOTEN  =       -28.26511603 eV

  energy without entropy =      -28.29702968  energy(sigma->0) =      -28.27575391


--------------------------------------------------------------------------------------------------------




--------------------------------------- Iteration      1(  16)  ---------------------------------------


    POTLOK:  cpu time    2.0696: real time    2.0867
    SETDIJ:  cpu time    0.0191: real time    0.0192
     EDDAV:  cpu time    8.5899: real time    8.6392
       DOS:  cpu time    0.0010: real time    0.0010
    CHARGE:  cpu time    0.9085: real time    0.9659
    MIXING:  cpu time    0.2698: real time    0.4179
    --------------------------------------------
      LOOP:  cpu time   11.8578: real time   12.1299

 eigenvalue-minimisations  :   488
 total energy-change (2. order) :-0.1474506E+01  (-0.3127066E-01)
 number of electron     143.0000040 magnetization       3.2240558
 augmentation part       91.8860988 magnetization       2.1761741

 Broyden mixing:
  rms(total) = 0.72487E-01    rms(broyden)= 0.72481E-01
  rms(prec ) = 0.74011E-01
  weight for this iteration     100.00

 eigenvalues of (default mixing * dielectric matrix)
  average eigenvalue GAMMA=   1.3401
  3.6544  3.6544  1.6331  1.1241  1.1241  0.6896  0.6896  0.6990  0.4575  0.5079
  0.5079

 Free energy of the ion-electron system (eV)
  ---------------------------------------------------
  alpha Z        PSCENC =        10.38953475
  Ewald energy   TEWEN  =     24000.17857640
  -Hartree energ DENC   =    -40443.35088126
  -exchange      EXHF   =         0.00000000
  -V(xc)+E(xc)   XCENC  =       577.96878881
  PAW double counting   =     16767.53282886   -18160.10325260
  entropy T*S    EENTRO =         0.03164392
  eigenvalues    EBANDS =      -864.83618356
  atomic energy  EATOM  =     18082.44932260
  Solvation  Ediel_sol  =         0.00000000
  ---------------------------------------------------
  free energy    TOTEN  =       -29.73962209 eV

  energy without entropy =      -29.77126601  energy(sigma->0) =      -29.75017006


--------------------------------------------------------------------------------------------------------




--------------------------------------- Iteration      1(  17)  ---------------------------------------


    POTLOK:  cpu time    2.1002: real time    2.1087
    SETDIJ:  cpu time    0.0195: real time    0.0196
     EDDAV:  cpu time    8.8316: real time    8.9646
       DOS:  cpu time    0.0010: real time    0.0010
    CHARGE:  cpu time    0.8177: real time    0.8272
    MIXING:  cpu time    0.3217: real time    0.3219
    --------------------------------------------
      LOOP:  cpu time   12.0918: real time   12.2430

 eigenvalue-minimisations  :   492
 total energy-change (2. order) :-0.1369597E+01  (-0.2897230E-01)
 number of electron     143.0000040 magnetization       2.3156179
 augmentation part       91.7820728 magnetization       1.4279648

 Broyden mixing:
  rms(total) = 0.44986E-01    rms(broyden)= 0.44977E-01
  rms(prec ) = 0.46636E-01
  weight for this iteration     100.00

 eigenvalues of (default mixing * dielectric matrix)
  average eigenvalue GAMMA=   1.4592
  6.1747  2.3502  2.3502  1.1936  1.1936  0.7698  0.7698  0.6897  0.5559  0.5291
  0.4809  0.4528

 Free energy of the ion-electron system (eV)
  ---------------------------------------------------
  alpha Z        PSCENC =        10.38953475
  Ewald energy   TEWEN  =     24000.17857640
  -Hartree energ DENC   =    -40440.18268637
  -exchange      EXHF   =         0.00000000
  -V(xc)+E(xc)   XCENC  =       576.84956407
  PAW double counting   =     16757.69312730   -18152.33262159
  entropy T*S    EENTRO =         0.01811217
  eigenvalues    EBANDS =      -866.17214835
  atomic energy  EATOM  =     18082.44932260
  Solvation  Ediel_sol  =         0.00000000
  ---------------------------------------------------
  free energy    TOTEN  =       -31.10921903 eV

  energy without entropy =      -31.12733120  energy(sigma->0) =      -31.11525642


--------------------------------------------------------------------------------------------------------




--------------------------------------- Iteration      1(  18)  ---------------------------------------


    POTLOK:  cpu time    2.0960: real time    2.1162
    SETDIJ:  cpu time    0.0187: real time    0.0187
     EDDAV:  cpu time    9.1253: real time    9.2994
       DOS:  cpu time    0.0010: real time    0.0010
    CHARGE:  cpu time    0.8256: real time    0.8271
    MIXING:  cpu time    0.1221: real time    0.1225
    --------------------------------------------
      LOOP:  cpu time   12.1887: real time   12.3850

 eigenvalue-minimisations  :   520
 total energy-change (2. order) :-0.6633246E+00  (-0.1050702E-01)
 number of electron     143.0000040 magnetization       1.9850233
 augmentation part       91.7528712 magnetization       1.2779057

 Broyden mixing:
  rms(total) = 0.40591E-01    rms(broyden)= 0.40572E-01
  rms(prec ) = 0.42644E-01
  weight for this iteration     100.00

 eigenvalues of (default mixing * dielectric matrix)
  average eigenvalue GAMMA=   1.4609
  6.8199  2.4829  2.4829  1.1559  1.1559  0.8528  0.8528  0.6915  0.5711  0.5711
  0.4613  0.4613  0.4317

 Free energy of the ion-electron system (eV)
  ---------------------------------------------------
  alpha Z        PSCENC =        10.38953475
  Ewald energy   TEWEN  =     24000.17857640
  -Hartree energ DENC   =    -40436.63418803
  -exchange      EXHF   =         0.00000000
  -V(xc)+E(xc)   XCENC  =       576.19807737
  PAW double counting   =     16755.50008024   -18151.08671136
  entropy T*S    EENTRO =         0.00110401
  eigenvalues    EBANDS =      -868.76833965
  atomic energy  EATOM  =     18082.44932260
  Solvation  Ediel_sol  =         0.00000000
  ---------------------------------------------------
  free energy    TOTEN  =       -31.77254367 eV

  energy without entropy =      -31.77364768  energy(sigma->0) =      -31.77291167


--------------------------------------------------------------------------------------------------------




--------------------------------------- Iteration      1(  19)  ---------------------------------------


    POTLOK:  cpu time    2.0804: real time    2.0882
    SETDIJ:  cpu time    0.0192: real time    0.0192
     EDDAV:  cpu time    9.5119: real time    9.5551
       DOS:  cpu time    0.0010: real time    0.0010
    CHARGE:  cpu time    0.8281: real time    0.8301
    MIXING:  cpu time    0.1312: real time    0.1316
    --------------------------------------------
      LOOP:  cpu time   12.5716: real time   12.6251

 eigenvalue-minimisations  :   560
 total energy-change (2. order) :-0.2770269E+00  (-0.2353303E-02)
 number of electron     143.0000040 magnetization       1.3872055
 augmentation part       91.7911051 magnetization       0.7712064

 Broyden mixing:
  rms(total) = 0.26808E-01    rms(broyden)= 0.26794E-01
  rms(prec ) = 0.28387E-01
  weight for this iteration     100.00

 eigenvalues of (default mixing * dielectric matrix)
  average eigenvalue GAMMA=   1.5614
  7.7270  2.8607  2.8607  1.1106  1.1106  1.0286  1.0286  0.7496  0.7057  0.7057
  0.5499  0.4857  0.4857  0.4504

 Free energy of the ion-electron system (eV)
  ---------------------------------------------------
  alpha Z        PSCENC =        10.38953475
  Ewald energy   TEWEN  =     24000.17857640
  -Hartree energ DENC   =    -40432.18853222
  -exchange      EXHF   =         0.00000000
  -V(xc)+E(xc)   XCENC  =       575.82609642
  PAW double counting   =     16754.89887087   -18150.07096786
  entropy T*S    EENTRO =        -0.00778996
  eigenvalues    EBANDS =      -873.52468161
  atomic energy  EATOM  =     18082.44932260
  Solvation  Ediel_sol  =         0.00000000
  ---------------------------------------------------
  free energy    TOTEN  =       -32.04957061 eV

  energy without entropy =      -32.04178064  energy(sigma->0) =      -32.04697395


--------------------------------------------------------------------------------------------------------




--------------------------------------- Iteration      1(  20)  ---------------------------------------


    POTLOK:  cpu time    2.1728: real time    2.1830
    SETDIJ:  cpu time    0.0193: real time    0.0194
     EDDAV:  cpu time    9.5234: real time    9.8261
       DOS:  cpu time    0.0033: real time    0.0033
    CHARGE:  cpu time    0.8129: real time    0.8132
    MIXING:  cpu time    0.1626: real time    0.1627
    --------------------------------------------
      LOOP:  cpu time   12.6943: real time   13.0077

 eigenvalue-minimisations  :   524
 total energy-change (2. order) :-0.4171794E+00  (-0.2335363E-02)
 number of electron     143.0000040 magnetization       1.0150265
 augmentation part       91.8211334 magnetization       0.5482665

 Broyden mixing:
  rms(total) = 0.18157E-01    rms(broyden)= 0.18116E-01
  rms(prec ) = 0.19423E-01
  weight for this iteration     100.00

 eigenvalues of (default mixing * dielectric matrix)
  average eigenvalue GAMMA=   1.6675
  9.1725  3.0397  3.0397  1.7211  1.1110  1.1110  0.9227  0.9227  0.6985  0.6985
  0.6414  0.4503  0.4938  0.4938  0.4956

 Free energy of the ion-electron system (eV)
  ---------------------------------------------------
  alpha Z        PSCENC =        10.38953475
  Ewald energy   TEWEN  =     24000.17857640
  -Hartree energ DENC   =    -40426.94447150
  -exchange      EXHF   =         0.00000000
  -V(xc)+E(xc)   XCENC  =       575.30491223
  PAW double counting   =     16762.91482831   -18157.93261829
  entropy T*S    EENTRO =        -0.02097419
  eigenvalues    EBANDS =      -878.80586033
  atomic energy  EATOM  =     18082.44932260
  Solvation  Ediel_sol  =         0.00000000
  ---------------------------------------------------
  free energy    TOTEN  =       -32.46675002 eV

  energy without entropy =      -32.44577583  energy(sigma->0) =      -32.45975863


--------------------------------------------------------------------------------------------------------




--------------------------------------- Iteration      1(  21)  ---------------------------------------


    POTLOK:  cpu time    2.0823: real time    2.0862
    SETDIJ:  cpu time    0.0330: real time    0.0330
     EDDAV:  cpu time    9.5354: real time    9.7227
       DOS:  cpu time    0.0010: real time    0.0010
    CHARGE:  cpu time    0.8473: real time    0.8493
    MIXING:  cpu time    0.1512: real time    0.1517
    --------------------------------------------
      LOOP:  cpu time   12.6501: real time   12.8438

 eigenvalue-minimisations  :   520
 total energy-change (2. order) :-0.2591233E+00  (-0.9185739E-03)
 number of electron     143.0000040 magnetization       0.7651377
 augmentation part       91.8227515 magnetization       0.3931681

 Broyden mixing:
  rms(total) = 0.12467E-01    rms(broyden)= 0.12433E-01
  rms(prec ) = 0.13358E-01
  weight for this iteration     100.00

 eigenvalues of (default mixing * dielectric matrix)
  average eigenvalue GAMMA=   1.7293
 10.4232  3.2012  3.2012  2.0837  1.1056  1.1056  0.9330  0.9330  0.7403  0.7403
  0.6463  0.6463  0.4900  0.4900  0.4481  0.4805

 Free energy of the ion-electron system (eV)
  ---------------------------------------------------
  alpha Z        PSCENC =        10.38953475
  Ewald energy   TEWEN  =     24000.17857640
  -Hartree energ DENC   =    -40423.64558865
  -exchange      EXHF   =         0.00000000
  -V(xc)+E(xc)   XCENC  =       575.03986945
  PAW double counting   =     16760.46178659   -18155.31350428
  entropy T*S    EENTRO =        -0.02709975
  eigenvalues    EBANDS =      -882.25877043
  atomic energy  EATOM  =     18082.44932260
  Solvation  Ediel_sol  =         0.00000000
  ---------------------------------------------------
  free energy    TOTEN  =       -32.72587333 eV

  energy without entropy =      -32.69877358  energy(sigma->0) =      -32.71684008


--------------------------------------------------------------------------------------------------------




--------------------------------------- Iteration      1(  22)  ---------------------------------------


    POTLOK:  cpu time    2.1504: real time    2.1788
    SETDIJ:  cpu time    0.0192: real time    0.0193
     EDDAV:  cpu time    9.2994: real time    9.4656
       DOS:  cpu time    0.0010: real time    0.0010
    CHARGE:  cpu time    0.8446: real time    0.8581
    MIXING:  cpu time    0.1628: real time    0.1632
    --------------------------------------------
      LOOP:  cpu time   12.4775: real time   12.6860

 eigenvalue-minimisations  :   536
 total energy-change (2. order) :-0.9852521E-01  (-0.3820589E-03)
 number of electron     143.0000040 magnetization       0.5875061
 augmentation part       91.8130083 magnetization       0.2845929

 Broyden mixing:
  rms(total) = 0.84419E-02    rms(broyden)= 0.84167E-02
  rms(prec ) = 0.91965E-02
  weight for this iteration     100.00

 eigenvalues of (default mixing * dielectric matrix)
  average eigenvalue GAMMA=   1.7304
 11.0983  3.3342  3.3342  2.1753  1.1088  1.1088  1.1554  0.8042  0.8042  0.7288
  0.6385  0.6385  0.5359  0.5359  0.4825  0.4825  0.4505

 Free energy of the ion-electron system (eV)
  ---------------------------------------------------
  alpha Z        PSCENC =        10.38953475
  Ewald energy   TEWEN  =     24000.17857640
  -Hartree energ DENC   =    -40422.34878848
  -exchange      EXHF   =         0.00000000
  -V(xc)+E(xc)   XCENC  =       574.95783256
  PAW double counting   =     16759.37871243   -18154.22940832
  entropy T*S    EENTRO =        -0.03024920
  eigenvalues    EBANDS =      -883.56993126
  atomic energy  EATOM  =     18082.44932260
  Solvation  Ediel_sol  =         0.00000000
  ---------------------------------------------------
  free energy    TOTEN  =       -32.82439854 eV

  energy without entropy =      -32.79414934  energy(sigma->0) =      -32.81431548


--------------------------------------------------------------------------------------------------------




--------------------------------------- Iteration      1(  23)  ---------------------------------------


    POTLOK:  cpu time    2.3851: real time    2.4158
    SETDIJ:  cpu time    0.0146: real time    0.0186
     EDDAV:  cpu time    8.3550: real time    8.4959
       DOS:  cpu time    0.0010: real time    0.0010
    CHARGE:  cpu time    0.8301: real time    0.8435
    MIXING:  cpu time    0.1773: real time    0.1842
    --------------------------------------------
      LOOP:  cpu time   11.7632: real time   11.9590

 eigenvalue-minimisations  :   476
 total energy-change (2. order) :-0.4850748E-01  (-0.1684305E-03)
 number of electron     143.0000040 magnetization       0.4131479
 augmentation part       91.8072888 magnetization       0.1646223

 Broyden mixing:
  rms(total) = 0.58612E-02    rms(broyden)= 0.58395E-02
  rms(prec ) = 0.65385E-02
  weight for this iteration     100.00

 eigenvalues of (default mixing * dielectric matrix)
  average eigenvalue GAMMA=   1.7696
 11.8793  3.5006  3.5006  2.2171  1.4937  1.1123  1.1123  0.9191  0.9191  0.7106
  0.7106  0.7283  0.6294  0.5129  0.4909  0.4909  0.4479  0.4766

 Free energy of the ion-electron system (eV)
  ---------------------------------------------------
  alpha Z        PSCENC =        10.38953475
  Ewald energy   TEWEN  =     24000.17857640
  -Hartree energ DENC   =    -40421.53940602
  -exchange      EXHF   =         0.00000000
  -V(xc)+E(xc)   XCENC  =       574.91298312
  PAW double counting   =     16760.56570192   -18155.43853841
  entropy T*S    EENTRO =        -0.03230123
  eigenvalues    EBANDS =      -884.35877914
  atomic energy  EATOM  =     18082.44932260
  Solvation  Ediel_sol  =         0.00000000
  ---------------------------------------------------
  free energy    TOTEN  =       -32.87290602 eV

  energy without entropy =      -32.84060479  energy(sigma->0) =      -32.86213894


--------------------------------------------------------------------------------------------------------




--------------------------------------- Iteration      1(  24)  ---------------------------------------


    POTLOK:  cpu time    2.0511: real time    2.0833
    SETDIJ:  cpu time    0.0195: real time    0.0196
     EDDAV:  cpu time    8.4059: real time    8.4547
       DOS:  cpu time    0.0011: real time    0.0011
    CHARGE:  cpu time    0.8262: real time    0.8359
    MIXING:  cpu time    0.1858: real time    0.1902
    --------------------------------------------
      LOOP:  cpu time   11.4896: real time   11.5848

 eigenvalue-minimisations  :   476
 total energy-change (2. order) :-0.4356353E-01  (-0.1590680E-03)
 number of electron     143.0000040 magnetization       0.3168594
 augmentation part       91.8048151 magnetization       0.1252179

 Broyden mixing:
  rms(total) = 0.45748E-02    rms(broyden)= 0.45471E-02
  rms(prec ) = 0.50770E-02
  weight for this iteration     100.00

 eigenvalues of (default mixing * dielectric matrix)
  average eigenvalue GAMMA=   1.7993
 12.4925  3.6925  3.6925  2.0353  2.0353  1.0992  1.0992  1.0752  1.0752  0.7397
  0.7397  0.7165  0.7165  0.6224  0.4911  0.4911  0.4733  0.4503  0.4503

 Free energy of the ion-electron system (eV)
  ---------------------------------------------------
  alpha Z        PSCENC =        10.38953475
  Ewald energy   TEWEN  =     24000.17857640
  -Hartree energ DENC   =    -40420.38853773
  -exchange      EXHF   =         0.00000000
  -V(xc)+E(xc)   XCENC  =       574.86607096
  PAW double counting   =     16761.59448347   -18156.47533312
  entropy T*S    EENTRO =        -0.03416815
  eigenvalues    EBANDS =      -885.49641873
  atomic energy  EATOM  =     18082.44932260
  Solvation  Ediel_sol  =         0.00000000
  ---------------------------------------------------
  free energy    TOTEN  =       -32.91646955 eV

  energy without entropy =      -32.88230140  energy(sigma->0) =      -32.90508017


--------------------------------------------------------------------------------------------------------




--------------------------------------- Iteration      1(  25)  ---------------------------------------


    POTLOK:  cpu time    2.0382: real time    2.0687
    SETDIJ:  cpu time    0.0347: real time    0.0348
     EDDAV:  cpu time    6.8330: real time    6.8375
       DOS:  cpu time    0.0031: real time    0.0031
    CHARGE:  cpu time    0.8179: real time    0.8183
    MIXING:  cpu time    0.2229: real time    0.2230
    --------------------------------------------
      LOOP:  cpu time    9.9499: real time    9.9853

 eigenvalue-minimisations  :   352
 total energy-change (2. order) :-0.2240481E-01  (-0.5976975E-04)
 number of electron     143.0000040 magnetization       0.2401107
 augmentation part       91.8065073 magnetization       0.0841640

 Broyden mixing:
  rms(total) = 0.36425E-02    rms(broyden)= 0.36252E-02
  rms(prec ) = 0.40350E-02
  weight for this iteration     100.00

 eigenvalues of (default mixing * dielectric matrix)
  average eigenvalue GAMMA=   1.8152
 12.9250  3.8935  3.8935  2.2799  2.2799  1.1027  1.1027  1.1238  1.1238  0.8211
  0.8211  0.6905  0.6905  0.6703  0.5220  0.5220  0.4815  0.4815  0.4512  0.4283

 Free energy of the ion-electron system (eV)
  ---------------------------------------------------
  alpha Z        PSCENC =        10.38953475
  Ewald energy   TEWEN  =     24000.17857640
  -Hartree energ DENC   =    -40419.44383780
  -exchange      EXHF   =         0.00000000
  -V(xc)+E(xc)   XCENC  =       574.83559879
  PAW double counting   =     16761.35991959   -18156.22054677
  entropy T*S    EENTRO =        -0.03510618
  eigenvalues    EBANDS =      -886.45233573
  atomic energy  EATOM  =     18082.44932260
  Solvation  Ediel_sol  =         0.00000000
  ---------------------------------------------------
  free energy    TOTEN  =       -32.93887436 eV

  energy without entropy =      -32.90376818  energy(sigma->0) =      -32.92717230


--------------------------------------------------------------------------------------------------------




--------------------------------------- Iteration      1(  26)  ---------------------------------------


    POTLOK:  cpu time    2.0701: real time    2.0732
    SETDIJ:  cpu time    0.0346: real time    0.0346
     EDDAV:  cpu time    7.8259: real time    8.0498
       DOS:  cpu time    0.0010: real time    0.0010
    CHARGE:  cpu time    0.8370: real time    0.8423
    MIXING:  cpu time    0.2247: real time    0.2251
    --------------------------------------------
      LOOP:  cpu time   10.9933: real time   11.2261

 eigenvalue-minimisations  :   408
 total energy-change (2. order) :-0.1504196E-01  (-0.6382520E-04)
 number of electron     143.0000040 magnetization       0.1681664
 augmentation part       91.8114528 magnetization       0.0439094

 Broyden mixing:
  rms(total) = 0.26017E-02    rms(broyden)= 0.25856E-02
  rms(prec ) = 0.28462E-02
  weight for this iteration     100.00

 eigenvalues of (default mixing * dielectric matrix)
  average eigenvalue GAMMA=   1.8587
 13.5175  4.2703  4.2703  2.5226  2.5226  1.4973  1.1026  1.1026  0.9478  0.9478
  0.7886  0.7886  0.6894  0.6894  0.5911  0.4887  0.4887  0.5036  0.4506  0.4644
  0.3886

 Free energy of the ion-electron system (eV)
  ---------------------------------------------------
  alpha Z        PSCENC =        10.38953475
  Ewald energy   TEWEN  =     24000.17857640
  -Hartree energ DENC   =    -40418.45428277
  -exchange      EXHF   =         0.00000000
  -V(xc)+E(xc)   XCENC  =       574.81029749
  PAW double counting   =     16760.78872182   -18155.60395681
  entropy T*S    EENTRO =        -0.03577699
  eigenvalues    EBANDS =      -887.47635281
  atomic energy  EATOM  =     18082.44932260
  Solvation  Ediel_sol  =         0.00000000
  ---------------------------------------------------
  free energy    TOTEN  =       -32.95391632 eV

  energy without entropy =      -32.91813933  energy(sigma->0) =      -32.94199066


--------------------------------------------------------------------------------------------------------




--------------------------------------- Iteration      1(  27)  ---------------------------------------


    POTLOK:  cpu time    2.0550: real time    2.0864
    SETDIJ:  cpu time    0.0194: real time    0.0194
     EDDAV:  cpu time    6.2494: real time    6.3338
       DOS:  cpu time    0.0012: real time    0.0012
    CHARGE:  cpu time    0.8440: real time    0.8576
    MIXING:  cpu time    0.2321: real time    0.2328
    --------------------------------------------
      LOOP:  cpu time    9.4012: real time    9.5334

 eigenvalue-minimisations  :   304
 total energy-change (2. order) :-0.8531715E-02  (-0.3521171E-04)
 number of electron     143.0000040 magnetization       0.1238265
 augmentation part       91.8119282 magnetization       0.0301871

 Broyden mixing:
  rms(total) = 0.20756E-02    rms(broyden)= 0.20576E-02
  rms(prec ) = 0.22134E-02
  weight for this iteration     100.00

 eigenvalues of (default mixing * dielectric matrix)
  average eigenvalue GAMMA=   1.8829
 14.0113  4.6316  4.6316  2.6465  2.6465  1.6158  1.1025  1.1025  1.0611  0.8821
  0.8821  0.8329  0.6985  0.6985  0.6192  0.6192  0.4934  0.4934  0.4766  0.4591
  0.4467  0.3716

 Free energy of the ion-electron system (eV)
  ---------------------------------------------------
  alpha Z        PSCENC =        10.38953475
  Ewald energy   TEWEN  =     24000.17857640
  -Hartree energ DENC   =    -40417.76951821
  -exchange      EXHF   =         0.00000000
  -V(xc)+E(xc)   XCENC  =       574.79892583
  PAW double counting   =     16760.60064471   -18155.41636939
  entropy T*S    EENTRO =        -0.03627546
  eigenvalues    EBANDS =      -888.15728926
  atomic energy  EATOM  =     18082.44932260
  Solvation  Ediel_sol  =         0.00000000
  ---------------------------------------------------
  free energy    TOTEN  =       -32.96244804 eV

  energy without entropy =      -32.92617257  energy(sigma->0) =      -32.95035621


--------------------------------------------------------------------------------------------------------




--------------------------------------- Iteration      1(  28)  ---------------------------------------


    POTLOK:  cpu time    2.0527: real time    2.0830
    SETDIJ:  cpu time    0.0197: real time    0.0198
     EDDAV:  cpu time    6.1478: real time    6.2581
       DOS:  cpu time    0.0011: real time    0.0011
    CHARGE:  cpu time    0.8449: real time    0.8547
    MIXING:  cpu time    0.2504: real time    0.2552
    --------------------------------------------
      LOOP:  cpu time    9.3166: real time    9.4697

 eigenvalue-minimisations  :   296
 total energy-change (2. order) :-0.3153250E-02  (-0.1810341E-04)
 number of electron     143.0000040 magnetization       0.0874419
 augmentation part       91.8094268 magnetization       0.0128556

 Broyden mixing:
  rms(total) = 0.15879E-02    rms(broyden)= 0.15764E-02
  rms(prec ) = 0.17016E-02
  weight for this iteration     100.00

 eigenvalues of (default mixing * dielectric matrix)
  average eigenvalue GAMMA=   1.8808
 14.3483  4.8606  4.8606  2.7374  2.7374  1.7672  1.1035  1.1035  1.2053  0.9404
  0.9404  0.7095  0.7095  0.7300  0.7300  0.6158  0.4991  0.4991  0.4749  0.4749
  0.4492  0.4137  0.3483

 Free energy of the ion-electron system (eV)
  ---------------------------------------------------
  alpha Z        PSCENC =        10.38953475
  Ewald energy   TEWEN  =     24000.17857640
  -Hartree energ DENC   =    -40417.54353678
  -exchange      EXHF   =         0.00000000
  -V(xc)+E(xc)   XCENC  =       574.79897013
  PAW double counting   =     16760.75714487   -18155.61300058
  entropy T*S    EENTRO =        -0.03649251
  eigenvalues    EBANDS =      -888.34612016
  atomic energy  EATOM  =     18082.44932260
  Solvation  Ediel_sol  =         0.00000000
  ---------------------------------------------------
  free energy    TOTEN  =       -32.96560128 eV

  energy without entropy =      -32.92910877  energy(sigma->0) =      -32.95343711


--------------------------------------------------------------------------------------------------------




--------------------------------------- Iteration      1(  29)  ---------------------------------------


    POTLOK:  cpu time    2.0387: real time    2.0672
    SETDIJ:  cpu time    0.0202: real time    0.0202
     EDDAV:  cpu time    5.7278: real time    5.7392
       DOS:  cpu time    0.0010: real time    0.0010
    CHARGE:  cpu time    0.8377: real time    0.8553
    MIXING:  cpu time    0.2654: real time    0.2662
    --------------------------------------------
      LOOP:  cpu time    8.8908: real time    8.9491

 eigenvalue-minimisations  :   272
 total energy-change (2. order) :-0.2383651E-02  (-0.1417791E-04)
 number of electron     143.0000040 magnetization       0.0640478
 augmentation part       91.8079568 magnetization       0.0061087

 Broyden mixing:
  rms(total) = 0.12893E-02    rms(broyden)= 0.12799E-02
  rms(prec ) = 0.13692E-02
  weight for this iteration     100.00

 eigenvalues of (default mixing * dielectric matrix)
  average eigenvalue GAMMA=   1.9033
 14.7469  5.1797  5.1797  2.8584  2.8584  2.0051  1.1019  1.1019  1.2788  1.0015
  1.0015  0.8221  0.8221  0.6932  0.6932  0.6641  0.6048  0.4923  0.4923  0.4827
  0.4488  0.4640  0.3808  0.3040

 Free energy of the ion-electron system (eV)
  ---------------------------------------------------
  alpha Z        PSCENC =        10.38953475
  Ewald energy   TEWEN  =     24000.17857640
  -Hartree energ DENC   =    -40417.25392129
  -exchange      EXHF   =         0.00000000
  -V(xc)+E(xc)   XCENC  =       574.79769215
  PAW double counting   =     16760.74216276   -18155.60782363
  entropy T*S    EENTRO =        -0.03665676
  eigenvalues    EBANDS =      -888.62687191
  atomic energy  EATOM  =     18082.44932260
  Solvation  Ediel_sol  =         0.00000000
  ---------------------------------------------------
  free energy    TOTEN  =       -32.96798494 eV

  energy without entropy =      -32.93132817  energy(sigma->0) =      -32.95576602


--------------------------------------------------------------------------------------------------------




--------------------------------------- Iteration      1(  30)  ---------------------------------------


    POTLOK:  cpu time    2.0650: real time    2.0930
    SETDIJ:  cpu time    0.0200: real time    0.0200
     EDDAV:  cpu time    6.9482: real time    7.0565
       DOS:  cpu time    0.0013: real time    0.0013
    CHARGE:  cpu time    0.8444: real time    0.8463
    MIXING:  cpu time    0.2859: real time    0.2866
    --------------------------------------------
      LOOP:  cpu time   10.1648: real time   10.3038

 eigenvalue-minimisations  :   268
[...]
     26      -6.5160      1.00000
     27      -6.4369      1.00000
     28      -6.2762      1.00000
     29      -6.2000      1.00000
     30      -6.1790      1.00000
     31      -6.0783      1.00000
     32      -6.0744      1.00000
     33      -6.0426      1.00000
     34      -5.9952      1.00000
     35      -5.9833      1.00000
     36      -5.9212      1.00000
     37      -5.8457      1.00000
     38      -5.8340      1.00000
     39      -5.8096      1.00000
     40      -5.7845      1.00000
     41      -5.7586      1.00000
     42      -5.7548      1.00000
     43      -5.7480      1.00000
     44      -5.7307      1.00000
     45      -5.6944      1.00000
     46      -5.6660      1.00000
     47      -5.6591      1.00000
     48      -5.6123      1.00000
     49      -5.5887      1.00000
     50      -5.5582      1.00000
     51      -5.5380      1.00000
     52      -5.5090      1.00000
     53      -5.5031      1.00000
     54      -5.4772      1.00000
     55      -5.4617      1.00000
     56      -5.3970      1.00000
     57      -5.3812      1.00000
     58      -5.3774      1.00000
     59      -5.3288      1.00000
     60      -5.3245      1.00000
     61      -5.3136      1.00000
     62      -5.2730      1.00000
     63      -5.2560      1.00000
     64      -5.2342      1.00000
     65      -5.2149      1.00000
     66      -5.2128      1.00000
     67      -5.1592      1.00000
     68      -5.1428      1.00000
     69      -5.0176      1.00000
     70      -4.7740      1.00000
     71      -4.3417      1.02503
     72      -4.0250      0.47809
     73      -3.3547     -0.00001
     74      -3.2046     -0.00000
     75      -2.7985     -0.00000
     76      -2.5165     -0.00000
     77      -2.3467     -0.00000
     78      -1.9693     -0.00000
     79      -1.7638     -0.00000
     80      -1.4930     -0.00000
     81      -1.2080     -0.00000
     82      -1.1019     -0.00000
     83      -0.8535     -0.00000
     84      -0.8240     -0.00000
     85      -0.3713     -0.00000
     86      -0.2816     -0.00000
     87      -0.0574     -0.00000
     88       0.0817     -0.00000
     89       0.2552     -0.00000
     90       0.2934     -0.00000
     91       0.3110     -0.00000
     92       0.3813     -0.00000

 spin component 2

 k-point     1 :       0.0000    0.0000    0.0000
  band No.  band energies     occupation 
      1     -10.5290      1.00000
      2      -9.3323      1.00000
      3      -8.2933      1.00000
      4      -8.2288      1.00000
      5      -7.9359      1.00000
      6      -7.7450      1.00000
      7      -7.6366      1.00000
      8      -7.5311      1.00000
      9      -7.5166      1.00000
     10      -7.2260      1.00000
     11      -7.2245      1.00000
     12      -7.1699      1.00000
     13      -7.0357      1.00000
     14      -6.9981      1.00000
     15      -6.9379      1.00000
     16      -6.8737      1.00000
     17      -6.8577      1.00000
     18      -6.8348      1.00000
     19      -6.8042      1.00000
     20      -6.7411      1.00000
     21      -6.7402      1.00000
     22      -6.6611      1.00000
     23      -6.6411      1.00000
     24      -6.5760      1.00000
     25      -6.5175      1.00000
     26      -6.5157      1.00000
     27      -6.4367      1.00000
     28      -6.2760      1.00000
     29      -6.1998      1.00000
     30      -6.1788      1.00000
     31      -6.0781      1.00000
     32      -6.0742      1.00000
     33      -6.0424      1.00000
     34      -5.9950      1.00000
     35      -5.9831      1.00000
     36      -5.9210      1.00000
     37      -5.8455      1.00000
     38      -5.8338      1.00000
     39      -5.8094      1.00000
     40      -5.7844      1.00000
     41      -5.7585      1.00000
     42      -5.7546      1.00000
     43      -5.7478      1.00000
     44      -5.7305      1.00000
     45      -5.6943      1.00000
     46      -5.6658      1.00000
     47      -5.6590      1.00000
     48      -5.6121      1.00000
     49      -5.5886      1.00000
     50      -5.5580      1.00000
     51      -5.5377      1.00000
     52      -5.5088      1.00000
     53      -5.5029      1.00000
     54      -5.4770      1.00000
     55      -5.4616      1.00000
     56      -5.3967      1.00000
     57      -5.3810      1.00000
     58      -5.3772      1.00000
     59      -5.3285      1.00000
     60      -5.3244      1.00000
     61      -5.3133      1.00000
     62      -5.2728      1.00000
     63      -5.2557      1.00000
     64      -5.2340      1.00000
     65      -5.2148      1.00000
     66      -5.2125      1.00000
     67      -5.1590      1.00000
     68      -5.1426      1.00000
     69      -5.0170      1.00000
     70      -4.7736      1.00000
     71      -4.3413      1.02512
     72      -4.0235      0.47177
     73      -3.3543     -0.00001
     74      -3.2044     -0.00000
     75      -2.7979     -0.00000
     76      -2.5162     -0.00000
     77      -2.3456     -0.00000
     78      -1.9685     -0.00000
     79      -1.7635     -0.00000
     80      -1.4920     -0.00000
     81      -1.2068     -0.00000
     82      -1.1001     -0.00000
     83      -0.8546     -0.00000
     84      -0.8236     -0.00000
     85      -0.3710     -0.00000
     86      -0.2812     -0.00000
     87      -0.0561     -0.00000
     88       0.0489     -0.00000
     89       0.2277     -0.00000
     90       0.2719     -0.00000
     91       0.2871     -0.00000
     92       0.3429     -0.00000


--------------------------------------------------------------------------------------------------------


 soft charge-density along one line, spin component            1
         0         1         2         3         4         5         6         7         8         9
 total charge-density along one line
 
 soft charge-density along one line, spin component            2
         0         1         2         3         4         5         6         7         8         9
 total charge-density along one line
 
 pseudopotential strength for first ion, spin component:            1
-10.965   0.042  -0.025   0.005   0.001   1.365  -0.032   0.020
  0.042 -11.010   0.012   0.023  -0.010  -0.032   1.401  -0.009
 -0.025   0.012 -10.993   0.022  -0.013   0.020  -0.009   1.388
  0.005   0.023   0.022 -10.977   0.033  -0.004  -0.018  -0.017
  0.001  -0.010  -0.013   0.033 -10.958  -0.001   0.008   0.010
  1.365  -0.032   0.020  -0.004  -0.001   6.038   0.023  -0.014
 -0.032   1.401  -0.009  -0.018   0.008   0.023   6.012   0.007
  0.020  -0.009   1.388  -0.017   0.010  -0.014   0.007   6.022
 -0.004  -0.018  -0.017   1.375  -0.026   0.003   0.013   0.012
 -0.001   0.008   0.010  -0.026   1.360   0.000  -0.006  -0.007
 -0.007  -0.003   0.005  -0.011  -0.005   0.002   0.002  -0.002
 -0.013  -0.005   0.009  -0.019  -0.008   0.003   0.004  -0.003
 -0.010  -0.003   0.004   0.000   0.007   0.011   0.006  -0.005
  0.000  -0.007  -0.004  -0.010   0.000  -0.001   0.009   0.008
 -0.007   0.000   0.006  -0.003  -0.011   0.008  -0.001  -0.006
 -0.012  -0.005   0.005   0.000   0.009   0.013   0.009  -0.007
  0.000  -0.009  -0.006  -0.012   0.000  -0.001   0.012   0.012
 -0.009   0.000   0.007  -0.004  -0.012   0.010  -0.001  -0.007
 pseudopotential strength for first ion, spin component:            2
-10.965   0.042  -0.025   0.005   0.001   1.365  -0.032   0.020
  0.042 -11.010   0.012   0.023  -0.010  -0.032   1.401  -0.009
 -0.025   0.012 -10.993   0.022  -0.013   0.020  -0.009   1.388
  0.005   0.023   0.022 -10.977   0.033  -0.004  -0.018  -0.017
  0.001  -0.010  -0.013   0.033 -10.957  -0.001   0.008   0.010
  1.365  -0.032   0.020  -0.004  -0.001   6.038   0.023  -0.014
 -0.032   1.401  -0.009  -0.018   0.008   0.023   6.012   0.007
  0.020  -0.009   1.388  -0.017   0.010  -0.014   0.007   6.022
 -0.004  -0.018  -0.017   1.375  -0.026   0.003   0.013   0.012
 -0.001   0.008   0.010  -0.026   1.360   0.000  -0.006  -0.007
 -0.007  -0.003   0.005  -0.011  -0.005   0.002   0.002  -0.002
 -0.013  -0.005   0.009  -0.019  -0.008   0.003   0.004  -0.003
 -0.010  -0.003   0.004   0.000   0.007   0.011   0.006  -0.005
  0.000  -0.007  -0.004  -0.010   0.000  -0.001   0.009   0.008
 -0.007   0.000   0.006  -0.003  -0.011   0.008  -0.001  -0.006
 -0.012  -0.005   0.005   0.000   0.009   0.013   0.009  -0.007
  0.000  -0.009  -0.006  -0.012   0.000  -0.001   0.012   0.012
 -0.009   0.000   0.007  -0.004  -0.012   0.010  -0.001  -0.007
 total augmentation occupancy for first ion, spin component:            1
  1.931   0.016  -0.009  -0.004   0.000  -0.021  -0.012   0.006   0.004  -0.001   0.018   0.008   0.029  -0.005   0.005  -0.011
  0.016   1.900   0.011   0.008  -0.008  -0.012  -0.010  -0.007  -0.008  -0.000   0.011  -0.002  -0.008   0.001   0.002   0.001
 -0.009   0.011   1.935   0.005   0.000   0.006  -0.007  -0.018  -0.005   0.002   0.004  -0.006  -0.000  -0.009  -0.014   0.003
 -0.004   0.008   0.005   1.927   0.011   0.004  -0.008  -0.005  -0.021  -0.002   0.011   0.006   0.002   0.024   0.009   0.000
  0.000  -0.008   0.000   0.011   1.941  -0.001  -0.000   0.002  -0.002  -0.028   0.019   0.004  -0.013   0.002   0.014   0.004
 -0.021  -0.012   0.006   0.004  -0.001   0.014  -0.001  -0.000   0.001  -0.001  -0.036  -0.000   0.023  -0.003   0.008  -0.001
 -0.012  -0.010  -0.007  -0.008  -0.000  -0.001   0.013   0.000  -0.000  -0.001   0.005  -0.002   0.011   0.014  -0.006  -0.001
  0.006  -0.007  -0.018  -0.005   0.002  -0.000   0.000   0.016  -0.001   0.001   0.022  -0.002  -0.012   0.018  -0.010   0.000
  0.004  -0.008  -0.005  -0.021  -0.002   0.001  -0.000  -0.001   0.015   0.001  -0.039   0.001  -0.005   0.023   0.011   0.000
 -0.001  -0.000   0.002  -0.002  -0.028  -0.001  -0.001   0.001   0.001   0.013  -0.021  -0.000  -0.023   0.002   0.019   0.001
  0.018   0.011   0.004   0.011   0.019  -0.036   0.005   0.022  -0.039  -0.021   1.716  -0.142   0.078   0.040   0.146  -0.012
  0.008  -0.002  -0.006   0.006   0.004  -0.000  -0.002  -0.002   0.001  -0.000  -0.142   0.018  -0.017  -0.015  -0.026   0.002
  0.029  -0.008  -0.000   0.002  -0.013   0.023   0.011  -0.012  -0.005  -0.023   0.078  -0.017   0.189   0.006  -0.031  -0.012
 -0.005   0.001  -0.009   0.024   0.002  -0.003   0.014   0.018   0.023   0.002   0.040  -0.015   0.006   0.213  -0.033  -0.001
  0.005   0.002  -0.014   0.009   0.014   0.008  -0.006  -0.010   0.011   0.019   0.146  -0.026  -0.031  -0.033   0.153   0.001
 -0.011   0.001   0.003   0.000   0.004  -0.001  -0.001   0.000   0.000   0.001  -0.012   0.002  -0.012  -0.001   0.001   0.001
  0.000  -0.003   0.001  -0.011  -0.001   0.000  -0.001  -0.001  -0.002   0.000  -0.008   0.001  -0.001  -0.014   0.002   0.000
 -0.004   0.000   0.006   0.000  -0.010  -0.000   0.000   0.001  -0.000  -0.001  -0.021   0.003   0.001   0.002  -0.011   0.000
 total augmentation occupancy for first ion, spin component:            2
  0.000   0.000  -0.000   0.000  -0.000  -0.000  -0.000   0.000  -0.000   0.000   0.000   0.000  -0.000   0.000  -0.000  -0.000
  0.000   0.000  -0.000   0.000  -0.000  -0.000  -0.000   0.000  -0.000   0.000   0.000   0.000  -0.000   0.000  -0.000  -0.000
 -0.000  -0.000   0.000  -0.000   0.000   0.000   0.000  -0.000   0.000  -0.000  -0.000  -0.000   0.000  -0.000   0.000   0.000
  0.000   0.000  -0.000   0.000  -0.000  -0.000  -0.000   0.000  -0.000   0.000   0.000   0.000  -0.000   0.000  -0.000  -0.000
 -0.000  -0.000   0.000  -0.000   0.000   0.000   0.000  -0.000   0.000  -0.000  -0.000  -0.000   0.000  -0.000   0.000   0.000
 -0.000  -0.000   0.000  -0.000   0.000   0.000   0.000  -0.000   0.000  -0.000  -0.000  -0.000   0.000  -0.000   0.000   0.000
 -0.000  -0.000   0.000  -0.000   0.000   0.000   0.000  -0.000   0.000  -0.000  -0.000  -0.000   0.000  -0.000   0.000  -0.000
  0.000   0.000  -0.000   0.000  -0.000  -0.000  -0.000   0.000  -0.000   0.000   0.000   0.000  -0.000   0.000  -0.000   0.000
 -0.000  -0.000   0.000  -0.000   0.000   0.000   0.000  -0.000   0.000  -0.000  -0.000  -0.000   0.000  -0.000   0.000   0.000
  0.000   0.000  -0.000   0.000  -0.000  -0.000  -0.000   0.000  -0.000   0.000   0.000   0.000  -0.000   0.000  -0.000  -0.000
  0.000   0.000  -0.000   0.000  -0.000  -0.000  -0.000   0.000  -0.000   0.000   0.000   0.000  -0.000   0.000  -0.000  -0.000
  0.000   0.000  -0.000   0.000  -0.000  -0.000  -0.000   0.000  -0.000   0.000   0.000  -0.000  -0.000   0.000  -0.000  -0.000
 -0.000  -0.000   0.000  -0.000   0.000   0.000   0.000  -0.000   0.000  -0.000  -0.000  -0.000  -0.000  -0.000   0.000   0.000
  0.000   0.000  -0.000   0.000  -0.000  -0.000  -0.000   0.000  -0.000   0.000   0.000   0.000  -0.000  -0.000  -0.000   0.000
 -0.000  -0.000   0.000  -0.000   0.000   0.000   0.000  -0.000   0.000  -0.000  -0.000  -0.000   0.000  -0.000   0.000  -0.000
 -0.000  -0.000   0.000  -0.000   0.000   0.000  -0.000   0.000   0.000  -0.000  -0.000  -0.000   0.000   0.000  -0.000   0.000
 -0.000  -0.000  -0.000   0.000  -0.000   0.000   0.000  -0.000   0.000  -0.000  -0.000  -0.000   0.000   0.000   0.000   0.000
 -0.000  -0.000   0.000  -0.000  -0.000  -0.000  -0.000   0.000  -0.000   0.000   0.000  -0.000  -0.000   0.000  -0.000   0.000


------------------------ aborting loop because EDIFF is reached ----------------------------------------


    CHARGE:  cpu time    0.8337: real time    0.8350
    FORLOC:  cpu time    0.0656: real time    0.0657
    FORNL :  cpu time    2.0790: real time    2.1085
    FORCOR:  cpu time    2.0056: real time    2.0102
    FORHAR:  cpu time    0.2836: real time    0.2879
    MIXING:  cpu time    0.0492: real time    0.0492
    OFIELD:  cpu time    0.0000: real time    0.0000

 VOLUME and BASIS-vectors are now :
 -----------------------------------------------------------------------------
  energy-cutoff  :      400.00
  volume of cell :    11896.05
      direct lattice vectors                 reciprocal lattice vectors
    20.889299820  0.000000000  0.000000000     0.047871399  0.000000000  0.000000000
     0.000000000 22.461491198  0.000000000     0.000000000  0.044520642  0.000000000
     0.000000000  0.000000000 25.353642335     0.000000000  0.000000000  0.039442065

  length of vectors
    20.889299820 22.461491198 25.353642335     0.047871399  0.044520642  0.039442065


 FORCES acting on ions
    electron-ion (+dipol)            ewald-force                    non-local-force                 convergence-correction
 -----------------------------------------------------------------------------------------------
   0.105E+04 0.342E+03 0.144E+03   -.105E+04 -.342E+03 -.145E+03   -.194E+01 0.130E-01 0.143E+01   -.647E-01 0.203E-01 -.659E-01
   -.118E+04 0.504E+03 -.459E+03   0.117E+04 -.502E+03 0.454E+03   0.720E+01 -.127E+01 0.489E+01   0.500E-02 0.144E-01 0.454E-02
   -.384E+03 -.738E+03 -.109E+04   0.383E+03 0.734E+03 0.108E+04   0.120E+01 0.380E+01 0.420E+01   -.976E-03 -.407E-01 -.195E-01
   0.453E+03 0.102E+04 0.159E+03   -.453E+03 -.102E+04 -.158E+03   0.107E+00 -.169E+01 -.180E+01   0.789E-01 -.192E-01 0.106E+00
   0.293E+03 -.131E+04 0.279E+03   -.293E+03 0.130E+04 -.276E+03   0.369E+00 0.821E+01 -.337E+01   0.333E-01 -.910E-01 -.757E-01
   -.640E+03 0.105E+04 0.563E+03   0.635E+03 -.104E+04 -.559E+03   0.506E+01 -.768E+01 -.427E+01   -.116E+00 -.576E-01 -.322E-01
   0.546E+03 -.614E+03 0.100E+04   -.543E+03 0.610E+03 -.997E+03   -.363E+01 0.386E+01 -.476E+01   0.650E-01 -.185E-01 0.544E-01
   0.108E+04 -.646E+03 -.474E+03   -.107E+04 0.641E+03 0.470E+03   -.801E+01 0.500E+01 0.366E+01   -.794E-01 -.648E-01 0.273E-01
   -.339E+03 0.802E+03 -.959E+03   0.336E+03 -.797E+03 0.955E+03   0.242E+01 -.491E+01 0.452E+01   0.311E-01 0.305E-01 -.323E-01
   0.636E+03 0.521E+03 -.108E+04   -.631E+03 -.515E+03 0.107E+04   -.494E+01 -.578E+01 0.667E+01   -.420E-01 0.873E-01 0.770E-01
   -.872E+03 -.789E+03 -.175E+03   0.870E+03 0.787E+03 0.175E+03   0.142E+01 0.126E+01 0.303E+00   0.876E-01 0.955E-01 -.838E-02
   -.977E+03 -.494E+03 0.813E+03   0.972E+03 0.492E+03 -.810E+03   0.469E+01 0.152E+01 -.302E+01   -.358E-01 -.199E-01 0.299E-01
   0.326E+03 0.353E+03 0.127E+04   -.322E+03 -.350E+03 -.126E+04   -.453E+01 -.284E+01 -.858E+01   0.712E-01 0.542E-01 -.928E-01
 -----------------------------------------------------------------------------------------------
   0.561E+00 0.492E+00 0.142E+00   -.227E-12 0.398E-12 -.227E-12   -.583E+00 -.526E+00 -.134E+00   0.337E-01 -.943E-02 -.274E-01
 
 
 POSITION                                       TOTAL-FORCE (eV/Angst)
 -----------------------------------------------------------------------------------
      9.07861     11.43475     13.59809        -0.008830     -0.008199      0.006355
     12.88002     10.15403     13.29716         0.011469      0.000243     -0.002596
     10.41087     12.76065     15.41547        -0.005638     -0.002312     -0.008159
     10.63220      9.95684     12.44125         0.001049      0.000623      0.000706
      9.63071     13.76496     13.30480        -0.005138     -0.008138     -0.000541
     12.46397      9.00749     11.21723        -0.020158     -0.010168     -0.002924
     10.07795     12.14641     11.46397         0.009235     -0.009698     -0.004647
      8.02900     13.08659     14.98148        -0.007645     -0.006769     -0.003626
     10.95150     10.42947     14.84078        -0.007208      0.012049      0.004269
      8.87422     11.02907     16.00408        -0.000401      0.009560      0.006004
     11.63648     12.30380     13.37753         0.019927      0.015578      0.006414
     12.42696     11.44981     11.25380         0.003443     -0.006424      0.004732
     10.75068     10.27637     10.01909         0.009893      0.013653     -0.005988
 -----------------------------------------------------------------------------------
    total drift:                                0.011180     -0.042873     -0.019302


--------------------------------------------------------------------------------------------------------



  FREE ENERGIE OF THE ION-ELECTRON SYSTEM (eV)
  ---------------------------------------------------
  free  energy   TOTEN  =       -32.97501413 eV

  energy  without entropy=      -32.93800123  energy(sigma->0) =      -32.96267650
 
 d Force = 0.2498660E-03[ 0.168E-03, 0.332E-03]  d Energy = 0.4296769E-03-0.180E-03
 d Force =-0.4378322E+00[-0.438E+00,-0.438E+00]  d Ewald  =-0.4378345E+00 0.225E-05


--------------------------------------------------------------------------------------------------------


    POTLOK:  cpu time    2.1141: real time    2.1253


--------------------------------------------------------------------------------------------------------




--------------------------------------------------------------------------------------------------------


  
 reached required accuracy - stopping structural energy minimisation
     LOOP+:  cpu time   38.2483: real time   38.4753
    4ORBIT:  cpu time    0.0000: real time    0.0000

 total amount of memory used by VASP MPI-rank0   146080. kBytes
=======================================================================

   base      :      30000. kBytes
   nonl-proj :       2380. kBytes
   fftplans  :      28571. kBytes
   grid      :      65178. kBytes
   one-center:         15. kBytes
   wavefun   :      19936. kBytes
 
  
  
 General timing and accounting informations for this job:
 ========================================================
  
                  Total CPU time used (sec):      511.676
                            User time (sec):      507.471
                          System time (sec):        4.205
                         Elapsed time (sec):      517.799
  
                   Maximum memory used (kb):      302492.
                   Average memory used (kb):           0.
  
                          Minor page faults:       878535
                          Major page faults:        20691
                 Voluntary context switches:         3474
