<?xml version="1.0" encoding="ISO-8859-1"?>
<modeling>
 <generator>
  <i name="program" type="string">vasp </i>
  <i name="version" type="string">6.1.2  </i>
  <i name="subversion" type="string">22Jul20 (build Aug  2 2021 21:04:21) gamma-only                       parallel </i>
  <i name="platform" type="string">LinuxPGI </i>
  <i name="date" type="string">2021 12 25 </i>
  <i name="time" type="string">03:17:14 </i>
 </generator>
 <incar>
  <i type="int" name="ISPIN">     2</i>
  <i type="int" name="IBRION">     2</i>
  <i type="int" name="NSW">  1000</i>
  <i type="int" name="ISIF">     0</i>
  <i type="int" name="ISYM">     0</i>
  <i name="ENCUT">    400.00000000</i>
  <i type="logical" name="LREAL"> F  </i>
  <i type="int" name="ISMEAR">     1</i>
  <i name="SIGMA">      0.20000000</i>
  <i type="logical" name="LWAVE"> F  </i>
  <i type="logical" name="LCHARG"> F  </i>
  <i type="int" name="KPAR">     1</i>
  <i type="int" name="NCORE">    16</i>
  <i type="string" name="GGA"> PE</i>
  <i type="int" name="ISPIN">     2</i>
 </incar>
 <structure name="primitive_cell" >
  <crystal>
   <varray name="basis" >
    <v>      20.88929982       0.00000000       0.00000000 </v>
    <v>       0.00000000      22.46149120       0.00000000 </v>
    <v>       0.00000000       0.00000000      25.35364234 </v>
   </varray>
   <i name="volume">  11896.05129058 </i>
   <varray name="rec_basis" >
    <v>       0.04787140       0.00000000       0.00000000 </v>
    <v>       0.00000000       0.04452064       0.00000000 </v>
    <v>       0.00000000       0.00000000       0.03944206 </v>
   </varray>
  </crystal>
  <varray name="positions" >
   <v>       0.43467354       0.50904271       0.53640355 </v>
   <v>       0.61659338       0.45204145       0.52445285 </v>
   <v>       0.49837925       0.56817022       0.60803304 </v>
   <v>       0.50887073       0.44330670       0.49057721 </v>
   <v>       0.46097012       0.61295248       0.52487229 </v>
   <v>       0.59684050       0.40109578       0.44247609 </v>
   <v>       0.48236890       0.54077250       0.45209219 </v>
   <v>       0.38448287       0.58272580       0.59085038 </v>
   <v>       0.52421379       0.46429263       0.58539189 </v>
   <v>       0.42489587       0.49088793       0.63113905 </v>
   <v>       0.55696565       0.54766343       0.52764746 </v>
   <v>       0.59495310       0.50977036       0.44384184 </v>
   <v>       0.51453721       0.45743954       0.39528479 </v>
  </varray>
 </structure>
 <varray name="primitive_index" >
  <v type="int" >        1 </v>
  <v type="int" >        2 </v>
  <v type="int" >        3 </v>
  <v type="int" >        4 </v>
  <v type="int" >        5 </v>
  <v type="int" >        6 </v>
  <v type="int" >        7 </v>
  <v type="int" >        8 </v>
  <v type="int" >        9 </v>
  <v type="int" >       10 </v>
  <v type="int" >       11 </v>
  <v type="int" >       12 </v>
  <v type="int" >       13 </v>
 </varray>
 <kpoints>
  <generation param="Gamma">
   <v type="int" name="divisions">       1        1        1 </v>
   <v name="usershift">      0.00000000       0.00000000       0.00000000 </v>
   <v name="genvec1">      1.00000000       0.00000000       0.00000000 </v>
   <v name="genvec2">      0.00000000       1.00000000       0.00000000 </v>
   <v name="genvec3">      0.00000000       0.00000000       1.00000000 </v>
   <v name="shift">      0.00000000       0.00000000       0.00000000 </v>
  </generation>
  <varray name="kpointlist" >
   <v>       0.00000000       0.00000000       0.00000000 </v>
  </varray>
  <varray name="weights" >
   <v>       1.00000000 </v>
  </varray>
 </kpoints>
 <parameters>
  <separator name="general" >
   <i type="string" name="SYSTEM">unknown system</i>
   <i type="logical" name="LCOMPAT"> F  </i>
  </separator>
  <separator name="electronic" >
   <i type="string" name="PREC">normal</i>
   <i name="ENMAX">    400.00000000</i>
   <i name="ENAUG">    586.98000000</i>
   <i name="EDIFF">      0.00010000</i>
   <i type="int" name="IALGO">    38</i>
   <i type="int" name="IWAVPR">    11</i>
   <i type="int" name="NBANDS">    92</i>
   <i type="int" name="NBANDSLOW">    -1</i>
   <i type="int" name="NBANDSHIGH">    -1</i>
   <i name="NELECT">    143.00000000</i>
   <i type="int" name="TURBO">     0</i>
   <i type="int" name="IRESTART">     0</i>
   <i type="int" name="NREBOOT">     0</i>
   <i type="int" name="NMIN">     0</i>
   <i name="EREF">      0.00000000</i>
   <separator name="electronic smearing" >
    <i type="int" name="ISMEAR">     1</i>
    <i name="SIGMA">      0.20000000</i>
    <i name="KSPACING">      0.50000000</i>
    <i type="logical" name="KGAMMA"> T  </i>
    <i type="logical" name="KBLOWUP"> T  </i>
   </separator>
   <separator name="electronic projectors" >
    <i type="logical" name="LREAL"> F  </i>
    <v name="ROPT">      0.00000000</v>
    <i type="int" name="LMAXPAW">  -100</i>
    <i type="int" name="LMAXMIX">     2</i>
    <i type="logical" name="NLSPLINE"> F  </i>
   </separator>
   <separator name="electronic startup" >
    <i type="int" name="ISTART">     0</i>
    <i type="int" name="ICHARG">     2</i>
    <i type="int" name="INIWAV">     1</i>
   </separator>
   <separator name="electronic spin" >
    <i type="int" name="ISPIN">     2</i>
    <i type="logical" name="LNONCOLLINEAR"> F  </i>
    <v name="MAGMOM">      1.00000000      1.00000000      1.00000000      1.00000000      1.00000000      1.00000000      1.00000000      1.00000000      1.00000000      1.00000000      1.00000000      1.00000000      1.00000000</v>
    <i name="NUPDOWN">     -1.00000000</i>
    <i type="logical" name="LSORBIT"> F  </i>
    <v name="SAXIS">      0.00000000      0.00000000      1.00000000</v>
    <i type="logical" name="LSPIRAL"> F  </i>
    <v name="QSPIRAL">      0.00000000      0.00000000      0.00000000</v>
    <i type="logical" name="LZEROZ"> F  </i>
   </separator>
   <separator name="electronic exchange-correlation" >
    <i type="logical" name="LASPH"> F  </i>
    <i type="logical" name="LMETAGGA"> F  </i>
   </separator>
   <separator name="electronic convergence" >
    <i type="int" name="NELM">    60</i>
    <i type="int" name="NELMDL">     0</i>
    <i type="int" name="NELMIN">     2</i>
    <i name="ENINI">    400.00000000</i>
    <separator name="electronic convergence detail" >
     <i type="logical" name="LDIAG"> T  </i>
     <i type="logical" name="LSUBROT"> F  </i>
     <i name="WEIMIN">      0.00100000</i>
     <i name="EBREAK">      0.00000027</i>
     <i name="DEPER">      0.30000000</i>
     <i type="int" name="NRMM">     4</i>
     <i name="TIME">      0.40000000</i>
    </separator>
   </separator>
   <separator name="electronic mixer" >
    <i name="AMIX">      0.40000000</i>
    <i name="BMIX">      1.00000000</i>
    <i name="AMIN">      0.10000000</i>
    <i name="AMIX_MAG">      1.60000000</i>
    <i name="BMIX_MAG">      1.00000000</i>
    <separator name="electronic mixer details" >
     <i type="int" name="IMIX">     4</i>
     <i type="logical" name="MIXFIRST"> F  </i>
     <i type="int" name="MAXMIX">   -45</i>
     <i name="WC">    100.00000000</i>
     <i type="int" name="INIMIX">     1</i>
     <i type="int" name="MIXPRE">     1</i>
     <i type="int" name="MREMOVE">     5</i>
    </separator>
   </separator>
   <separator name="electronic dipolcorrection" >
    <i type="logical" name="LDIPOL"> F  </i>
    <i type="logical" name="LMONO"> F  </i>
    <i type="int" name="IDIPOL">     0</i>
    <i name="EPSILON">      1.00000000</i>
    <v name="DIPOL">   -100.00000000   -100.00000000   -100.00000000</v>
    <i name="EFIELD">      0.00000000</i>
   </separator>
  </separator>
  <separator name="grids" >
   <i type="int" name="NGX">   108</i>
   <i type="int" name="NGY">   112</i>
   <i type="int" name="NGZ">   126</i>
   <i type="int" name="NGXF">   216</i>
   <i type="int" name="NGYF">   224</i>
   <i type="int" name="NGZF">   252</i>
   <i type="logical" name="ADDGRID"> F  </i>
  </separator>
  <separator name="ionic" >
   <i type="int" name="NSW">  1000</i>
   <i type="int" name="IBRION">     2</i>
   <i type="int" name="MDALGO">     0</i>
   <i type="int" name="ISIF">     0</i>
   <i name="PSTRESS">      0.00000000</i>
   <i name="EDIFFG">      0.00100000</i>
   <i type="int" name="NFREE">     1</i>
   <i name="POTIM">      0.50000000</i>
   <i name="SMASS">     -3.00000000</i>
   <i name="SCALEE">      1.00000000</i>
  </separator>
  <separator name="ionic md" >
   <i name="TEBEG">      0.00010000</i>
   <i name="TEEND">      0.00010000</i>
   <i type="int" name="NBLOCK">     1</i>
   <i type="int" name="KBLOCK">  1000</i>
   <i type="int" name="NPACO">   256</i>
   <i name="APACO">     16.00000000</i>
  </separator>
  <separator name="symmetry" >
   <i type="int" name="ISYM">     0</i>
   <i name="SYMPREC">      0.00001000</i>
  </separator>
  <separator name="dos" >
   <i type="int" name="LORBIT">     0</i>
   <v name="RWIGS">     -1.00000000</v>
   <i type="int" name="NEDOS">   301</i>
   <i name="EMIN">     10.00000000</i>
   <i name="EMAX">    -10.00000000</i>
   <i name="EFERMI">      0.00000000</i>
  </separator>
  <separator name="writing" >
   <i type="int" name="NWRITE">     2</i>
   <i type="logical" name="LWAVE"> F  </i>
   <i type="logical" name="LDOWNSAMPLE"> F  </i>
   <i type="logical" name="LCHARG"> F  </i>
   <i type="logical" name="LPARD"> F  </i>
   <i type="logical" name="LVTOT"> F  </i>
   <i type="logical" name="LVHAR"> F  </i>
   <i type="logical" name="LELF"> F  </i>
   <i type="logical" name="LOPTICS"> F  </i>
   <v name="STM">      0.00000000      0.00000000      0.00000000      0.00000000      0.00000000      0.00000000      0.00000000</v>
  </separator>
  <separator name="performance" >
   <i type="int" name="NPAR">     1</i>
   <i type="int" name="NSIM">     4</i>
   <i type="int" name="NBLK">    -1</i>
   <i type="logical" name="LPLANE"> T  </i>
   <i type="logical" name="LSCALAPACK"> T  </i>
   <i type="logical" name="LSCAAWARE"> F  </i>
   <i type="logical" name="LSCALU"> F  </i>
   <i type="logical" name="LASYNC"> F  </i>
   <i type="logical" name="LORBITALREAL"> F  </i>
  </separator>
  <separator name="miscellaneous" >
   <i type="int" name="IDIOT">     3</i>
   <i type="int" name="PHON_NSTRUCT">    -1</i>
   <i type="logical" name="LMUSIC"> F  </i>
   <v name="POMASS">     63.54600000</v>
   <v name="DARWINR">      0.00000000</v>
   <v name="DARWINV">      1.00000000</v>
   <i type="logical" name="LCORR"> T  </i>
  </separator>
  <i type="logical" name="GGA_COMPAT"> T  </i>
  <i type="logical" name="LBERRY"> F  </i>
  <i type="int" name="ICORELEVEL">     0</i>
  <i type="logical" name="LDAU"> F  </i>
  <i type="int" name="I_CONSTRAINED_M">     0</i>
  <separator name="electronic exchange-correlation" >
   <i type="string" name="GGA">PE</i>
   <i type="int" name="VOSKOWN">     0</i>
   <i type="logical" name="LHFCALC"> F  </i>
   <i type="string" name="PRECFOCK"></i>
   <i type="logical" name="LSYMGRAD"> F  </i>
   <i type="logical" name="LHFONE"> F  </i>
   <i type="logical" name="LRHFCALC"> F  </i>
   <i type="logical" name="LTHOMAS"> F  </i>
   <i type="logical" name="LMODELHF"> F  </i>
   <i type="logical" name="LFOCKACE"> F  </i>
   <i name="ENCUT4O">     -1.00000000</i>
   <i type="int" name="EXXOEP">     0</i>
   <i type="int" name="FOURORBIT">     0</i>
   <i name="AEXX">      0.00000000</i>
   <i name="HFALPHA">      0.00000000</i>
   <i name="MCALPHA">      0.00000000</i>
   <i name="ALDAX">      1.00000000</i>
   <i name="AGGAX">      1.00000000</i>
   <i name="ALDAC">      1.00000000</i>
   <i name="AGGAC">      1.00000000</i>
   <i type="int" name="NKREDX">     1</i>
   <i type="int" name="NKREDY">     1</i>
   <i type="int" name="NKREDZ">     1</i>
   <i type="logical" name="SHIFTRED"> F  </i>
   <i type="logical" name="ODDONLY"> F  </i>
   <i type="logical" name="EVENONLY"> F  </i>
   <i type="int" name="LMAXFOCK">     0</i>
   <i type="int" name="NMAXFOCKAE">     0</i>
   <i type="logical" name="LFOCKAEDFT"> F  </i>
   <i name="HFSCREEN">      0.00000000</i>
   <i name="HFSCREENC">      0.00000000</i>
   <i type="int" name="NBANDSGWLOW">     0</i>
  </separator>
  <separator name="vdW DFT" >
   <i type="logical" name="LUSE_VDW"> F  </i>
   <i name="Zab_VDW">     -0.84910000</i>
   <i name="PARAM1">      0.12340000</i>
   <i name="PARAM2">      1.00000000</i>
   <i name="PARAM3">      0.00000000</i>
  </separator>
  <separator name="model GW" >
   <i type="int" name="MODEL_GW">     0</i>
   <i name="MODEL_EPS0">    549.04852110</i>
   <i name="MODEL_ALPHA">      1.00000000</i>
  </separator>
  <separator name="linear response parameters" >
   <i type="logical" name="LEPSILON"> F  </i>
   <i type="logical" name="LRPA"> F  </i>
   <i type="logical" name="LNABLA"> F  </i>
   <i type="logical" name="LVEL"> F  </i>
   <i type="int" name="KINTER">     0</i>
   <i name="CSHIFT">      0.10000000</i>
   <i name="OMEGAMAX">     -1.00000000</i>
   <i name="DEG_THRESHOLD">      0.00200000</i>
   <i name="RTIME">     -0.10000000</i>
   <i name="WPLASMAI">      0.00000000</i>
   <v name="DFIELD">      0.00000000      0.00000000      0.00000000</v>
   <v name="WPLASMA">      0.00000000      0.00000000      0.00000000      0.00000000      0.00000000      0.00000000      0.00000000      0.00000000      0.00000000</v>
  </separator>
  <separator name="orbital magnetization" >
   <i type="logical" name="NUCIND"> F  </i>
   <v name="MAGPOS">      0.00000000      0.00000000      0.00000000</v>
   <i type="logical" name="LNICSALL"> T  </i>
   <i type="logical" name="ORBITALMAG"> F  </i>
   <i type="logical" name="LMAGBLOCH"> F  </i>
   <i type="logical" name="LCHIMAG"> F  </i>
   <i type="logical" name="LGAUGE"> T  </i>
   <i type="int" name="MAGATOM">     0</i>
   <v name="MAGDIPOL">      0.00000000      0.00000000      0.00000000</v>
   <v name="AVECCONST">      0.00000000      0.00000000      0.00000000</v>
  </separator>
  <separator name="response functions" >
   <i type="logical" name="LFINITE_TEMPERATURE"> F  </i>
   <i type="logical" name="LADDER"> F  </i>
   <i type="logical" name="LRPAFORCE"> F  </i>
   <i type="logical" name="LFXC"> F  </i>
   <i type="logical" name="LHARTREE"> T  </i>
   <i type="int" name="IBSE">     0</i>
   <v type="int" name="KPOINT">    -1     0     0     0</v>
   <i type="logical" name="LTCTC"> F  </i>
   <i type="logical" name="LTCTE"> F  </i>
   <i type="logical" name="LTETE"> F  </i>
   <i type="logical" name="LTRIPLET"> F  </i>
   <i type="logical" name="LFXCEPS"> F  </i>
   <i type="logical" name="LFXHEG"> F  </i>
   <i type="int" name="NATURALO">     2</i>
   <i type="logical" name="LHOLEGF"> F  </i>
   <i type="logical" name="L2ORDER"> F  </i>
   <i type="logical" name="LDMP1"> F  </i>
   <i type="logical" name="LMP2LT"> F  </i>
   <i type="logical" name="LSMP2LT"> F  </i>
   <i type="logical" name="LGWLF"> F  </i>
   <i name="ENCUTGW">     -2.00000000</i>
   <i name="ENCUTGWSOFT">     -2.00000000</i>
   <i name="ENCUTLF">     -1.00000000</i>
   <i type="logical" name="LESF_SPLINES"> F  </i>
   <i type="int" name="LMAXMP2">    -1</i>
   <i name="SCISSOR">      0.00000000</i>
   <i type="int" name="NOMEGA">     0</i>
   <i type="int" name="NOMEGAR">     0</i>
   <i type="int" name="NBANDSGW">    -1</i>
   <i type="int" name="NBANDSO">    -1</i>
   <i type="int" name="NBANDSV">    -1</i>
   <i type="int" name="NELM">     1</i>
   <i type="int" name="NELMHF">     1</i>
   <i type="int" name="DIM">     3</i>
   <i type="int" name="IESPILON">     4</i>
   <i type="int" name="ANTIRES">     0</i>
   <i name="OMEGAMAX">    -30.00000000</i>
   <i name="OMEGAMIN">    -30.00000000</i>
   <i name="OMEGATL">   -200.00000000</i>
   <i type="int" name="OMEGAGRID">     0</i>
   <i name="CSHIFT">     -0.10000000</i>
   <i type="logical" name="LSELFENERGY"> F  </i>
   <i type="logical" name="LSPECTRAL"> F  </i>
   <i type="logical" name="LSPECTRALGW"> F  </i>
   <i type="logical" name="LSINGLES"> F  </i>
   <i type="logical" name="LFERMIGW"> F  </i>
   <i type="logical" name="ODDONLYGW"> F  </i>
   <i type="logical" name="EVENONLYGW"> F  </i>
   <i type="int" name="NKREDLFX">     1</i>
   <i type="int" name="NKREDLFY">     1</i>
   <i type="int" name="NKREDLFZ">     1</i>
   <i type="int" name="MAXMEM">  2800</i>
   <i type="int" name="TELESCOPE">     0</i>
   <i type="int" name="NTAUPAR">    -1</i>
   <i type="int" name="NOMEGAPAR">    -1</i>
   <i name="LAMBDA">      1.00000000</i>
  </separator>
  <separator name="External order field" >
   <i name="OFIELD_KAPPA">      0.00000000</i>
   <v name="OFIELD_K">      0.00000000      0.00000000      0.00000000</v>
   <i name="OFIELD_Q6_NEAR">      0.00000000</i>
   <i name="OFIELD_Q6_FAR">      0.00000000</i>
   <i name="OFIELD_A">      0.00000000</i>
  </separator>
 </parameters>
 <atominfo>
  <atoms>      13 </atoms>
  <types>       1 </types>
  <array name="atoms" >
   <dimension dim="1">ion</dimension>
   <field type="string">element</field>
   <field type="int">atomtype</field>
   <set>
    <rc><c>Cu</c><c>   1</c></rc>
    <rc><c>Cu</c><c>   1</c></rc>
    <rc><c>Cu</c><c>   1</c></rc>
    <rc><c>Cu</c><c>   1</c></rc>
    <rc><c>Cu</c><c>   1</c></rc>
    <rc><c>Cu</c><c>   1</c></rc>
    <rc><c>Cu</c><c>   1</c></rc>
    <rc><c>Cu</c><c>   1</c></rc>
    <rc><c>Cu</c><c>   1</c></rc>
    <rc><c>Cu</c><c>   1</c></rc>
    <rc><c>Cu</c><c>   1</c></rc>
    <rc><c>Cu</c><c>   1</c></rc>
    <rc><c>Cu</c><c>   1</c></rc>
   </set>
  </array>
  <array name="atomtypes" >
   <dimension dim="1">type</dimension>
   <field type="int">atomspertype</field>
   <field type="string">element</field>
   <field>mass</field>
   <field>valence</field>
   <field type="string">pseudopotential</field>
   <set>
    <rc><c>  13</c><c>Cu</c><c>     63.54600000</c><c>     11.00000000</c><c>  PAW_PBE Cu 22Jun2005                  </c></rc>
   </set>
  </array>
 </atominfo>
 <structure name="initialpos" >
  <crystal>
   <varray name="basis" >
    <v>      20.88929982       0.00000000       0.00000000 </v>
    <v>       0.00000000      22.46149120       0.00000000 </v>
    <v>       0.00000000       0.00000000      25.35364234 </v>
   </varray>
   <i name="volume">  11896.05129058 </i>
   <varray name="rec_basis" >
    <v>       0.04787140       0.00000000       0.00000000 </v>
    <v>       0.00000000       0.04452064       0.00000000 </v>
    <v>       0.00000000       0.00000000       0.03944206 </v>
   </varray>
  </crystal>
  <varray name="positions" >
   <v>       0.43467354       0.50904271       0.53640355 </v>
   <v>       0.61659338       0.45204145       0.52445285 </v>
   <v>       0.49837925       0.56817022       0.60803304 </v>
   <v>       0.50887073       0.44330670       0.49057721 </v>
   <v>       0.46097012       0.61295248       0.52487229 </v>
   <v>       0.59684050       0.40109578       0.44247609 </v>
   <v>       0.48236890       0.54077250       0.45209219 </v>
   <v>       0.38448287       0.58272580       0.59085038 </v>
   <v>       0.52421379       0.46429263       0.58539189 </v>
   <v>       0.42489587       0.49088793       0.63113905 </v>
   <v>       0.55696565       0.54766343       0.52764746 </v>
   <v>       0.59495310       0.50977036       0.44384184 </v>
   <v>       0.51453721       0.45743954       0.39528479 </v>
  </varray>
 </structure>
 <calculation>
  <scstep>
   <time name="dav">    7.61    7.78</time>
   <time name="total">    9.68    9.86</time>
   <energy>
    <i name="alphaZ">     10.38953475 </i>
    <i name="ewald">  24000.17857640 </i>
    <i name="hartreedc"> -40459.70663686 </i>
    <i name="XCdc">    584.87688564 </i>
    <i name="pawpsdc">  15965.26744864 </i>
    <i name="pawaedc"> -17340.97210982 </i>
    <i name="eentropy">     -0.00730077 </i>
    <i name="bandstr">    133.35215863 </i>
    <i name="atom">  18082.44932260 </i>
    <i name="e_fr_energy">    975.82787920 </i>
    <i name="e_wo_entrp">    975.83517997 </i>
    <i name="e_0_energy">    975.83031279 </i>
   </energy>
  </scstep>
  <scstep>
   <time name="dav">    7.17    7.21</time>
   <time name="total">    7.18    7.21</time>
   <energy>
    <i name="e_fr_energy">    235.08475948 </i>
    <i name="e_wo_entrp">    235.05614324 </i>
    <i name="e_0_energy">    235.07522073 </i>
   </energy>
  </scstep>
  <scstep>
   <time name="dav">    9.29    9.33</time>
   <time name="total">    9.29    9.33</time>
   <energy>
    <i name="e_fr_energy">      7.42551622 </i>
    <i name="e_wo_entrp">      7.43842479 </i>
    <i name="e_0_energy">      7.42981907 </i>
   </energy>
  </scstep>
  <scstep>
   <time name="dav">    8.16    8.25</time>
   <time name="total">    8.17    8.25</time>
   <energy>
    <i name="e_fr_energy">    -35.14274249 </i>
    <i name="e_wo_entrp">    -35.19321356 </i>
    <i name="e_0_energy">    -35.15956618 </i>
   </energy>
  </scstep>
  <scstep>
   <time name="dav">    9.81   10.01</time>
   <time name="total">   10.71   10.91</time>
   <energy>
    <i name="e_fr_energy">    -37.23138632 </i>
    <i name="e_wo_entrp">    -37.27440634 </i>
    <i name="e_0_energy">    -37.24572633 </i>
   </energy>
  </scstep>
  <scstep>
   <time name="dav">    7.45    7.54</time>
   <time name="total">   10.41   10.52</time>
   <energy>
    <i name="e_fr_energy">    -14.22045904 </i>
    <i name="e_wo_entrp">    -14.21907387 </i>
    <i name="e_0_energy">    -14.21999732 </i>
   </energy>
  </scstep>
  <scstep>
   <time name="dav">    7.98    7.99</time>
   <time name="total">   11.53   11.54</time>
   <energy>
    <i name="e_fr_energy">    -10.95030802 </i>
    <i name="e_wo_entrp">    -10.92532815 </i>
    <i name="e_0_energy">    -10.94198140 </i>
   </energy>
  </scstep>
  <scstep>
   <time name="dav">    8.02    8.02</time>
   <time name="total">   11.02   11.03</time>
   <energy>
    <i name="e_fr_energy">    -10.52764806 </i>
    <i name="e_wo_entrp">    -10.50285299 </i>
    <i name="e_0_energy">    -10.51938304 </i>
   </energy>
  </scstep>
  <scstep>
   <time name="dav">    8.94    9.03</time>
   <time name="total">   11.94   12.03</time>
   <energy>
    <i name="e_fr_energy">    -11.68015439 </i>
    <i name="e_wo_entrp">    -11.65189665 </i>
    <i name="e_0_energy">    -11.67073514 </i>
   </energy>
  </scstep>
  <scstep>
   <time name="dav">    9.17    9.20</time>
   <time name="total">   12.19   12.23</time>
   <energy>
    <i name="e_fr_energy">    -18.03226810 </i>
    <i name="e_wo_entrp">    -17.98087501 </i>
    <i name="e_0_energy">    -18.01513707 </i>
   </energy>
  </scstep>
  <scstep>
   <time name="dav">    8.73    8.85</time>
   <time name="total">   11.84   12.12</time>
   <energy>
    <i name="e_fr_energy">    -18.86691682 </i>
    <i name="e_wo_entrp">    -18.83868645 </i>
    <i name="e_0_energy">    -18.85750670 </i>
   </energy>
  </scstep>
  <scstep>
   <time name="dav">    8.52    8.52</time>
   <time name="total">   11.53   11.54</time>
   <energy>
    <i name="e_fr_energy">    -19.15440954 </i>
    <i name="e_wo_entrp">    -19.13572648 </i>
    <i name="e_0_energy">    -19.14818185 </i>
   </energy>
  </scstep>
  <scstep>
   <time name="dav">    8.60    8.82</time>
   <time name="total">   11.62   11.85</time>
   <energy>
    <i name="e_fr_energy">    -22.68838337 </i>
    <i name="e_wo_entrp">    -22.72352152 </i>
    <i name="e_0_energy">    -22.70009609 </i>
   </energy>
  </scstep>
  <scstep>
   <time name="dav">    9.17    9.23</time>
   <time name="total">   12.73   12.80</time>
   <energy>
    <i name="e_fr_energy">    -26.11475018 </i>
    <i name="e_wo_entrp">    -26.14528597 </i>
    <i name="e_0_energy">    -26.12492877 </i>
   </energy>
  </scstep>
  <scstep>
   <time name="dav">    9.44    9.56</time>
   <time name="total">   12.45   12.60</time>
   <energy>
    <i name="e_fr_energy">    -28.26511603 </i>
    <i name="e_wo_entrp">    -28.29702968 </i>
    <i name="e_0_energy">    -28.27575391 </i>
   </energy>
  </scstep>
  <scstep>
   <time name="dav">    8.59    8.64</time>
   <time name="total">   11.86   12.13</time>
   <energy>
    <i name="e_fr_energy">    -29.73962209 </i>
    <i name="e_wo_entrp">    -29.77126601 </i>
    <i name="e_0_energy">    -29.75017006 </i>
   </energy>
  </scstep>
  <scstep>
   <time name="dav">    8.83    8.96</time>
   <time name="total">   12.09   12.24</time>
   <energy>
    <i name="e_fr_energy">    -31.10921903 </i>
    <i name="e_wo_entrp">    -31.12733120 </i>
    <i name="e_0_energy">    -31.11525642 </i>
   </energy>
  </scstep>
  <scstep>
   <time name="dav">    9.13    9.30</time>
   <time name="total">   12.19   12.39</time>
   <energy>
    <i name="e_fr_energy">    -31.77254367 </i>
    <i name="e_wo_entrp">    -31.77364768 </i>
    <i name="e_0_energy">    -31.77291167 </i>
   </energy>
  </scstep>
  <scstep>
   <time name="dav">    9.51    9.56</time>
   <time name="total">   12.57   12.63</time>
   <energy>
    <i name="e_fr_energy">    -32.04957061 </i>
    <i name="e_wo_entrp">    -32.04178064 </i>
    <i name="e_0_energy">    -32.04697395 </i>
   </energy>
  </scstep>
  <scstep>
   <time name="dav">    9.52    9.83</time>
   <time name="total">   12.69   13.01</time>
   <energy>
    <i name="e_fr_energy">    -32.46675002 </i>
    <i name="e_wo_entrp">    -32.44577583 </i>
    <i name="e_0_energy">    -32.45975863 </i>
   </energy>
  </scstep>
  <scstep>
   <time name="dav">    9.54    9.72</time>
   <time name="total">   12.65   12.84</time>
   <energy>
    <i name="e_fr_energy">    -32.72587333 </i>
    <i name="e_wo_entrp">    -32.69877358 </i>
    <i name="e_0_energy">    -32.71684008 </i>
   </energy>
  </scstep>
  <scstep>
   <time name="dav">    9.30    9.47</time>
   <time name="total">   12.48   12.69</time>
   <energy>
    <i name="e_fr_energy">    -32.82439854 </i>
    <i name="e_wo_entrp">    -32.79414934 </i>
    <i name="e_0_energy">    -32.81431548 </i>
   </energy>
  </scstep>
  <scstep>
   <time name="dav">    8.36    8.50</time>
   <time name="total">   11.76   11.96</time>
   <energy>
    <i name="e_fr_energy">    -32.87290602 </i>
    <i name="e_wo_entrp">    -32.84060479 </i>
    <i name="e_0_energy">    -32.86213894 </i>
   </energy>
  </scstep>
  <scstep>
   <time name="dav">    8.41    8.45</time>
   <time name="total">   11.49   11.58</time>
   <energy>
    <i name="e_fr_energy">    -32.91646955 </i>
    <i name="e_wo_entrp">    -32.88230140 </i>
    <i name="e_0_energy">    -32.90508017 </i>
   </energy>
  </scstep>
  <scstep>
   <time name="dav">    6.83    6.84</time>
   <time name="total">    9.95    9.99</time>
   <energy>
    <i name="e_fr_energy">    -32.93887436 </i>
    <i name="e_wo_entrp">    -32.90376818 </i>
    <i name="e_0_energy">    -32.92717230 </i>
   </energy>
  </scstep>
  <scstep>
   <time name="dav">    7.83    8.05</time>
   <time name="total">   10.99   11.23</time>
   <energy>
    <i name="e_fr_energy">    -32.95391632 </i>
    <i name="e_wo_entrp">    -32.91813933 </i>
    <i name="e_0_energy">    -32.94199066 </i>
   </energy>
  </scstep>
  <scstep>
   <time name="dav">    6.25    6.33</time>
   <time name="total">    9.40    9.53</time>
   <energy>
    <i name="e_fr_energy">    -32.96244804 </i>
    <i name="e_wo_entrp">    -32.92617257 </i>
    <i name="e_0_energy">    -32.95035621 </i>
   </energy>
  </scstep>
  <scstep>
   <time name="dav">    6.15    6.26</time>
   <time name="total">    9.32    9.47</time>
   <energy>
    <i name="e_fr_energy">    -32.96560128 </i>
    <i name="e_wo_entrp">    -32.92910877 </i>
    <i name="e_0_energy">    -32.95343711 </i>
   </energy>
  </scstep>
  <scstep>
   <time name="dav">    5.73    5.74</time>
   <time name="total">    8.89    8.95</time>
   <energy>
    <i name="e_fr_energy">    -32.96798494 </i>
    <i name="e_wo_entrp">    -32.93132817 </i>
    <i name="e_0_energy">    -32.95576602 </i>
   </energy>
  </scstep>
  <scstep>
   <time name="dav">    6.95    7.06</time>
   <time name="total">   10.16   10.30</time>
   <energy>
    <i name="e_fr_energy">    -32.97032357 </i>
    <i name="e_wo_entrp">    -32.93355993 </i>
    <i name="e_0_energy">    -32.95806902 </i>
   </energy>
  </scstep>
  <scstep>
   <time name="dav">    6.09    6.15</time>
   <time name="total">    9.30    9.40</time>
   <energy>
    <i name="e_fr_energy">    -32.97165964 </i>
    <i name="e_wo_entrp">    -32.93485654 </i>
    <i name="e_0_energy">    -32.95939194 </i>
   </energy>
  </scstep>
  <scstep>
   <time name="dav">    5.50    5.59</time>
   <time name="total">    9.14    9.29</time>
   <energy>
    <i name="e_fr_energy">    -32.97229943 </i>
    <i name="e_wo_entrp">    -32.93547302 </i>
    <i name="e_0_energy">    -32.96002396 </i>
   </energy>
  </scstep>
  <scstep>
   <time name="dav">    5.74    5.79</time>
   <time name="total">    9.03    9.10</time>
   <energy>
    <i name="e_fr_energy">    -32.97279438 </i>
    <i name="e_wo_entrp">    -32.93594163 </i>
    <i name="e_0_energy">    -32.96051013 </i>
   </energy>
  </scstep>
  <scstep>
   <time name="dav">    5.57    5.66</time>
   <time name="total">    8.90    9.03</time>
   <energy>
    <i name="e_fr_energy">    -32.97309885 </i>
    <i name="e_wo_entrp">    -32.93622585 </i>
    <i name="e_0_energy">    -32.96080785 </i>
   </energy>
  </scstep>
  <scstep>
   <time name="dav">    6.74    6.90</time>
   <time name="total">   10.10   10.29</time>
   <energy>
    <i name="e_fr_energy">    -32.97324685 </i>
    <i name="e_wo_entrp">    -32.93636429 </i>
    <i name="e_0_energy">    -32.96095266 </i>
   </energy>
  </scstep>
  <scstep>
   <time name="dav">    5.42    5.43</time>
   <time name="total">    9.16    9.20</time>
   <energy>
    <i name="e_fr_energy">    -32.97341112 </i>
    <i name="e_wo_entrp">    -32.93652026 </i>
    <i name="e_0_energy">    -32.96111417 </i>
   </energy>
  </scstep>
  <scstep>
   <time name="dav">    5.57    5.58</time>
   <time name="total">    8.92    8.95</time>
   <energy>
    <i name="e_fr_energy">    -32.97361304 </i>
    <i name="e_wo_entrp">    -32.93671025 </i>
    <i name="e_0_energy">    -32.96131211 </i>
   </energy>
  </scstep>
  <scstep>
   <time name="dav">    5.47    5.48</time>
   <time name="total">    8.93    8.95</time>
   <energy>
    <i name="e_fr_energy">    -32.97378407 </i>
    <i name="e_wo_entrp">    -32.93687475 </i>
    <i name="e_0_energy">    -32.96148096 </i>
   </energy>
  </scstep>
  <scstep>
   <time name="dav">    5.55    5.56</time>
   <time name="total">    8.92    8.95</time>
   <energy>
    <i name="e_fr_energy">    -32.97390259 </i>
    <i name="e_wo_entrp">    -32.93698978 </i>
    <i name="e_0_energy">    -32.96159832 </i>
   </energy>
  </scstep>
  <scstep>
   <time name="dav">    6.49    6.60</time>
   <time name="total">    8.58    8.69</time>
   <energy>
    <i name="alphaZ">     10.38953475 </i>
    <i name="ewald">  24000.17857640 </i>
    <i name="hartreedc"> -40416.78052451 </i>
    <i name="XCdc">    574.78778363 </i>
    <i name="pawpsdc">  16760.85416217 </i>
    <i name="pawaedc"> -18155.68303565 </i>
    <i name="eentropy">     -0.03691561 </i>
    <i name="bandstr">   -889.13288069 </i>
    <i name="atom">  18082.44932260 </i>
    <i name="e_fr_energy">    -32.97397692 </i>
    <i name="e_wo_entrp">    -32.93706131 </i>
    <i name="e_0_energy">    -32.96167171 </i>
   </energy>
  </scstep>
  <structure>
   <crystal>
    <varray name="basis" >
     <v>      20.88929982       0.00000000       0.00000000 </v>
     <v>       0.00000000      22.46149120       0.00000000 </v>
     <v>       0.00000000       0.00000000      25.35364234 </v>
    </varray>
    <i name="volume">  11896.05129058 </i>
    <varray name="rec_basis" >
     <v>       0.04787140       0.00000000       0.00000000 </v>
     <v>       0.00000000       0.04452064       0.00000000 </v>
     <v>       0.00000000       0.00000000       0.03944206 </v>
    </varray>
   </crystal>
   <varray name="positions" >
    <v>       0.43467354       0.50904271       0.53640355 </v>
    <v>       0.61659338       0.45204145       0.52445285 </v>
    <v>       0.49837925       0.56817022       0.60803304 </v>
    <v>       0.50887073       0.44330670       0.49057721 </v>
    <v>       0.46097012       0.61295248       0.52487229 </v>
    <v>       0.59684050       0.40109578       0.44247609 </v>
    <v>       0.48236890       0.54077250       0.45209219 </v>
    <v>       0.38448287       0.58272580       0.59085038 </v>
    <v>       0.52421379       0.46429263       0.58539189 </v>
    <v>       0.42489587       0.49088793       0.63113905 </v>
    <v>       0.55696565       0.54766343       0.52764746 </v>
    <v>       0.59495310       0.50977036       0.44384184 </v>
    <v>       0.51453721       0.45743954       0.39528479 </v>
   </varray>
  </structure>
  <varray name="forces" >
   <v>      -0.01436457       0.00904714      -0.01724059 </v>
   <v>      -0.00186405       0.00512966       0.00380188 </v>
   <v>       0.00078095      -0.01318714      -0.00387092 </v>
   <v>       0.02279874      -0.00494459       0.03386329 </v>
   <v>       0.01390521      -0.02918537      -0.02668734 </v>
   <v>      -0.03666893      -0.01748867      -0.01167006 </v>
   <v>       0.01630460      -0.00148415       0.01817811 </v>
   <v>      -0.02619218      -0.02334830       0.01290998 </v>
   <v>       0.01054385       0.00779825      -0.01057600 </v>
   <v>      -0.01584857       0.03041069       0.02449448 </v>
   <v>       0.01883774       0.02508518      -0.00262054 </v>
   <v>      -0.01217566      -0.00400932       0.00804804 </v>
   <v>       0.02394286       0.01617663      -0.02863033 </v>
  </varray>
  <energy>
   <i name="e_fr_energy">    -32.97397692 </i>
   <i name="e_wo_entrp">    -32.93706131 </i>
   <i name="e_0_energy">    -32.96167171 </i>
  </energy>
  <time name="totalsc">  429.92  434.91</time>
 </calculation>
 <calculation>
  <scstep>
   <time name="dav">    7.60    7.62</time>
   <time name="total">   10.94   11.03</time>
   <energy>
    <i name="alphaZ">     10.38953475 </i>
    <i name="ewald">  24000.60036088 </i>
    <i name="hartreedc"> -40417.20127950 </i>
    <i name="XCdc">    574.78848060 </i>
    <i name="pawpsdc">  16760.82790264 </i>
    <i name="pawaedc"> -18155.65483306 </i>
    <i name="eentropy">     -0.03696231 </i>
    <i name="bandstr">   -889.13682392 </i>
    <i name="atom">  18082.44932260 </i>
    <i name="e_fr_energy">    -32.97429733 </i>
    <i name="e_wo_entrp">    -32.93733502 </i>
    <i name="e_0_energy">    -32.96197656 </i>
   </energy>
  </scstep>
  <scstep>
   <time name="dav">    9.26    9.33</time>
   <time name="total">   12.25   12.33</time>
   <energy>
    <i name="e_fr_energy">    -32.97458171 </i>
    <i name="e_wo_entrp">    -32.93760557 </i>
    <i name="e_0_energy">    -32.96225633 </i>
   </energy>
  </scstep>
  <scstep>
   <time name="dav">    5.48    5.50</time>
   <time name="total">    7.59    7.62</time>
   <energy>
    <i name="alphaZ">     10.38953475 </i>
    <i name="ewald">  24000.60036088 </i>
    <i name="hartreedc"> -40417.17835152 </i>
    <i name="XCdc">    574.78746956 </i>
    <i name="pawpsdc">  16760.86111635 </i>
    <i name="pawaedc"> -18155.67792076 </i>
    <i name="eentropy">     -0.03696364 </i>
    <i name="bandstr">   -889.16915266 </i>
    <i name="atom">  18082.44932260 </i>
    <i name="e_fr_energy">    -32.97458445 </i>
    <i name="e_wo_entrp">    -32.93762081 </i>
    <i name="e_0_energy">    -32.96226324 </i>
   </energy>
  </scstep>
  <structure>
   <crystal>
    <varray name="basis" >
     <v>      20.88929982       0.00000000       0.00000000 </v>
     <v>       0.00000000      22.46149120       0.00000000 </v>
     <v>       0.00000000       0.00000000      25.35364234 </v>
    </varray>
    <i name="volume">  11896.05129058 </i>
    <varray name="rec_basis" >
     <v>       0.04787140       0.00000000       0.00000000 </v>
     <v>       0.00000000       0.04452064       0.00000000 </v>
     <v>       0.00000000       0.00000000       0.03944206 </v>
    </varray>
   </crystal>
   <varray name="positions" >
    <v>       0.43464037       0.50906214       0.53637075 </v>
    <v>       0.61658908       0.45205247       0.52446008 </v>
    <v>       0.49838106       0.56814190       0.60802568 </v>
    <v>       0.50892338       0.44329608       0.49064164 </v>
    <v>       0.46100223       0.61288979       0.52482151 </v>
    <v>       0.59675581       0.40105822       0.44245389 </v>
    <v>       0.48240655       0.54076931       0.45212678 </v>
    <v>       0.38442238       0.58267565       0.59087494 </v>
    <v>       0.52423815       0.46430938       0.58537176 </v>
    <v>       0.42485927       0.49095324       0.63118566 </v>
    <v>       0.55700915       0.54771731       0.52764247 </v>
    <v>       0.59492498       0.50976174       0.44385715 </v>
    <v>       0.51459251       0.45747428       0.39523032 </v>
   </varray>
  </structure>
  <varray name="forces" >
   <v>      -0.01022075      -0.00068799      -0.00357591 </v>
   <v>       0.00518403       0.00202475      -0.00012671 </v>
   <v>      -0.00244925      -0.00577155      -0.00543805 </v>
   <v>       0.00926769      -0.00147526       0.01305521 </v>
   <v>       0.00263875      -0.01522968      -0.01060240 </v>
   <v>      -0.02410030      -0.01176733      -0.00590244 </v>
   <v>       0.01121973      -0.00574860       0.00481801 </v>
   <v>      -0.01365707      -0.01196272       0.00298131 </v>
   <v>       0.00023769       0.00903898      -0.00188240 </v>
   <v>      -0.00625739       0.01611189       0.01252618 </v>
   <v>       0.01734974       0.01740395       0.00227475 </v>
   <v>      -0.00300907      -0.00500338       0.00553321 </v>
   <v>       0.01379621       0.01306694      -0.01366076 </v>
  </varray>
  <energy>
   <i name="e_fr_energy">    -32.97458445 </i>
   <i name="e_wo_entrp">    -32.93762081 </i>
   <i name="e_0_energy">    -32.96226324 </i>
  </energy>
  <time name="totalsc">   38.72   39.05</time>
 </calculation>
 <calculation>
  <scstep>
   <time name="dav">    7.82    7.85</time>
   <time name="total">   10.78   10.86</time>
   <energy>
    <i name="alphaZ">     10.38953475 </i>
    <i name="ewald">  24001.03819537 </i>
    <i name="hartreedc"> -40417.63315704 </i>
    <i name="XCdc">    574.78889602 </i>
    <i name="pawpsdc">  16760.87469315 </i>
    <i name="pawaedc"> -18155.69593689 </i>
    <i name="eentropy">     -0.03701021 </i>
    <i name="bandstr">   -889.14925608 </i>
    <i name="atom">  18082.44932260 </i>
    <i name="e_fr_energy">    -32.97471835 </i>
    <i name="e_wo_entrp">    -32.93770814 </i>
    <i name="e_0_energy">    -32.96238161 </i>
   </energy>
  </scstep>
  <scstep>
   <time name="dav">    9.55    9.58</time>
   <time name="total">   12.52   12.58</time>
   <energy>
    <i name="e_fr_energy">    -32.97502308 </i>
    <i name="e_wo_entrp">    -32.93800106 </i>
    <i name="e_0_energy">    -32.96268241 </i>
   </energy>
  </scstep>
  <scstep>
   <time name="dav">    5.40    5.41</time>
   <time name="total">    7.51    7.53</time>
   <energy>
    <i name="alphaZ">     10.38953475 </i>
    <i name="ewald">  24001.03819537 </i>
    <i name="hartreedc"> -40417.60338904 </i>
    <i name="XCdc">    574.78785408 </i>
    <i name="pawpsdc">  16760.93244309 </i>
    <i name="pawaedc"> -18155.74975181 </i>
    <i name="eentropy">     -0.03701290 </i>
    <i name="bandstr">   -889.18221026 </i>
    <i name="atom">  18082.44932260 </i>
    <i name="e_fr_energy">    -32.97501413 </i>
    <i name="e_wo_entrp">    -32.93800123 </i>
    <i name="e_0_energy">    -32.96267650 </i>
   </energy>
  </scstep>
  <structure>
   <crystal>
    <varray name="basis" >
     <v>      20.88929982       0.00000000       0.00000000 </v>
     <v>       0.00000000      22.46149120       0.00000000 </v>
     <v>       0.00000000       0.00000000      25.35364234 </v>
    </varray>
    <i name="volume">  11896.05129058 </i>
    <varray name="rec_basis" >
     <v>       0.04787140       0.00000000       0.00000000 </v>
     <v>       0.00000000       0.04452064       0.00000000 </v>
     <v>       0.00000000       0.00000000       0.03944206 </v>
    </varray>
   </crystal>
   <varray name="positions" >
    <v>       0.43460591       0.50908233       0.53633667 </v>
    <v>       0.61658461       0.45206392       0.52446760 </v>
    <v>       0.49838293       0.56811248       0.60801803 </v>
    <v>       0.50897807       0.44328505       0.49070858 </v>
    <v>       0.46103559       0.61282468       0.52476877 </v>
    <v>       0.59666785       0.40101920       0.44243082 </v>
    <v>       0.48244566       0.54076600       0.45216271 </v>
    <v>       0.38435955       0.58262356       0.59090046 </v>
    <v>       0.52426344       0.46432678       0.58535086 </v>
    <v>       0.42482125       0.49102109       0.63123407 </v>
    <v>       0.55705434       0.54777327       0.52763729 </v>
    <v>       0.59489578       0.50975280       0.44387306 </v>
    <v>       0.51464994       0.45751037       0.39517373 </v>
   </varray>
  </structure>
  <varray name="forces" >
   <v>      -0.00883038      -0.00819899       0.00635518 </v>
   <v>       0.01146903       0.00024340      -0.00259555 </v>
   <v>      -0.00563767      -0.00231162      -0.00815933 </v>
   <v>       0.00104933       0.00062281       0.00070634 </v>
   <v>      -0.00513756      -0.00813777      -0.00054085 </v>
   <v>      -0.02015804      -0.01016767      -0.00292432 </v>
   <v>       0.00923540      -0.00969793      -0.00464689 </v>
   <v>      -0.00764517      -0.00676851      -0.00362588 </v>
   <v>      -0.00720766       0.01204852       0.00426883 </v>
   <v>      -0.00040094       0.00955974       0.00600449 </v>
   <v>       0.01992730       0.01557848       0.00641382 </v>
   <v>       0.00344324      -0.00642379       0.00473219 </v>
   <v>       0.00989312       0.01365333      -0.00598802 </v>
  </varray>
  <energy>
   <i name="e_fr_energy">    -32.97501413 </i>
   <i name="e_wo_entrp">    -32.93800123 </i>
   <i name="e_0_energy">    -32.96267650 </i>
  </energy>
  <time name="totalsc">   38.25   38.48</time>
  <eigenvalues>
   <array>
    <dimension dim="1">band</dimension>
    <dimension dim="2">kpoint</dimension>
    <dimension dim="3">spin</dimension>
    <field>eigene</field>
    <field>occ</field>
    <set>
     <set comment="spin 1">
      <set comment="kpoint 1">
       <r>  -10.5293    1.0000 </r>
       <r>   -9.3326    1.0000 </r>
       <r>   -8.2934    1.0000 </r>
       <r>   -8.2290    1.0000 </r>
       <r>   -7.9362    1.0000 </r>
       <r>   -7.7452    1.0000 </r>
       <r>   -7.6369    1.0000 </r>
       <r>   -7.5312    1.0000 </r>
       <r>   -7.5168    1.0000 </r>
       <r>   -7.2262    1.0000 </r>
       <r>   -7.2247    1.0000 </r>
       <r>   -7.1701    1.0000 </r>
       <r>   -7.0359    1.0000 </r>
       <r>   -6.9983    1.0000 </r>
       <r>   -6.9380    1.0000 </r>
       <r>   -6.8738    1.0000 </r>
       <r>   -6.8579    1.0000 </r>
       <r>   -6.8351    1.0000 </r>
       <r>   -6.8044    1.0000 </r>
       <r>   -6.7413    1.0000 </r>
       <r>   -6.7404    1.0000 </r>
       <r>   -6.6613    1.0000 </r>
       <r>   -6.6413    1.0000 </r>
       <r>   -6.5762    1.0000 </r>
       <r>   -6.5178    1.0000 </r>
       <r>   -6.5160    1.0000 </r>
       <r>   -6.4369    1.0000 </r>
       <r>   -6.2762    1.0000 </r>
       <r>   -6.2000    1.0000 </r>
       <r>   -6.1790    1.0000 </r>
       <r>   -6.0783    1.0000 </r>
       <r>   -6.0744    1.0000 </r>
       <r>   -6.0426    1.0000 </r>
       <r>   -5.9952    1.0000 </r>
       <r>   -5.9833    1.0000 </r>
       <r>   -5.9212    1.0000 </r>
       <r>   -5.8457    1.0000 </r>
       <r>   -5.8340    1.0000 </r>
       <r>   -5.8096    1.0000 </r>
       <r>   -5.7845    1.0000 </r>
       <r>   -5.7586    1.0000 </r>
       <r>   -5.7548    1.0000 </r>
       <r>   -5.7480    1.0000 </r>
       <r>   -5.7307    1.0000 </r>
       <r>   -5.6944    1.0000 </r>
       <r>   -5.6660    1.0000 </r>
       <r>   -5.6591    1.0000 </r>
       <r>   -5.6123    1.0000 </r>
       <r>   -5.5887    1.0000 </r>
       <r>   -5.5582    1.0000 </r>
       <r>   -5.5380    1.0000 </r>
       <r>   -5.5090    1.0000 </r>
       <r>   -5.5031    1.0000 </r>
       <r>   -5.4772    1.0000 </r>
       <r>   -5.4617    1.0000 </r>
       <r>   -5.3970    1.0000 </r>
       <r>   -5.3812    1.0000 </r>
       <r>   -5.3774    1.0000 </r>
       <r>   -5.3288    1.0000 </r>
       <r>   -5.3245    1.0000 </r>
       <r>   -5.3136    1.0000 </r>
       <r>   -5.2730    1.0000 </r>
       <r>   -5.2560    1.0000 </r>
       <r>   -5.2342    1.0000 </r>
       <r>   -5.2149    1.0000 </r>
       <r>   -5.2128    1.0000 </r>
       <r>   -5.1592    1.0000 </r>
       <r>   -5.1428    1.0000 </r>
       <r>   -5.0176    1.0000 </r>
       <r>   -4.7740    1.0000 </r>
       <r>   -4.3417    1.0250 </r>
       <r>   -4.0250    0.4781 </r>
       <r>   -3.3547   -0.0000 </r>
       <r>   -3.2046   -0.0000 </r>
       <r>   -2.7985   -0.0000 </r>
       <r>   -2.5165   -0.0000 </r>
       <r>   -2.3467   -0.0000 </r>
       <r>   -1.9693   -0.0000 </r>
       <r>   -1.7638   -0.0000 </r>
       <r>   -1.4930   -0.0000 </r>
       <r>   -1.2080   -0.0000 </r>
       <r>   -1.1019   -0.0000 </r>
       <r>   -0.8535   -0.0000 </r>
       <r>   -0.8240   -0.0000 </r>
       <r>   -0.3713   -0.0000 </r>
       <r>   -0.2816   -0.0000 </r>
       <r>   -0.0574   -0.0000 </r>
       <r>    0.0817   -0.0000 </r>
       <r>    0.2552   -0.0000 </r>
       <r>    0.2934   -0.0000 </r>
       <r>    0.3110   -0.0000 </r>
       <r>    0.3813   -0.0000 </r>
      </set>
     </set>
     <set comment="spin 2">
      <set comment="kpoint 1">
       <r>  -10.5290    1.0000 </r>
       <r>   -9.3323    1.0000 </r>
       <r>   -8.2933    1.0000 </r>
       <r>   -8.2288    1.0000 </r>
       <r>   -7.9359    1.0000 </r>
       <r>   -7.7450    1.0000 </r>
       <r>   -7.6366    1.0000 </r>
       <r>   -7.5311    1.0000 </r>
       <r>   -7.5166    1.0000 </r>
       <r>   -7.2260    1.0000 </r>
       <r>   -7.2245    1.0000 </r>
       <r>   -7.1699    1.0000 </r>
       <r>   -7.0357    1.0000 </r>
       <r>   -6.9981    1.0000 </r>
       <r>   -6.9379    1.0000 </r>
       <r>   -6.8737    1.0000 </r>
       <r>   -6.8577    1.0000 </r>
       <r>   -6.8348    1.0000 </r>
       <r>   -6.8042    1.0000 </r>
       <r>   -6.7411    1.0000 </r>
       <r>   -6.7402    1.0000 </r>
       <r>   -6.6611    1.0000 </r>
       <r>   -6.6411    1.0000 </r>
       <r>   -6.5760    1.0000 </r>
       <r>   -6.5175    1.0000 </r>
       <r>   -6.5157    1.0000 </r>
       <r>   -6.4367    1.0000 </r>
       <r>   -6.2760    1.0000 </r>
       <r>   -6.1998    1.0000 </r>
       <r>   -6.1788    1.0000 </r>
       <r>   -6.0781    1.0000 </r>
       <r>   -6.0742    1.0000 </r>
       <r>   -6.0424    1.0000 </r>
       <r>   -5.9950    1.0000 </r>
       <r>   -5.9831    1.0000 </r>
       <r>   -5.9210    1.0000 </r>
       <r>   -5.8455    1.0000 </r>
       <r>   -5.8338    1.0000 </r>
       <r>   -5.8094    1.0000 </r>
       <r>   -5.7844    1.0000 </r>
       <r>   -5.7585    1.0000 </r>
       <r>   -5.7546    1.0000 </r>
       <r>   -5.7478    1.0000 </r>
       <r>   -5.7305    1.0000 </r>
       <r>   -5.6943    1.0000 </r>
       <r>   -5.6658    1.0000 </r>
       <r>   -5.6590    1.0000 </r>
       <r>   -5.6121    1.0000 </r>
       <r>   -5.5886    1.0000 </r>
       <r>   -5.5580    1.0000 </r>
       <r>   -5.5377    1.0000 </r>
       <r>   -5.5088    1.0000 </r>
       <r>   -5.5029    1.0000 </r>
       <r>   -5.4770    1.0000 </r>
       <r>   -5.4616    1.0000 </r>
       <r>   -5.3967    1.0000 </r>
       <r>   -5.3810    1.0000 </r>
       <r>   -5.3772    1.0000 </r>
       <r>   -5.3285    1.0000 </r>
       <r>   -5.3244    1.0000 </r>
       <r>   -5.3133    1.0000 </r>
       <r>   -5.2728    1.0000 </r>
       <r>   -5.2557    1.0000 </r>
       <r>   -5.2340    1.0000 </r>
       <r>   -5.2148    1.0000 </r>
       <r>   -5.2125    1.0000 </r>
       <r>   -5.1590    1.0000 </r>
       <r>   -5.1426    1.0000 </r>
       <r>   -5.0170    1.0000 </r>
       <r>   -4.7736    1.0000 </r>
       <r>   -4.3413    1.0251 </r>
       <r>   -4.0235    0.4718 </r>
       <r>   -3.3543   -0.0000 </r>
       <r>   -3.2044   -0.0000 </r>
       <r>   -2.7979   -0.0000 </r>
       <r>   -2.5162   -0.0000 </r>
       <r>   -2.3456   -0.0000 </r>
       <r>   -1.9685   -0.0000 </r>
       <r>   -1.7635   -0.0000 </r>
       <r>   -1.4920   -0.0000 </r>
       <r>   -1.2068   -0.0000 </r>
       <r>   -1.1001   -0.0000 </r>
       <r>   -0.8546   -0.0000 </r>
       <r>   -0.8236   -0.0000 </r>
       <r>   -0.3710   -0.0000 </r>
       <r>   -0.2812   -0.0000 </r>
       <r>   -0.0561   -0.0000 </r>
       <r>    0.0489   -0.0000 </r>
       <r>    0.2277   -0.0000 </r>
       <r>    0.2719   -0.0000 </r>
       <r>    0.2871   -0.0000 </r>
       <r>    0.3429   -0.0000 </r>
      </set>
     </set>
    </set>
   </array>
  </eigenvalues>
  <separator name="orbital magnetization" >
   <v name="MAGDIPOLOUT">      0.00000000      0.00000000      0.00000000</v>
  </separator>
  <dos>
   <i name="efermi">     -4.03018027 </i>
   <total>
    <array>
     <dimension dim="1">gridpoints</dimension>
     <dimension dim="2">spin</dimension>
     <field>energy</field>
     <field>total</field>
     <field>integrated</field>
     <set>
      <set comment="spin 1">
       <r>   -12.5293     0.0000     0.0000 </r>
       <r>   -12.4796     0.0000     0.0000 </r>
       <r>   -12.4299     0.0000     0.0000 </r>
       <r>   -12.3802     0.0000     0.0000 </r>
       <r>   -12.3305     0.0000     0.0000 </r>
       <r>   -12.2808     0.0000     0.0000 </r>
       <r>   -12.2311     0.0000     0.0000 </r>
       <r>   -12.1814     0.0000     0.0000 </r>
       <r>   -12.1317    -0.0000    -0.0000 </r>
       <r>   -12.0820    -0.0000    -0.0000 </r>
       <r>   -12.0322    -0.0000    -0.0000 </r>
       <r>   -11.9825    -0.0000    -0.0000 </r>
       <r>   -11.9328    -0.0000    -0.0000 </r>
       <r>   -11.8831    -0.0000    -0.0000 </r>
       <r>   -11.8334    -0.0000    -0.0000 </r>
       <r>   -11.7837    -0.0000    -0.0000 </r>
       <r>   -11.7340    -0.0000    -0.0000 </r>
       <r>   -11.6843    -0.0000    -0.0000 </r>
       <r>   -11.6346    -0.0000    -0.0000 </r>
       <r>   -11.5849    -0.0000    -0.0000 </r>
       <r>   -11.5352    -0.0000    -0.0000 </r>
       <r>   -11.4855    -0.0000    -0.0000 </r>
       <r>   -11.4358    -0.0000    -0.0000 </r>
       <r>   -11.3861    -0.0000    -0.0000 </r>
       <r>   -11.3364    -0.0000    -0.0000 </r>
       <r>   -11.2867    -0.0000    -0.0000 </r>
       <r>   -11.2370    -0.0001    -0.0000 </r>
       <r>   -11.1873    -0.0003    -0.0000 </r>
       <r>   -11.1376    -0.0011    -0.0001 </r>
       <r>   -11.0879    -0.0042    -0.0003 </r>
       <r>   -11.0382    -0.0133    -0.0009 </r>
       <r>   -10.9885    -0.0361    -0.0027 </r>
       <r>   -10.9388    -0.0823    -0.0068 </r>
       <r>   -10.8891    -0.1535    -0.0145 </r>
       <r>   -10.8394    -0.2190    -0.0253 </r>
       <r>   -10.7897    -0.1867    -0.0346 </r>
       <r>   -10.7400     0.0963    -0.0298 </r>
       <r>   -10.6903     0.7742     0.0086 </r>
       <r>   -10.6406     1.8458     0.1004 </r>
       <r>   -10.5909     3.0594     0.2524 </r>
       <r>   -10.5412     3.9673     0.4496 </r>
       <r>   -10.4915     4.1666     0.6567 </r>
       <r>   -10.4418     3.5628     0.8338 </r>
       <r>   -10.3921     2.4358     0.9548 </r>
       <r>   -10.3424     1.2487     1.0169 </r>
       <r>   -10.2927     0.3675     1.0352 </r>
       <r>   -10.2430    -0.0926     1.0306 </r>
       <r>   -10.1933    -0.2241     1.0194 </r>
       <r>   -10.1436    -0.1896     1.0100 </r>
       <r>   -10.0939    -0.1142     1.0043 </r>
       <r>   -10.0442    -0.0549     1.0016 </r>
       <r>    -9.9945    -0.0222     1.0005 </r>
       <r>    -9.9448    -0.0085     1.0001 </r>
       <r>    -9.8951    -0.0060     0.9998 </r>
       <r>    -9.8454    -0.0128     0.9991 </r>
       <r>    -9.7957    -0.0338     0.9975 </r>
       <r>    -9.7460    -0.0778     0.9936 </r>
       <r>    -9.6963    -0.1476     0.9863 </r>
       <r>    -9.6466    -0.2159     0.9755 </r>
       <r>    -9.5969    -0.1958     0.9658 </r>
       <r>    -9.5472     0.0623     0.9689 </r>
       <r>    -9.4975     0.7075     1.0041 </r>
       <r>    -9.4478     1.7546     1.0913 </r>
       <r>    -9.3981     2.9717     1.2390 </r>
       <r>    -9.3484     3.9195     1.4338 </r>
       <r>    -9.2987     4.1810     1.6416 </r>
       <r>    -9.2490     3.6324     1.8221 </r>
       <r>    -9.1992     2.5294     1.9478 </r>
       <r>    -9.1495     1.3314     2.0140 </r>
       <r>    -9.0998     0.4195     2.0348 </r>
       <r>    -9.0501    -0.0711     2.0313 </r>
       <r>    -9.0004    -0.2220     2.0203 </r>
       <r>    -8.9507    -0.1952     2.0106 </r>
       <r>    -8.9010    -0.1210     2.0046 </r>
       <r>    -8.8513    -0.0635     2.0014 </r>
       <r>    -8.8016    -0.0402     1.9994 </r>
       <r>    -8.7519    -0.0545     1.9967 </r>
       <r>    -8.7022    -0.1133     1.9911 </r>
       <r>    -8.6525    -0.2218     1.9800 </r>
       <r>    -8.6028    -0.3518     1.9626 </r>
       <r>    -8.5531    -0.3910     1.9431 </r>
       <r>    -8.5034    -0.1141     1.9374 </r>
       <r>    -8.4537     0.7578     1.9751 </r>
       <r>    -8.4040     2.3721     2.0930 </r>
       <r>    -8.3543     4.5172     2.3175 </r>
       <r>    -8.3046     6.5601     2.6436 </r>
       <r>    -8.2549     7.7089     3.0267 </r>
       <r>    -8.2052     7.4999     3.3995 </r>
       <r>    -8.1555     6.1499     3.7051 </r>
       <r>    -8.1058     4.4506     3.9263 </r>
       <r>    -8.0561     3.2550     4.0881 </r>
       <r>    -8.0064     2.9599     4.2352 </r>
       <r>    -7.9567     3.3886     4.4036 </r>
       <r>    -7.9070     4.1082     4.6078 </r>
       <r>    -7.8573     4.8483     4.8488 </r>
       <r>    -7.8076     5.6606     5.1301 </r>
       <r>    -7.7579     6.7551     5.4659 </r>
       <r>    -7.7082     8.2199     5.8744 </r>
       <r>    -7.6585     9.8473     6.3639 </r>
       <r>    -7.6088    11.1406     6.9176 </r>
       <r>    -7.5591    11.5028     7.4893 </r>
       <r>    -7.5094    10.5880     8.0155 </r>
       <r>    -7.4597     8.6651     8.4462 </r>
       <r>    -7.4100     6.6774     8.7781 </r>
       <r>    -7.3603     5.7805     9.0654 </r>
       <r>    -7.3106     6.5863     9.3927 </r>
       <r>    -7.2609     8.7135     9.8258 </r>
       <r>    -7.2112    11.0868    10.3768 </r>
       <r>    -7.1615    12.7821    11.0121 </r>
       <r>    -7.1118    13.7045    11.6933 </r>
       <r>    -7.0621    14.5468    12.4163 </r>
       <r>    -7.0124    16.1398    13.2184 </r>
       <r>    -6.9627    18.7823    14.1519 </r>
       <r>    -6.9130    22.0308    15.2469 </r>
       <r>    -6.8633    24.9908    16.4890 </r>
       <r>    -6.8136    26.8379    17.8229 </r>
       <r>    -6.7639    27.2415    19.1768 </r>
       <r>    -6.7142    26.4576    20.4918 </r>
       <r>    -6.6645    25.0470    21.7367 </r>
       <r>    -6.6148    23.4199    22.9007 </r>
       <r>    -6.5651    21.5631    23.9724 </r>
       <r>    -6.5154    19.1834    24.9259 </r>
       <r>    -6.4657    16.1642    25.7293 </r>
       <r>    -6.4160    12.9387    26.3724 </r>
       <r>    -6.3663    10.4219    26.8903 </r>
       <r>    -6.3165     9.5185    27.3634 </r>
       <r>    -6.2668    10.5918    27.8899 </r>
       <r>    -6.2171    13.2906    28.5504 </r>
       <r>    -6.1674    16.7794    29.3844 </r>
       <r>    -6.1177    20.1324    30.3850 </r>
       <r>    -6.0680    22.6932    31.5129 </r>
       <r>    -6.0183    24.3648    32.7239 </r>
       <r>    -5.9686    25.7399    34.0032 </r>
       <r>    -5.9189    27.8329    35.3865 </r>
       <r>    -5.8692    31.3580    36.9451 </r>
       <r>    -5.8195    36.0253    38.7356 </r>
       <r>    -5.7698    40.5447    40.7507 </r>
       <r>    -5.7201    43.4715    42.9113 </r>
       <r>    -5.6704    44.2017    45.1082 </r>
       <r>    -5.6207    43.2697    47.2588 </r>
       <r>    -5.5710    41.8113    49.3369 </r>
       <r>    -5.5213    40.8150    51.3655 </r>
       <r>    -5.4716    40.7652    53.3916 </r>
       <r>    -5.4219    41.6707    55.4627 </r>
       <r>    -5.3722    43.1157    57.6056 </r>
       <r>    -5.3225    44.2180    59.8033 </r>
       <r>    -5.2728    43.7624    61.9784 </r>
       <r>    -5.2231    40.7083    64.0017 </r>
       <r>    -5.1734    34.8289    65.7327 </r>
       <r>    -5.1237    26.9760    67.0735 </r>
       <r>    -5.0740    18.7167    68.0037 </r>
       <r>    -5.0243    11.6009    68.5803 </r>
       <r>    -4.9746     6.5721    68.9070 </r>
       <r>    -4.9249     3.8085    69.0963 </r>
       <r>    -4.8752     2.8892    69.2399 </r>
       <r>    -4.8255     3.0492    69.3914 </r>
       <r>    -4.7758     3.4385    69.5623 </r>
       <r>    -4.7261     3.4057    69.7316 </r>
       <r>    -4.6764     2.7381    69.8677 </r>
       <r>    -4.6267     1.6984    69.9521 </r>
       <r>    -4.5770     0.8135    69.9925 </r>
       <r>    -4.5273     0.5518    70.0199 </r>
       <r>    -4.4776     1.0729    70.0733 </r>
       <r>    -4.4279     2.1440    70.1798 </r>
       <r>    -4.3782     3.2458    70.3411 </r>
       <r>    -4.3285     3.8483    70.5324 </r>
       <r>    -4.2788     3.7384    70.7182 </r>
       <r>    -4.2291     3.1746    70.8760 </r>
       <r>    -4.1794     2.7070    71.0105 </r>
       <r>    -4.1297     2.7587    71.1477 </r>
       <r>    -4.0800     3.2937    71.3114 </r>
       <r>    -4.0303     3.8511    71.5028 </r>
       <r>    -3.9806     3.9109    71.6971 </r>
       <r>    -3.9309     3.2783    71.8601 </r>
       <r>    -3.8812     2.1800    71.9684 </r>
       <r>    -3.8315     1.0457    72.0204 </r>
       <r>    -3.7818     0.2033    72.0305 </r>
       <r>    -3.7321    -0.2652    72.0173 </r>
       <r>    -3.6824    -0.4530    71.9948 </r>
       <r>    -3.6327    -0.4600    71.9719 </r>
       <r>    -3.5830    -0.2722    71.9584 </r>
       <r>    -3.5333     0.2373    71.9702 </r>
       <r>    -3.4836     1.1954    72.0296 </r>
       <r>    -3.4338     2.5856    72.1581 </r>
       <r>    -3.3841     4.1785    72.3658 </r>
       <r>    -3.3344     5.5940    72.6438 </r>
       <r>    -3.2847     6.4507    72.9645 </r>
       <r>    -3.2350     6.5041    73.2877 </r>
       <r>    -3.1853     5.7231    73.5722 </r>
       <r>    -3.1356     4.3124    73.7865 </r>
       <r>    -3.0859     2.6851    73.9200 </r>
       <r>    -3.0362     1.3564    73.9874 </r>
       <r>    -2.9865     0.7584    74.0251 </r>
       <r>    -2.9368     1.0446    74.0770 </r>
       <r>    -2.8871     1.9886    74.1758 </r>
       <r>    -2.8374     3.0695    74.3284 </r>
       <r>    -2.7877     3.7492    74.5147 </r>
       <r>    -2.7380     3.8030    74.7037 </r>
       <r>    -2.6883     3.4622    74.8758 </r>
       <r>    -2.6386     3.2255    75.0361 </r>
       <r>    -2.5889     3.4756    75.2089 </r>
       <r>    -2.5392     4.2184    75.4185 </r>
       <r>    -2.4895     5.1298    75.6735 </r>
       <r>    -2.4398     5.7990    75.9617 </r>
       <r>    -2.3901     5.9289    76.2564 </r>
       <r>    -2.3404     5.4025    76.5249 </r>
       <r>    -2.2907     4.2985    76.7385 </r>
       <r>    -2.2410     2.9105    76.8832 </r>
       <r>    -2.1913     1.7024    76.9678 </r>
       <r>    -2.1416     1.1295    77.0239 </r>
       <r>    -2.0919     1.3972    77.0934 </r>
       <r>    -2.0422     2.3349    77.2094 </r>
       <r>    -1.9925     3.5018    77.3835 </r>
       <r>    -1.9428     4.4598    77.6051 </r>
       <r>    -1.8931     4.9976    77.8535 </r>
       <r>    -1.8434     5.1345    78.1087 </r>
       <r>    -1.7937     4.9628    78.3554 </r>
       <r>    -1.7440     4.5506    78.5816 </r>
       <r>    -1.6943     4.0063    78.7807 </r>
       <r>    -1.6446     3.5496    78.9571 </r>
       <r>    -1.5949     3.3968    79.1259 </r>
       <r>    -1.5452     3.5395    79.3018 </r>
       <r>    -1.4955     3.7012    79.4858 </r>
       <r>    -1.4458     3.5986    79.6647 </r>
       <r>    -1.3961     3.2712    79.8272 </r>
       <r>    -1.3464     3.1204    79.9823 </r>
       <r>    -1.2967     3.5740    80.1600 </r>
       <r>    -1.2470     4.6695    80.3920 </r>
       <r>    -1.1973     5.9405    80.6873 </r>
       <r>    -1.1476     6.7288    81.0217 </r>
       <r>    -1.0979     6.6873    81.3541 </r>
       <r>    -1.0482     6.0805    81.6563 </r>
       <r>    -0.9985     5.6166    81.9355 </r>
       <r>    -0.9488     5.8937    82.2284 </r>
       <r>    -0.8991     6.8720    82.5699 </r>
       <r>    -0.8494     7.8253    82.9589 </r>
       <r>    -0.7997     7.8567    83.3494 </r>
       <r>    -0.7500     6.5672    83.6758 </r>
       <r>    -0.7003     4.3293    83.8909 </r>
       <r>    -0.6506     2.0044    83.9906 </r>
       <r>    -0.6008     0.4245    84.0117 </r>
       <r>    -0.5511     0.0534    84.0143 </r>
       <r>    -0.5014     0.9312    84.0606 </r>
       <r>    -0.4517     2.7428    84.1969 </r>
       <r>    -0.4020     4.8912    84.4400 </r>
       <r>    -0.3523     6.6423    84.7702 </r>
       <r>    -0.3026     7.4189    85.1389 </r>
       <r>    -0.2529     7.1160    85.4926 </r>
       <r>    -0.2032     6.1725    85.7994 </r>
       <r>    -0.1535     5.2774    86.0616 </r>
       <r>    -0.1038     4.9115    86.3058 </r>
       <r>    -0.0541     5.0955    86.5590 </r>
       <r>    -0.0044     5.5414    86.8344 </r>
       <r>     0.0453     6.0508    87.1352 </r>
       <r>     0.0950     6.7936    87.4728 </r>
       <r>     0.1447     8.1916    87.8800 </r>
       <r>     0.1944    10.4505    88.3994 </r>
       <r>     0.2441    13.1178    89.0513 </r>
       <r>     0.2938    15.1073    89.8022 </r>
       <r>     0.3435    15.2956    90.5624 </r>
       <r>     0.3932    13.2713    91.2220 </r>
       <r>     0.4429     9.6328    91.7008 </r>
       <r>     0.4926     5.6050    91.9794 </r>
       <r>     0.5423     2.3184    92.0946 </r>
       <r>     0.5920     0.3011    92.1096 </r>
       <r>     0.6417    -0.5513    92.0822 </r>
       <r>     0.6914    -0.6721    92.0488 </r>
       <r>     0.7411    -0.4930    92.0243 </r>
       <r>     0.7908    -0.2796    92.0104 </r>
       <r>     0.8405    -0.1311    92.0038 </r>
       <r>     0.8902    -0.0523    92.0012 </r>
       <r>     0.9399    -0.0179    92.0004 </r>
       <r>     0.9896    -0.0054    92.0001 </r>
       <r>     1.0393    -0.0014    92.0000 </r>
       <r>     1.0890    -0.0003    92.0000 </r>
       <r>     1.1387    -0.0001    92.0000 </r>
       <r>     1.1884    -0.0000    92.0000 </r>
       <r>     1.2381    -0.0000    92.0000 </r>
       <r>     1.2878    -0.0000    92.0000 </r>
       <r>     1.3375    -0.0000    92.0000 </r>
       <r>     1.3872    -0.0000    92.0000 </r>
       <r>     1.4369    -0.0000    92.0000 </r>
       <r>     1.4866    -0.0000    92.0000 </r>
       <r>     1.5363    -0.0000    92.0000 </r>
       <r>     1.5860    -0.0000    92.0000 </r>
       <r>     1.6357    -0.0000    92.0000 </r>
       <r>     1.6854     0.0000    92.0000 </r>
       <r>     1.7351     0.0000    92.0000 </r>
       <r>     1.7848     0.0000    92.0000 </r>
       <r>     1.8345     0.0000    92.0000 </r>
       <r>     1.8842     0.0000    92.0000 </r>
       <r>     1.9339     0.0000    92.0000 </r>
       <r>     1.9836     0.0000    92.0000 </r>
       <r>     2.0333     0.0000    92.0000 </r>
       <r>     2.0830     0.0000    92.0000 </r>
       <r>     2.1327     0.0000    92.0000 </r>
       <r>     2.1824     0.0000    92.0000 </r>
       <r>     2.2321     0.0000    92.0000 </r>
       <r>     2.2819     0.0000    92.0000 </r>
       <r>     2.3316     0.0000    92.0000 </r>
       <r>     2.3813     0.0000    92.0000 </r>
      </set>
      <set comment="spin 2">
       <r>   -12.5293     0.0000     0.0000 </r>
       <r>   -12.4796     0.0000     0.0000 </r>
       <r>   -12.4299     0.0000     0.0000 </r>
       <r>   -12.3802     0.0000     0.0000 </r>
       <r>   -12.3305     0.0000     0.0000 </r>
       <r>   -12.2808     0.0000     0.0000 </r>
       <r>   -12.2311     0.0000     0.0000 </r>
       <r>   -12.1814     0.0000     0.0000 </r>
       <r>   -12.1317    -0.0000    -0.0000 </r>
       <r>   -12.0820    -0.0000    -0.0000 </r>
       <r>   -12.0322    -0.0000    -0.0000 </r>
       <r>   -11.9825    -0.0000    -0.0000 </r>
       <r>   -11.9328    -0.0000    -0.0000 </r>
       <r>   -11.8831    -0.0000    -0.0000 </r>
       <r>   -11.8334    -0.0000    -0.0000 </r>
       <r>   -11.7837    -0.0000    -0.0000 </r>
       <r>   -11.7340    -0.0000    -0.0000 </r>
       <r>   -11.6843    -0.0000    -0.0000 </r>
       <r>   -11.6346    -0.0000    -0.0000 </r>
       <r>   -11.5849    -0.0000    -0.0000 </r>
       <r>   -11.5352    -0.0000    -0.0000 </r>
       <r>   -11.4855    -0.0000    -0.0000 </r>
       <r>   -11.4358    -0.0000    -0.0000 </r>
       <r>   -11.3861    -0.0000    -0.0000 </r>
       <r>   -11.3364    -0.0000    -0.0000 </r>
       <r>   -11.2867    -0.0000    -0.0000 </r>
       <r>   -11.2370    -0.0001    -0.0000 </r>
       <r>   -11.1873    -0.0003    -0.0000 </r>
       <r>   -11.1376    -0.0011    -0.0001 </r>
       <r>   -11.0879    -0.0042    -0.0003 </r>
       <r>   -11.0382    -0.0133    -0.0009 </r>
       <r>   -10.9885    -0.0359    -0.0027 </r>
       <r>   -10.9388    -0.0820    -0.0068 </r>
       <r>   -10.8891    -0.1531    -0.0144 </r>
       <r>   -10.8394    -0.2188    -0.0253 </r>
       <r>   -10.7897    -0.1875    -0.0346 </r>
       <r>   -10.7400     0.0938    -0.0299 </r>
       <r>   -10.6903     0.7692     0.0083 </r>
       <r>   -10.6406     1.8390     0.0997 </r>
       <r>   -10.5909     3.0529     0.2514 </r>
       <r>   -10.5412     3.9639     0.4484 </r>
       <r>   -10.4915     4.1679     0.6556 </r>
       <r>   -10.4418     3.5681     0.8329 </r>
       <r>   -10.3921     2.4427     0.9543 </r>
       <r>   -10.3424     1.2548     1.0167 </r>
       <r>   -10.2927     0.3712     1.0352 </r>
       <r>   -10.2430    -0.0911     1.0306 </r>
       <r>   -10.1933    -0.2240     1.0195 </r>
       <r>   -10.1436    -0.1900     1.0100 </r>
       <r>   -10.0939    -0.1146     1.0044 </r>
       <r>   -10.0442    -0.0552     1.0016 </r>
       <r>    -9.9945    -0.0223     1.0005 </r>
       <r>    -9.9448    -0.0085     1.0001 </r>
       <r>    -9.8951    -0.0060     0.9998 </r>
       <r>    -9.8454    -0.0128     0.9991 </r>
       <r>    -9.7957    -0.0336     0.9975 </r>
       <r>    -9.7460    -0.0775     0.9936 </r>
       <r>    -9.6963    -0.1471     0.9863 </r>
       <r>    -9.6466    -0.2156     0.9756 </r>
       <r>    -9.5969    -0.1965     0.9658 </r>
       <r>    -9.5472     0.0595     0.9688 </r>
       <r>    -9.4975     0.7020     1.0037 </r>
       <r>    -9.4478     1.7470     1.0905 </r>
       <r>    -9.3981     2.9643     1.2378 </r>
       <r>    -9.3484     3.9153     1.4324 </r>
       <r>    -9.2987     4.1819     1.6403 </r>
       <r>    -9.2490     3.6381     1.8211 </r>
       <r>    -9.1992     2.5372     1.9472 </r>
       <r>    -9.1495     1.3384     2.0137 </r>
       <r>    -9.0998     0.4240     2.0348 </r>
       <r>    -9.0501    -0.0693     2.0314 </r>
       <r>    -9.0004    -0.2218     2.0203 </r>
       <r>    -8.9507    -0.1956     2.0106 </r>
       <r>    -8.9010    -0.1215     2.0046 </r>
       <r>    -8.8513    -0.0637     2.0014 </r>
       <r>    -8.8016    -0.0403     1.9994 </r>
       <r>    -8.7519    -0.0544     1.9967 </r>
       <r>    -8.7022    -0.1131     1.9911 </r>
       <r>    -8.6525    -0.2214     1.9801 </r>
       <r>    -8.6028    -0.3513     1.9626 </r>
       <r>    -8.5531    -0.3910     1.9432 </r>
       <r>    -8.5034    -0.1157     1.9374 </r>
       <r>    -8.4537     0.7538     1.9749 </r>
       <r>    -8.4040     2.3653     2.0925 </r>
       <r>    -8.3543     4.5090     2.3166 </r>
       <r>    -8.3046     6.5531     2.6423 </r>
       <r>    -8.2549     7.7059     3.0253 </r>
       <r>    -8.2052     7.5018     3.3981 </r>
       <r>    -8.1555     6.1545     3.7040 </r>
       <r>    -8.1058     4.4543     3.9254 </r>
       <r>    -8.0561     3.2552     4.0872 </r>
       <r>    -8.0064     2.9568     4.2342 </r>
       <r>    -7.9567     3.3848     4.4024 </r>
       <r>    -7.9070     4.1061     4.6065 </r>
       <r>    -7.8573     4.8479     4.8474 </r>
       <r>    -7.8076     5.6600     5.1287 </r>
       <r>    -7.7579     6.7521     5.4643 </r>
       <r>    -7.7082     8.2143     5.8726 </r>
       <r>    -7.6585     9.8412     6.3617 </r>
       <r>    -7.6088    11.1373     6.9152 </r>
       <r>    -7.5591    11.5049     7.4871 </r>
       <r>    -7.5094    10.5953     8.0137 </r>
       <r>    -7.4597     8.6742     8.4448 </r>
       <r>    -7.4100     6.6832     8.7769 </r>
       <r>    -7.3603     5.7790     9.0642 </r>
       <r>    -7.3106     6.5775     9.3911 </r>
       <r>    -7.2609     8.7014     9.8236 </r>
       <r>    -7.2112    11.0766    10.3741 </r>
       <r>    -7.1615    12.7765    11.0091 </r>
       <r>    -7.1118    13.7021    11.6901 </r>
       <r>    -7.0621    14.5438    12.4130 </r>
       <r>    -7.0124    16.1332    13.2148 </r>
       <r>    -6.9627    18.7716    14.1478 </r>
       <r>    -6.9130    22.0181    15.2421 </r>
       <r>    -6.8633    24.9796    16.4837 </r>
       <r>    -6.8136    26.8310    17.8172 </r>
       <r>    -6.7639    27.2396    19.1711 </r>
       <r>    -6.7142    26.4595    20.4862 </r>
       <r>    -6.6645    25.0509    21.7312 </r>
       <r>    -6.6148    23.4256    22.8955 </r>
       <r>    -6.5651    21.5718    23.9677 </r>
       <r>    -6.5154    19.1965    24.9218 </r>
       <r>    -6.4657    16.1809    25.7260 </r>
       <r>    -6.4160    12.9550    26.3699 </r>
       <r>    -6.3663    10.4328    26.8884 </r>
       <r>    -6.3165     9.5204    27.3616 </r>
       <r>    -6.2668    10.5846    27.8877 </r>
       <r>    -6.2171    13.2773    28.5476 </r>
       <r>    -6.1674    16.7641    29.3808 </r>
       <r>    -6.1177    20.1192    30.3807 </r>
       <r>    -6.0680    22.6845    31.5082 </r>
       <r>    -6.0183    24.3602    32.7189 </r>
       <r>    -5.9686    25.7360    33.9981 </r>
       <r>    -5.9189    27.8255    35.3810 </r>
       <r>    -5.8692    31.3454    36.9390 </r>
       <r>    -5.8195    36.0102    38.7287 </r>
       <r>    -5.7698    40.5326    40.7433 </r>
       <r>    -5.7201    43.4658    42.9036 </r>
       <r>    -5.6704    44.2018    45.1005 </r>
       <r>    -5.6207    43.2716    47.2512 </r>
       <r>    -5.5710    41.8111    49.3293 </r>
       <r>    -5.5213    40.8111    51.3577 </r>
       <r>    -5.4716    40.7578    53.3834 </r>
       <r>    -5.4219    41.6616    55.4540 </r>
       <r>    -5.3722    43.1080    57.5966 </r>
       <r>    -5.3225    44.2163    59.7942 </r>
       <r>    -5.2728    43.7704    61.9697 </r>
       <r>    -5.2231    40.7267    63.9939 </r>
       <r>    -5.1734    34.8543    65.7262 </r>
       <r>    -5.1237    27.0028    67.0683 </r>
       <r>    -5.0740    18.7404    67.9997 </r>
       <r>    -5.0243    11.6199    68.5772 </r>
       <r>    -4.9746     6.5865    68.9046 </r>
       <r>    -4.9249     3.8184    69.0944 </r>
       <r>    -4.8752     2.8948    69.2382 </r>
       <r>    -4.8255     3.0518    69.3899 </r>
       <r>    -4.7758     3.4409    69.5609 </r>
       <r>    -4.7261     3.4104    69.7304 </r>
       <r>    -4.6764     2.7454    69.8669 </r>
       <r>    -4.6267     1.7059    69.9517 </r>
       <r>    -4.5770     0.8178    69.9923 </r>
       <r>    -4.5273     0.5507    70.0197 </r>
       <r>    -4.4776     1.0668    70.0727 </r>
       <r>    -4.4279     2.1362    70.1789 </r>
       <r>    -4.3782     3.2403    70.3399 </r>
       <r>    -4.3285     3.8471    70.5312 </r>
       <r>    -4.2788     3.7381    70.7169 </r>
       <r>    -4.2291     3.1679    70.8744 </r>
       <r>    -4.1794     2.6880    71.0080 </r>
       <r>    -4.1297     2.7288    71.1436 </r>
       <r>    -4.0800     3.2641    71.3058 </r>
       <r>    -4.0303     3.8366    71.4965 </r>
       <r>    -3.9806     3.9202    71.6914 </r>
       <r>    -3.9309     3.3077    71.8558 </r>
       <r>    -3.8812     2.2169    71.9660 </r>
       <r>    -3.8315     1.0768    72.0195 </r>
       <r>    -3.7818     0.2222    72.0305 </r>
       <r>    -3.7321    -0.2576    72.0177 </r>
       <r>    -3.6824    -0.4523    71.9952 </r>
       <r>    -3.6327    -0.4625    71.9722 </r>
       <r>    -3.5830    -0.2768    71.9585 </r>
       <r>    -3.5333     0.2298    71.9699 </r>
       <r>    -3.4836     1.1849    72.0288 </r>
       <r>    -3.4338     2.5736    72.1567 </r>
       <r>    -3.3841     4.1685    72.3639 </r>
       <r>    -3.3344     5.5895    72.6417 </r>
       <r>    -3.2847     6.4530    72.9624 </r>
       <r>    -3.2350     6.5121    73.2861 </r>
       <r>    -3.1853     5.7339    73.5711 </r>
       <r>    -3.1356     4.3230    73.7859 </r>
       <r>    -3.0859     2.6926    73.9198 </r>
       <r>    -3.0362     1.3579    73.9873 </r>
       <r>    -2.9865     0.7523    74.0246 </r>
       <r>    -2.9368     1.0315    74.0759 </r>
       <r>    -2.8871     1.9725    74.1739 </r>
       <r>    -2.8374     3.0571    74.3259 </r>
       <r>    -2.7877     3.7458    74.5121 </r>
       <r>    -2.7380     3.8092    74.7014 </r>
       <r>    -2.6883     3.4728    74.8740 </r>
       <r>    -2.6386     3.2327    75.0347 </r>
       <r>    -2.5889     3.4734    75.2073 </r>
       <r>    -2.5392     4.2051    75.4163 </r>
       <r>    -2.4895     5.1087    75.6702 </r>
       <r>    -2.4398     5.7774    75.9574 </r>
       <r>    -2.3901     5.9157    76.2514 </r>
       <r>    -2.3404     5.4046    76.5200 </r>
       <r>    -2.2907     4.3165    76.7345 </r>
       <r>    -2.2410     2.9366    76.8805 </r>
       <r>    -2.1913     1.7241    76.9662 </r>
       <r>    -2.1416     1.1367    77.0227 </r>
       <r>    -2.0919     1.3880    77.0917 </r>
       <r>    -2.0422     2.3165    77.2068 </r>
       <r>    -1.9925     3.4852    77.3800 </r>
       <r>    -1.9428     4.4536    77.6014 </r>
       <r>    -1.8931     5.0033    77.8500 </r>
       <r>    -1.8434     5.1477    78.1059 </r>
       <r>    -1.7937     4.9770    78.3533 </r>
       <r>    -1.7440     4.5604    78.5799 </r>
       <r>    -1.6943     4.0083    78.7791 </r>
       <r>    -1.6446     3.5427    78.9552 </r>
       <r>    -1.5949     3.3837    79.1234 </r>
       <r>    -1.5452     3.5271    79.2987 </r>
       <r>    -1.4955     3.6965    79.4824 </r>
       <r>    -1.4458     3.6021    79.6614 </r>
       <r>    -1.3961     3.2740    79.8242 </r>
       <r>    -1.3464     3.1090    79.9787 </r>
       <r>    -1.2967     3.5406    80.1547 </r>
       <r>    -1.2470     4.6197    80.3843 </r>
       <r>    -1.1973     5.8933    80.6772 </r>
       <r>    -1.1476     6.7069    81.0105 </r>
       <r>    -1.0979     6.7054    81.3438 </r>
       <r>    -1.0482     6.1368    81.6488 </r>
       <r>    -0.9985     5.6940    81.9318 </r>
       <r>    -0.9488     5.9680    82.2284 </r>
       <r>    -0.8991     6.9231    82.5725 </r>
       <r>    -0.8494     7.8448    82.9624 </r>
       <r>    -0.7997     7.8496    83.3526 </r>
       <r>    -0.7500     6.5464    83.6779 </r>
       <r>    -0.7003     4.3080    83.8920 </r>
       <r>    -0.6506     1.9896    83.9909 </r>
       <r>    -0.6008     0.4164    84.0116 </r>
       <r>    -0.5511     0.0475    84.0140 </r>
       <r>    -0.5014     0.9219    84.0598 </r>
       <r>    -0.4517     2.7252    84.1952 </r>
       <r>    -0.4020     4.8604    84.4368 </r>
       <r>    -0.3523     6.5940    84.7646 </r>
       <r>    -0.3026     7.3542    85.1301 </r>
       <r>    -0.2529     7.0566    85.4808 </r>
       <r>    -0.2032     6.1779    85.7878 </r>
       <r>    -0.1535     5.4403    86.0582 </r>
       <r>    -0.1038     5.3141    86.3224 </r>
       <r>    -0.0541     5.7511    86.6082 </r>
       <r>    -0.0044     6.3878    86.9257 </r>
       <r>     0.0453     7.0312    87.2751 </r>
       <r>     0.0950     7.9415    87.6699 </r>
       <r>     0.1447     9.5806    88.1460 </r>
       <r>     0.1944    11.9951    88.7422 </r>
       <r>     0.2441    14.4255    89.4592 </r>
       <r>     0.2938    15.6065    90.2348 </r>
       <r>     0.3435    14.6048    90.9607 </r>
       <r>     0.3932    11.5050    91.5325 </r>
       <r>     0.4429     7.3671    91.8987 </r>
       <r>     0.4926     3.5359    92.0744 </r>
       <r>     0.5423     0.8972    92.1190 </r>
       <r>     0.5920    -0.4021    92.0990 </r>
       <r>     0.6417    -0.7357    92.0625 </r>
       <r>     0.6914    -0.6036    92.0325 </r>
       <r>     0.7411    -0.3644    92.0144 </r>
       <r>     0.7908    -0.1786    92.0055 </r>
       <r>     0.8405    -0.0737    92.0018 </r>
       <r>     0.8902    -0.0261    92.0005 </r>
       <r>     0.9399    -0.0080    92.0001 </r>
       <r>     0.9896    -0.0021    92.0000 </r>
       <r>     1.0393    -0.0005    92.0000 </r>
       <r>     1.0890    -0.0001    92.0000 </r>
       <r>     1.1387    -0.0000    92.0000 </r>
       <r>     1.1884    -0.0000    92.0000 </r>
       <r>     1.2381    -0.0000    92.0000 </r>
       <r>     1.2878    -0.0000    92.0000 </r>
       <r>     1.3375    -0.0000    92.0000 </r>
       <r>     1.3872    -0.0000    92.0000 </r>
       <r>     1.4369    -0.0000    92.0000 </r>
       <r>     1.4866    -0.0000    92.0000 </r>
       <r>     1.5363    -0.0000    92.0000 </r>
       <r>     1.5860    -0.0000    92.0000 </r>
       <r>     1.6357     0.0000    92.0000 </r>
       <r>     1.6854     0.0000    92.0000 </r>
       <r>     1.7351     0.0000    92.0000 </r>
       <r>     1.7848     0.0000    92.0000 </r>
       <r>     1.8345     0.0000    92.0000 </r>
       <r>     1.8842     0.0000    92.0000 </r>
       <r>     1.9339     0.0000    92.0000 </r>
       <r>     1.9836     0.0000    92.0000 </r>
       <r>     2.0333     0.0000    92.0000 </r>
       <r>     2.0830     0.0000    92.0000 </r>
       <r>     2.1327     0.0000    92.0000 </r>
       <r>     2.1824     0.0000    92.0000 </r>
       <r>     2.2321     0.0000    92.0000 </r>
       <r>     2.2819     0.0000    92.0000 </r>
       <r>     2.3316     0.0000    92.0000 </r>
       <r>     2.3813     0.0000    92.0000 </r>
      </set>
     </set>
    </array>
   </total>
  </dos>
 </calculation>
 <structure name="finalpos" >
  <crystal>
   <varray name="basis" >
    <v>      20.88929982       0.00000000       0.00000000 </v>
    <v>       0.00000000      22.46149120       0.00000000 </v>
    <v>       0.00000000       0.00000000      25.35364234 </v>
   </varray>
   <i name="volume">  11896.05129058 </i>
   <varray name="rec_basis" >
    <v>       0.04787140       0.00000000       0.00000000 </v>
    <v>       0.00000000       0.04452064       0.00000000 </v>
    <v>       0.00000000       0.00000000       0.03944206 </v>
   </varray>
  </crystal>
  <varray name="positions" >
   <v>       0.43460591       0.50908233       0.53633667 </v>
   <v>       0.61658461       0.45206392       0.52446760 </v>
   <v>       0.49838293       0.56811248       0.60801803 </v>
   <v>       0.50897807       0.44328505       0.49070858 </v>
   <v>       0.46103559       0.61282468       0.52476877 </v>
   <v>       0.59666785       0.40101920       0.44243082 </v>
   <v>       0.48244566       0.54076600       0.45216271 </v>
   <v>       0.38435955       0.58262356       0.59090046 </v>
   <v>       0.52426344       0.46432678       0.58535086 </v>
   <v>       0.42482125       0.49102109       0.63123407 </v>
   <v>       0.55705434       0.54777327       0.52763729 </v>
   <v>       0.59489578       0.50975280       0.44387306 </v>
   <v>       0.51464994       0.45751037       0.39517373 </v>
  </varray>
 </structure>
</modeling>
