unknown system                          
            1
    20.889300    0.000000    0.000000
     0.000000   22.461491    0.000000
     0.000000    0.000000   25.353642
   Cu
    13
Direct configuration=     1
   0.43467354  0.50904271  0.53640355
   0.61659338  0.45204145  0.52445285
   0.49837925  0.56817022  0.60803304
   0.50887073  0.44330670  0.49057721
   0.46097012  0.61295248  0.52487229
   0.59684050  0.40109578  0.44247609
   0.48236890  0.54077250  0.45209219
   0.38448287  0.58272580  0.59085038
   0.52421379  0.46429263  0.58539189
   0.42489587  0.49088793  0.63113905
   0.55696565  0.54766343  0.52764746
   0.59495310  0.50977036  0.44384184
   0.51453721  0.45743954  0.39528479
Direct configuration=     2
   0.43464037  0.50906214  0.53637075
   0.61658908  0.45205247  0.52446008
   0.49838106  0.56814190  0.60802568
   0.50892338  0.44329608  0.49064164
   0.46100223  0.61288979  0.52482151
   0.59675581  0.40105822  0.44245389
   0.48240655  0.54076931  0.45212678
   0.38442238  0.58267565  0.59087494
   0.52423815  0.46430938  0.58537176
   0.42485927  0.49095324  0.63118566
   0.55700915  0.54771731  0.52764247
   0.59492498  0.50976174  0.44385715
   0.51459251  0.45747428  0.39523032
Direct configuration=     3
   0.43460591  0.50908233  0.53633667
   0.61658461  0.45206392  0.52446760
   0.49838293  0.56811248  0.60801803
   0.50897807  0.44328505  0.49070858
   0.46103559  0.61282468  0.52476877
   0.59666785  0.40101920  0.44243082
   0.48244566  0.54076600  0.45216271
   0.38435955  0.58262356  0.59090046
   0.52426344  0.46432678  0.58535086
   0.42482125  0.49102109  0.63123407
   0.55705434  0.54777327  0.52763729
   0.59489578  0.50975280  0.44387306
   0.51464994  0.45751037  0.39517373
