  16  16   0   0
  0.8579696E+03  0.2385720E-08  0.2426432E-08  0.2371397E-08  0.5000000E-15
   1.0000000000000000E-004
  CAR 
 unknown system                          
      2.39998216    -11.27277085  301     -4.35806361      1.00000000
    -11.273  0.0000E+00  0.0000E+00  0.0000E+00  0.0000E+00
    -11.227  0.0000E+00  0.0000E+00  0.0000E+00  0.0000E+00
    -11.182  0.0000E+00  0.0000E+00  0.0000E+00  0.0000E+00
    -11.136  0.0000E+00  0.0000E+00  0.0000E+00  0.0000E+00
    -11.090  0.0000E+00  0.0000E+00  0.0000E+00  0.0000E+00
    -11.045  0.0000E+00  0.0000E+00  0.0000E+00  0.0000E+00
    -10.999  0.0000E+00  0.0000E+00  0.0000E+00  0.0000E+00
    -10.954  0.0000E+00  0.0000E+00  0.0000E+00  0.0000E+00
    -10.908 -0.4636E-30  0.0000E+00 -0.2113E-31  0.0000E+00
    -10.863 -0.1731E-28 -0.2071E-30 -0.8101E-30 -0.9438E-32
    -10.817 -0.5960E-27 -0.7915E-29 -0.2797E-28 -0.3702E-30
    -10.771 -0.1847E-25 -0.2788E-27 -0.8699E-27 -0.1308E-28
    -10.726 -0.5154E-24 -0.8841E-26 -0.2436E-25 -0.4160E-27
    -10.680 -0.1294E-22 -0.2524E-24 -0.6142E-24 -0.1192E-25
    -10.635 -0.2925E-21 -0.6484E-23 -0.1395E-22 -0.3074E-24
    -10.589 -0.5949E-20 -0.1499E-21 -0.2851E-21 -0.7141E-23
    -10.544 -0.1089E-18 -0.3120E-20 -0.5247E-20 -0.1494E-21
    -10.498 -0.1792E-17 -0.5843E-19 -0.8692E-19 -0.2812E-20
    -10.452 -0.2532E-16 -0.9841E-18 -0.1241E-17 -0.4767E-19
    -10.407 -0.3423E-15 -0.1491E-16 -0.1684E-16 -0.7272E-18
    -10.361 -0.4087E-14 -0.1971E-15 -0.2031E-15 -0.9708E-17
    -10.316 -0.4383E-13 -0.2406E-14 -0.2201E-14 -0.1193E-15
    -10.270 -0.4221E-12 -0.2642E-13 -0.2144E-13 -0.1323E-14
    -10.225 -0.3650E-11 -0.2605E-12 -0.1878E-12 -0.1320E-13
    -10.179 -0.2831E-10 -0.2306E-11 -0.1478E-11 -0.1183E-12
    -10.133 -0.1969E-09 -0.1831E-10 -0.1045E-10 -0.9529E-12
    -10.088 -0.1227E-08 -0.1304E-09 -0.6639E-10 -0.6898E-11
    -10.042 -0.6846E-08 -0.8326E-09 -0.3784E-09 -0.4485E-10
     -9.997 -0.3414E-07 -0.4758E-08 -0.1934E-08 -0.2617E-09
     -9.951 -0.1520E-06 -0.2431E-07 -0.8861E-08 -0.1370E-08
     -9.905 -0.6028E-06 -0.1110E-06 -0.3634E-07 -0.6427E-08
     -9.860 -0.2125E-05 -0.4514E-06 -0.1332E-06 -0.2700E-07
     -9.814 -0.6629E-05 -0.1633E-05 -0.4353E-06 -0.1014E-06
     -9.769 -0.1822E-04 -0.5233E-05 -0.1266E-05 -0.3399E-06
     -9.723 -0.4375E-04 -0.1479E-04 -0.3260E-05 -0.1014E-05
     -9.678 -0.9056E-04 -0.3661E-04 -0.7387E-05 -0.2682E-05
     -9.632 -0.1577E-03 -0.7838E-04 -0.1457E-04 -0.6255E-05
     -9.586 -0.2184E-03 -0.1421E-03 -0.2453E-04 -0.1273E-04
     -9.541 -0.2016E-03 -0.2085E-03 -0.3372E-04 -0.2224E-04
     -9.495  0.9608E-05 -0.2170E-03 -0.3328E-04 -0.3213E-04
     -9.450  0.5348E-03 -0.5869E-04 -0.8902E-05 -0.3480E-04
     -9.404  0.1410E-02  0.3927E-03  0.5535E-04 -0.1691E-04
     -9.359  0.2499E-02  0.1202E-02  0.1692E-03  0.3787E-04
     -9.313  0.3486E-02  0.2281E-02  0.3281E-03  0.1418E-03
     -9.267  0.3994E-02  0.3356E-02  0.5102E-03  0.2948E-03
     -9.222  0.3781E-02  0.4059E-02  0.6825E-03  0.4798E-03
     -9.176  0.2904E-02  0.4109E-02  0.8148E-03  0.6670E-03
     -9.131  0.1727E-02  0.3466E-02  0.8935E-03  0.8250E-03
     -9.085  0.7946E-03  0.2359E-02  0.9298E-03  0.9325E-03
     -9.040  0.6250E-03  0.1161E-02  0.9582E-03  0.9854E-03
     -8.994  0.1541E-02  0.2174E-03  0.1028E-02  0.9953E-03
     -8.948  0.3567E-02 -0.2488E-03  0.1191E-02  0.9840E-03
     -8.903  0.6406E-02 -0.1433E-03  0.1483E-02  0.9774E-03
     -8.857  0.9517E-02  0.5343E-03  0.1917E-02  0.1002E-02
     -8.812  0.1227E-01  0.1698E-02  0.2476E-02  0.1079E-02
     -8.766  0.1413E-01  0.3173E-02  0.3120E-02  0.1224E-02
     -8.721  0.1479E-01  0.4726E-02  0.3794E-02  0.1439E-02
     -8.675  0.1419E-01  0.6159E-02  0.4441E-02  0.1720E-02
     -8.629  0.1248E-01  0.7392E-02  0.5009E-02  0.2057E-02
     -8.584  0.9926E-02  0.8464E-02  0.5462E-02  0.2443E-02
     -8.538  0.6963E-02  0.9416E-02  0.5779E-02  0.2872E-02
     -8.493  0.4065E-02  0.1018E-01  0.5964E-02  0.3336E-02
     -8.447  0.1661E-02  0.1056E-01  0.6040E-02  0.3817E-02
     -8.401  0.1483E-04  0.1037E-01  0.6041E-02  0.4290E-02
     -8.356 -0.8002E-03  0.9566E-02  0.6004E-02  0.4726E-02
     -8.310 -0.8241E-03  0.8261E-02  0.5967E-02  0.5102E-02
     -8.265 -0.1073E-03  0.6656E-02  0.5962E-02  0.5406E-02
     -8.219  0.1336E-02  0.4920E-02  0.6023E-02  0.5630E-02
     -8.174  0.3496E-02  0.3211E-02  0.6182E-02  0.5776E-02
     -8.128  0.6299E-02  0.1790E-02  0.6469E-02  0.5858E-02
     -8.082  0.9554E-02  0.1084E-02  0.6904E-02  0.5907E-02
     -8.037  0.1293E-01  0.1566E-02  0.7494E-02  0.5979E-02
     -7.991  0.1596E-01  0.3493E-02  0.8221E-02  0.6138E-02
     -7.946  0.1812E-01  0.6642E-02  0.9047E-02  0.6441E-02
     -7.900  0.1894E-01  0.1027E-01  0.9910E-02  0.6909E-02
     -7.855  0.1816E-01  0.1340E-01  0.1074E-01  0.7519E-02
     -7.809  0.1593E-01  0.1528E-01  0.1146E-01  0.8216E-02
     -7.763  0.1283E-01  0.1578E-01  0.1205E-01  0.8935E-02
     -7.718  0.9753E-02  0.1534E-01  0.1249E-01  0.9634E-02
     -7.672  0.7674E-02  0.1456E-01  0.1284E-01  0.1030E-01
     -7.627  0.7254E-02  0.1374E-01  0.1317E-01  0.1092E-01
     -7.581  0.8630E-02  0.1273E-01  0.1357E-01  0.1150E-01
     -7.536  0.1146E-01  0.1127E-01  0.1409E-01  0.1202E-01
     -7.490  0.1524E-01  0.9479E-02  0.1478E-01  0.1245E-01
     -7.444  0.1954E-01  0.7972E-02  0.1568E-01  0.1281E-01
     -7.399  0.2400E-01  0.7618E-02  0.1677E-01  0.1316E-01
     -7.353  0.2799E-01  0.9067E-02  0.1804E-01  0.1357E-01
     -7.308  0.3059E-01  0.1245E-01  0.1944E-01  0.1414E-01
     -7.262  0.3085E-01  0.1736E-01  0.2084E-01  0.1493E-01
     -7.217  0.2840E-01  0.2300E-01  0.2214E-01  0.1598E-01
     -7.171  0.2387E-01  0.2827E-01  0.2323E-01  0.1727E-01
     -7.125  0.1874E-01  0.3196E-01  0.2408E-01  0.1873E-01
     -7.080  0.1466E-01  0.3302E-01  0.2475E-01  0.2023E-01
     -7.034  0.1272E-01  0.3102E-01  0.2533E-01  0.2164E-01
     -6.989  0.1316E-01  0.2644E-01  0.2593E-01  0.2285E-01
     -6.943  0.1530E-01  0.2062E-01  0.2663E-01  0.2379E-01
     -6.897  0.1796E-01  0.1521E-01  0.2744E-01  0.2448E-01
     -6.852  0.1992E-01  0.1157E-01  0.2835E-01  0.2501E-01
     -6.806  0.2041E-01  0.1027E-01  0.2928E-01  0.2548E-01
     -6.761  0.1942E-01  0.1108E-01  0.3017E-01  0.2598E-01
     -6.715  0.1757E-01  0.1322E-01  0.3097E-01  0.2659E-01
     -6.670  0.1581E-01  0.1573E-01  0.3169E-01  0.2730E-01
     -6.624  0.1482E-01  0.1781E-01  0.3236E-01  0.2811E-01
     -6.578  0.1475E-01  0.1898E-01  0.3304E-01  0.2898E-01
     -6.533  0.1527E-01  0.1918E-01  0.3373E-01  0.2985E-01
     -6.487  0.1586E-01  0.1865E-01  0.3446E-01  0.3070E-01
     -6.442  0.1606E-01  0.1772E-01  0.3519E-01  0.3151E-01
     -6.396  0.1557E-01  0.1668E-01  0.3590E-01  0.3227E-01
     -6.351  0.1433E-01  0.1562E-01  0.3655E-01  0.3298E-01
     -6.305  0.1256E-01  0.1455E-01  0.3712E-01  0.3365E-01
     -6.259  0.1077E-01  0.1357E-01  0.3761E-01  0.3426E-01
     -6.214  0.9638E-02  0.1290E-01  0.3805E-01  0.3485E-01
     -6.168  0.9624E-02  0.1283E-01  0.3849E-01  0.3544E-01
     -6.123  0.1077E-01  0.1334E-01  0.3898E-01  0.3604E-01
     -6.077  0.1265E-01  0.1411E-01  0.3956E-01  0.3669E-01
     -6.032  0.1473E-01  0.1462E-01  0.4023E-01  0.3735E-01
     -5.986  0.1667E-01  0.1460E-01  0.4099E-01  0.3802E-01
     -5.940  0.1848E-01  0.1421E-01  0.4183E-01  0.3867E-01
     -5.895  0.2038E-01  0.1393E-01  0.4276E-01  0.3930E-01
     -5.849  0.2237E-01  0.1416E-01  0.4378E-01  0.3995E-01
     -5.804  0.2410E-01  0.1495E-01  0.4488E-01  0.4063E-01
     -5.758  0.2500E-01  0.1607E-01  0.4602E-01  0.4136E-01
     -5.713  0.2469E-01  0.1732E-01  0.4714E-01  0.4215E-01
     -5.667  0.2322E-01  0.1870E-01  0.4820E-01  0.4300E-01
     -5.621  0.2107E-01  0.2035E-01  0.4916E-01  0.4393E-01
     -5.576  0.1885E-01  0.2221E-01  0.5002E-01  0.4494E-01
     -5.530  0.1699E-01  0.2385E-01  0.5079E-01  0.4603E-01
     -5.485  0.1581E-01  0.2465E-01  0.5152E-01  0.4715E-01
     -5.439  0.1565E-01  0.2415E-01  0.5223E-01  0.4825E-01
     -5.393  0.1683E-01  0.2234E-01  0.5300E-01  0.4927E-01
     -5.348  0.1947E-01  0.1966E-01  0.5388E-01  0.5017E-01
     -5.302  0.2325E-01  0.1687E-01  0.5494E-01  0.5094E-01
     -5.257  0.2742E-01  0.1475E-01  0.5619E-01  0.5161E-01
     -5.211  0.3108E-01  0.1397E-01  0.5761E-01  0.5224E-01
     -5.166  0.3354E-01  0.1494E-01  0.5914E-01  0.5293E-01
     -5.120  0.3460E-01  0.1766E-01  0.6071E-01  0.5373E-01
     -5.074  0.3447E-01  0.2174E-01  0.6229E-01  0.5472E-01
     -5.029  0.3360E-01  0.2644E-01  0.6382E-01  0.5593E-01
     -4.983  0.3250E-01  0.3089E-01  0.6530E-01  0.5733E-01
     -4.938  0.3165E-01  0.3429E-01  0.6674E-01  0.5890E-01
     -4.892  0.3156E-01  0.3620E-01  0.6818E-01  0.6055E-01
     -4.847  0.3257E-01  0.3657E-01  0.6966E-01  0.6221E-01
     -4.801  0.3465E-01  0.3572E-01  0.7124E-01  0.6384E-01
     -4.755  0.3714E-01  0.3413E-01  0.7294E-01  0.6540E-01
     -4.710  0.3895E-01  0.3231E-01  0.7471E-01  0.6687E-01
     -4.664  0.3899E-01  0.3072E-01  0.7649E-01  0.6827E-01
     -4.619  0.3672E-01  0.2972E-01  0.7816E-01  0.6962E-01
     -4.573  0.3234E-01  0.2941E-01  0.7964E-01  0.7096E-01
     -4.528  0.2657E-01  0.2955E-01  0.8085E-01  0.7231E-01
     -4.482  0.2029E-01  0.2953E-01  0.8177E-01  0.7366E-01
     -4.436  0.1429E-01  0.2871E-01  0.8242E-01  0.7496E-01
     -4.391  0.9205E-02  0.2664E-01  0.8284E-01  0.7618E-01
     -4.345  0.5502E-02  0.2347E-01  0.8309E-01  0.7725E-01
     -4.300  0.3405E-02  0.1990E-01  0.8325E-01  0.7816E-01
     -4.254  0.2731E-02  0.1696E-01  0.8337E-01  0.7893E-01
     -4.209  0.2904E-02  0.1543E-01  0.8351E-01  0.7963E-01
     -4.163  0.3199E-02  0.1543E-01  0.8365E-01  0.8034E-01
     -4.117  0.3080E-02  0.1625E-01  0.8379E-01  0.8108E-01
     -4.072  0.2416E-02  0.1673E-01  0.8390E-01  0.8184E-01
     -4.026  0.1439E-02  0.1591E-01  0.8397E-01  0.8256E-01
     -3.981  0.5476E-03  0.1351E-01  0.8399E-01  0.8318E-01
     -3.935  0.8708E-04  0.9965E-02  0.8400E-01  0.8363E-01
     -3.889  0.2357E-03  0.6135E-02  0.8401E-01  0.8391E-01
     -3.844  0.9805E-03  0.2864E-02  0.8405E-01  0.8404E-01
     -3.798  0.2145E-02  0.6741E-03  0.8415E-01  0.8407E-01
     -3.753  0.3450E-02 -0.2966E-03  0.8431E-01  0.8406E-01
     -3.707  0.4613E-02 -0.1871E-03  0.8452E-01  0.8405E-01
     -3.662  0.5434E-02  0.7142E-03  0.8476E-01  0.8409E-01
     -3.616  0.5826E-02  0.2056E-02  0.8503E-01  0.8418E-01
     -3.570  0.5772E-02  0.3482E-02  0.8529E-01  0.8434E-01
     -3.525  0.5268E-02  0.4693E-02  0.8553E-01  0.8455E-01
     -3.479  0.4328E-02  0.5506E-02  0.8573E-01  0.8480E-01
     -3.434  0.3047E-02  0.5849E-02  0.8587E-01  0.8507E-01
     -3.388  0.1637E-02  0.5707E-02  0.8594E-01  0.8533E-01
     -3.343  0.4078E-03  0.5076E-02  0.8596E-01  0.8556E-01
     -3.297 -0.2906E-03  0.3993E-02  0.8595E-01  0.8574E-01
     -3.251 -0.1252E-03  0.2611E-02  0.8594E-01  0.8586E-01
     -3.206  0.1139E-02  0.1256E-02  0.8600E-01  0.8592E-01
     -3.160  0.3500E-02  0.3901E-03  0.8615E-01  0.8594E-01
     -3.115  0.6561E-02  0.4885E-03  0.8645E-01  0.8596E-01
     -3.069  0.9526E-02  0.1849E-02  0.8689E-01  0.8604E-01
     -3.024  0.1146E-01  0.4392E-02  0.8741E-01  0.8624E-01
     -2.978  0.1175E-01  0.7540E-02  0.8795E-01  0.8659E-01
     -2.932  0.1046E-01  0.1033E-01  0.8842E-01  0.8706E-01
     -2.887  0.8303E-02  0.1179E-01  0.8880E-01  0.8759E-01
     -2.841  0.6209E-02  0.1144E-01  0.8908E-01  0.8812E-01
     -2.796  0.4799E-02  0.9578E-02  0.8930E-01  0.8855E-01
     -2.750  0.4112E-02  0.7109E-02  0.8949E-01  0.8888E-01
     -2.705  0.3757E-02  0.5029E-02  0.8966E-01  0.8911E-01
     -2.659  0.3290E-02  0.3888E-02  0.8981E-01  0.8928E-01
     -2.613  0.2527E-02  0.3593E-02  0.8993E-01  0.8945E-01
     -2.568  0.1586E-02  0.3619E-02  0.9000E-01  0.8961E-01
     -2.522  0.7204E-03  0.3432E-02  0.9003E-01  0.8977E-01
     -2.477  0.1225E-03  0.2809E-02  0.9004E-01  0.8990E-01
     -2.431 -0.1695E-03  0.1881E-02  0.9003E-01  0.8998E-01
     -2.385 -0.2355E-03  0.9478E-03  0.9002E-01  0.9002E-01
     -2.340 -0.1897E-03  0.2557E-03  0.9001E-01  0.9004E-01
     -2.294 -0.1183E-03 -0.1156E-03  0.9000E-01  0.9003E-01
     -2.249 -0.6271E-04 -0.2293E-03  0.9000E-01  0.9002E-01
     -2.203 -0.3345E-04 -0.2030E-03  0.9000E-01  0.9001E-01
     -2.158 -0.2976E-04 -0.1355E-03  0.9000E-01  0.9001E-01
     -2.112 -0.5365E-04 -0.8118E-04  0.9000E-01  0.9000E-01
     -2.066 -0.1140E-03 -0.6047E-04  0.8999E-01  0.9000E-01
     -2.021 -0.2185E-03 -0.7990E-04  0.8998E-01  0.9000E-01
     -1.975 -0.3514E-03 -0.1434E-03  0.8997E-01  0.8999E-01
     -1.930 -0.4375E-03 -0.2463E-03  0.8995E-01  0.8998E-01
     -1.884 -0.3151E-03 -0.3526E-03  0.8993E-01  0.8996E-01
     -1.839  0.2425E-03 -0.3653E-03  0.8994E-01  0.8994E-01
     -1.793  0.1425E-02 -0.1172E-03  0.9001E-01  0.8994E-01
     -1.747  0.3226E-02  0.5857E-03  0.9015E-01  0.8997E-01
     -1.702  0.5337E-02  0.1858E-02  0.9040E-01  0.9005E-01
     -1.656  0.7213E-02  0.3612E-02  0.9073E-01  0.9022E-01
     -1.611  0.8323E-02  0.5511E-02  0.9111E-01  0.9047E-01
     -1.565  0.8440E-02  0.7077E-02  0.9149E-01  0.9079E-01
     -1.520  0.7740E-02  0.7911E-02  0.9184E-01  0.9115E-01
     -1.474  0.6662E-02  0.7902E-02  0.9215E-01  0.9151E-01
     -1.428  0.5641E-02  0.7253E-02  0.9240E-01  0.9184E-01
     -1.383  0.4948E-02  0.6338E-02  0.9263E-01  0.9213E-01
     -1.337  0.4703E-02  0.5506E-02  0.9284E-01  0.9238E-01
     -1.292  0.4988E-02  0.4998E-02  0.9307E-01  0.9261E-01
     -1.246  0.5887E-02  0.4987E-02  0.9334E-01  0.9284E-01
     -1.201  0.7437E-02  0.5629E-02  0.9368E-01  0.9309E-01
     -1.155  0.9522E-02  0.7024E-02  0.9411E-01  0.9341E-01
     -1.109  0.1179E-01  0.9087E-02  0.9465E-01  0.9383E-01
     -1.064  0.1368E-01  0.1146E-01  0.9527E-01  0.9435E-01
     -1.018  0.1460E-01  0.1355E-01  0.9594E-01  0.9497E-01
     -0.973  0.1420E-01  0.1475E-01  0.9659E-01  0.9564E-01
     -0.927  0.1258E-01  0.1471E-01  0.9716E-01  0.9631E-01
     -0.881  0.1032E-01  0.1349E-01  0.9763E-01  0.9692E-01
     -0.836  0.8240E-02  0.1157E-01  0.9800E-01  0.9745E-01
     -0.790  0.6932E-02  0.9568E-02  0.9832E-01  0.9789E-01
     -0.745  0.6518E-02  0.7986E-02  0.9862E-01  0.9825E-01
     -0.699  0.6633E-02  0.7027E-02  0.9892E-01  0.9857E-01
     -0.654  0.6693E-02  0.6569E-02  0.9923E-01  0.9887E-01
     -0.608  0.6240E-02  0.6298E-02  0.9951E-01  0.9916E-01
     -0.562  0.5153E-02  0.5877E-02  0.9974E-01  0.9942E-01
     -0.517  0.3649E-02  0.5098E-02  0.9991E-01  0.9966E-01
     -0.471  0.2109E-02  0.3956E-02  0.1000E+00  0.9984E-01
     -0.426  0.8661E-03  0.2634E-02  0.1000E+00  0.9996E-01
     -0.380  0.7318E-04  0.1391E-02  0.1000E+00  0.1000E+00
     -0.335 -0.3110E-03  0.4362E-03  0.1000E+00  0.1000E+00
     -0.289 -0.4373E-03 -0.1656E-03  0.1000E+00  0.1000E+00
     -0.243 -0.4618E-03 -0.4783E-03  0.9999E-01  0.1000E+00
     -0.198 -0.4687E-03 -0.6131E-03  0.9997E-01  0.9998E-01
     -0.152 -0.4397E-03 -0.6251E-03  0.9995E-01  0.9996E-01
     -0.107 -0.2621E-03 -0.4518E-03  0.9994E-01  0.9993E-01
     -0.061  0.2262E-03  0.7698E-04  0.9995E-01  0.9994E-01
     -0.016  0.1168E-02  0.1153E-02  0.1000E+00  0.9999E-01
      0.030  0.2619E-02  0.2862E-02  0.1001E+00  0.1001E+00
      0.076  0.4512E-02  0.5079E-02  0.1003E+00  0.1004E+00
      0.121  0.6664E-02  0.7459E-02  0.1006E+00  0.1007E+00
      0.167  0.8804E-02  0.9539E-02  0.1010E+00  0.1011E+00
      0.212  0.1060E-01  0.1091E-01  0.1015E+00  0.1016E+00
      0.258  0.1171E-01  0.1136E-01  0.1021E+00  0.1021E+00
      0.303  0.1183E-01  0.1089E-01  0.1026E+00  0.1026E+00
      0.349  0.1085E-01  0.9685E-02  0.1031E+00  0.1031E+00
      0.395  0.8920E-02  0.7974E-02  0.1035E+00  0.1034E+00
      0.440  0.6441E-02  0.6010E-02  0.1038E+00  0.1037E+00
      0.486  0.3946E-02  0.4040E-02  0.1040E+00  0.1039E+00
      0.531  0.1889E-02  0.2302E-02  0.1041E+00  0.1040E+00
      0.577  0.5052E-03  0.9779E-03  0.1041E+00  0.1041E+00
      0.623 -0.2142E-03  0.1416E-03  0.1041E+00  0.1041E+00
      0.668 -0.4451E-03 -0.2561E-03  0.1040E+00  0.1040E+00
      0.714 -0.4088E-03 -0.3495E-03  0.1040E+00  0.1040E+00
      0.759 -0.2811E-03 -0.2890E-03  0.1040E+00  0.1040E+00
      0.805 -0.1598E-03 -0.1870E-03  0.1040E+00  0.1040E+00
      0.850 -0.7790E-04 -0.1013E-03  0.1040E+00  0.1040E+00
      0.896 -0.3313E-04 -0.4722E-04  0.1040E+00  0.1040E+00
      0.942 -0.1241E-04 -0.1922E-04  0.1040E+00  0.1040E+00
      0.987 -0.4116E-05 -0.6886E-05  0.1040E+00  0.1040E+00
      1.033 -0.1214E-05 -0.2183E-05  0.1040E+00  0.1040E+00
      1.078 -0.3190E-06 -0.6149E-06  0.1040E+00  0.1040E+00
      1.124 -0.7489E-07 -0.1542E-06  0.1040E+00  0.1040E+00
      1.169 -0.1572E-07 -0.3451E-07  0.1040E+00  0.1040E+00
      1.215 -0.2954E-08 -0.6900E-08  0.1040E+00  0.1040E+00
      1.261 -0.4973E-09 -0.1234E-08  0.1040E+00  0.1040E+00
      1.306 -0.7507E-10 -0.1978E-09  0.1040E+00  0.1040E+00
      1.352 -0.1017E-10 -0.2841E-10  0.1040E+00  0.1040E+00
      1.397 -0.1236E-11 -0.3659E-11  0.1040E+00  0.1040E+00
      1.443 -0.1349E-12 -0.4229E-12  0.1040E+00  0.1040E+00
      1.488 -0.1323E-13 -0.4389E-13  0.1040E+00  0.1040E+00
      1.534 -0.1169E-14 -0.4092E-14  0.1040E+00  0.1040E+00
      1.580 -0.9257E-16 -0.3410E-15  0.1040E+00  0.1040E+00
      1.625 -0.4872E-17 -0.2923E-16  0.1040E+00  0.1040E+00
      1.671  0.0000E+00  0.0000E+00  0.1040E+00  0.1040E+00
      1.716  0.0000E+00  0.0000E+00  0.1040E+00  0.1040E+00
      1.762  0.0000E+00  0.0000E+00  0.1040E+00  0.1040E+00
      1.807  0.0000E+00  0.0000E+00  0.1040E+00  0.1040E+00
      1.853  0.0000E+00  0.0000E+00  0.1040E+00  0.1040E+00
      1.899  0.0000E+00  0.0000E+00  0.1040E+00  0.1040E+00
      1.944  0.0000E+00  0.0000E+00  0.1040E+00  0.1040E+00
      1.990  0.0000E+00  0.0000E+00  0.1040E+00  0.1040E+00
      2.035  0.0000E+00  0.0000E+00  0.1040E+00  0.1040E+00
      2.081  0.0000E+00  0.0000E+00  0.1040E+00  0.1040E+00
      2.127  0.0000E+00  0.0000E+00  0.1040E+00  0.1040E+00
      2.172  0.0000E+00  0.0000E+00  0.1040E+00  0.1040E+00
      2.218  0.0000E+00  0.0000E+00  0.1040E+00  0.1040E+00
      2.263  0.0000E+00  0.0000E+00  0.1040E+00  0.1040E+00
      2.309  0.0000E+00  0.0000E+00  0.1040E+00  0.1040E+00
      2.354  0.0000E+00  0.0000E+00  0.1040E+00  0.1040E+00
      2.400  0.0000E+00  0.0000E+00  0.1040E+00  0.1040E+00
