   16   16 1000    2
  0.8579696E+03  0.2385720E-08  0.2426432E-08  0.2371397E-08  0.5000000E-15
   1.0000000000000000E-004
  CAR 
 unknown system                          
    160      1    104
 
  0.1262379E-14  0.1262379E-14  0.1262379E-14  0.1000000E+01
    1       -9.272771     -9.217296   1.000000   1.000000
    2       -8.877166     -8.711197   1.000000   1.000000
    3       -8.788632     -8.579715   1.000000   1.000000
    4       -8.767852     -8.442458   1.000000   1.000000
    5       -8.655739     -8.419261   1.000000   1.000000
    6       -8.609886     -8.242877   1.000000   1.000000
    7       -8.118275     -7.878948   1.000000   1.000000
    8       -8.016872     -7.864717   1.000000   1.000000
    9       -7.969491     -7.810566   1.000000   1.000000
   10       -7.912449     -7.757813   1.000000   1.000000
   11       -7.888375     -7.623498   1.000000   1.000000
   12       -7.819410     -7.563942   1.000000   1.000000
   13       -7.755356     -7.556312   1.000000   1.000000
   14       -7.525692     -7.329650   1.000000   1.000000
   15       -7.521433     -7.283483   1.000000   1.000000
   16       -7.483977     -7.217648   1.000000   1.000000
   17       -7.382518     -7.193880   1.000000   1.000000
   18       -7.328955     -7.124396   1.000000   1.000000
   19       -7.308817     -7.105121   1.000000   1.000000
   20       -7.303543     -7.100605   1.000000   1.000000
   21       -7.300818     -7.085490   1.000000   1.000000
   22       -7.254088     -7.074317   1.000000   1.000000
   23       -7.220628     -7.035741   1.000000   1.000000
   24       -7.212275     -6.986351   1.000000   1.000000
   25       -7.104890     -6.913130   1.000000   1.000000
   26       -6.984836     -6.755758   1.000000   1.000000
   27       -6.946081     -6.728982   1.000000   1.000000
   28       -6.861178     -6.628575   1.000000   1.000000
   29       -6.822707     -6.618172   1.000000   1.000000
   30       -6.810044     -6.537188   1.000000   1.000000
   31       -6.806777     -6.533272   1.000000   1.000000
   32       -6.676109     -6.437917   1.000000   1.000000
   33       -6.590597     -6.373941   1.000000   1.000000
   34       -6.544584     -6.314809   1.000000   1.000000
   35       -6.497598     -6.267904   1.000000   1.000000
   36       -6.399152     -6.147551   1.000000   1.000000
   37       -6.364319     -6.050595   1.000000   1.000000
   38       -6.309663     -6.037257   1.000000   1.000000
   39       -6.142962     -5.996256   1.000000   1.000000
   40       -6.051759     -5.861908   1.000000   1.000000
   41       -6.042935     -5.791293   1.000000   1.000000
   42       -5.954269     -5.747539   1.000000   1.000000
   43       -5.921908     -5.731449   1.000000   1.000000
   44       -5.823595     -5.624630   1.000000   1.000000
   45       -5.810523     -5.575064   1.000000   1.000000
   46       -5.771557     -5.540741   1.000000   1.000000
   47       -5.747497     -5.499645   1.000000   1.000000
   48       -5.713426     -5.474287   1.000000   1.000000
   49       -5.693780     -5.467184   1.000000   1.000000
   50       -5.560641     -5.374873   1.000000   1.000000
   51       -5.556755     -5.342936   1.000000   1.000000
   52       -5.525773     -5.292213   1.000000   1.000000
   53       -5.422987     -5.175915   1.000000   1.000000
   54       -5.339192     -5.127440   1.000000   1.000000
   55       -5.315126     -5.073292   1.000000   1.000003
   56       -5.256899     -5.020130   1.000000   1.000015
   57       -5.244371     -5.006007   1.000000   1.000023
   58       -5.222153     -4.971589   1.000000   1.000064
   59       -5.168275     -4.934976   1.000000   1.000176
   60       -5.151496     -4.915625   1.000000   1.000291
   61       -5.140966     -4.912839   1.000000   1.000313
   62       -5.131658     -4.895279   1.000000   1.000485
   63       -5.067726     -4.832356   1.000003   1.002017
   64       -5.013878     -4.804095   1.000018   1.003547
   65       -5.006971     -4.779381   1.000022   1.005581
   66       -4.986740     -4.765835   1.000041   1.007037
   67       -4.964769     -4.716846   1.000077   1.014667
   68       -4.919523     -4.696478   1.000263   1.018894
   69       -4.892944     -4.678717   1.000513   1.022915
   70       -4.842768     -4.618393   1.001618   1.034639
   71       -4.792131     -4.571488   1.004438   1.030764
   72       -4.773865     -4.527668   1.006142   1.001333
   73       -4.768013     -4.523839   1.006785   0.997071
   74       -4.742373     -4.499871   1.010216   0.962989
   75       -4.679854     -4.445176   1.022652   0.832684
   76       -4.675054     -4.420987   1.023762   0.752206
   77       -4.671323     -4.365216   1.024626   0.530245
   78       -4.658686     -4.356286   1.027512   0.492478
   79       -4.625541     -4.326434   1.033788   0.368001
   80       -4.624579     -4.182390   1.033917  -0.007470
   81       -4.516042     -4.110267   0.987416  -0.035427
   82       -4.489024     -4.091066   0.943092  -0.033853
   83       -4.476231     -4.051280   0.915861  -0.026117
   84       -4.182604     -3.978980  -0.007266  -0.011043
   85       -3.712891     -3.536628  -0.000025  -0.000000
   86       -3.529334     -3.354513  -0.000000  -0.000000
   87       -3.050346     -2.924588  -0.000000  -0.000000
   88       -3.030280     -2.908814  -0.000000  -0.000000
   89       -2.973820     -2.855413  -0.000000  -0.000000
   90       -2.725615     -2.579109  -0.000000  -0.000000
   91       -1.650182     -1.584755  -0.000000  -0.000000
   92       -1.605225     -1.501991  -0.000000  -0.000000
   93       -1.410976     -1.319635  -0.000000  -0.000000
   94       -1.218214     -1.131996  -0.000000  -0.000000
   95       -1.099953     -1.024374  -0.000000  -0.000000
   96       -1.026809     -0.980092  -0.000000  -0.000000
   97       -1.001943     -0.938417  -0.000000  -0.000000
   98       -0.928393     -0.847127  -0.000000  -0.000000
   99       -0.734572     -0.696060  -0.000000  -0.000000
  100       -0.616581     -0.544770  -0.000000  -0.000000
  101        0.106143      0.115008  -0.000000  -0.000000
  102        0.232363      0.203225  -0.000000  -0.000000
  103        0.285968      0.277259  -0.000000  -0.000000
  104        0.376571      0.399982  -0.000000  -0.000000
