       N       E                     dE             d eps       ncg     rms          rms(c)
DAV:   1     0.143782753194E+04    0.14378E+04   -0.27702E+04   416   0.742E+02
DAV:   2     0.730796464337E+03   -0.70703E+03   -0.63774E+03   792   0.910E+01
DAV:   3     0.127489481227E+03   -0.60331E+03   -0.56091E+03   680   0.849E+01
DAV:   4    -0.407039277448E+02   -0.16819E+03   -0.15187E+03   552   0.487E+01
DAV:   5    -0.639943501922E+02   -0.23290E+02   -0.19310E+02   552   0.171E+01    0.270E+01
DAV:   6    -0.549765719374E+02    0.90178E+01   -0.40579E+01   440   0.151E+01    0.151E+01
DAV:   7    -0.533535472531E+02    0.16230E+01   -0.25280E+01   456   0.320E+01    0.250E+01
DAV:   8    -0.478251248255E+02    0.55284E+01   -0.26319E+01   448   0.269E+01    0.168E+01
DAV:   9    -0.455076950281E+02    0.23174E+01   -0.99699E+00   456   0.177E+01    0.108E+01
DAV:  10    -0.456995062486E+02   -0.19181E+00   -0.41557E+00   448   0.121E+01    0.689E+00
DAV:  11    -0.471781056867E+02   -0.14786E+01   -0.26787E+00   472   0.855E+00    0.714E+00
DAV:  12    -0.480245860840E+02   -0.84648E+00   -0.11315E+00   464   0.567E+00    0.414E+00
DAV:  13    -0.492466281316E+02   -0.12220E+01   -0.34700E-01   448   0.308E+00    0.331E+00
DAV:  14    -0.513741818998E+02   -0.21276E+01   -0.64822E-01   448   0.333E+00    0.289E+00
DAV:  15    -0.530924580010E+02   -0.17183E+01   -0.55414E-01   464   0.366E+00    0.309E+00
DAV:  16    -0.540590069300E+02   -0.96655E+00   -0.26600E-01   440   0.277E+00    0.192E+00
DAV:  17    -0.553275742979E+02   -0.12686E+01   -0.26198E-01   432   0.201E+00    0.165E+00
DAV:  18    -0.561510017108E+02   -0.82343E+00   -0.14971E-01   448   0.147E+00    0.119E+00
DAV:  19    -0.575541212164E+02   -0.14031E+01   -0.29450E-01   416   0.141E+00    0.126E+00
DAV:  20    -0.582046873963E+02   -0.65057E+00   -0.11382E-01   464   0.115E+00    0.830E-01
DAV:  21    -0.591293509313E+02   -0.92466E+00   -0.14915E-01   416   0.102E+00    0.761E-01
DAV:  22    -0.597727777562E+02   -0.64343E+00   -0.83702E-02   456   0.892E-01    0.721E-01
DAV:  23    -0.603845644723E+02   -0.61179E+00   -0.68533E-02   448   0.811E-01    0.451E-01
DAV:  24    -0.607651472523E+02   -0.38058E+00   -0.36471E-02   456   0.574E-01    0.442E-01
DAV:  25    -0.610032896783E+02   -0.23814E+00   -0.11347E-02   440   0.444E-01    0.308E-01
DAV:  26    -0.612811258684E+02   -0.27784E+00   -0.96075E-03   456   0.336E-01    0.247E-01
DAV:  27    -0.615439602287E+02   -0.26283E+00   -0.87476E-03   416   0.335E-01    0.229E-01
DAV:  28    -0.618058655856E+02   -0.26191E+00   -0.90490E-03   440   0.241E-01    0.127E-01
DAV:  29    -0.619277376646E+02   -0.12187E+00   -0.26278E-03   496   0.170E-01    0.110E-01
DAV:  30    -0.620101791323E+02   -0.82441E-01   -0.16098E-03   432   0.131E-01    0.108E-01
DAV:  31    -0.620529170773E+02   -0.42738E-01   -0.66205E-04   392   0.957E-02    0.693E-02
DAV:  32    -0.620814077909E+02   -0.28491E-01   -0.36532E-04   344   0.786E-02    0.410E-02
DAV:  33    -0.620950031724E+02   -0.13595E-01   -0.13533E-04   320   0.405E-02    0.331E-02
DAV:  34    -0.621027431143E+02   -0.77399E-02   -0.11023E-04   328   0.300E-02    0.211E-02
DAV:  35    -0.621086336048E+02   -0.58905E-02   -0.94666E-05   320   0.264E-02    0.135E-02
DAV:  36    -0.621110509396E+02   -0.24173E-02   -0.73658E-05   312   0.188E-02    0.899E-03
DAV:  37    -0.621117043818E+02   -0.65344E-03   -0.48005E-05   312   0.139E-02    0.834E-03
DAV:  38    -0.621120232242E+02   -0.31884E-03   -0.20713E-05   296   0.113E-02    0.639E-03
DAV:  39    -0.621124325236E+02   -0.40930E-03   -0.17042E-05   288   0.883E-03    0.405E-03
DAV:  40    -0.621129634210E+02   -0.53090E-03   -0.16450E-05   280   0.680E-03    0.274E-03
DAV:  41    -0.621134318425E+02   -0.46842E-03   -0.10763E-05   280   0.500E-03    0.221E-03
DAV:  42    -0.621137632041E+02   -0.33136E-03   -0.63889E-06   272   0.410E-03    0.133E-03
DAV:  43    -0.621139028421E+02   -0.13964E-03   -0.33442E-06   288   0.289E-03    0.968E-04
DAV:  44    -0.621139606816E+02   -0.57839E-04   -0.13885E-06   256   0.191E-03
   1 F= -.62113961E+02 E0= -.62134570E+02  d E =-.621140E+02  mag=     6.4989
       N       E                     dE             d eps       ncg     rms          rms(c)
DAV:   1    -0.622163973117E+02   -0.10249E+00   -0.96185E+01   416   0.256E+01    0.249E+00
DAV:   2    -0.623806123222E+02   -0.16422E+00   -0.16778E+00   424   0.489E+00    0.331E+00
DAV:   3    -0.623604913761E+02    0.20121E-01   -0.47752E-01   432   0.407E+00    0.282E+00
DAV:   4    -0.623582139517E+02    0.22774E-02   -0.24170E-01   432   0.264E+00    0.253E+00
DAV:   5    -0.623270563738E+02    0.31158E-01   -0.11399E-01   424   0.198E+00    0.908E-01
DAV:   6    -0.623376709550E+02   -0.10615E-01   -0.54457E-02   448   0.129E+00    0.143E+00
DAV:   7    -0.623289969463E+02    0.86740E-02   -0.38107E-02   448   0.119E+00    0.721E-01
DAV:   8    -0.623282685851E+02    0.72836E-03   -0.10182E-02   432   0.718E-01    0.372E-01
DAV:   9    -0.623283554345E+02   -0.86849E-04   -0.29603E-03   440   0.375E-01    0.208E-01
DAV:  10    -0.623285306801E+02   -0.17525E-03   -0.99761E-04   448   0.220E-01    0.155E-01
DAV:  11    -0.623288024848E+02   -0.27180E-03   -0.49852E-04   328   0.152E-01    0.114E-01
DAV:  12    -0.623289934233E+02   -0.19094E-03   -0.27975E-04   280   0.108E-01    0.475E-02
DAV:  13    -0.623291696869E+02   -0.17626E-03   -0.76250E-05   272   0.454E-02    0.247E-02
DAV:  14    -0.623293789906E+02   -0.20930E-03   -0.26959E-05   280   0.273E-02    0.210E-02
DAV:  15    -0.623295953851E+02   -0.21639E-03   -0.13516E-05   272   0.200E-02    0.202E-02
DAV:  16    -0.623298431708E+02   -0.24779E-03   -0.78928E-06   280   0.140E-02    0.130E-02
DAV:  17    -0.623299794135E+02   -0.13624E-03   -0.53125E-06   272   0.112E-02    0.693E-03
DAV:  18    -0.623300893815E+02   -0.10997E-03   -0.28793E-06   256   0.727E-03    0.350E-03
DAV:  19    -0.623303031516E+02   -0.21377E-03   -0.30998E-06   280   0.369E-03    0.265E-03
DAV:  20    -0.623304669609E+02   -0.16381E-03   -0.23223E-06   288   0.382E-03    0.262E-03
DAV:  21    -0.623306008783E+02   -0.13392E-03   -0.22682E-06   288   0.343E-03    0.201E-03
DAV:  22    -0.623307076752E+02   -0.10680E-03   -0.18554E-06   288   0.240E-03    0.127E-03
DAV:  23    -0.623307996340E+02   -0.91959E-04   -0.16974E-06   280   0.216E-03
   2 F= -.62330800E+02 E0= -.62347709E+02  d E =-.216839E+00  mag=     6.5251
       N       E                     dE             d eps       ncg     rms          rms(c)
DAV:   1    -0.623174784935E+02    0.13229E-01   -0.39116E+01   416   0.163E+01    0.149E+00
DAV:   2    -0.623860143576E+02   -0.68536E-01   -0.69911E-01   432   0.314E+00    0.222E+00
DAV:   3    -0.623752752261E+02    0.10739E-01   -0.20487E-01   432   0.258E+00    0.177E+00
DAV:   4    -0.623744123331E+02    0.86289E-03   -0.10099E-01   432   0.164E+00    0.156E+00
DAV:   5    -0.623624038220E+02    0.12009E-01   -0.38467E-02   432   0.117E+00    0.557E-01
DAV:   6    -0.623672601987E+02   -0.48564E-02   -0.22626E-02   440   0.847E-01    0.103E+00
DAV:   7    -0.623628505826E+02    0.44096E-02   -0.15672E-02   440   0.786E-01    0.470E-01
DAV:   8    -0.623625835721E+02    0.26701E-03   -0.38914E-03   424   0.478E-01    0.216E-01
DAV:   9    -0.623627565256E+02   -0.17295E-03   -0.12860E-03   440   0.236E-01    0.127E-01
DAV:  10    -0.623629084190E+02   -0.15189E-03   -0.39908E-04   296   0.139E-01    0.960E-02
DAV:  11    -0.623630928673E+02   -0.18445E-03   -0.19279E-04   280   0.940E-02    0.726E-02
DAV:  12    -0.623632705124E+02   -0.17765E-03   -0.12650E-04   272   0.689E-02    0.318E-02
DAV:  13    -0.623633956616E+02   -0.12515E-03   -0.41499E-05   280   0.329E-02    0.152E-02
DAV:  14    -0.623635452212E+02   -0.14956E-03   -0.14936E-05   264   0.186E-02    0.120E-02
DAV:  15    -0.623637077265E+02   -0.16251E-03   -0.73209E-06   280   0.129E-02    0.109E-02
DAV:  16    -0.623639121619E+02   -0.20444E-03   -0.47995E-06   272   0.855E-03    0.828E-03
DAV:  17    -0.623640340366E+02   -0.12187E-03   -0.31177E-06   272   0.743E-03    0.512E-03
DAV:  18    -0.623641404136E+02   -0.10638E-03   -0.21468E-06   272   0.524E-03    0.240E-03
DAV:  19    -0.623643194105E+02   -0.17900E-03   -0.25216E-06   280   0.293E-03    0.228E-03
DAV:  20    -0.623644778701E+02   -0.15846E-03   -0.22458E-06   288   0.320E-03    0.212E-03
DAV:  21    -0.623646404182E+02   -0.16255E-03   -0.29245E-06   288   0.315E-03    0.174E-03
DAV:  22    -0.623647374357E+02   -0.97017E-04   -0.20430E-06   288   0.246E-03
   3 F= -.62364737E+02 E0= -.62379378E+02  d E =-.250777E+00  mag=     6.5535
       N       E                     dE             d eps       ncg     rms          rms(c)
DAV:   1    -0.623744589689E+02   -0.98186E-02   -0.80705E+00   416   0.738E+00    0.566E-01
DAV:   2    -0.623909738747E+02   -0.16515E-01   -0.15757E-01   440   0.177E+00    0.134E+00
DAV:   3    -0.623846388898E+02    0.63350E-02   -0.44970E-02   440   0.128E+00    0.628E-01
DAV:   4    -0.623843531318E+02    0.28576E-03   -0.11111E-02   424   0.610E-01    0.381E-01
DAV:   5    -0.623841063050E+02    0.24683E-03   -0.32547E-03   432   0.356E-01    0.292E-01
DAV:   6    -0.623840621828E+02    0.44122E-04   -0.18910E-03   448   0.285E-01    0.254E-01
DAV:   7    -0.623840925725E+02   -0.30390E-04   -0.15172E-03   456   0.257E-01    0.223E-01
DAV:   8    -0.623839754992E+02    0.11707E-03   -0.98477E-04   440   0.213E-01    0.126E-01
DAV:   9    -0.623839618858E+02    0.13613E-04   -0.30995E-04   296   0.130E-01
   4 F= -.62383962E+02 E0= -.62399148E+02  d E =-.192245E-01  mag=     6.5543
       N       E                     dE             d eps       ncg     rms          rms(c)
DAV:   1    -0.623552823236E+02    0.28693E-01   -0.37210E+01   416   0.159E+01    0.122E+00
DAV:   2    -0.624329221470E+02   -0.77640E-01   -0.71750E-01   448   0.379E+00    0.287E+00
DAV:   3    -0.624038570495E+02    0.29065E-01   -0.20093E-01   440   0.274E+00    0.129E+00
DAV:   4    -0.624015773014E+02    0.22797E-02   -0.53542E-02   432   0.130E+00    0.835E-01
DAV:   5    -0.623998086398E+02    0.17687E-02   -0.20470E-02   432   0.786E-01    0.615E-01
DAV:   6    -0.623993689662E+02    0.43967E-03   -0.10578E-02   448   0.604E-01    0.537E-01
DAV:   7    -0.623992386961E+02    0.13027E-03   -0.81291E-03   448   0.539E-01    0.471E-01
DAV:   8    -0.623985997554E+02    0.63894E-03   -0.46058E-03   448   0.436E-01    0.237E-01
DAV:   9    -0.623986068979E+02   -0.71424E-05   -0.12875E-03   448   0.262E-01    0.120E-01
DAV:  10    -0.623987247763E+02   -0.11788E-03   -0.40529E-04   280   0.134E-01    0.783E-02
DAV:  11    -0.623987848635E+02   -0.60087E-04   -0.10841E-04   272   0.795E-02
   5 F= -.62398785E+02 E0= -.62415708E+02  d E =-.340474E-01  mag=     6.5543
       N       E                     dE             d eps       ncg     rms          rms(c)
DAV:   1    -0.624051587530E+02   -0.64340E-02   -0.62746E+00   416   0.652E+00    0.450E-01
DAV:   2    -0.624167824381E+02   -0.11624E-01   -0.11268E-01   424   0.143E+00    0.955E-01
DAV:   3    -0.624133840442E+02    0.33984E-02   -0.23877E-02   432   0.973E-01    0.376E-01
DAV:   4    -0.624140372036E+02   -0.65316E-03   -0.58089E-03   440   0.441E-01    0.409E-01
DAV:   5    -0.624133908309E+02    0.64637E-03   -0.27449E-03   440   0.295E-01    0.186E-01
DAV:   6    -0.624135652236E+02   -0.17439E-03   -0.74278E-04   408   0.180E-01    0.147E-01
DAV:   7    -0.624139268232E+02   -0.36160E-03   -0.99381E-04   448   0.195E-01    0.223E-01
DAV:   8    -0.624137871383E+02    0.13968E-03   -0.80008E-04   384   0.175E-01    0.763E-02
DAV:   9    -0.624138888038E+02   -0.10167E-03   -0.15783E-04   272   0.831E-02    0.460E-02
DAV:  10    -0.624139356133E+02   -0.46810E-04   -0.44936E-05   272   0.434E-02
   6 F= -.62413936E+02 E0= -.62431476E+02  d E =-.151507E-01  mag=     6.5514
       N       E                     dE             d eps       ncg     rms          rms(c)
DAV:   1    -0.623734290007E+02    0.40460E-01   -0.56610E+01   416   0.196E+01    0.135E+00
DAV:   2    -0.624790885387E+02   -0.10566E+00   -0.10067E+00   432   0.428E+00    0.284E+00
DAV:   3    -0.624481012416E+02    0.30987E-01   -0.23028E-01   432   0.286E+00    0.107E+00
DAV:   4    -0.624520261349E+02   -0.39249E-02   -0.67053E-02   432   0.130E+00    0.124E+00
DAV:   5    -0.624450024859E+02    0.70236E-02   -0.28750E-02   432   0.902E-01    0.536E-01
DAV:   6    -0.624452925965E+02   -0.29011E-03   -0.74260E-03   440   0.536E-01    0.432E-01
DAV:   7    -0.624465382182E+02   -0.12456E-02   -0.89616E-03   440   0.565E-01    0.623E-01
DAV:   8    -0.624447646345E+02    0.17736E-02   -0.63006E-03   440   0.508E-01    0.218E-01
DAV:   9    -0.624451233371E+02   -0.35870E-03   -0.14510E-03   432   0.238E-01    0.150E-01
DAV:  10    -0.624451449707E+02   -0.21634E-04   -0.41929E-04   288   0.140E-01
   7 F= -.62445145E+02 E0= -.62464785E+02  d E =-.463601E-01  mag=     6.5423
       N       E                     dE             d eps       ncg     rms          rms(c)
DAV:   1    -0.621561412674E+02    0.28898E+00   -0.22807E+02   416   0.396E+01    0.271E+00
DAV:   2    -0.625751618106E+02   -0.41902E+00   -0.38233E+00   432   0.845E+00    0.550E+00
DAV:   3    -0.624575532645E+02    0.11761E+00   -0.92396E-01   432   0.552E+00    0.198E+00
DAV:   4    -0.624730517238E+02   -0.15498E-01   -0.29707E-01   432   0.263E+00    0.247E+00
DAV:   5    -0.624432147917E+02    0.29837E-01   -0.13143E-01   432   0.187E+00    0.104E+00
DAV:   6    -0.624435774917E+02   -0.36270E-03   -0.30783E-02   440   0.105E+00    0.831E-01
DAV:   7    -0.624445503879E+02   -0.97290E-03   -0.27133E-02   440   0.964E-01    0.878E-01
DAV:   8    -0.624413584094E+02    0.31920E-02   -0.14465E-02   440   0.868E-01    0.404E-01
DAV:   9    -0.624420783174E+02   -0.71991E-03   -0.44511E-03   456   0.404E-01    0.290E-01
DAV:  10    -0.624418639293E+02    0.21439E-03   -0.16274E-03   448   0.267E-01    0.125E-01
DAV:  11    -0.624422147312E+02   -0.35080E-03   -0.44661E-04   352   0.140E-01    0.121E-01
DAV:  12    -0.624424452328E+02   -0.23050E-03   -0.28376E-04   304   0.116E-01    0.762E-02
DAV:  13    -0.624427492920E+02   -0.30406E-03   -0.17312E-04   288   0.763E-02    0.634E-02
DAV:  14    -0.624429655149E+02   -0.21622E-03   -0.88475E-05   280   0.547E-02    0.296E-02
DAV:  15    -0.624432325576E+02   -0.26704E-03   -0.47213E-05   296   0.301E-02    0.141E-02
DAV:  16    -0.624434363943E+02   -0.20384E-03   -0.16321E-05   280   0.183E-02    0.774E-03
DAV:  17    -0.624436285937E+02   -0.19220E-03   -0.67737E-06   288   0.900E-03    0.509E-03
DAV:  18    -0.624438283120E+02   -0.19972E-03   -0.53109E-06   280   0.678E-03    0.400E-03
DAV:  19    -0.624441174864E+02   -0.28917E-03   -0.69308E-06   296   0.570E-03    0.358E-03
DAV:  20    -0.624443308627E+02   -0.21338E-03   -0.57186E-06   288   0.495E-03    0.266E-03
DAV:  21    -0.624445518856E+02   -0.22102E-03   -0.62745E-06   288   0.441E-03    0.199E-03
DAV:  22    -0.624447214973E+02   -0.16961E-03   -0.53340E-06   288   0.371E-03    0.156E-03
DAV:  23    -0.624448748060E+02   -0.15331E-03   -0.52768E-06   288   0.359E-03    0.116E-03
DAV:  24    -0.624450179132E+02   -0.14311E-03   -0.54425E-06   288   0.324E-03    0.727E-04
DAV:  25    -0.624450871207E+02   -0.69208E-04   -0.34612E-06   280   0.254E-03
   8 F= -.62445087E+02 E0= -.62470806E+02  d E =-.463023E-01  mag=     6.5061
       N       E                     dE             d eps       ncg     rms          rms(c)
DAV:   1    -0.623756094028E+02    0.69409E-01   -0.65226E+01   416   0.211E+01    0.149E+00
DAV:   2    -0.625026604757E+02   -0.12705E+00   -0.11970E+00   440   0.471E+00    0.328E+00
DAV:   3    -0.624628940643E+02    0.39766E-01   -0.26532E-01   432   0.321E+00    0.130E+00
DAV:   4    -0.624634992164E+02   -0.60515E-03   -0.84325E-02   432   0.152E+00    0.124E+00
DAV:   5    -0.624579187543E+02    0.55805E-02   -0.34057E-02   424   0.974E-01    0.691E-01
DAV:   6    -0.624570876093E+02    0.83115E-03   -0.91142E-03   448   0.579E-01    0.462E-01
DAV:   7    -0.624584340425E+02   -0.13464E-02   -0.97816E-03   448   0.599E-01    0.653E-01
DAV:   8    -0.624568832679E+02    0.15508E-02   -0.76358E-03   440   0.556E-01    0.293E-01
DAV:   9    -0.624568132317E+02    0.70036E-04   -0.22975E-03   432   0.294E-01    0.137E-01
DAV:  10    -0.624569083305E+02   -0.95099E-04   -0.40172E-04   296   0.124E-01
   9 F= -.62456908E+02 E0= -.62479006E+02  d E =-.581235E-01  mag=     6.5133
       N       E                     dE             d eps       ncg     rms          rms(c)
DAV:   1    -0.624550182331E+02    0.17950E-02   -0.18733E+01   416   0.113E+01    0.643E-01
DAV:   2    -0.624846837119E+02   -0.29665E-01   -0.29641E-01   432   0.211E+00    0.119E+00
DAV:   3    -0.624804224275E+02    0.42613E-02   -0.46516E-02   424   0.132E+00    0.613E-01
DAV:   4    -0.624807766793E+02   -0.35425E-03   -0.17261E-02   440   0.654E-01    0.579E-01
DAV:   5    -0.624792564780E+02    0.15202E-02   -0.74179E-03   424   0.450E-01    0.265E-01
DAV:   6    -0.624796039650E+02   -0.34749E-03   -0.20775E-03   440   0.289E-01    0.244E-01
DAV:   7    -0.624798637197E+02   -0.25975E-03   -0.27414E-03   440   0.298E-01    0.225E-01
DAV:   8    -0.624797059245E+02    0.15780E-03   -0.12088E-03   448   0.231E-01    0.888E-02
DAV:   9    -0.624797841797E+02   -0.78255E-04   -0.21788E-04   296   0.101E-01
  10 F= -.62479784E+02 E0= -.62503219E+02  d E =-.228758E-01  mag=     6.5175
       N       E                     dE             d eps       ncg     rms          rms(c)
DAV:   1    -0.624548989369E+02    0.24807E-01   -0.29553E+01   416   0.142E+01    0.824E-01
DAV:   2    -0.625004812126E+02   -0.45582E-01   -0.47081E-01   432   0.262E+00    0.138E+00
DAV:   3    -0.624954110519E+02    0.50702E-02   -0.65492E-02   424   0.161E+00    0.695E-01
DAV:   4    -0.624959783950E+02   -0.56734E-03   -0.25081E-02   424   0.817E-01    0.755E-01
DAV:   5    -0.624934782234E+02    0.25002E-02   -0.13010E-02   424   0.580E-01    0.350E-01
DAV:   6    -0.624937954674E+02   -0.31724E-03   -0.32188E-03   440   0.363E-01    0.281E-01
DAV:   7    -0.624939931562E+02   -0.19769E-03   -0.35091E-03   448   0.336E-01    0.252E-01
DAV:   8    -0.624938164047E+02    0.17675E-03   -0.15964E-03   440   0.253E-01    0.115E-01
DAV:   9    -0.624939036557E+02   -0.87251E-04   -0.36544E-04   296   0.124E-01
  11 F= -.62493904E+02 E0= -.62519054E+02  d E =-.369953E-01  mag=     6.5208
       N       E                     dE             d eps       ncg     rms          rms(c)
DAV:   1    -0.624871258754E+02    0.66905E-02   -0.59901E+00   424   0.639E+00    0.384E-01
DAV:   2    -0.624960007219E+02   -0.88748E-02   -0.96707E-02   440   0.119E+00    0.613E-01
DAV:   3    -0.624950686700E+02    0.93205E-03   -0.12224E-02   432   0.743E-01    0.278E-01
DAV:   4    -0.624953781602E+02   -0.30949E-03   -0.41355E-03   424   0.358E-01    0.326E-01
DAV:   5    -0.624949445556E+02    0.43360E-03   -0.25759E-03   416   0.254E-01    0.168E-01
DAV:   6    -0.624951216381E+02   -0.17708E-03   -0.67679E-04   424   0.169E-01    0.127E-01
DAV:   7    -0.624952870799E+02   -0.16544E-03   -0.67947E-04   400   0.163E-01    0.137E-01
DAV:   8    -0.624952642217E+02    0.22858E-04   -0.34409E-04   296   0.128E-01
  12 F= -.62495264E+02 E0= -.62520702E+02  d E =-.383559E-01  mag=     6.5228
       N       E                     dE             d eps       ncg     rms          rms(c)
DAV:   1    -0.624891669540E+02    0.61201E-02   -0.19610E+01   416   0.115E+01    0.690E-01
DAV:   2    -0.625354011269E+02   -0.46234E-01   -0.37032E-01   440   0.243E+00    0.232E+00
DAV:   3    -0.625144387552E+02    0.20962E-01   -0.11430E-01   432   0.168E+00    0.696E-01
DAV:   4    -0.625150056848E+02   -0.56693E-03   -0.18754E-02   424   0.753E-01    0.460E-01
DAV:   5    -0.625142607730E+02    0.74491E-03   -0.41815E-03   440   0.424E-01    0.275E-01
DAV:   6    -0.625142209395E+02    0.39834E-04   -0.13778E-03   432   0.281E-01    0.213E-01
DAV:   7    -0.625147125072E+02   -0.49157E-03   -0.28322E-03   448   0.290E-01    0.307E-01
DAV:   8    -0.625144036520E+02    0.30886E-03   -0.18926E-03   448   0.271E-01    0.142E-01
DAV:   9    -0.625144500990E+02   -0.46447E-04   -0.30625E-04   304   0.123E-01
  13 F= -.62514450E+02 E0= -.62541812E+02  d E =-.191859E-01  mag=     6.5267
       N       E                     dE             d eps       ncg     rms          rms(c)
DAV:   1    -0.623662815008E+02    0.14812E+00   -0.12959E+02   416   0.297E+01    0.171E+00
DAV:   2    -0.626603896123E+02   -0.29411E+00   -0.23334E+00   440   0.594E+00    0.595E+00
DAV:   3    -0.625514115384E+02    0.10898E+00   -0.10912E+00   440   0.389E+00    0.190E+00
DAV:   4    -0.625400572379E+02    0.11354E-01   -0.94634E-02   448   0.190E+00    0.107E+00
DAV:   5    -0.625347907292E+02    0.52665E-02   -0.25517E-02   440   0.108E+00    0.770E-01
DAV:   6    -0.625330403984E+02    0.17503E-02   -0.96873E-03   432   0.739E-01    0.535E-01
DAV:   7    -0.625352594087E+02   -0.22190E-02   -0.21932E-02   448   0.746E-01    0.826E-01
DAV:   8    -0.625348963258E+02    0.36308E-03   -0.13717E-02   448   0.712E-01    0.721E-01
DAV:   9    -0.625326570790E+02    0.22392E-02   -0.36687E-03   448   0.413E-01    0.333E-01
DAV:  10    -0.625323044799E+02    0.35260E-03   -0.14239E-03   456   0.211E-01    0.118E-01
DAV:  11    -0.625326501861E+02   -0.34571E-03   -0.32883E-04   328   0.975E-02    0.730E-02
DAV:  12    -0.625328865657E+02   -0.23638E-03   -0.15958E-04   296   0.851E-02    0.645E-02
DAV:  13    -0.625331096604E+02   -0.22309E-03   -0.79020E-05   304   0.609E-02    0.365E-02
DAV:  14    -0.625332840591E+02   -0.17440E-03   -0.50471E-05   296   0.389E-02    0.235E-02
DAV:  15    -0.625335447598E+02   -0.26070E-03   -0.37579E-05   296   0.228E-02    0.129E-02
DAV:  16    -0.625337378159E+02   -0.19306E-03   -0.17846E-05   288   0.179E-02    0.877E-03
DAV:  17    -0.625338751800E+02   -0.13736E-03   -0.85750E-06   280   0.123E-02    0.496E-03
DAV:  18    -0.625340003978E+02   -0.12522E-03   -0.45493E-06   272   0.674E-03    0.420E-03
DAV:  19    -0.625341213678E+02   -0.12097E-03   -0.28607E-06   280   0.478E-03    0.281E-03
DAV:  20    -0.625342916378E+02   -0.17027E-03   -0.35981E-06   272   0.347E-03    0.210E-03
DAV:  21    -0.625344683500E+02   -0.17671E-03   -0.42400E-06   296   0.375E-03    0.199E-03
DAV:  22    -0.625346407468E+02   -0.17240E-03   -0.45129E-06   280   0.361E-03    0.155E-03
DAV:  23    -0.625347673955E+02   -0.12665E-03   -0.38750E-06   288   0.317E-03    0.128E-03
DAV:  24    -0.625348567938E+02   -0.89398E-04   -0.32569E-06   288   0.284E-03
  14 F= -.62534857E+02 E0= -.62566537E+02  d E =-.395926E-01  mag=     6.5440
       N       E                     dE             d eps       ncg     rms          rms(c)
DAV:   1    -0.625178601598E+02    0.16907E-01   -0.27108E+01   416   0.135E+01    0.683E-01
DAV:   2    -0.625560552536E+02   -0.38195E-01   -0.41559E-01   432   0.233E+00    0.958E-01
DAV:   3    -0.625542738714E+02    0.17814E-02   -0.43606E-02   432   0.131E+00    0.598E-01
DAV:   4    -0.625541221865E+02    0.15168E-03   -0.10726E-02   424   0.672E-01    0.528E-01
DAV:   5    -0.625531390991E+02    0.98309E-03   -0.36851E-03   440   0.435E-01    0.301E-01
DAV:   6    -0.625534241017E+02   -0.28500E-03   -0.34170E-03   456   0.331E-01    0.333E-01
DAV:   7    -0.625534297751E+02   -0.56735E-05   -0.42684E-03   464   0.328E-01    0.240E-01
DAV:   8    -0.625533595956E+02    0.70180E-04   -0.19178E-03   448   0.254E-01    0.108E-01
DAV:   9    -0.625534383954E+02   -0.78800E-04   -0.32205E-04   296   0.107E-01
  15 F= -.62553438E+02 E0= -.62586150E+02  d E =-.185816E-01  mag=     6.5448
       N       E                     dE             d eps       ncg     rms          rms(c)
DAV:   1    -0.624706247332E+02    0.82735E-01   -0.70254E+01   416   0.218E+01    0.111E+00
DAV:   2    -0.625705523235E+02   -0.99928E-01   -0.10769E+00   440   0.375E+00    0.149E+00
DAV:   3    -0.625657232726E+02    0.48291E-02   -0.11127E-01   424   0.211E+00    0.903E-01
DAV:   4    -0.625650217854E+02    0.70149E-03   -0.26516E-02   432   0.107E+00    0.807E-01
DAV:   5    -0.625624780812E+02    0.25437E-02   -0.84630E-03   432   0.666E-01    0.439E-01
DAV:   6    -0.625635326908E+02   -0.10546E-02   -0.97282E-03   448   0.539E-01    0.580E-01
DAV:   7    -0.625627886278E+02    0.74406E-03   -0.11456E-02   456   0.538E-01    0.361E-01
DAV:   8    -0.625627553710E+02    0.33257E-04   -0.47023E-03   440   0.383E-01    0.175E-01
DAV:   9    -0.625628448818E+02   -0.89511E-04   -0.92149E-04   416   0.173E-01
  16 F= -.62562845E+02 E0= -.62597242E+02  d E =-.279881E-01  mag=     6.5452
       N       E                     dE             d eps       ncg     rms          rms(c)
DAV:   1    -0.625569536541E+02    0.58017E-02   -0.15493E+01   416   0.102E+01    0.518E-01
DAV:   2    -0.625787544286E+02   -0.21801E-01   -0.23732E-01   448   0.177E+00    0.655E-01
DAV:   3    -0.625783635031E+02    0.39093E-03   -0.23911E-02   424   0.101E+00    0.492E-01
DAV:   4    -0.625781661980E+02    0.19731E-03   -0.97225E-03   424   0.544E-01    0.419E-01
DAV:   5    -0.625774690994E+02    0.69710E-03   -0.33548E-03   432   0.320E-01    0.168E-01
DAV:   6    -0.625779281572E+02   -0.45906E-03   -0.13580E-03   480   0.246E-01    0.230E-01
DAV:   7    -0.625778440011E+02    0.84156E-04   -0.14121E-03   472   0.249E-01    0.103E-01
DAV:   8    -0.625779971816E+02   -0.15318E-03   -0.43465E-04   344   0.134E-01    0.598E-02
DAV:   9    -0.625780276029E+02   -0.30421E-04   -0.10888E-04   280   0.669E-02
  17 F= -.62578028E+02 E0= -.62612781E+02  d E =-.151827E-01  mag=     6.5438
       N       E                     dE             d eps       ncg     rms          rms(c)
DAV:   1    -0.624202785751E+02    0.15772E+00   -0.14043E+02   416   0.308E+01    0.151E+00
DAV:   2    -0.626239530933E+02   -0.20367E+00   -0.21216E+00   440   0.535E+00    0.210E+00
DAV:   3    -0.626157609899E+02    0.81921E-02   -0.24865E-01   424   0.303E+00    0.165E+00
DAV:   4    -0.626091938931E+02    0.65671E-02   -0.99509E-02   424   0.161E+00    0.111E+00
DAV:   5    -0.626033183192E+02    0.58756E-02   -0.23867E-02   440   0.887E-01    0.508E-01
DAV:   6    -0.626052967131E+02   -0.19784E-02   -0.12404E-02   464   0.737E-01    0.695E-01
DAV:   7    -0.626026718646E+02    0.26248E-02   -0.12437E-02   472   0.768E-01    0.311E-01
DAV:   8    -0.626031103598E+02   -0.43850E-03   -0.35991E-03   448   0.396E-01    0.157E-01
DAV:   9    -0.626031887704E+02   -0.78411E-04   -0.70436E-04   448   0.183E-01
  18 F= -.62603189E+02 E0= -.62639450E+02  d E =-.403439E-01  mag=     6.5396
       N       E                     dE             d eps       ncg     rms          rms(c)
DAV:   1    -0.618326872104E+02    0.77042E+00   -0.57442E+02   416   0.632E+01    0.306E+00
DAV:   2    -0.626754502689E+02   -0.84276E+00   -0.85416E+00   440   0.109E+01    0.449E+00
DAV:   3    -0.626303008147E+02    0.45149E-01   -0.11400E+00   432   0.630E+00    0.355E+00
DAV:   4    -0.625915854385E+02    0.38715E-01   -0.58447E-01   432   0.330E+00    0.202E+00
DAV:   5    -0.625682101050E+02    0.23375E-01   -0.70931E-02   448   0.178E+00    0.101E+00
DAV:   6    -0.625714927914E+02   -0.32827E-02   -0.47410E-02   456   0.131E+00    0.122E+00
DAV:   7    -0.625644663456E+02    0.70264E-02   -0.51229E-02   456   0.145E+00    0.764E-01
DAV:   8    -0.625644981969E+02   -0.31851E-04   -0.19576E-02   448   0.957E-01    0.438E-01
DAV:   9    -0.625646984819E+02   -0.20029E-03   -0.48359E-03   440   0.490E-01    0.203E-01
DAV:  10    -0.625654028064E+02   -0.70432E-03   -0.13033E-03   464   0.251E-01    0.168E-01
DAV:  11    -0.625661492152E+02   -0.74641E-03   -0.65096E-04   368   0.162E-01    0.104E-01
DAV:  12    -0.625668610529E+02   -0.71184E-03   -0.34306E-04   304   0.116E-01    0.758E-02
DAV:  13    -0.625678097306E+02   -0.94868E-03   -0.33178E-04   328   0.897E-02    0.559E-02
DAV:  14    -0.625683654794E+02   -0.55575E-03   -0.99534E-05   288   0.610E-02    0.181E-02
DAV:  15    -0.625689531737E+02   -0.58769E-03   -0.37260E-05   280   0.230E-02    0.126E-02
DAV:  16    -0.625693854175E+02   -0.43224E-03   -0.14615E-05   296   0.169E-02    0.106E-02
DAV:  17    -0.625699047781E+02   -0.51936E-03   -0.12870E-05   288   0.116E-02    0.629E-03
DAV:  18    -0.625703973711E+02   -0.49259E-03   -0.11076E-05   288   0.744E-03    0.508E-03
DAV:  19    -0.625709838052E+02   -0.58643E-03   -0.13867E-05   288   0.707E-03    0.449E-03
DAV:  20    -0.625717940531E+02   -0.81025E-03   -0.30150E-05   304   0.752E-03    0.320E-03
DAV:  21    -0.625722944975E+02   -0.50044E-03   -0.15821E-05   288   0.676E-03    0.266E-03
DAV:  22    -0.625726044701E+02   -0.30997E-03   -0.12479E-05   288   0.576E-03    0.195E-03
DAV:  23    -0.625729118942E+02   -0.30742E-03   -0.12571E-05   288   0.504E-03    0.127E-03
DAV:  24    -0.625730807998E+02   -0.16891E-03   -0.81453E-06   280   0.426E-03    0.892E-04
DAV:  25    -0.625731863991E+02   -0.10560E-03   -0.53805E-06   280   0.325E-03    0.543E-04
DAV:  26    -0.625732564752E+02   -0.70076E-04   -0.31878E-06   280   0.254E-03
  19 F= -.62573256E+02 E0= -.62609773E+02  d E =-.104116E-01  mag=     6.4561
       N       E                     dE             d eps       ncg     rms          rms(c)
DAV:   1    -0.621758955170E+02    0.39729E+00   -0.32916E+02   416   0.474E+01    0.228E+00
DAV:   2    -0.626428264985E+02   -0.46693E+00   -0.48936E+00   440   0.812E+00    0.274E+00
DAV:   3    -0.626151470879E+02    0.27679E-01   -0.39009E-01   448   0.416E+00    0.121E+00
DAV:   4    -0.626112158775E+02    0.39312E-02   -0.58056E-02   448   0.157E+00    0.114E+00
DAV:   5    -0.626076373736E+02    0.35785E-02   -0.41848E-02   448   0.109E+00    0.942E-01
DAV:   6    -0.626066218084E+02    0.10156E-02   -0.43322E-02   440   0.975E-01    0.975E-01
DAV:   7    -0.626032998139E+02    0.33220E-02   -0.38829E-02   448   0.108E+00    0.608E-01
DAV:   8    -0.626022650396E+02    0.10348E-02   -0.96880E-03   448   0.647E-01    0.248E-01
DAV:   9    -0.626022720810E+02   -0.70414E-05   -0.16419E-03   448   0.280E-01    0.143E-01
DAV:  10    -0.626023668374E+02   -0.94756E-04   -0.40233E-04   344   0.139E-01
  20 F= -.62602367E+02 E0= -.62639244E+02  d E =-.395220E-01  mag=     6.4926
       N       E                     dE             d eps       ncg     rms          rms(c)
DAV:   1    -0.625733823838E+02    0.28890E-01   -0.43259E+01   416   0.169E+01    0.895E-01
DAV:   2    -0.626478524839E+02   -0.74470E-01   -0.70659E-01   432   0.326E+00    0.180E+00
DAV:   3    -0.626324097154E+02    0.15443E-01   -0.11549E-01   440   0.209E+00    0.853E-01
DAV:   4    -0.626327397175E+02   -0.33000E-03   -0.41606E-02   448   0.935E-01    0.724E-01
DAV:   5    -0.626308322681E+02    0.19074E-02   -0.10154E-02   448   0.553E-01    0.345E-01
DAV:   6    -0.626315207315E+02   -0.68846E-03   -0.38615E-03   448   0.383E-01    0.316E-01
DAV:   7    -0.626321816286E+02   -0.66090E-03   -0.44208E-03   448   0.358E-01    0.201E-01
DAV:   8    -0.626325210991E+02   -0.33947E-03   -0.16025E-03   456   0.270E-01    0.140E-01
DAV:   9    -0.626326377070E+02   -0.11661E-03   -0.48639E-04   296   0.147E-01    0.838E-02
DAV:  10    -0.626327383437E+02   -0.10064E-03   -0.91248E-05   280   0.646E-02    0.405E-02
DAV:  11    -0.626329761689E+02   -0.23783E-03   -0.60969E-05   296   0.396E-02    0.325E-02
DAV:  12    -0.626331229945E+02   -0.14683E-03   -0.34758E-05   288   0.360E-02    0.254E-02
DAV:  13    -0.626332597449E+02   -0.13675E-03   -0.21606E-05   280   0.257E-02    0.157E-02
DAV:  14    -0.626333777910E+02   -0.11805E-03   -0.10938E-05   280   0.169E-02    0.577E-03
DAV:  15    -0.626335270495E+02   -0.14926E-03   -0.50640E-06   280   0.811E-03    0.357E-03
DAV:  16    -0.626336270183E+02   -0.99969E-04   -0.21514E-06   272   0.530E-03
  21 F= -.62633627E+02 E0= -.62670788E+02  d E =-.312602E-01  mag=     6.5072
       N       E                     dE             d eps       ncg     rms          rms(c)
DAV:   1    -0.621561170523E+02    0.47741E+00   -0.39748E+02   416   0.519E+01    0.282E+00
DAV:   2    -0.628737653844E+02   -0.71765E+00   -0.66837E+00   448   0.101E+01    0.533E+00
DAV:   3    -0.626932269944E+02    0.18054E+00   -0.90244E-01   432   0.673E+00    0.235E+00
DAV:   4    -0.626946031086E+02   -0.13761E-02   -0.39658E-01   448   0.293E+00    0.245E+00
DAV:   5    -0.626685563608E+02    0.26047E-01   -0.10272E-01   440   0.175E+00    0.108E+00
DAV:   6    -0.626669774812E+02    0.15789E-02   -0.31001E-02   448   0.114E+00    0.874E-01
DAV:   7    -0.626653103881E+02    0.16671E-02   -0.36149E-02   440   0.116E+00    0.842E-01
DAV:   8    -0.626625930276E+02    0.27174E-02   -0.22933E-02   464   0.980E-01    0.454E-01
DAV:   9    -0.626632621473E+02   -0.66912E-03   -0.78418E-03   456   0.511E-01    0.341E-01
DAV:  10    -0.626635213510E+02   -0.25920E-03   -0.12878E-03   456   0.224E-01    0.137E-01
DAV:  11    -0.626648303021E+02   -0.13090E-02   -0.66731E-04   416   0.136E-01    0.108E-01
DAV:  12    -0.626653891156E+02   -0.55881E-03   -0.32277E-04   304   0.125E-01    0.799E-02
DAV:  13    -0.626660519739E+02   -0.66286E-03   -0.22072E-04   272   0.873E-02    0.473E-02
DAV:  14    -0.626665759505E+02   -0.52398E-03   -0.10556E-04   296   0.557E-02    0.181E-02
DAV:  15    -0.626670483296E+02   -0.47238E-03   -0.42366E-05   264   0.272E-02    0.126E-02
DAV:  16    -0.626673544963E+02   -0.30617E-03   -0.15412E-05   296   0.174E-02    0.969E-03
DAV:  17    -0.626677461150E+02   -0.39162E-03   -0.11086E-05   272   0.101E-02    0.626E-03
DAV:  18    -0.626681246085E+02   -0.37849E-03   -0.93959E-06   288   0.739E-03    0.518E-03
DAV:  19    -0.626685547804E+02   -0.43017E-03   -0.11029E-05   272   0.631E-03    0.385E-03
DAV:  20    -0.626691203144E+02   -0.56553E-03   -0.18522E-05   296   0.621E-03    0.335E-03
DAV:  21    -0.626695499814E+02   -0.42967E-03   -0.16240E-05   288   0.612E-03    0.257E-03
DAV:  22    -0.626698848385E+02   -0.33486E-03   -0.17007E-05   296   0.582E-03    0.172E-03
DAV:  23    -0.626700634491E+02   -0.17861E-03   -0.10870E-05   288   0.476E-03    0.122E-03
DAV:  24    -0.626702105209E+02   -0.14707E-03   -0.82299E-06   280   0.379E-03    0.981E-04
DAV:  25    -0.626703102552E+02   -0.99734E-04   -0.53339E-06   288   0.321E-03
  22 F= -.62670310E+02 E0= -.62708375E+02  d E =-.679434E-01  mag=     6.4367
       N       E                     dE             d eps       ncg     rms          rms(c)
DAV:   1    -0.626245626348E+02    0.45648E-01   -0.56471E+01   416   0.194E+01    0.896E-01
DAV:   2    -0.627070391400E+02   -0.82477E-01   -0.85284E-01   440   0.335E+00    0.119E+00
DAV:   3    -0.627015232851E+02    0.55159E-02   -0.70414E-02   440   0.176E+00    0.662E-01
DAV:   4    -0.627013482928E+02    0.17499E-03   -0.19063E-02   440   0.730E-01    0.648E-01
DAV:   5    -0.626993484420E+02    0.19999E-02   -0.84419E-03   448   0.485E-01    0.337E-01
DAV:   6    -0.626994323688E+02   -0.83927E-04   -0.57315E-03   456   0.399E-01    0.410E-01
DAV:   7    -0.626981705505E+02    0.12618E-02   -0.63704E-03   440   0.424E-01    0.227E-01
DAV:   8    -0.626980461558E+02    0.12439E-03   -0.19658E-03   440   0.283E-01    0.114E-01
DAV:   9    -0.626980555868E+02   -0.94310E-05   -0.35905E-04   312   0.132E-01
  23 F= -.62698056E+02 E0= -.62735760E+02  d E =-.277453E-01  mag=     6.4147
       N       E                     dE             d eps       ncg     rms          rms(c)
DAV:   1    -0.620646882356E+02    0.63336E+00   -0.52224E+02   416   0.602E+01    0.284E+00
DAV:   2    -0.628506555808E+02   -0.78597E+00   -0.79197E+00   448   0.105E+01    0.373E+00
DAV:   3    -0.627701475471E+02    0.80508E-01   -0.66398E-01   432   0.574E+00    0.172E+00
DAV:   4    -0.627587827620E+02    0.11365E-01   -0.10632E-01   440   0.204E+00    0.146E+00
DAV:   5    -0.627511372637E+02    0.76455E-02   -0.72266E-02   448   0.141E+00    0.127E+00
DAV:   6    -0.627431232815E+02    0.80140E-02   -0.67601E-02   456   0.122E+00    0.125E+00
DAV:   7    -0.627293174614E+02    0.13806E-01   -0.70148E-02   456   0.137E+00    0.919E-01
DAV:   8    -0.627236865908E+02    0.56309E-02   -0.25637E-02   448   0.975E-01    0.388E-01
DAV:   9    -0.627238160325E+02   -0.12944E-03   -0.38608E-03   440   0.433E-01    0.200E-01
DAV:  10    -0.627257621543E+02   -0.19461E-02   -0.88315E-04   448   0.209E-01    0.139E-01
DAV:  11    -0.627299526247E+02   -0.41905E-02   -0.65099E-04   376   0.132E-01    0.960E-02
DAV:  12    -0.627343002537E+02   -0.43476E-02   -0.50342E-04   392   0.116E-01    0.695E-02
DAV:  13    -0.627383014829E+02   -0.40012E-02   -0.27606E-04   296   0.907E-02    0.569E-02
DAV:  14    -0.627406970317E+02   -0.23955E-02   -0.12351E-04   288   0.648E-02    0.299E-02
DAV:  15    -0.627446380118E+02   -0.39410E-02   -0.10970E-04   296   0.334E-02    0.255E-02
DAV:  16    -0.627480983018E+02   -0.34603E-02   -0.67609E-05   296   0.288E-02    0.204E-02
DAV:  17    -0.627536388586E+02   -0.55406E-02   -0.15258E-04   320   0.231E-02    0.157E-02
DAV:  18    -0.627587188853E+02   -0.50800E-02   -0.14894E-04   352   0.225E-02    0.133E-02
DAV:  19    -0.627630642482E+02   -0.43454E-02   -0.18215E-04   328   0.220E-02    0.908E-03
DAV:  20    -0.627649461797E+02   -0.18819E-02   -0.54759E-05   304   0.145E-02    0.648E-03
DAV:  21    -0.627660056348E+02   -0.10595E-02   -0.32256E-05   288   0.113E-02    0.459E-03
DAV:  22    -0.627668829136E+02   -0.87728E-03   -0.24586E-05   280   0.844E-03    0.300E-03
DAV:  23    -0.627676856014E+02   -0.80269E-03   -0.19403E-05   280   0.697E-03    0.221E-03
DAV:  24    -0.627681129606E+02   -0.42736E-03   -0.11934E-05   288   0.571E-03    0.161E-03
DAV:  25    -0.627684951031E+02   -0.38214E-03   -0.89936E-06   272   0.450E-03    0.106E-03
DAV:  26    -0.627686971388E+02   -0.20204E-03   -0.55318E-06   280   0.354E-03    0.727E-04
DAV:  27    -0.627687683431E+02   -0.71204E-04   -0.30444E-06   280   0.253E-03
  24 F= -.62768768E+02 E0= -.62800734E+02  d E =-.984581E-01  mag=     6.1264
       N       E                     dE             d eps       ncg     rms          rms(c)
DAV:   1    -0.598406273156E+02    0.29281E+01   -0.22559E+03   416   0.131E+02    0.745E+00
DAV:   2    -0.643703563417E+02   -0.45297E+01   -0.40459E+01   440   0.262E+01    0.127E+01
DAV:   3    -0.631286755540E+02    0.12417E+01   -0.46636E+00   432   0.176E+01    0.830E+00
DAV:   4    -0.627901663756E+02    0.33851E+00   -0.38498E+00   448   0.816E+00    0.466E+00
DAV:   5    -0.626662167449E+02    0.12395E+00   -0.46318E-01   456   0.410E+00    0.262E+00
DAV:   6    -0.626186353232E+02    0.47581E-01   -0.12010E-01   440   0.262E+00    0.193E+00
DAV:   7    -0.626241077719E+02   -0.54724E-02   -0.10891E-01   472   0.225E+00    0.208E+00
DAV:   8    -0.625961800667E+02    0.27928E-01   -0.14141E-01   456   0.213E+00    0.183E+00
DAV:   9    -0.626009795896E+02   -0.47995E-02   -0.95321E-02   456   0.171E+00    0.117E+00
DAV:  10    -0.626124622179E+02   -0.11483E-01   -0.39084E-02   456   0.102E+00    0.437E-01
DAV:  11    -0.626248408245E+02   -0.12379E-01   -0.68653E-03   440   0.488E-01    0.399E-01
DAV:  12    -0.626369239442E+02   -0.12083E-01   -0.51416E-03   456   0.452E-01    0.394E-01
DAV:  13    -0.626476043074E+02   -0.10680E-01   -0.46497E-03   440   0.403E-01    0.273E-01
DAV:  14    -0.626524228657E+02   -0.48186E-02   -0.20235E-03   456   0.265E-01    0.157E-01
DAV:  15    -0.626605098157E+02   -0.80869E-02   -0.73837E-04   384   0.149E-01    0.104E-01
DAV:  16    -0.626675218112E+02   -0.70120E-02   -0.37866E-04   336   0.115E-01    0.919E-02
DAV:  17    -0.626737525540E+02   -0.62307E-02   -0.21805E-04   296   0.815E-02    0.638E-02
DAV:  18    -0.626811368654E+02   -0.73843E-02   -0.24172E-04   336   0.614E-02    0.514E-02
DAV:  19    -0.626921638525E+02   -0.11027E-01   -0.33883E-04   328   0.554E-02    0.432E-02
DAV:  20    -0.627048120154E+02   -0.12648E-01   -0.43888E-04   352   0.522E-02    0.350E-02
DAV:  21    -0.627138783939E+02   -0.90664E-02   -0.24212E-04   344   0.434E-02    0.264E-02
DAV:  22    -0.627250909116E+02   -0.11213E-01   -0.35812E-04   352   0.343E-02    0.192E-02
DAV:  23    -0.627326914889E+02   -0.76006E-02   -0.24147E-04   352   0.329E-02    0.171E-02
DAV:  24    -0.627364679108E+02   -0.37764E-02   -0.10629E-04   320   0.242E-02    0.950E-03
DAV:  25    -0.627385121450E+02   -0.20442E-02   -0.46617E-05   296   0.138E-02    0.727E-03
DAV:  26    -0.627405279130E+02   -0.20158E-02   -0.50526E-05   288   0.125E-02    0.519E-03
DAV:  27    -0.627419177981E+02   -0.13899E-02   -0.25921E-05   256   0.103E-02    0.399E-03
DAV:  28    -0.627427777967E+02   -0.86000E-03   -0.20068E-05   296   0.787E-03    0.275E-03
DAV:  29    -0.627433145148E+02   -0.53672E-03   -0.10920E-05   264   0.631E-03    0.186E-03
DAV:  30    -0.627436313478E+02   -0.31683E-03   -0.67902E-06   288   0.417E-03    0.136E-03
DAV:  31    -0.627437680997E+02   -0.13675E-03   -0.32851E-06   280   0.316E-03    0.973E-04
DAV:  32    -0.627438301598E+02   -0.62060E-04   -0.18698E-06   280   0.208E-03
  25 F= -.62743830E+02 E0= -.62766424E+02  d E =-.735199E-01  mag=     5.4635
       N       E                     dE             d eps       ncg     rms          rms(c)
DAV:   1    -0.615726947638E+02    0.11711E+01   -0.96462E+02   416   0.831E+01    0.362E+00
DAV:   2    -0.629408627965E+02   -0.13682E+01   -0.13824E+01   432   0.134E+01    0.551E+00
DAV:   3    -0.628824756422E+02    0.58387E-01   -0.23147E+00   432   0.702E+00    0.427E+00
DAV:   4    -0.628417156536E+02    0.40760E-01   -0.87893E-01   448   0.444E+00    0.314E+00
DAV:   5    -0.627738052207E+02    0.67910E-01   -0.16654E-01   440   0.273E+00    0.128E+00
DAV:   6    -0.627636554274E+02    0.10150E-01   -0.57777E-02   456   0.123E+00    0.135E+00
DAV:   7    -0.627391823724E+02    0.24473E-01   -0.81355E-02   440   0.165E+00    0.143E+00
DAV:   8    -0.627168709322E+02    0.22311E-01   -0.45991E-02   448   0.136E+00    0.704E-01
DAV:   9    -0.627102844025E+02    0.65865E-02   -0.13894E-02   456   0.772E-01    0.255E-01
DAV:  10    -0.627124125521E+02   -0.21281E-02   -0.33270E-03   440   0.357E-01    0.240E-01
DAV:  11    -0.627164320107E+02   -0.40195E-02   -0.13804E-03   456   0.254E-01    0.136E-01
DAV:  12    -0.627253326883E+02   -0.89007E-02   -0.14549E-03   456   0.182E-01    0.139E-01
DAV:  13    -0.627318410066E+02   -0.65083E-02   -0.77789E-04   384   0.162E-01    0.113E-01
DAV:  14    -0.627372630663E+02   -0.54221E-02   -0.38807E-04   352   0.108E-01    0.637E-02
DAV:  15    -0.627426541914E+02   -0.53911E-02   -0.17497E-04   312   0.612E-02    0.413E-02
DAV:  16    -0.627504087484E+02   -0.77546E-02   -0.19632E-04   328   0.389E-02    0.351E-02
DAV:  17    -0.627578057594E+02   -0.73970E-02   -0.12374E-04   312   0.336E-02    0.269E-02
DAV:  18    -0.627656361056E+02   -0.78303E-02   -0.18483E-04   320   0.310E-02    0.268E-02
DAV:  19    -0.627750662479E+02   -0.94301E-02   -0.26560E-04   336   0.356E-02    0.213E-02
DAV:  20    -0.627821769634E+02   -0.71107E-02   -0.30223E-04   352   0.299E-02    0.125E-02
DAV:  21    -0.627847588543E+02   -0.25819E-02   -0.64515E-05   312   0.181E-02    0.926E-03
DAV:  22    -0.627862152186E+02   -0.14564E-02   -0.30511E-05   288   0.140E-02    0.692E-03
DAV:  23    -0.627877442766E+02   -0.15291E-02   -0.32450E-05   304   0.104E-02    0.484E-03
DAV:  24    -0.627889115425E+02   -0.11673E-02   -0.16610E-05   296   0.839E-03    0.358E-03
DAV:  25    -0.627899901386E+02   -0.10786E-02   -0.17743E-05   296   0.697E-03    0.247E-03
DAV:  26    -0.627904983397E+02   -0.50820E-03   -0.89890E-06   296   0.547E-03    0.168E-03
DAV:  27    -0.627909016574E+02   -0.40332E-03   -0.79468E-06   296   0.431E-03    0.132E-03
DAV:  28    -0.627910696825E+02   -0.16803E-03   -0.37501E-06   288   0.344E-03    0.748E-04
DAV:  29    -0.627911519350E+02   -0.82252E-04   -0.20195E-06   280   0.202E-03
  26 F= -.62791152E+02 E0= -.62819271E+02  d E =-.120842E+00  mag=     5.8497
       N       E                     dE             d eps       ncg     rms          rms(c)
DAV:   1    -0.627563113760E+02    0.34758E-01   -0.54053E+01   416   0.190E+01    0.943E-01
DAV:   2    -0.628418003827E+02   -0.85489E-01   -0.84310E-01   440   0.355E+00    0.158E+00
DAV:   3    -0.628290426728E+02    0.12758E-01   -0.10648E-01   432   0.218E+00    0.971E-01
DAV:   4    -0.628264837632E+02    0.25589E-02   -0.48520E-02   440   0.996E-01    0.844E-01
DAV:   5    -0.628226356955E+02    0.38481E-02   -0.16393E-02   440   0.622E-01    0.396E-01
DAV:   6    -0.628214462518E+02    0.11894E-02   -0.60548E-03   480   0.454E-01    0.409E-01
DAV:   7    -0.628159661445E+02    0.54801E-02   -0.76988E-03   464   0.423E-01    0.265E-01
DAV:   8    -0.628143919197E+02    0.15742E-02   -0.24623E-03   464   0.311E-01    0.124E-01
DAV:   9    -0.628140917617E+02    0.30016E-03   -0.40068E-04   328   0.133E-01    0.653E-02
DAV:  10    -0.628146576993E+02   -0.56594E-03   -0.90807E-05   264   0.650E-02    0.596E-02
DAV:  11    -0.628154795474E+02   -0.82185E-03   -0.90002E-05   280   0.464E-02    0.343E-02
DAV:  12    -0.628164814308E+02   -0.10019E-02   -0.69262E-05   280   0.379E-02    0.243E-02
DAV:  13    -0.628176068217E+02   -0.11254E-02   -0.60206E-05   272   0.289E-02    0.190E-02
DAV:  14    -0.628183740241E+02   -0.76720E-03   -0.29584E-05   288   0.241E-02    0.156E-02
DAV:  15    -0.628195643381E+02   -0.11903E-02   -0.34634E-05   272   0.185E-02    0.143E-02
DAV:  16    -0.628205764308E+02   -0.10121E-02   -0.28335E-05   296   0.163E-02    0.115E-02
DAV:  17    -0.628221740596E+02   -0.15976E-02   -0.57612E-05   288   0.129E-02    0.775E-03
DAV:  18    -0.628235803973E+02   -0.14063E-02   -0.47355E-05   288   0.108E-02    0.614E-03
DAV:  19    -0.628249635795E+02   -0.13832E-02   -0.68103E-05   296   0.116E-02    0.406E-03
DAV:  20    -0.628257018946E+02   -0.73832E-03   -0.34698E-05   288   0.953E-03    0.290E-03
DAV:  21    -0.628260987263E+02   -0.39683E-03   -0.20473E-05   296   0.733E-03    0.226E-03
DAV:  22    -0.628264833597E+02   -0.38463E-03   -0.13846E-05   272   0.580E-03    0.172E-03
DAV:  23    -0.628268935069E+02   -0.41015E-03   -0.10605E-05   296   0.467E-03    0.111E-03
DAV:  24    -0.628271433238E+02   -0.24982E-03   -0.66717E-06   288   0.392E-03    0.100E-03
DAV:  25    -0.628272609102E+02   -0.11759E-03   -0.42538E-06   280   0.301E-03    0.605E-04
DAV:  26    -0.628273299313E+02   -0.69021E-04   -0.25231E-06   280   0.220E-03
  27 F= -.62827330E+02 E0= -.62853999E+02  d E =-.361780E-01  mag=     5.7142
       N       E                     dE             d eps       ncg     rms          rms(c)
DAV:   1    -0.622545970657E+02    0.57266E+00   -0.49875E+02   416   0.587E+01    0.318E+00
DAV:   2    -0.632646824474E+02   -0.10101E+01   -0.86228E+00   440   0.121E+01    0.708E+00
DAV:   3    -0.629739879775E+02    0.29069E+00   -0.18131E+00   432   0.839E+00    0.417E+00
DAV:   4    -0.628908823702E+02    0.83106E-01   -0.73182E-01   432   0.372E+00    0.196E+00
DAV:   5    -0.628714606366E+02    0.19422E-01   -0.85879E-02   456   0.177E+00    0.119E+00
DAV:   6    -0.628629730195E+02    0.84876E-02   -0.30038E-02   464   0.127E+00    0.968E-01
DAV:   7    -0.628582763916E+02    0.46966E-02   -0.61847E-02   472   0.148E+00    0.132E+00
DAV:   8    -0.628454304589E+02    0.12846E-01   -0.43908E-02   472   0.122E+00    0.669E-01
DAV:   9    -0.628465575087E+02   -0.11270E-02   -0.10544E-02   448   0.576E-01    0.305E-01
DAV:  10    -0.628488005640E+02   -0.22431E-02   -0.28339E-03   448   0.311E-01    0.181E-01
DAV:  11    -0.628540600766E+02   -0.52595E-02   -0.11202E-03   432   0.188E-01    0.157E-01
DAV:  12    -0.628573515439E+02   -0.32915E-02   -0.65047E-04   392   0.149E-01    0.779E-02
DAV:  13    -0.628601656250E+02   -0.28141E-02   -0.35043E-04   312   0.106E-01    0.842E-02
DAV:  14    -0.628636172361E+02   -0.34516E-02   -0.28837E-04   312   0.854E-02    0.424E-02
DAV:  15    -0.628671549341E+02   -0.35377E-02   -0.14601E-04   312   0.473E-02    0.317E-02
DAV:  16    -0.628694051431E+02   -0.22502E-02   -0.64370E-05   272   0.375E-02    0.266E-02
DAV:  17    -0.628733704306E+02   -0.39653E-02   -0.10560E-04   304   0.254E-02    0.202E-02
DAV:  18    -0.628768631306E+02   -0.34927E-02   -0.98956E-05   312   0.234E-02    0.194E-02
DAV:  19    -0.628805045645E+02   -0.36414E-02   -0.82080E-05   304   0.223E-02    0.129E-02
DAV:  20    -0.628845238505E+02   -0.40193E-02   -0.17577E-04   336   0.206E-02    0.116E-02
DAV:  21    -0.628867186091E+02   -0.21948E-02   -0.63338E-05   296   0.169E-02    0.744E-03
DAV:  22    -0.628881000271E+02   -0.13814E-02   -0.51397E-05   296   0.126E-02    0.504E-03
DAV:  23    -0.628888762268E+02   -0.77620E-03   -0.23277E-05   296   0.988E-03    0.374E-03
DAV:  24    -0.628896383100E+02   -0.76208E-03   -0.19791E-05   264   0.760E-03    0.296E-03
DAV:  25    -0.628900867863E+02   -0.44848E-03   -0.10611E-05   288   0.616E-03    0.215E-03
DAV:  26    -0.628905374286E+02   -0.45064E-03   -0.87572E-06   272   0.474E-03    0.166E-03
DAV:  27    -0.628907997438E+02   -0.26232E-03   -0.54838E-06   288   0.383E-03    0.109E-03
DAV:  28    -0.628909203795E+02   -0.12064E-03   -0.32850E-06   264   0.287E-03    0.734E-04
DAV:  29    -0.628910063961E+02   -0.86017E-04   -0.20631E-06   280   0.214E-03
  28 F= -.62891006E+02 E0= -.62912869E+02  d E =-.998545E-01  mag=     5.4502
       N       E                     dE             d eps       ncg     rms          rms(c)
DAV:   1    -0.628582572098E+02    0.32663E-01   -0.26592E+01   416   0.134E+01    0.755E-01
DAV:   2    -0.629142201579E+02   -0.55963E-01   -0.47395E-01   432   0.282E+00    0.200E+00
DAV:   3    -0.628953886186E+02    0.18832E-01   -0.15109E-01   432   0.205E+00    0.109E+00
DAV:   4    -0.628913953222E+02    0.39933E-02   -0.37543E-02   448   0.893E-01    0.420E-01
DAV:   5    -0.628907053493E+02    0.68997E-03   -0.40822E-03   456   0.406E-01    0.260E-01
DAV:   6    -0.628904503301E+02    0.25502E-03   -0.31540E-03   448   0.336E-01    0.312E-01
DAV:   7    -0.628893655334E+02    0.10848E-02   -0.40279E-03   456   0.336E-01    0.208E-01
DAV:   8    -0.628890907126E+02    0.27482E-03   -0.14040E-03   440   0.242E-01    0.105E-01
DAV:   9    -0.628891236100E+02   -0.32897E-04   -0.24726E-04   280   0.114E-01
  29 F= -.62889124E+02 E0= -.62909507E+02  d E =-.979717E-01  mag=     5.4452
       N       E                     dE             d eps       ncg     rms          rms(c)
DAV:   1    -0.628918213212E+02   -0.27306E-02   -0.25181E+01   416   0.131E+01    0.755E-01
DAV:   2    -0.629408805800E+02   -0.49059E-01   -0.42576E-01   424   0.275E+00    0.159E+00
DAV:   3    -0.629229068794E+02    0.17974E-01   -0.73937E-02   424   0.186E+00    0.469E-01
DAV:   4    -0.629246413576E+02   -0.17345E-02   -0.18577E-02   432   0.747E-01    0.666E-01
DAV:   5    -0.629216897489E+02    0.29516E-02   -0.10502E-02   440   0.503E-01    0.333E-01
DAV:   6    -0.629219725018E+02   -0.28275E-03   -0.62079E-03   472   0.373E-01    0.386E-01
DAV:   7    -0.629205647288E+02    0.14078E-02   -0.45690E-03   448   0.336E-01    0.214E-01
DAV:   8    -0.629202418957E+02    0.32283E-03   -0.18542E-03   448   0.282E-01    0.107E-01
DAV:   9    -0.629205265532E+02   -0.28466E-03   -0.38593E-04   280   0.130E-01    0.704E-02
DAV:  10    -0.629207843117E+02   -0.25776E-03   -0.14008E-04   296   0.759E-02    0.398E-02
DAV:  11    -0.629211702856E+02   -0.38597E-03   -0.50245E-05   304   0.421E-02    0.301E-02
DAV:  12    -0.629218936198E+02   -0.72333E-03   -0.52777E-05   304   0.323E-02    0.188E-02
DAV:  13    -0.629223296121E+02   -0.43599E-03   -0.26024E-05   296   0.237E-02    0.122E-02
DAV:  14    -0.629228502080E+02   -0.52060E-03   -0.19382E-05   304   0.158E-02    0.928E-03
DAV:  15    -0.629232267799E+02   -0.37657E-03   -0.11753E-05   288   0.116E-02    0.611E-03
DAV:  16    -0.629237853667E+02   -0.55859E-03   -0.12656E-05   296   0.738E-03    0.511E-03
DAV:  17    -0.629243466626E+02   -0.56130E-03   -0.14238E-05   304   0.555E-03    0.429E-03
DAV:  18    -0.629248171301E+02   -0.47047E-03   -0.11260E-05   288   0.590E-03    0.326E-03
DAV:  19    -0.629253652629E+02   -0.54813E-03   -0.17482E-05   296   0.636E-03    0.296E-03
DAV:  20    -0.629258759773E+02   -0.51071E-03   -0.19310E-05   288   0.622E-03    0.178E-03
DAV:  21    -0.629261055506E+02   -0.22957E-03   -0.11949E-05   304   0.528E-03    0.129E-03
DAV:  22    -0.629262930914E+02   -0.18754E-03   -0.86071E-06   256   0.380E-03    0.931E-04
DAV:  23    -0.629264508429E+02   -0.15775E-03   -0.47504E-06   288   0.321E-03    0.905E-04
DAV:  24    -0.629265448597E+02   -0.94017E-04   -0.27039E-06   272   0.228E-03
  30 F= -.62926545E+02 E0= -.62945855E+02  d E =-.374212E-01  mag=     5.4459
       N       E                     dE             d eps       ncg     rms          rms(c)
DAV:   1    -0.626913342029E+02    0.23512E+00   -0.22884E+02   416   0.397E+01    0.229E+00
DAV:   2    -0.631352741812E+02   -0.44394E+00   -0.38045E+00   440   0.828E+00    0.469E+00
DAV:   3    -0.629882841568E+02    0.14699E+00   -0.69259E-01   440   0.557E+00    0.163E+00
DAV:   4    -0.629940815846E+02   -0.57974E-02   -0.20936E-01   456   0.220E+00    0.213E+00
DAV:   5    -0.629771103599E+02    0.16971E-01   -0.13177E-01   448   0.176E+00    0.117E+00
DAV:   6    -0.629717754111E+02    0.53349E-02   -0.39918E-02   448   0.112E+00    0.922E-01
DAV:   7    -0.629677944993E+02    0.39809E-02   -0.33280E-02   448   0.102E+00    0.777E-01
DAV:   8    -0.629606833541E+02    0.71111E-02   -0.21215E-02   456   0.918E-01    0.360E-01
DAV:   9    -0.629613204090E+02   -0.63705E-03   -0.45341E-03   440   0.447E-01    0.259E-01
DAV:  10    -0.629617899599E+02   -0.46955E-03   -0.15919E-03   440   0.254E-01    0.127E-01
DAV:  11    -0.629627647960E+02   -0.97484E-03   -0.53615E-04   368   0.150E-01    0.109E-01
DAV:  12    -0.629642016852E+02   -0.14369E-02   -0.42113E-04   312   0.118E-01    0.698E-02
DAV:  13    -0.629653469106E+02   -0.11452E-02   -0.18659E-04   304   0.818E-02    0.377E-02
DAV:  14    -0.629669747792E+02   -0.16279E-02   -0.14154E-04   320   0.494E-02    0.269E-02
DAV:  15    -0.629680780819E+02   -0.11033E-02   -0.54914E-05   304   0.368E-02    0.170E-02
DAV:  16    -0.629695082511E+02   -0.14302E-02   -0.46114E-05   312   0.202E-02    0.121E-02
DAV:  17    -0.629708853825E+02   -0.13771E-02   -0.28258E-05   304   0.120E-02    0.102E-02
DAV:  18    -0.629721038693E+02   -0.12185E-02   -0.26601E-05   304   0.118E-02    0.854E-03
DAV:  19    -0.629735486331E+02   -0.14448E-02   -0.33897E-05   296   0.112E-02    0.651E-03
DAV:  20    -0.629751192409E+02   -0.15706E-02   -0.70129E-05   320   0.118E-02    0.533E-03
DAV:  21    -0.629757951147E+02   -0.67587E-03   -0.20814E-05   304   0.943E-03    0.387E-03
DAV:  22    -0.629764269854E+02   -0.63187E-03   -0.21306E-05   288   0.708E-03    0.272E-03
DAV:  23    -0.629769170929E+02   -0.49011E-03   -0.14282E-05   296   0.620E-03    0.231E-03
DAV:  24    -0.629772917220E+02   -0.37463E-03   -0.11745E-05   280   0.540E-03    0.179E-03
DAV:  25    -0.629775571682E+02   -0.26545E-03   -0.69600E-06   280   0.426E-03    0.121E-03
DAV:  26    -0.629777714089E+02   -0.21424E-03   -0.44122E-06   272   0.305E-03    0.995E-04
DAV:  27    -0.629779538254E+02   -0.18242E-03   -0.28845E-06   280   0.262E-03    0.718E-04
DAV:  28    -0.629780727608E+02   -0.11894E-03   -0.19148E-06   288   0.199E-03    0.506E-04
DAV:  29    -0.629781155389E+02   -0.42778E-04   -0.10435E-06   272   0.149E-03
  31 F= -.62978116E+02 E0= -.62995814E+02  d E =-.889919E-01  mag=     5.4860
       N       E                     dE             d eps       ncg     rms          rms(c)
DAV:   1    -0.629820031828E+02   -0.39304E-02   -0.26194E+01   416   0.133E+01    0.888E-01
DAV:   2    -0.630441597308E+02   -0.62157E-01   -0.47252E-01   448   0.318E+00    0.230E+00
DAV:   3    -0.630146092829E+02    0.29550E-01   -0.13144E-01   432   0.227E+00    0.974E-01
DAV:   4    -0.630148905334E+02   -0.28125E-03   -0.50806E-02   432   0.105E+00    0.867E-01
DAV:   5    -0.630113906616E+02    0.34999E-02   -0.13268E-02   448   0.597E-01    0.405E-01
DAV:   6    -0.630101816215E+02    0.12090E-02   -0.44859E-03   464   0.445E-01    0.359E-01
DAV:   7    -0.630076248812E+02    0.25567E-02   -0.59162E-03   464   0.403E-01    0.300E-01
DAV:   8    -0.630053550956E+02    0.22698E-02   -0.29233E-03   456   0.345E-01    0.118E-01
DAV:   9    -0.630049302490E+02    0.42485E-03   -0.54402E-04   336   0.149E-01    0.926E-02
DAV:  10    -0.630048501134E+02    0.80136E-04   -0.17711E-04   272   0.938E-02
  32 F= -.63004850E+02 E0= -.63023322E+02  d E =-.267346E-01  mag=     5.5358
       N       E                     dE             d eps       ncg     rms          rms(c)
DAV:   1    -0.629817787870E+02    0.23151E-01   -0.30834E+01   416   0.144E+01    0.103E+00
DAV:   2    -0.630540614094E+02   -0.72283E-01   -0.56557E-01   448   0.354E+00    0.257E+00
DAV:   3    -0.630187585628E+02    0.35303E-01   -0.16195E-01   440   0.257E+00    0.107E+00
DAV:   4    -0.630187853322E+02   -0.26769E-04   -0.65136E-02   440   0.118E+00    0.996E-01
DAV:   5    -0.630131574906E+02    0.56278E-02   -0.17273E-02   440   0.667E-01    0.410E-01
DAV:   6    -0.630110626029E+02    0.20949E-02   -0.48027E-03   464   0.482E-01    0.395E-01
DAV:   7    -0.630062884047E+02    0.47742E-02   -0.65801E-03   448   0.458E-01    0.347E-01
DAV:   8    -0.630029332656E+02    0.33551E-02   -0.32844E-03   448   0.373E-01    0.138E-01
DAV:   9    -0.630023251447E+02    0.60812E-03   -0.63344E-04   416   0.165E-01    0.103E-01
DAV:  10    -0.630026154170E+02   -0.29027E-03   -0.21445E-04   272   0.107E-01    0.584E-02
DAV:  11    -0.630034177223E+02   -0.80231E-03   -0.15179E-04   280   0.678E-02    0.653E-02
DAV:  12    -0.630044133900E+02   -0.99567E-03   -0.11961E-04   296   0.612E-02    0.304E-02
DAV:  13    -0.630068063424E+02   -0.23930E-02   -0.10931E-04   288   0.342E-02    0.279E-02
DAV:  14    -0.630090228369E+02   -0.22165E-02   -0.73008E-05   296   0.325E-02    0.232E-02
DAV:  15    -0.630119028095E+02   -0.28800E-02   -0.75149E-05   288   0.250E-02    0.189E-02
DAV:  16    -0.630148411628E+02   -0.29384E-02   -0.77720E-05   288   0.186E-02    0.162E-02
DAV:  17    -0.630182936555E+02   -0.34525E-02   -0.10489E-04   304   0.196E-02    0.109E-02
DAV:  18    -0.630213075338E+02   -0.30139E-02   -0.12779E-04   320   0.169E-02    0.734E-03
DAV:  19    -0.630229619618E+02   -0.16544E-02   -0.49421E-05   312   0.132E-02    0.610E-03
DAV:  20    -0.630238561579E+02   -0.89420E-03   -0.25318E-05   296   0.107E-02    0.415E-03
DAV:  21    -0.630248105823E+02   -0.95442E-03   -0.23708E-05   296   0.772E-03    0.332E-03
DAV:  22    -0.630254382179E+02   -0.62764E-03   -0.14351E-05   296   0.696E-03    0.235E-03
DAV:  23    -0.630259884496E+02   -0.55023E-03   -0.12345E-05   280   0.538E-03    0.152E-03
DAV:  24    -0.630263773907E+02   -0.38894E-03   -0.89707E-06   296   0.440E-03    0.996E-04
DAV:  25    -0.630265274309E+02   -0.15004E-03   -0.47377E-06   288   0.326E-03    0.754E-04
DAV:  26    -0.630266048367E+02   -0.77406E-04   -0.24415E-06   280   0.225E-03
  33 F= -.63026605E+02 E0= -.63045550E+02  d E =-.484893E-01  mag=     5.7463
       N       E                     dE             d eps       ncg     rms          rms(c)
DAV:   1    -0.630111421231E+02    0.15385E-01   -0.31221E+01   416   0.145E+01    0.949E-01
DAV:   2    -0.630736295126E+02   -0.62487E-01   -0.53338E-01   440   0.317E+00    0.206E+00
DAV:   3    -0.630503127439E+02    0.23317E-01   -0.12319E-01   424   0.224E+00    0.838E-01
DAV:   4    -0.630528572684E+02   -0.25445E-02   -0.54954E-02   424   0.107E+00    0.107E+00
DAV:   5    -0.630465819923E+02    0.62753E-02   -0.20694E-02   440   0.685E-01    0.362E-01
DAV:   6    -0.630462118257E+02    0.37017E-03   -0.68254E-03   456   0.506E-01    0.439E-01
DAV:   7    -0.630422687560E+02    0.39431E-02   -0.64373E-03   456   0.443E-01    0.253E-01
DAV:   8    -0.630405610212E+02    0.17077E-02   -0.19581E-03   440   0.308E-01    0.120E-01
DAV:   9    -0.630400245483E+02    0.53647E-03   -0.46156E-04   360   0.148E-01    0.871E-02
DAV:  10    -0.630399637531E+02    0.60795E-04   -0.16985E-04   280   0.972E-02
  34 F= -.63039964E+02 E0= -.63060133E+02  d E =-.133589E-01  mag=     5.8007
       N       E                     dE             d eps       ncg     rms          rms(c)
DAV:   1    -0.630293990752E+02    0.10625E-01   -0.11312E+01   416   0.873E+00    0.586E-01
DAV:   2    -0.630506354876E+02   -0.21236E-01   -0.19449E-01   432   0.191E+00    0.121E+00
DAV:   3    -0.630425066889E+02    0.81288E-02   -0.41672E-02   424   0.136E+00    0.469E-01
DAV:   4    -0.630437604783E+02   -0.12538E-02   -0.20935E-02   424   0.646E-01    0.685E-01
DAV:   5    -0.630409744954E+02    0.27860E-02   -0.86403E-03   432   0.431E-01    0.211E-01
DAV:   6    -0.630405990084E+02    0.37549E-03   -0.23666E-03   448   0.301E-01    0.274E-01
DAV:   7    -0.630390269411E+02    0.15721E-02   -0.20495E-03   456   0.252E-01    0.137E-01
DAV:   8    -0.630388709220E+02    0.15602E-03   -0.60867E-04   432   0.169E-01    0.840E-02
DAV:   9    -0.630390356004E+02   -0.16468E-03   -0.17200E-04   280   0.855E-02    0.505E-02
DAV:  10    -0.630394935459E+02   -0.45795E-03   -0.51154E-05   280   0.512E-02    0.362E-02
DAV:  11    -0.630404154748E+02   -0.92193E-03   -0.48116E-05   272   0.368E-02    0.297E-02
DAV:  12    -0.630410954843E+02   -0.68001E-03   -0.35756E-05   280   0.324E-02    0.204E-02
DAV:  13    -0.630423658764E+02   -0.12704E-02   -0.36186E-05   264   0.230E-02    0.175E-02
DAV:  14    -0.630436825848E+02   -0.13167E-02   -0.40337E-05   288   0.184E-02    0.126E-02
DAV:  15    -0.630453016437E+02   -0.16191E-02   -0.29268E-05   280   0.135E-02    0.111E-02
DAV:  16    -0.630470255611E+02   -0.17239E-02   -0.48272E-05   296   0.128E-02    0.949E-03
DAV:  17    -0.630490196489E+02   -0.19941E-02   -0.55896E-05   288   0.125E-02    0.635E-03
DAV:  18    -0.630504015834E+02   -0.13819E-02   -0.39171E-05   288   0.107E-02    0.483E-03
DAV:  19    -0.630513155698E+02   -0.91399E-03   -0.40418E-05   296   0.101E-02    0.392E-03
DAV:  20    -0.630519510622E+02   -0.63549E-03   -0.19326E-05   296   0.791E-03    0.223E-03
DAV:  21    -0.630523636582E+02   -0.41260E-03   -0.11682E-05   288   0.540E-03    0.185E-03
DAV:  22    -0.630527525944E+02   -0.38894E-03   -0.78649E-06   280   0.459E-03    0.127E-03
DAV:  23    -0.630530895595E+02   -0.33697E-03   -0.64029E-06   296   0.364E-03    0.908E-04
DAV:  24    -0.630532526276E+02   -0.16307E-03   -0.35197E-06   280   0.299E-03    0.723E-04
DAV:  25    -0.630533617720E+02   -0.10914E-03   -0.24455E-06   288   0.224E-03    0.436E-04
DAV:  26    -0.630534011281E+02   -0.39356E-04   -0.12182E-06   256   0.157E-03
  35 F= -.63053401E+02 E0= -.63074745E+02  d E =-.267963E-01  mag=     5.9325
       N       E                     dE             d eps       ncg     rms          rms(c)
DAV:   1    -0.630446855145E+02    0.86763E-02   -0.13012E+01   416   0.932E+00    0.678E-01
DAV:   2    -0.630723284341E+02   -0.27643E-01   -0.24433E-01   440   0.214E+00    0.153E+00
DAV:   3    -0.630613522523E+02    0.10976E-01   -0.81231E-02   440   0.161E+00    0.741E-01
DAV:   4    -0.630612544992E+02    0.97753E-04   -0.31305E-02   432   0.812E-01    0.643E-01
DAV:   5    -0.630593129804E+02    0.19415E-02   -0.10687E-02   448   0.538E-01    0.321E-01
DAV:   6    -0.630589817381E+02    0.33124E-03   -0.37569E-03   448   0.402E-01    0.254E-01
DAV:   7    -0.630578242371E+02    0.11575E-02   -0.22167E-03   456   0.292E-01    0.166E-01
DAV:   8    -0.630571982647E+02    0.62597E-03   -0.73820E-04   432   0.212E-01    0.801E-02
DAV:   9    -0.630570712246E+02    0.12704E-03   -0.20690E-04   296   0.110E-01    0.582E-02
DAV:  10    -0.630569801722E+02    0.91052E-04   -0.83944E-05   288   0.686E-02
  36 F= -.63056980E+02 E0= -.63080358E+02  d E =-.357904E-02  mag=     5.9597
       N       E                     dE             d eps       ncg     rms          rms(c)
DAV:   1    -0.630568901203E+02    0.18110E-03   -0.56497E-02   448   0.614E-01    0.606E-02
DAV:   2    -0.630570712870E+02   -0.18117E-03   -0.14319E-03   456   0.172E-01    0.144E-01
DAV:   3    -0.630570307453E+02    0.40542E-04   -0.63076E-04   344   0.140E-01
  37 F= -.63057031E+02 E0= -.63080437E+02  d E =-.362962E-02  mag=     5.9648
       N       E                     dE             d eps       ncg     rms          rms(c)
DAV:   1    -0.630552287258E+02    0.18426E-02   -0.49107E+00   416   0.578E+00    0.368E-01
DAV:   2    -0.630643835357E+02   -0.91548E-02   -0.87583E-02   432   0.128E+00    0.787E-01
DAV:   3    -0.630611314493E+02    0.32521E-02   -0.19663E-02   424   0.886E-01    0.319E-01
DAV:   4    -0.630616907551E+02   -0.55931E-03   -0.86067E-03   424   0.402E-01    0.390E-01
DAV:   5    -0.630610111095E+02    0.67965E-03   -0.36857E-03   424   0.278E-01    0.159E-01
DAV:   6    -0.630610938669E+02   -0.82757E-04   -0.11010E-03   360   0.173E-01    0.148E-01
DAV:   7    -0.630610101467E+02    0.83720E-04   -0.72077E-04   448   0.132E-01
  38 F= -.63061010E+02 E0= -.63085071E+02  d E =-.397940E-02  mag=     5.9843
       N       E                     dE             d eps       ncg     rms          rms(c)
DAV:   1    -0.630506668231E+02    0.10427E-01   -0.90371E+00   416   0.785E+00    0.497E-01
DAV:   2    -0.630691210459E+02   -0.18454E-01   -0.17271E-01   424   0.172E+00    0.120E+00
DAV:   3    -0.630624693333E+02    0.66517E-02   -0.52061E-02   424   0.121E+00    0.568E-01
DAV:   4    -0.630625824343E+02   -0.11310E-03   -0.17683E-02   424   0.602E-01    0.428E-01
DAV:   5    -0.630619198673E+02    0.66257E-03   -0.45099E-03   424   0.361E-01    0.225E-01
DAV:   6    -0.630619500487E+02   -0.30181E-04   -0.15150E-03   424   0.236E-01    0.179E-01
DAV:   7    -0.630619548321E+02   -0.47834E-05   -0.10642E-03   432   0.166E-01    0.851E-02
DAV:   8    -0.630620694429E+02   -0.11461E-03   -0.31929E-04   304   0.128E-01    0.584E-02
DAV:   9    -0.630621510395E+02   -0.81597E-04   -0.12253E-04   256   0.745E-02
  39 F= -.63062151E+02 E0= -.63087011E+02  d E =-.512029E-02  mag=     6.0066
       N       E                     dE             d eps       ncg     rms          rms(c)
DAV:   1    -0.630571643757E+02    0.49051E-02   -0.55736E+00   416   0.615E+00    0.351E-01
DAV:   2    -0.630670948323E+02   -0.99305E-02   -0.94800E-02   424   0.124E+00    0.769E-01
DAV:   3    -0.630643828102E+02    0.27120E-02   -0.21428E-02   424   0.840E-01    0.364E-01
DAV:   4    -0.630647922132E+02   -0.40940E-03   -0.90556E-03   424   0.408E-01    0.346E-01
DAV:   5    -0.630642845078E+02    0.50771E-03   -0.30648E-03   424   0.261E-01    0.152E-01
DAV:   6    -0.630643584586E+02   -0.73951E-04   -0.55684E-04   304   0.141E-01
  40 F= -.63064358E+02 E0= -.63089418E+02  d E =-.220742E-02  mag=     6.0209
       N       E                     dE             d eps       ncg     rms          rms(c)
DAV:   1    -0.630635431722E+02    0.74134E-03   -0.84525E-01   424   0.240E+00    0.137E-01
DAV:   2    -0.630649801465E+02   -0.14370E-02   -0.13142E-02   424   0.436E-01    0.238E-01
DAV:   3    -0.630648706189E+02    0.10953E-03   -0.30178E-03   424   0.296E-01    0.177E-01
DAV:   4    -0.630649243678E+02   -0.53749E-04   -0.15872E-03   328   0.162E-01    0.125E-01
DAV:   5    -0.630649524080E+02   -0.28040E-04   -0.35870E-04   256   0.101E-01
  41 F= -.63064952E+02 E0= -.63090214E+02  d E =-.280137E-02  mag=     6.0292
       N       E                     dE             d eps       ncg     rms          rms(c)
DAV:   1    -0.630646953544E+02    0.22901E-03   -0.18228E+00   416   0.352E+00    0.214E-01
DAV:   2    -0.630675638380E+02   -0.28685E-02   -0.29945E-02   424   0.702E-01    0.362E-01
DAV:   3    -0.630670249932E+02    0.53884E-03   -0.48152E-03   424   0.483E-01    0.167E-01
DAV:   4    -0.630670623005E+02   -0.37307E-04   -0.13201E-03   424   0.231E-01    0.150E-01
DAV:   5    -0.630669715586E+02    0.90742E-04   -0.94374E-04   296   0.164E-01
  42 F= -.63066972E+02 E0= -.63092474E+02  d E =-.201915E-02  mag=     6.0390
       N       E                     dE             d eps       ncg     rms          rms(c)
DAV:   1    -0.630665292631E+02    0.53304E-03   -0.62984E-01   424   0.207E+00    0.164E-01
DAV:   2    -0.630688232938E+02   -0.22940E-02   -0.18190E-02   456   0.548E-01    0.613E-01
DAV:   3    -0.630668759450E+02    0.19473E-02   -0.93927E-03   440   0.436E-01    0.121E-01
DAV:   4    -0.630672042152E+02   -0.32827E-03   -0.99206E-04   392   0.171E-01    0.142E-01
DAV:   5    -0.630670776345E+02    0.12658E-03   -0.46632E-04   264   0.143E-01    0.668E-02
DAV:   6    -0.630671155560E+02   -0.37921E-04   -0.23866E-04   264   0.103E-01
  43 F= -.63067116E+02 E0= -.63092740E+02  d E =-.216315E-02  mag=     6.0552
       N       E                     dE             d eps       ncg     rms          rms(c)
DAV:   1    -0.630661093370E+02    0.96830E-03   -0.16981E+00   416   0.340E+00    0.247E-01
DAV:   2    -0.630720145385E+02   -0.59052E-02   -0.46196E-02   440   0.870E-01    0.930E-01
DAV:   3    -0.630680044979E+02    0.40100E-02   -0.24645E-02   432   0.707E-01    0.222E-01
DAV:   4    -0.630685720152E+02   -0.56752E-03   -0.24766E-03   416   0.252E-01    0.138E-01
DAV:   5    -0.630686946585E+02   -0.12264E-03   -0.52179E-04   360   0.155E-01    0.107E-01
DAV:   6    -0.630688412809E+02   -0.14662E-03   -0.25534E-04   288   0.111E-01    0.766E-02
DAV:   7    -0.630693180120E+02   -0.47673E-03   -0.21037E-04   296   0.646E-02    0.383E-02
DAV:   8    -0.630695398556E+02   -0.22184E-03   -0.85438E-05   288   0.595E-02    0.281E-02
DAV:   9    -0.630696771554E+02   -0.13730E-03   -0.27511E-05   288   0.353E-02    0.140E-02
DAV:  10    -0.630697700574E+02   -0.92902E-04   -0.91759E-06   272   0.186E-02
  44 F= -.63069770E+02 E0= -.63094827E+02  d E =-.265450E-02  mag=     6.0637
       N       E                     dE             d eps       ncg     rms          rms(c)
DAV:   1    -0.630699416810E+02   -0.26453E-03   -0.22165E-03   464   0.123E-01    0.111E-02
DAV:   2    -0.630701144387E+02   -0.17276E-03   -0.40877E-05   280   0.287E-02    0.190E-02
DAV:   3    -0.630701614710E+02   -0.47032E-04   -0.21915E-05   264   0.248E-02
  45 F= -.63070161E+02 E0= -.63095200E+02  d E =-.304592E-02  mag=     6.0650
