 vasp.6.1.2 22Jul20 (build Aug  2 2021 21:04:21) gamma-only                      
 executed on             LinuxPGI date 2021.12.14  14:48:24
 running on   16 total cores
 distrk:  each k-point on   16 cores,    1 groups
 distr:  one band on NCORE=   8 cores,    2 groups


--------------------------------------------------------------------------------------------------------


 INCAR:
 POTCAR:    PAW_PBE Pd 04Jan2005                  
 -----------------------------------------------------------------------------
|                                                                             |
|           W    W    AA    RRRRR   N    N  II  N    N   GGGG   !!!           |
|           W    W   A  A   R    R  NN   N  II  NN   N  G    G  !!!           |
|           W    W  A    A  R    R  N N  N  II  N N  N  G       !!!           |
|           W WW W  AAAAAA  RRRRR   N  N N  II  N  N N  G  GGG   !            |
|           WW  WW  A    A  R   R   N   NN  II  N   NN  G    G                |
|           W    W  A    A  R    R  N    N  II  N    N   GGGG   !!!           |
|                                                                             |
|     You use a magnetic or noncollinear calculation, but did not specify     |
|     the initial magnetic moment with the MAGMOM tag. Note that a            |
|     default of 1 will be used for all atoms. This ferromagnetic setup       |
|     may break the symmetry of the crystal, in particular it may rule        |
|     out finding an antiferromagnetic solution. Thence, we recommend         |
|     setting the initial magnetic moment manually or verifying carefully     |
|     that this magnetic setup is desired.                                    |
|                                                                             |
 -----------------------------------------------------------------------------

 POTCAR:    PAW_PBE Pd 04Jan2005                  
   SHA256 =  dd6f6f02930356371984e2b707ff5e456046761dc76b07c1eba30abd15eb3c39 Pd/POTCAR             
   COPYR  = (c) Copyright 04Jan2005 Georg Kresse                                                    
   COPYR  = This file is part of the software VASP. Any use, copying, and all other rights are regul
   COPYR  = If you do not have a valid VASP license, you may not use, copy or distribute this file. 
   VRHFIN =Pd : s1 d9                                                                               
   LEXCH  = PE                                                                                      
   EATOM  =   809.7530 eV,   59.5152 Ry                                                             
                                                                                                    
   TITEL  = PAW_PBE Pd 04Jan2005                                                                    
   LULTRA =        F    use ultrasoft PP ?                                                          
   IUNSCR =        1    unscreen: 0-lin 1-nonlin 2-no                                               
   RPACOR =    2.000    partial core radius                                                         
   POMASS =  106.420; ZVAL   =   10.000    mass and valenz                                          
   RCORE  =    2.600    outmost cutoff radius                                                       
   RWIGS  =    2.710; RWIGS  =    1.434    wigner-seitz radius (au A)                               
   ENMAX  =  250.925; ENMIN  =  188.194 eV                                                          
   ICORE  =        3    local potential                                                             
   LCOR   =        T    correct aug charges                                                         
   LPAW   =        T    paw PP                                                                      
   EAUG   =  416.230                                                                                
   DEXC   =    0.000                                                                                
   RMAX   =    2.653    core radius for proj-oper                                                   
   RAUG   =    1.300    factor for augmentation sphere                                              
   RDEP   =    2.734    radius for radial grids                                                     
   RDEPT  =    2.103    core radius for aug-charge                                                  
                                                                                                    
   Atomic configuration                                                                             
   12 entries                                                                                       
     n  l   j            E        occ.                                                              
     1  0  0.50    -24164.6631   2.0000                                                             
     2  0  0.50     -3530.9218   2.0000                                                             
     2  1  1.50     -3165.6822   6.0000                                                             
     3  0  0.50      -639.4577   2.0000                                                             
     3  1  1.50      -519.4532   6.0000                                                             
     3  2  2.50      -328.9757  10.0000                                                             
     4  0  0.50       -88.7014   2.0000                                                             
     4  1  1.50       -54.4540   6.0000                                                             
     4  2  2.50        -6.6878   9.0000                                                             
     5  0  0.50        -4.3543   1.0000                                                             
     5  1  0.50        -1.3606   0.0000                                                             
     4  3  2.50        -1.3606   0.0000                                                             
   Description                                                                                      
     l       E           TYP  RCUT    TYP  RCUT                                                     
     2     -6.6878251     23  2.400                                                                 
     2     -8.0484077     23  2.400                                                                 
     0     -4.3542939     23  2.400                                                                 
     0      4.3406793     23  2.400                                                                 
     1     -4.0817478     23  2.600                                                                 
     1     15.8380318     23  2.600                                                                 
     3     -4.0817478     23  2.400                                                                 
  local pseudopotential read in
  partial core-charges read in
  partial kinetic energy density read in
  atomic valenz-charges read in
  non local Contribution for L=            2  read in
    real space projection operators read in
  non local Contribution for L=            2  read in
    real space projection operators read in
  non local Contribution for L=            0  read in
    real space projection operators read in
  non local Contribution for L=            0  read in
    real space projection operators read in
  non local Contribution for L=            1  read in
    real space projection operators read in
  non local Contribution for L=            1  read in
    real space projection operators read in
    PAW grid and wavefunctions read in
 
   number of l-projection  operators is LMAX  =            6
   number of lm-projection operators is LMMAX =           18
 
  PAW_PBE Pd 04Jan2005                  :
 energy of atom  1       EATOM= -809.7530
 kinetic energy error for atom=    0.0091 (will be added to EATOM!!)
 
 
 POSCAR: Pd
  positions in cartesian coordinates
  No initial velocities read in
 exchange correlation table for  LEXCH =        8
   RHO(1)=    0.500       N(1)  =     2000
   RHO(2)=  100.500       N(2)  =     4000
 


--------------------------------------------------------------------------------------------------------


 ion  position               nearest neighbor table
   1  0.475  0.492  0.506-   9 2.58   8 2.60  12 2.61  10 2.63   3 2.65   6 2.66  16 2.67   4 2.73
                            14 2.76   7 2.76  11 2.76   2 2.77   5 3.04
   2  0.547  0.557  0.568-  13 2.58  15 2.59  16 2.65   3 2.66  10 2.66   6 2.67   1 2.77
   3  0.551  0.448  0.574-  14 2.58  15 2.60   5 2.61   1 2.65   2 2.66   9 2.82   6 3.28
   4  0.463  0.562  0.417-  11 2.54  10 2.60  16 2.61  12 2.64   1 2.73   8 3.39
   5  0.582  0.434  0.469-  15 2.57  12 2.59   9 2.60   3 2.61  10 2.62   1 3.04
   6  0.446  0.529  0.607-  13 2.54  14 2.61   1 2.66   8 2.66   2 2.67  16 2.71   3 3.28
   7  0.384  0.421  0.509-  14 2.54  11 2.54   8 2.63   9 2.64   1 2.76
   8  0.373  0.528  0.522-   1 2.60   7 2.63  16 2.64  11 2.64   6 2.66   4 3.39
   9  0.488  0.387  0.495-   1 2.58   5 2.60   7 2.64  14 2.67  12 2.82   3 2.82
  10  0.561  0.540  0.458-   4 2.60  15 2.61   5 2.62   1 2.63   2 2.66  12 2.77  16 3.23
  11  0.394  0.483  0.423-   7 2.54   4 2.54  12 2.61   8 2.64   1 2.76
  12  0.499  0.460  0.404-   5 2.59   1 2.61  11 2.61   4 2.64  10 2.77   9 2.82
  13  0.483  0.626  0.620-   6 2.54  16 2.55   2 2.58
  14  0.448  0.422  0.594-   7 2.54   3 2.58   6 2.61   9 2.67   1 2.76
  15  0.634  0.504  0.532-   5 2.57   2 2.59   3 2.60  10 2.61
  16  0.457  0.600  0.520-  13 2.55   4 2.61   8 2.64   2 2.65   1 2.67   6 2.71  10 3.23
 

IMPORTANT INFORMATION: All symmetrisations will be switched off!
NOSYMM: (Re-)initialisation of all symmetry stuff for point group C_1.


----------------------------------------------------------------------------------------

                                     Primitive cell                                     

  volume of cell :   13727.5133

  direct lattice vectors                    reciprocal lattice vectors
    23.857200753  0.000000000  0.000000000     0.041916066  0.000000000  0.000000000
     0.000000000 24.264316785  0.000000000     0.000000000  0.041212782  0.000000000
     0.000000000  0.000000000 23.713973070     0.000000000  0.000000000  0.042169231

  length of vectors
    23.857200753 24.264316785 23.713973070     0.041916066  0.041212782  0.042169231

  position of ions in fractional coordinates (direct lattice)
     0.474537720  0.491642978  0.505914186
     0.546805253  0.557177466  0.568323047
     0.550713826  0.447857176  0.573878187
     0.463173394  0.562190189  0.417000297
     0.581724564  0.434289724  0.469421517
     0.445907718  0.528751154  0.607256411
     0.383566393  0.421151213  0.508921268
     0.373350066  0.528135162  0.522058442
     0.487533154  0.386700098  0.495317493
     0.561366007  0.540057328  0.458392542
     0.393739154  0.482795331  0.422839643
     0.499137568  0.459912476  0.403814972
     0.483017550  0.626262723  0.620245037
     0.447924123  0.422072111  0.594058184
     0.633926306  0.504056334  0.532034379
     0.456682907  0.599620944  0.519807776

  ion indices of the primitive-cell ions
   primitive index   ion index
                 1           1
                 2           2
                 3           3
                 4           4
                 5           5
                 6           6
                 7           7
                 8           8
                 9           9
                10          10
                11          11
                12          12
                13          13
                14          14
                15          15
                16          16

----------------------------------------------------------------------------------------

 
 
 KPOINTS: KPOINTS created by Atomic Simulation Env

Automatic generation of k-mesh.
Space group operators:
 irot       det(A)        alpha          n_x          n_y          n_z        tau_x        tau_y        tau_z
    1     1.000000     0.000000     1.000000     0.000000     0.000000     0.000000     0.000000     0.000000
 
 Subroutine IBZKPT returns following result:
 ===========================================
 
 Found      1 irreducible k-points:
 
 Following reciprocal coordinates:
            Coordinates               Weight
  0.000000  0.000000  0.000000      1.000000
 
 Following cartesian coordinates:
            Coordinates               Weight
  0.000000  0.000000  0.000000      1.000000
 


--------------------------------------------------------------------------------------------------------




 Dimension of arrays:
   k-points           NKPTS =      1   k-points in BZ     NKDIM =      1   number of bands    NBANDS=    104
   number of dos      NEDOS =    301   number of ions     NIONS =     16
   non local maximal  LDIM  =      6   non local SUM 2l+1 LMDIM =     18
   total plane-waves  NPLWV = ******
   max r-space proj   IRMAX =      1   max aug-charges    IRDMAX=   6305
   dimension x,y,z NGX =   120 NGY =  120 NGZ =  120
   dimension x,y,z NGXF=   240 NGYF=  240 NGZF=  240
   support grid    NGXF=   240 NGYF=  240 NGZF=  240
   ions per type =              16
   NGX,Y,Z   is equivalent  to a cutoff of   8.36,  8.22,  8.41 a.u.
   NGXF,Y,Z  is equivalent  to a cutoff of  16.72, 16.44, 16.83 a.u.

 SYSTEM =  unknown system                          
 POSCAR =  Pd                                      

 Startparameter for this run:
   NWRITE =      2    write-flag & timer
   PREC   = normal    normal or accurate (medium, high low for compatibility)
   ISTART =      0    job   : 0-new  1-cont  2-samecut
   ICHARG =      2    charge: 1-file 2-atom 10-const
   ISPIN  =      2    spin polarized calculation?
   LNONCOLLINEAR =      F non collinear calculations
   LSORBIT =      F    spin-orbit coupling
   INIWAV =      1    electr: 0-lowe 1-rand  2-diag
   LASPH  =      F    aspherical Exc in radial PAW
   METAGGA=      F    non-selfconsistent MetaGGA calc.

 Electronic Relaxation 1
   ENCUT  =  400.0 eV  29.40 Ry    5.42 a.u.  38.91 39.57 38.67*2*pi/ulx,y,z
   ENINI  =  400.0     initial cutoff
   ENAUG  =  416.2 eV  augmentation charge cutoff
   NELM   =     60;   NELMIN=  2; NELMDL=  0     # of ELM steps 
   EDIFF  = 0.1E-03   stopping-criterion for ELM
   LREAL  =      F    real-space projection
   NLSPLINE    = F    spline interpolate recip. space projectors
   LCOMPAT=      F    compatible to vasp.4.4
   GGA_COMPAT  = T    GGA compatible to vasp.4.4-vasp.4.6
   LMAXPAW     = -100 max onsite density
   LMAXMIX     =    2 max onsite mixed and CHGCAR
   VOSKOWN=      0    Vosko Wilk Nusair interpolation
   ROPT   =    0.00000
 Ionic relaxation
   EDIFFG = 0.1E-02   stopping-criterion for IOM
   NSW    =   1000    number of steps for IOM
   NBLOCK =      1;   KBLOCK =   1000    inner block; outer block 
   IBRION =      2    ionic relax: 0-MD 1-quasi-New 2-CG
   NFREE  =      1    steps in history (QN), initial steepest desc. (CG)
   ISIF   =      0    stress and relaxation
   IWAVPR =     11    prediction:  0-non 1-charg 2-wave 3-comb
   ISYM   =      0    0-nonsym 1-usesym 2-fastsym
   LCORR  =      T    Harris-Foulkes like correction to forces

   POTIM  = 0.5000    time-step for ionic-motion
   TEIN   =    0.0    initial temperature
   TEBEG  =    0.0;   TEEND  =   0.0 temperature during run
   SMASS  =  -3.00    Nose mass-parameter (am)
   estimated Nose-frequenzy (Omega)   =  0.10E-29 period in steps = 0.13E+47 mass=  -0.130E-25a.u.
   SCALEE = 1.0000    scale energy and forces
   NPACO  =    256;   APACO  = 16.0  distance and # of slots for P.C.
   PSTRESS=    0.0 pullay stress

  Mass of Ions in am
   POMASS = 106.42
  Ionic Valenz
   ZVAL   =  10.00
  Atomic Wigner-Seitz radii
   RWIGS  =  -1.00
  virtual crystal weights 
   VCA    =   1.00
   NELECT =     160.0000    total number of electrons
   NUPDOWN=      -1.0000    fix difference up-down

 DOS related values:
   EMIN   =  10.00;   EMAX   =-10.00  energy-range for DOS
   EFERMI =   0.00
   ISMEAR =     1;   SIGMA  =   0.20  broadening in eV -4-tet -1-fermi 0-gaus

 Electronic relaxation 2 (details)
   IALGO  =     38    algorithm
   LDIAG  =      T    sub-space diagonalisation (order eigenvalues)
   LSUBROT=      F    optimize rotation matrix (better conditioning)
   TURBO    =      0    0=normal 1=particle mesh
   IRESTART =      0    0=no restart 2=restart with 2 vectors
   NREBOOT  =      0    no. of reboots
   NMIN     =      0    reboot dimension
   EREF     =   0.00    reference energy to select bands
   IMIX   =      4    mixing-type and parameters
     AMIX     =   0.40;   BMIX     =  1.00
     AMIX_MAG =   1.60;   BMIX_MAG =  1.00
     AMIN     =   0.10
     WC   =   100.;   INIMIX=   1;  MIXPRE=   1;  MAXMIX= -45

 Intra band minimization:
   WEIMIN = 0.0010     energy-eigenvalue tresh-hold
   EBREAK =  0.24E-06  absolut break condition
   DEPER  =   0.30     relativ break condition  

   TIME   =   0.40     timestep for ELM

  volume/ion in A,a.u.               =     857.97      5789.86
  Fermi-wavevector in a.u.,A,eV,Ry     =   0.371180  0.701428  1.874534  0.137774
  Thomas-Fermi vector in A             =   1.299110
 
 Write flags
   LWAVE        =      F    write WAVECAR
   LDOWNSAMPLE  =      F    k-point downsampling of WAVECAR
   LCHARG       =      F    write CHGCAR
   LVTOT        =      F    write LOCPOT, total local potential
   LVHAR        =      F    write LOCPOT, Hartree potential only
   LELF         =      F    write electronic localiz. function (ELF)
   LORBIT       =      0    0 simple, 1 ext, 2 COOP (PROOUT), +10 PAW based schemes


 Dipole corrections
   LMONO  =      F    monopole corrections only (constant potential shift)
   LDIPOL =      F    correct potential (dipole corrections)
   IDIPOL =      0    1-x, 2-y, 3-z, 4-all directions 
   EPSILON=  1.0000000 bulk dielectric constant

 Exchange correlation treatment:
   GGA     =    PE    GGA type
   LEXCH   =     8    internal setting for exchange type
   VOSKOWN=      0    Vosko Wilk Nusair interpolation
   LHFCALC =     F    Hartree Fock is set to
   LHFONE  =     F    Hartree Fock one center treatment
   AEXX    =    0.0000 exact exchange contribution

 Linear response parameters
   LEPSILON=     F    determine dielectric tensor
   LRPA    =     F    only Hartree local field effects (RPA)
   LNABLA  =     F    use nabla operator in PAW spheres
   LVEL    =     F    velocity operator in full k-point grid
   LINTERFAST=   F  fast interpolation
   KINTER  =     0    interpolate to denser k-point grid
   CSHIFT  =0.1000    complex shift for real part using Kramers Kronig
   OMEGAMAX=  -1.0    maximum frequency
   DEG_THRESHOLD= 0.2000000E-02 threshold for treating states as degnerate
   RTIME   =   -0.100 relaxation time in fs
  (WPLASMAI=    0.000 imaginary part of plasma frequency in eV, 0.658/RTIME)
   DFIELD  = 0.0000000 0.0000000 0.0000000 field for delta impulse in time
 
 Orbital magnetization related:
   ORBITALMAG=     F  switch on orbital magnetization
   LCHIMAG   =     F  perturbation theory with respect to B field
   DQ        =  0.001000  dq finite difference perturbation B field
   LLRAUG    =     F  two centre corrections for induced B field



--------------------------------------------------------------------------------------------------------


 conjugate gradient relaxation of ions
 charge density and potential will be updated during run
 spin polarized calculation
 Variant of blocked Davidson
 Davidson routine will perform the subspace rotation
 perform sub-space diagonalisation
    after iterative eigenvector-optimisation
 modified Broyden-mixing scheme, WC =      100.0
 initial mixing is a Kerker type mixing with AMIX =  0.4000 and BMIX =      1.0000
 Hartree-type preconditioning will be used
 using additional bands            24
 reciprocal scheme for non local part
 use partial core corrections
 calculate Harris-corrections to forces 
   (improved forces if not selfconsistent)
 use gradient corrections 
 use of overlap-Matrix (Vanderbilt PP)
 Methfessel and Paxton  Order N= 1 SIGMA  =   0.20


--------------------------------------------------------------------------------------------------------


  energy-cutoff  :      400.00
  volume of cell :    13727.51
      direct lattice vectors                 reciprocal lattice vectors
    23.857200753  0.000000000  0.000000000     0.041916066  0.000000000  0.000000000
     0.000000000 24.264316785  0.000000000     0.000000000  0.041212782  0.000000000
     0.000000000  0.000000000 23.713973070     0.000000000  0.000000000  0.042169231

  length of vectors
    23.857200753 24.264316785 23.713973070     0.041916066  0.041212782  0.042169231


 
 k-points in units of 2pi/SCALE and weight: KPOINTS created by Atomic Simulation Env
   0.00000000  0.00000000  0.00000000       1.000
 
 k-points in reciprocal lattice and weights: KPOINTS created by Atomic Simulation Env
   0.00000000  0.00000000  0.00000000       1.000
 
 position of ions in fractional coordinates (direct lattice) 
   0.47453772  0.49164298  0.50591419
   0.54680525  0.55717747  0.56832305
   0.55071383  0.44785718  0.57387819
   0.46317339  0.56219019  0.41700030
   0.58172456  0.43428972  0.46942152
   0.44590772  0.52875115  0.60725641
   0.38356639  0.42115121  0.50892127
   0.37335007  0.52813516  0.52205844
   0.48753315  0.38670010  0.49531749
   0.56136601  0.54005733  0.45839254
   0.39373915  0.48279533  0.42283964
   0.49913757  0.45991248  0.40381497
   0.48301755  0.62626272  0.62024504
   0.44792412  0.42207211  0.59405818
   0.63392631  0.50405633  0.53203438
   0.45668291  0.59962094  0.51980778
 
 position of ions in cartesian coordinates  (Angst):
  11.32114166 11.92938097 11.99723537
  13.04524269 13.51953054 13.47719742
  13.13849029 10.86694839 13.60893186
  11.05002063 13.64116084  9.88873382
  13.87831971 10.53774344 11.13184920
  10.63810995 12.82978550 14.40046217
   9.15082043 10.21894645 12.06854526
   8.90708747 12.81483888 12.38007984
  11.63117633  9.38301368 11.74594568
  13.39262152 13.10412209 10.87030841
   9.39351404 11.71469885 10.02720791
  11.90802517 11.15946201  9.57605736
  11.52344666 15.19583710 14.70847410
  10.68621573 10.24129141 14.08747978
  15.12370715 12.23058256 12.61664893
  10.89517579 14.54939253 12.32670761
 


--------------------------------------------------------------------------------------------------------


 use parallel FFT for orbitals z direction half grid
 k-point   1 :   0.0000 0.0000 0.0000  plane waves:  124756

 maximum and minimum number of plane-waves per node :     15597    15591

 maximum number of plane-waves:    124756
 maximum index in each direction: 
   IXMAX=   38   IYMAX=   39   IZMAX=   38
   IXMIN=  -38   IYMIN=  -39   IZMIN=    0


 parallel 3D FFT for wavefunctions:
    minimum data exchange during FFTs selected (reduces bandwidth)
 parallel 3D FFT for charge:
    minimum data exchange during FFTs selected (reduces bandwidth)


 total amount of memory used by VASP MPI-rank0   176075. kBytes
=======================================================================

   base      :      30000. kBytes
   nonl-proj :       6238. kBytes
   fftplans  :      33877. kBytes
   grid      :      79948. kBytes
   one-center:         31. kBytes
   wavefun   :      25981. kBytes
 
     INWAV:  cpu time    0.0000: real time    0.0000
 Broyden mixing: mesh for mixing (old mesh)
   NGX = 77   NGY = 79   NGZ = 77
  (NGX  =240   NGY  =240   NGZ  =240)
  gives a total of 468391 points

 initial charge density was supplied:
 charge density of overlapping atoms calculated
 number of electron     160.0000000 magnetization      16.0000000
 keeping initial charge density in first step


--------------------------------------------------------------------------------------------------------


 Maximum index for augmentation-charges           390 (set IRDMAX)


--------------------------------------------------------------------------------------------------------


 First call to EWALD:  gamma=   0.074
 Maximum number of real-space cells 3x 3x 3
 Maximum number of reciprocal cells 3x 3x 3

    FEWALD:  cpu time    0.0016: real time    0.0016


--------------------------------------- Iteration      1(   1)  ---------------------------------------


    POTLOK:  cpu time    5.5272: real time    5.7258
    SETDIJ:  cpu time    0.2662: real time    0.2664
     EDDAV:  cpu time   22.9072: real time   22.9341
       DOS:  cpu time    0.4421: real time    0.4423
    --------------------------------------------
      LOOP:  cpu time   29.1427: real time   29.3686

 eigenvalue-minimisations  :   416
 total energy-change (2. order) : 0.1437828E+04  (-0.2770213E+04)
 number of electron     160.0000000 magnetization      16.0000000
 augmentation part      160.0000000 magnetization      16.0000000

 Free energy of the ion-electron system (eV)
  ---------------------------------------------------
  alpha Z        PSCENC =        12.15431898
  Ewald energy   TEWEN  =     26858.24821003
  -Hartree energ DENC   =    -39154.65722441
  -exchange      EXHF   =         0.00000000
  -V(xc)+E(xc)   XCENC  =      -479.14327057
  PAW double counting   =     12906.36685261   -11910.91650437
  entropy T*S    EENTRO =        -0.03837347
  eigenvalues    EBANDS =       249.91124187
  atomic energy  EATOM  =     12955.90228127
  Solvation  Ediel_sol  =         0.00000000
  ---------------------------------------------------
  free energy    TOTEN  =      1437.82753194 eV

  energy without entropy =     1437.86590541  energy(sigma->0) =     1437.84032309


--------------------------------------------------------------------------------------------------------




--------------------------------------- Iteration      1(   2)  ---------------------------------------


     EDDAV:  cpu time   38.6746: real time   38.9192
       DOS:  cpu time    0.0011: real time    0.0011
    --------------------------------------------
      LOOP:  cpu time   38.6757: real time   38.9203

 eigenvalue-minimisations  :   792
 total energy-change (2. order) :-0.7070311E+03  (-0.6377406E+03)
 number of electron     160.0000000 magnetization      16.0000000
 augmentation part      160.0000000 magnetization      16.0000000

 Free energy of the ion-electron system (eV)
  ---------------------------------------------------
  alpha Z        PSCENC =        12.15431898
  Ewald energy   TEWEN  =     26858.24821003
  -Hartree energ DENC   =    -39154.65722441
  -exchange      EXHF   =         0.00000000
  -V(xc)+E(xc)   XCENC  =      -479.14327057
  PAW double counting   =     12906.36685261   -11910.91650437
  entropy T*S    EENTRO =        -0.09244847
  eigenvalues    EBANDS =      -457.06575072
  atomic energy  EATOM  =     12955.90228127
  Solvation  Ediel_sol  =         0.00000000
  ---------------------------------------------------
  free energy    TOTEN  =       730.79646434 eV

  energy without entropy =      730.88891281  energy(sigma->0) =      730.82728049


--------------------------------------------------------------------------------------------------------




--------------------------------------- Iteration      1(   3)  ---------------------------------------


     EDDAV:  cpu time   29.7655: real time   29.8681
       DOS:  cpu time    0.0013: real time    0.0013
    --------------------------------------------
      LOOP:  cpu time   29.7667: real time   29.8694

 eigenvalue-minimisations  :   680
 total energy-change (2. order) :-0.6033070E+03  (-0.5609094E+03)
 number of electron     160.0000000 magnetization      16.0000000
 augmentation part      160.0000000 magnetization      16.0000000

 Free energy of the ion-electron system (eV)
  ---------------------------------------------------
  alpha Z        PSCENC =        12.15431898
  Ewald energy   TEWEN  =     26858.24821003
  -Hartree energ DENC   =    -39154.65722441
  -exchange      EXHF   =         0.00000000
  -V(xc)+E(xc)   XCENC  =      -479.14327057
  PAW double counting   =     12906.36685261   -11910.91650437
  entropy T*S    EENTRO =         0.02467171
  eigenvalues    EBANDS =     -1060.48985402
  atomic energy  EATOM  =     12955.90228127
  Solvation  Ediel_sol  =         0.00000000
  ---------------------------------------------------
  free energy    TOTEN  =       127.48948123 eV

  energy without entropy =      127.46480951  energy(sigma->0) =      127.48125732


--------------------------------------------------------------------------------------------------------




--------------------------------------- Iteration      1(   4)  ---------------------------------------


     EDDAV:  cpu time   32.5762: real time   32.9829
       DOS:  cpu time    0.0012: real time    0.0012
    --------------------------------------------
      LOOP:  cpu time   32.5773: real time   32.9840

 eigenvalue-minimisations  :   552
 total energy-change (2. order) :-0.1681934E+03  (-0.1518656E+03)
 number of electron     160.0000000 magnetization      16.0000000
 augmentation part      160.0000000 magnetization      16.0000000

 Free energy of the ion-electron system (eV)
  ---------------------------------------------------
  alpha Z        PSCENC =        12.15431898
  Ewald energy   TEWEN  =     26858.24821003
  -Hartree energ DENC   =    -39154.65722441
  -exchange      EXHF   =         0.00000000
  -V(xc)+E(xc)   XCENC  =      -479.14327057
  PAW double counting   =     12906.36685261   -11910.91650437
  entropy T*S    EENTRO =        -0.00105331
  eigenvalues    EBANDS =     -1228.65753797
  atomic energy  EATOM  =     12955.90228127
  Solvation  Ediel_sol  =         0.00000000
  ---------------------------------------------------
  free energy    TOTEN  =       -40.70392774 eV

  energy without entropy =      -40.70287444  energy(sigma->0) =      -40.70357664


--------------------------------------------------------------------------------------------------------




--------------------------------------- Iteration      1(   5)  ---------------------------------------


     EDDAV:  cpu time   31.5842: real time   31.6518
       DOS:  cpu time    0.0176: real time    0.0177
    CHARGE:  cpu time    1.1972: real time    1.2005
    MIXING:  cpu time    0.2197: real time    0.2199
    --------------------------------------------
      LOOP:  cpu time   33.0187: real time   33.0899

 eigenvalue-minimisations  :   552
 total energy-change (2. order) :-0.2329042E+02  (-0.1930973E+02)
 number of electron     160.0000060 magnetization      14.9977854
 augmentation part       67.5808725 magnetization      12.3709792

 Broyden mixing:
  rms(total) = 0.26993E+01    rms(broyden)= 0.26991E+01
  rms(prec ) = 0.27484E+01
  weight for this iteration     100.00

 Free energy of the ion-electron system (eV)
  ---------------------------------------------------
  alpha Z        PSCENC =        12.15431898
  Ewald energy   TEWEN  =     26858.24821003
  -Hartree energ DENC   =    -39154.65722441
  -exchange      EXHF   =         0.00000000
  -V(xc)+E(xc)   XCENC  =      -479.14327057
  PAW double counting   =     12906.36685261   -11910.91650437
  entropy T*S    EENTRO =        -0.01856313
  eigenvalues    EBANDS =     -1251.93045060
  atomic energy  EATOM  =     12955.90228127
  Solvation  Ediel_sol  =         0.00000000
  ---------------------------------------------------
  free energy    TOTEN  =       -63.99435019 eV

  energy without entropy =      -63.97578707  energy(sigma->0) =      -63.98816248


--------------------------------------------------------------------------------------------------------




--------------------------------------- Iteration      1(   6)  ---------------------------------------


    POTLOK:  cpu time    4.2907: real time    4.2945
    SETDIJ:  cpu time    0.0974: real time    0.0975
     EDDAV:  cpu time   21.6319: real time   21.6579
       DOS:  cpu time    0.0016: real time    0.0016
    CHARGE:  cpu time    1.7694: real time    1.7729
    MIXING:  cpu time    0.0525: real time    0.0526
    --------------------------------------------
      LOOP:  cpu time   27.8435: real time   27.8770

 eigenvalue-minimisations  :   440
 total energy-change (2. order) : 0.9017778E+01  (-0.4057920E+01)
 number of electron     160.0000055 magnetization      14.1156186
 augmentation part       68.6432773 magnetization       9.7849845

 Broyden mixing:
  rms(total) = 0.15098E+01    rms(broyden)= 0.15096E+01
  rms(prec ) = 0.15704E+01
  weight for this iteration     100.00

 eigenvalues of (default mixing * dielectric matrix)
  average eigenvalue GAMMA=   0.8771
  0.8771

 Free energy of the ion-electron system (eV)
  ---------------------------------------------------
  alpha Z        PSCENC =        12.15431898
  Ewald energy   TEWEN  =     26858.24821003
  -Hartree energ DENC   =    -39214.56134077
  -exchange      EXHF   =         0.00000000
  -V(xc)+E(xc)   XCENC  =      -474.67129534
  PAW double counting   =     13850.67163149   -12866.31936999
  entropy T*S    EENTRO =        -0.04304184
  eigenvalues    EBANDS =     -1176.35796576
  atomic energy  EATOM  =     12955.90228127
  Solvation  Ediel_sol  =         0.00000000
  ---------------------------------------------------
  free energy    TOTEN  =       -54.97657194 eV

  energy without entropy =      -54.93353010  energy(sigma->0) =      -54.96222466


--------------------------------------------------------------------------------------------------------




--------------------------------------- Iteration      1(   7)  ---------------------------------------


    POTLOK:  cpu time    4.7388: real time    4.8695
    SETDIJ:  cpu time    0.1774: real time    0.1775
     EDDAV:  cpu time   36.8741: real time   37.0348
       DOS:  cpu time    0.0067: real time    0.0067
    CHARGE:  cpu time    2.2417: real time    2.2448
    MIXING:  cpu time    0.1235: real time    0.1236
    --------------------------------------------
      LOOP:  cpu time   44.1622: real time   44.4568

 eigenvalue-minimisations  :   456
 total energy-change (2. order) : 0.1623025E+01  (-0.2528036E+01)
 number of electron     160.0000065 magnetization      13.4723498
 augmentation part       67.9945743 magnetization      10.1554750

 Broyden mixing:
  rms(total) = 0.25013E+01    rms(broyden)= 0.25010E+01
  rms(prec ) = 0.28252E+01
  weight for this iteration     100.00

 eigenvalues of (default mixing * dielectric matrix)
  average eigenvalue GAMMA=   0.7998
  1.2578  0.3418

 Free energy of the ion-electron system (eV)
  ---------------------------------------------------
  alpha Z        PSCENC =        12.15431898
  Ewald energy   TEWEN  =     26858.24821003
  -Hartree energ DENC   =    -39287.03166316
  -exchange      EXHF   =         0.00000000
  -V(xc)+E(xc)   XCENC  =      -468.19725379
  PAW double counting   =     14422.61593144   -13442.70160896
  entropy T*S    EENTRO =        -0.03687852
  eigenvalues    EBANDS =     -1104.30688453
  atomic energy  EATOM  =     12955.90228127
  Solvation  Ediel_sol  =         0.00000000
  ---------------------------------------------------
  free energy    TOTEN  =       -53.35354725 eV

  energy without entropy =      -53.31666873  energy(sigma->0) =      -53.34125441


--------------------------------------------------------------------------------------------------------




--------------------------------------- Iteration      1(   8)  ---------------------------------------


    POTLOK:  cpu time    7.0865: real time    7.0960
    SETDIJ:  cpu time    0.2260: real time    0.2261
     EDDAV:  cpu time   28.8884: real time   28.9367
       DOS:  cpu time    0.0066: real time    0.0066
    CHARGE:  cpu time    1.7439: real time    1.7467
    MIXING:  cpu time    0.0530: real time    0.0531
    --------------------------------------------
      LOOP:  cpu time   38.0045: real time   38.0652

 eigenvalue-minimisations  :   448
 total energy-change (2. order) : 0.5528422E+01  (-0.2631880E+01)
 number of electron     160.0000050 magnetization      13.0480628
 augmentation part       68.1742406 magnetization       9.3228732

 Broyden mixing:
  rms(total) = 0.16772E+01    rms(broyden)= 0.16768E+01
  rms(prec ) = 0.18923E+01
  weight for this iteration     100.00

 eigenvalues of (default mixing * dielectric matrix)
  average eigenvalue GAMMA=   0.7269
  1.5204  0.4461  0.2144

 Free energy of the ion-electron system (eV)
  ---------------------------------------------------
  alpha Z        PSCENC =        12.15431898
  Ewald energy   TEWEN  =     26858.24821003
  -Hartree energ DENC   =    -39320.85218884
  -exchange      EXHF   =         0.00000000
  -V(xc)+E(xc)   XCENC  =      -466.04518469
  PAW double counting   =     14716.89569015   -13739.91785268
  entropy T*S    EENTRO =        -0.04133487
  eigenvalues    EBANDS =     -1064.16906416
  atomic energy  EATOM  =     12955.90228127
  Solvation  Ediel_sol  =         0.00000000
  ---------------------------------------------------
  free energy    TOTEN  =       -47.82512483 eV

  energy without entropy =      -47.78378995  energy(sigma->0) =      -47.81134654


--------------------------------------------------------------------------------------------------------




--------------------------------------- Iteration      1(   9)  ---------------------------------------


    POTLOK:  cpu time    4.0904: real time    4.1248
    SETDIJ:  cpu time    0.0842: real time    0.0842
     EDDAV:  cpu time   27.5181: real time   28.0274
       DOS:  cpu time    0.3447: real time    0.3449
    CHARGE:  cpu time    1.9028: real time    1.9044
    MIXING:  cpu time    0.1072: real time    0.1073
    --------------------------------------------
      LOOP:  cpu time   34.0474: real time   34.5929

 eigenvalue-minimisations  :   456
 total energy-change (2. order) : 0.2317430E+01  (-0.9969941E+00)
 number of electron     160.0000052 magnetization      12.7552015
 augmentation part       68.2783353 magnetization       8.3853900

 Broyden mixing:
  rms(total) = 0.10809E+01    rms(broyden)= 0.10806E+01
  rms(prec ) = 0.11836E+01
  weight for this iteration     100.00

 eigenvalues of (default mixing * dielectric matrix)
  average eigenvalue GAMMA=   0.6544
  1.6583  0.5073  0.2588  0.1931

 Free energy of the ion-electron system (eV)
  ---------------------------------------------------
  alpha Z        PSCENC =        12.15431898
  Ewald energy   TEWEN  =     26858.24821003
  -Hartree energ DENC   =    -39337.90823904
  -exchange      EXHF   =         0.00000000
  -V(xc)+E(xc)   XCENC  =      -465.63200867
  PAW double counting   =     14859.38871891   -13883.75116277
  entropy T*S    EENTRO =         0.02952888
  eigenvalues    EBANDS =     -1043.93934261
  atomic energy  EATOM  =     12955.90228127
  Solvation  Ediel_sol  =         0.00000000
  ---------------------------------------------------
  free energy    TOTEN  =       -45.50769503 eV

  energy without entropy =      -45.53722391  energy(sigma->0) =      -45.51753799


--------------------------------------------------------------------------------------------------------




--------------------------------------- Iteration      1(  10)  ---------------------------------------


    POTLOK:  cpu time    4.3852: real time    4.3896
    SETDIJ:  cpu time    0.1424: real time    0.1425
     EDDAV:  cpu time   22.7721: real time   22.7932
       DOS:  cpu time    0.0192: real time    0.0192
    CHARGE:  cpu time    1.1955: real time    1.1986
    MIXING:  cpu time    0.2751: real time    0.2754
    --------------------------------------------
      LOOP:  cpu time   28.7896: real time   28.8187

 eigenvalue-minimisations  :   448
 total energy-change (2. order) :-0.1918112E+00  (-0.4155671E+00)
 number of electron     160.0000057 magnetization      12.4280371
 augmentation part       68.2837583 magnetization       8.1507758

 Broyden mixing:
  rms(total) = 0.68911E+00    rms(broyden)= 0.68882E+00
  rms(prec ) = 0.76477E+00
  weight for this iteration     100.00

 eigenvalues of (default mixing * dielectric matrix)
  average eigenvalue GAMMA=   0.6133
  1.7402  0.5727  0.2883  0.2883  0.1770

 Free energy of the ion-electron system (eV)
  ---------------------------------------------------
  alpha Z        PSCENC =        12.15431898
  Ewald energy   TEWEN  =     26858.24821003
  -Hartree energ DENC   =    -39347.44288655
  -exchange      EXHF   =         0.00000000
  -V(xc)+E(xc)   XCENC  =      -466.28032782
  PAW double counting   =     14926.54530124   -13951.40238884
  entropy T*S    EENTRO =         0.00806670
  eigenvalues    EBANDS =     -1033.43208125
  atomic energy  EATOM  =     12955.90228127
  Solvation  Ediel_sol  =         0.00000000
  ---------------------------------------------------
  free energy    TOTEN  =       -45.69950625 eV

  energy without entropy =      -45.70757294  energy(sigma->0) =      -45.70219515


--------------------------------------------------------------------------------------------------------




--------------------------------------- Iteration      1(  11)  ---------------------------------------


    POTLOK:  cpu time    4.7251: real time    4.7408
    SETDIJ:  cpu time    0.1404: real time    0.1405
     EDDAV:  cpu time   24.7957: real time   24.8235
       DOS:  cpu time    0.0063: real time    0.0063
    CHARGE:  cpu time    2.2541: real time    2.2563
    MIXING:  cpu time    0.2681: real time    0.2684
    --------------------------------------------
      LOOP:  cpu time   32.1898: real time   32.2359

 eigenvalue-minimisations  :   472
 total energy-change (2. order) :-0.1478599E+01  (-0.2678745E+00)
 number of electron     160.0000057 magnetization      12.1711976
 augmentation part       68.2562080 magnetization       8.0423391

 Broyden mixing:
  rms(total) = 0.71445E+00    rms(broyden)= 0.71423E+00
  rms(prec ) = 0.79480E+00
  weight for this iteration     100.00

 eigenvalues of (default mixing * dielectric matrix)
  average eigenvalue GAMMA=   0.5680
  1.7557  0.5078  0.5078  0.2419  0.2419  0.1530

 Free energy of the ion-electron system (eV)
  ---------------------------------------------------
  alpha Z        PSCENC =        12.15431898
  Ewald energy   TEWEN  =     26858.24821003
  -Hartree energ DENC   =    -39357.68105657
  -exchange      EXHF   =         0.00000000
  -V(xc)+E(xc)   XCENC  =      -467.27803266
  PAW double counting   =     14977.03046478   -14002.24322955
  entropy T*S    EENTRO =         0.01873979
  eigenvalues    EBANDS =     -1023.32980174
  atomic energy  EATOM  =     12955.90228127
  Solvation  Ediel_sol  =         0.00000000
  ---------------------------------------------------
  free energy    TOTEN  =       -47.17810569 eV

  energy without entropy =      -47.19684548  energy(sigma->0) =      -47.18435228


--------------------------------------------------------------------------------------------------------




--------------------------------------- Iteration      1(  12)  ---------------------------------------


    POTLOK:  cpu time    4.9610: real time    4.9681
    SETDIJ:  cpu time    0.0259: real time    0.0259
     EDDAV:  cpu time   27.6580: real time   27.6927
       DOS:  cpu time    0.0059: real time    0.0059
    CHARGE:  cpu time    1.2408: real time    1.2422
    MIXING:  cpu time    0.3072: real time    0.3074
    --------------------------------------------
      LOOP:  cpu time   34.1987: real time   34.2421

 eigenvalue-minimisations  :   464
 total energy-change (2. order) :-0.8464804E+00  (-0.1131519E+00)
 number of electron     160.0000054 magnetization      11.9551288
 augmentation part       68.2076287 magnetization       7.8857338

 Broyden mixing:
  rms(total) = 0.41435E+00    rms(broyden)= 0.41421E+00
  rms(prec ) = 0.44050E+00
  weight for this iteration     100.00

 eigenvalues of (default mixing * dielectric matrix)
  average eigenvalue GAMMA=   0.5428
  1.7183  0.6130  0.6130  0.2598  0.2598  0.1680  0.1680

 Free energy of the ion-electron system (eV)
  ---------------------------------------------------
  alpha Z        PSCENC =        12.15431898
  Ewald energy   TEWEN  =     26858.24821003
  -Hartree energ DENC   =    -39364.44373779
  -exchange      EXHF   =         0.00000000
  -V(xc)+E(xc)   XCENC  =      -467.95442372
  PAW double counting   =     14997.94271753   -14023.25178153
  entropy T*S    EENTRO =         0.02946529
  eigenvalues    EBANDS =     -1016.65163614
  atomic energy  EATOM  =     12955.90228127
  Solvation  Ediel_sol  =         0.00000000
  ---------------------------------------------------
  free energy    TOTEN  =       -48.02458608 eV

  energy without entropy =      -48.05405138  energy(sigma->0) =      -48.03440785


--------------------------------------------------------------------------------------------------------




--------------------------------------- Iteration      1(  13)  ---------------------------------------


    POTLOK:  cpu time    5.2038: real time    5.2120
    SETDIJ:  cpu time    0.0237: real time    0.0237
     EDDAV:  cpu time   26.4908: real time   26.5173
       DOS:  cpu time    0.0709: real time    0.0710
    CHARGE:  cpu time    3.0785: real time    3.0817
    MIXING:  cpu time    0.1305: real time    0.1306
    --------------------------------------------
      LOOP:  cpu time   34.9983: real time   35.0362

 eigenvalue-minimisations  :   448
 total energy-change (2. order) :-0.1222042E+01  (-0.3469965E-01)
 number of electron     160.0000057 magnetization      11.4947399
 augmentation part       68.1753122 magnetization       7.5638743

 Broyden mixing:
  rms(total) = 0.33064E+00    rms(broyden)= 0.33060E+00
  rms(prec ) = 0.34896E+00
  weight for this iteration     100.00

 eigenvalues of (default mixing * dielectric matrix)
  average eigenvalue GAMMA=   0.5944
  1.5673  0.9558  0.9558  0.3303  0.3303  0.2576  0.2036  0.1542

 Free energy of the ion-electron system (eV)
  ---------------------------------------------------
  alpha Z        PSCENC =        12.15431898
  Ewald energy   TEWEN  =     26858.24821003
  -Hartree energ DENC   =    -39368.97604336
  -exchange      EXHF   =         0.00000000
  -V(xc)+E(xc)   XCENC  =      -468.87089605
  PAW double counting   =     14998.18871381   -14023.48331929
  entropy T*S    EENTRO =         0.02268074
  eigenvalues    EBANDS =     -1012.43257425
  atomic energy  EATOM  =     12955.90228127
  Solvation  Ediel_sol  =         0.00000000
  ---------------------------------------------------
  free energy    TOTEN  =       -49.24662813 eV

  energy without entropy =      -49.26930887  energy(sigma->0) =      -49.25418838


--------------------------------------------------------------------------------------------------------




--------------------------------------- Iteration      1(  14)  ---------------------------------------


    POTLOK:  cpu time    5.0130: real time    5.0175
    SETDIJ:  cpu time    0.0975: real time    0.0976
     EDDAV:  cpu time   30.6452: real time   30.6773
       DOS:  cpu time    0.0071: real time    0.0071
    CHARGE:  cpu time    1.4467: real time    1.4483
    MIXING:  cpu time    0.2263: real time    0.2264
    --------------------------------------------
      LOOP:  cpu time   37.4358: real time   37.4743

 eigenvalue-minimisations  :   448
 total energy-change (2. order) :-0.2127554E+01  (-0.6482150E-01)
 number of electron     160.0000057 magnetization      10.9952766
 augmentation part       68.0994502 magnetization       7.2434067

 Broyden mixing:
  rms(total) = 0.28945E+00    rms(broyden)= 0.28940E+00
  rms(prec ) = 0.31318E+00
  weight for this iteration     100.00

 eigenvalues of (default mixing * dielectric matrix)
  average eigenvalue GAMMA=   0.6396
  1.6716  1.1528  1.1528  0.6317  0.2886  0.2886  0.2293  0.1824  0.1589

 Free energy of the ion-electron system (eV)
  ---------------------------------------------------
  alpha Z        PSCENC =        12.15431898
  Ewald energy   TEWEN  =     26858.24821003
  -Hartree energ DENC   =    -39377.56586394
  -exchange      EXHF   =         0.00000000
  -V(xc)+E(xc)   XCENC  =      -470.41979522
  PAW double counting   =     14995.19043760   -14020.54624342
  entropy T*S    EENTRO =         0.03828083
  eigenvalues    EBANDS =     -1004.37580802
  atomic energy  EATOM  =     12955.90228127
  Solvation  Ediel_sol  =         0.00000000
  ---------------------------------------------------
  free energy    TOTEN  =       -51.37418190 eV

  energy without entropy =      -51.41246273  energy(sigma->0) =      -51.38694218


--------------------------------------------------------------------------------------------------------




--------------------------------------- Iteration      1(  15)  ---------------------------------------


    POTLOK:  cpu time    5.4266: real time    5.4346
    SETDIJ:  cpu time    0.0246: real time    0.0246
     EDDAV:  cpu time   29.4017: real time   29.4648
       DOS:  cpu time    0.0053: real time    0.0053
    CHARGE:  cpu time    1.8015: real time    1.8151
    MIXING:  cpu time    0.2267: real time    0.2270
    --------------------------------------------
      LOOP:  cpu time   36.8864: real time   36.9714

 eigenvalue-minimisations  :   464
 total energy-change (2. order) :-0.1718276E+01  (-0.5541380E-01)
 number of electron     160.0000056 magnetization      10.6787176
 augmentation part       68.1226870 magnetization       7.0709089

 Broyden mixing:
  rms(total) = 0.30891E+00    rms(broyden)= 0.30883E+00
  rms(prec ) = 0.33797E+00
  weight for this iteration     100.00

 eigenvalues of (default mixing * dielectric matrix)
  average eigenvalue GAMMA=   0.6193
  1.7732  1.1070  1.1070  0.7579  0.3084  0.3084  0.2878  0.1561  0.1936  0.1936

 Free energy of the ion-electron system (eV)
  ---------------------------------------------------
  alpha Z        PSCENC =        12.15431898
  Ewald energy   TEWEN  =     26858.24821003
  -Hartree energ DENC   =    -39383.56376102
  -exchange      EXHF   =         0.00000000
  -V(xc)+E(xc)   XCENC  =      -471.73890985
  PAW double counting   =     14999.13562236   -14024.87492076
  entropy T*S    EENTRO =         0.01041620
  eigenvalues    EBANDS =      -998.36571520
  atomic energy  EATOM  =     12955.90228127
  Solvation  Ediel_sol  =         0.00000000
  ---------------------------------------------------
  free energy    TOTEN  =       -53.09245800 eV

  energy without entropy =      -53.10287420  energy(sigma->0) =      -53.09593007


--------------------------------------------------------------------------------------------------------




--------------------------------------- Iteration      1(  16)  ---------------------------------------


    POTLOK:  cpu time    4.6556: real time    4.7787
    SETDIJ:  cpu time    0.2104: real time    0.2107
     EDDAV:  cpu time   27.2022: real time   27.3132
       DOS:  cpu time    0.1791: real time    0.1793
    CHARGE:  cpu time    1.6789: real time    1.6807
    MIXING:  cpu time    0.3452: real time    0.3456
    --------------------------------------------
      LOOP:  cpu time   34.2715: real time   34.5080

 eigenvalue-minimisations  :   440
 total energy-change (2. order) :-0.9665489E+00  (-0.2659998E-01)
 number of electron     160.0000057 magnetization      10.2421970
 augmentation part       68.1128502 magnetization       6.7292059

 Broyden mixing:
  rms(total) = 0.19215E+00    rms(broyden)= 0.19210E+00
  rms(prec ) = 0.20608E+00
  weight for this iteration     100.00

 eigenvalues of (default mixing * dielectric matrix)
  average eigenvalue GAMMA=   0.6328
  1.9455  1.0455  1.0097  1.0097  0.5345  0.3248  0.2852  0.2852  0.1569  0.1888
  0.1754

 Free energy of the ion-electron system (eV)
  ---------------------------------------------------
  alpha Z        PSCENC =        12.15431898
  Ewald energy   TEWEN  =     26858.24821003
  -Hartree energ DENC   =    -39387.67233994
  -exchange      EXHF   =         0.00000000
  -V(xc)+E(xc)   XCENC  =      -472.52550319
  PAW double counting   =     15005.40904944   -14031.41500915
  entropy T*S    EENTRO =         0.03273928
  eigenvalues    EBANDS =      -994.19275363
  atomic energy  EATOM  =     12955.90228127
  Solvation  Ediel_sol  =         0.00000000
  ---------------------------------------------------
  free energy    TOTEN  =       -54.05900693 eV

  energy without entropy =      -54.09174621  energy(sigma->0) =      -54.06992002


--------------------------------------------------------------------------------------------------------




--------------------------------------- Iteration      1(  17)  ---------------------------------------


    POTLOK:  cpu time    4.9765: real time    4.9913
    SETDIJ:  cpu time    0.3377: real time    0.3381
     EDDAV:  cpu time   34.7962: real time   34.8606
       DOS:  cpu time    0.0638: real time    0.0638
    CHARGE:  cpu time    1.9636: real time    1.9669
    MIXING:  cpu time    0.3835: real time    0.3845
    --------------------------------------------
      LOOP:  cpu time   42.5213: real time   42.6053

 eigenvalue-minimisations  :   432
 total energy-change (2. order) :-0.1268567E+01  (-0.2619787E-01)
 number of electron     160.0000056 magnetization       9.9501446
 augmentation part       68.0819884 magnetization       6.5573085

 Broyden mixing:
  rms(total) = 0.16466E+00    rms(broyden)= 0.16461E+00
  rms(prec ) = 0.17343E+00
  weight for this iteration     100.00

 eigenvalues of (default mixing * dielectric matrix)
  average eigenvalue GAMMA=   0.6362
  1.7237  1.7237  0.8872  0.8872  0.6760  0.4135  0.2881  0.2881  0.2211  0.1984
  0.1576  0.1697

 Free energy of the ion-electron system (eV)
  ---------------------------------------------------
  alpha Z        PSCENC =        12.15431898
  Ewald energy   TEWEN  =     26858.24821003
  -Hartree energ DENC   =    -39392.90295456
  -exchange      EXHF   =         0.00000000
  -V(xc)+E(xc)   XCENC  =      -473.50542695
  PAW double counting   =     15004.12574012   -14030.43450912
  entropy T*S    EENTRO =         0.03055187
  eigenvalues    EBANDS =      -988.94578592
  atomic energy  EATOM  =     12955.90228127
  Solvation  Ediel_sol  =         0.00000000
  ---------------------------------------------------
  free energy    TOTEN  =       -55.32757430 eV

  energy without entropy =      -55.35812617  energy(sigma->0) =      -55.33775825


--------------------------------------------------------------------------------------------------------




--------------------------------------- Iteration      1(  18)  ---------------------------------------


    POTLOK:  cpu time    4.9427: real time    4.9576
    SETDIJ:  cpu time    0.1183: real time    0.1184
     EDDAV:  cpu time   35.9249: real time   35.9979
       DOS:  cpu time    0.2940: real time    0.2944
    CHARGE:  cpu time    2.0163: real time    2.0204
    MIXING:  cpu time    0.5546: real time    0.5562
    --------------------------------------------
      LOOP:  cpu time   43.8508: real time   43.9449

 eigenvalue-minimisations  :   448
 total energy-change (2. order) :-0.8234274E+00  (-0.1497089E-01)
 number of electron     160.0000057 magnetization       9.4117731
 augmentation part       68.0990653 magnetization       6.1192975

 Broyden mixing:
  rms(total) = 0.11892E+00    rms(broyden)= 0.11890E+00
  rms(prec ) = 0.12483E+00
  weight for this iteration     100.00

 eigenvalues of (default mixing * dielectric matrix)
  average eigenvalue GAMMA=   0.7020
  2.1322  2.1322  0.9323  0.9323  0.6714  0.6714  0.2987  0.2987  0.2679  0.2679
  0.1570  0.1891  0.1742

 Free energy of the ion-electron system (eV)
  ---------------------------------------------------
  alpha Z        PSCENC =        12.15431898
  Ewald energy   TEWEN  =     26858.24821003
  -Hartree energ DENC   =    -39393.69426129
  -exchange      EXHF   =         0.00000000
  -V(xc)+E(xc)   XCENC  =      -474.14052282
  PAW double counting   =     14991.34075254   -14017.78743341
  entropy T*S    EENTRO =         0.03844167
  eigenvalues    EBANDS =      -988.21278867
  atomic energy  EATOM  =     12955.90228127
  Solvation  Ediel_sol  =         0.00000000
  ---------------------------------------------------
  free energy    TOTEN  =       -56.15100171 eV

  energy without entropy =      -56.18944338  energy(sigma->0) =      -56.16381560


--------------------------------------------------------------------------------------------------------




--------------------------------------- Iteration      1(  19)  ---------------------------------------


    POTLOK:  cpu time    5.8377: real time    5.8485
    SETDIJ:  cpu time    0.1779: real time    0.1787
     EDDAV:  cpu time   32.4253: real time   32.4951
       DOS:  cpu time    0.0017: real time    0.0017
    CHARGE:  cpu time    1.8795: real time    1.8827
    MIXING:  cpu time    0.4442: real time    0.4446
    --------------------------------------------
      LOOP:  cpu time   40.7663: real time   40.8512

 eigenvalue-minimisations  :   416
 total energy-change (2. order) :-0.1403120E+01  (-0.2945010E-01)
 number of electron     160.0000057 magnetization       9.0986572
 augmentation part       68.0590122 magnetization       5.9737140

 Broyden mixing:
  rms(total) = 0.12648E+00    rms(broyden)= 0.12646E+00
  rms(prec ) = 0.13384E+00
  weight for this iteration     100.00

 eigenvalues of (default mixing * dielectric matrix)
  average eigenvalue GAMMA=   0.7139
  2.2624  2.2624  0.9652  0.9652  0.7457  0.7457  0.4001  0.2981  0.2981  0.3041
  0.2264  0.1913  0.1571  0.1722

 Free energy of the ion-electron system (eV)
  ---------------------------------------------------
  alpha Z        PSCENC =        12.15431898
  Ewald energy   TEWEN  =     26858.24821003
  -Hartree energ DENC   =    -39397.26292494
  -exchange      EXHF   =         0.00000000
  -V(xc)+E(xc)   XCENC  =      -475.24589016
  PAW double counting   =     14975.25598889   -14001.95273428
  entropy T*S    EENTRO =         0.03710507
  eigenvalues    EBANDS =      -984.69047606
  atomic energy  EATOM  =     12955.90228127
  Solvation  Ediel_sol  =         0.00000000
  ---------------------------------------------------
  free energy    TOTEN  =       -57.55412122 eV

  energy without entropy =      -57.59122628  energy(sigma->0) =      -57.56648957


--------------------------------------------------------------------------------------------------------




--------------------------------------- Iteration      1(  20)  ---------------------------------------


    POTLOK:  cpu time    4.2174: real time    4.4546
    SETDIJ:  cpu time    0.1333: real time    0.1334
     EDDAV:  cpu time   34.4411: real time   34.8539
       DOS:  cpu time    0.0115: real time    0.0115
    CHARGE:  cpu time    1.9878: real time    1.9973
    MIXING:  cpu time    0.2029: real time    0.2045
    --------------------------------------------
      LOOP:  cpu time   40.9940: real time   41.6551

 eigenvalue-minimisations  :   464
 total energy-change (2. order) :-0.6505662E+00  (-0.1138222E-01)
 number of electron     160.0000057 magnetization       8.6432563
 augmentation part       68.0608072 magnetization       5.6015887

 Broyden mixing:
  rms(total) = 0.83019E-01    rms(broyden)= 0.83008E-01
  rms(prec ) = 0.86926E-01
  weight for this iteration     100.00

 eigenvalues of (default mixing * dielectric matrix)
  average eigenvalue GAMMA=   0.7591
  2.4833  2.4833  1.0191  1.0191  0.8775  0.8775  0.6732  0.2956  0.2956  0.3164
  0.2923  0.2324  0.1571  0.1911  0.1727

 Free energy of the ion-electron system (eV)
  ---------------------------------------------------
  alpha Z        PSCENC =        12.15431898
  Ewald energy   TEWEN  =     26858.24821003
  -Hartree energ DENC   =    -39396.56145297
  -exchange      EXHF   =         0.00000000
  -V(xc)+E(xc)   XCENC  =      -475.80233024
  PAW double counting   =     14961.51051684   -13988.38098770
  entropy T*S    EENTRO =         0.03711781
  eigenvalues    EBANDS =      -985.31236141
  atomic energy  EATOM  =     12955.90228127
  Solvation  Ediel_sol  =         0.00000000
  ---------------------------------------------------
  free energy    TOTEN  =       -58.20468740 eV

  energy without entropy =      -58.24180521  energy(sigma->0) =      -58.21706000


--------------------------------------------------------------------------------------------------------




--------------------------------------- Iteration      1(  21)  ---------------------------------------


    POTLOK:  cpu time    4.6001: real time    4.6161
    SETDIJ:  cpu time    0.2245: real time    0.2249
     EDDAV:  cpu time   32.4524: real time   32.5453
       DOS:  cpu time    0.3815: real time    0.3826
    CHARGE:  cpu time    1.9063: real time    1.9111
    MIXING:  cpu time    0.5878: real time    0.5888
    --------------------------------------------
      LOOP:  cpu time   40.1526: real time   40.2689

 eigenvalue-minimisations  :   416
 total energy-change (2. order) :-0.9246635E+00  (-0.1491525E-01)
 number of electron     160.0000057 magnetization       8.2850100
 augmentation part       68.0724009 magnetization       5.3383104

 Broyden mixing:
  rms(total) = 0.76065E-01    rms(broyden)= 0.76045E-01
  rms(prec ) = 0.81445E-01
  weight for this iteration     100.00

 eigenvalues of (default mixing * dielectric matrix)
  average eigenvalue GAMMA=   0.7813
  3.0379  2.1770  0.9729  0.9729  0.9381  0.9381  0.8992  0.6253  0.2973  0.2973
  0.3080  0.2860  0.2297  0.1571  0.1908  0.1728

 Free energy of the ion-electron system (eV)
  ---------------------------------------------------
  alpha Z        PSCENC =        12.15431898
  Ewald energy   TEWEN  =     26858.24821003
  -Hartree energ DENC   =    -39395.12153838
  -exchange      EXHF   =         0.00000000
  -V(xc)+E(xc)   XCENC  =      -476.63343888
  PAW double counting   =     14943.56298572   -13970.63859868
  entropy T*S    EENTRO =         0.04670288
  eigenvalues    EBANDS =      -986.65027386
  atomic energy  EATOM  =     12955.90228127
  Solvation  Ediel_sol  =         0.00000000
  ---------------------------------------------------
  free energy    TOTEN  =       -59.12935093 eV

  energy without entropy =      -59.17605381  energy(sigma->0) =      -59.14491856


--------------------------------------------------------------------------------------------------------




--------------------------------------- Iteration      1(  22)  ---------------------------------------


    POTLOK:  cpu time    7.1411: real time    7.1608
    SETDIJ:  cpu time    0.4463: real time    0.4472
     EDDAV:  cpu time   35.4074: real time   35.4948
       DOS:  cpu time    0.1726: real time    0.1733
    CHARGE:  cpu time    1.8461: real time    1.8484
    MIXING:  cpu time    0.3795: real time    0.3806
    --------------------------------------------
      LOOP:  cpu time   45.3930: real time   45.5051

 eigenvalue-minimisations  :   456
 total energy-change (2. order) :-0.6434268E+00  (-0.8370232E-02)
 number of electron     160.0000057 magnetization       7.9056877
 augmentation part       68.0630102 magnetization       5.0217291

 Broyden mixing:
  rms(total) = 0.72112E-01    rms(broyden)= 0.72101E-01
  rms(prec ) = 0.77993E-01
  weight for this iteration     100.00

 eigenvalues of (default mixing * dielectric matrix)
  average eigenvalue GAMMA=   0.8330
  3.6479  2.2380  1.8402  0.9771  0.9771  0.7875  0.7875  0.6568  0.2964  0.2964
  0.3157  0.3157  0.2730  0.2305  0.1571  0.1909  0.1727

 Free energy of the ion-electron system (eV)
  ---------------------------------------------------
  alpha Z        PSCENC =        12.15431898
  Ewald energy   TEWEN  =     26858.24821003
  -Hartree energ DENC   =    -39394.02258991
  -exchange      EXHF   =         0.00000000
  -V(xc)+E(xc)   XCENC  =      -477.23035133
  PAW double counting   =     14934.31548778   -13961.52697609
  entropy T*S    EENTRO =         0.04946971
  eigenvalues    EBANDS =      -987.66262818
  atomic energy  EATOM  =     12955.90228127
  Solvation  Ediel_sol  =         0.00000000
  ---------------------------------------------------
  free energy    TOTEN  =       -59.77277776 eV

  energy without entropy =      -59.82224747  energy(sigma->0) =      -59.78926766


--------------------------------------------------------------------------------------------------------




--------------------------------------- Iteration      1(  23)  ---------------------------------------


    POTLOK:  cpu time    6.8295: real time    6.8449
    SETDIJ:  cpu time    0.2138: real time    0.2141
     EDDAV:  cpu time   30.5933: real time   30.7279
       DOS:  cpu time    0.0051: real time    0.0052
    CHARGE:  cpu time    2.5208: real time    2.5254
    MIXING:  cpu time    0.5769: real time    0.5776
    --------------------------------------------
      LOOP:  cpu time   40.7396: real time   40.8949

 eigenvalue-minimisations  :   448
 total energy-change (2. order) :-0.6117867E+00  (-0.6853280E-02)
 number of electron     160.0000057 magnetization       7.6185665
 augmentation part       68.0759773 magnetization       4.7822106

 Broyden mixing:
  rms(total) = 0.45108E-01    rms(broyden)= 0.45097E-01
  rms(prec ) = 0.47864E-01
  weight for this iteration     100.00

 eigenvalues of (default mixing * dielectric matrix)
  average eigenvalue GAMMA=   0.8669
  4.3477  2.1003  2.1003  1.0050  1.0050  0.7705  0.7705  0.6478  0.6478  0.2969
  0.2969  0.3245  0.1571  0.1728  0.1908  0.2292  0.2747  0.2669

 Free energy of the ion-electron system (eV)
  ---------------------------------------------------
  alpha Z        PSCENC =        12.15431898
  Ewald energy   TEWEN  =     26858.24821003
  -Hartree energ DENC   =    -39391.83805081
  -exchange      EXHF   =         0.00000000
  -V(xc)+E(xc)   XCENC  =      -477.82776389
  PAW double counting   =     14923.75745610   -13951.08036570
  entropy T*S    EENTRO =         0.05630786
  eigenvalues    EBANDS =      -989.75695829
  atomic energy  EATOM  =     12955.90228127
  Solvation  Ediel_sol  =         0.00000000
  ---------------------------------------------------
  free energy    TOTEN  =       -60.38456447 eV

  energy without entropy =      -60.44087233  energy(sigma->0) =      -60.40333376


--------------------------------------------------------------------------------------------------------




--------------------------------------- Iteration      1(  24)  ---------------------------------------


    POTLOK:  cpu time    6.6786: real time    6.9460
    SETDIJ:  cpu time    0.0899: real time    0.0900
     EDDAV:  cpu time   40.1544: real time   40.3055
       DOS:  cpu time    0.1429: real time    0.1431
    CHARGE:  cpu time    2.2808: real time    2.2832
    MIXING:  cpu time    0.5541: real time    0.5547
    --------------------------------------------
      LOOP:  cpu time   49.9006: real time   50.3225

 eigenvalue-minimisations  :   456
 total energy-change (2. order) :-0.3805828E+00  (-0.3647097E-02)
 number of electron     160.0000057 magnetization       7.4562781
 augmentation part       68.0743789 magnetization       4.6548237

 Broyden mixing:
  rms(total) = 0.44189E-01    rms(broyden)= 0.44176E-01
  rms(prec ) = 0.47268E-01
  weight for this iteration     100.00

 eigenvalues of (default mixing * dielectric matrix)
  average eigenvalue GAMMA=   0.8671
  4.5943  2.1593  2.1593  0.9937  0.9937  0.8053  0.8053  0.7135  0.7135  0.2971
  0.2971  0.3462  0.3005  0.3005  0.1571  0.1728  0.1908  0.2291  0.2455

 Free energy of the ion-electron system (eV)
  ---------------------------------------------------
  alpha Z        PSCENC =        12.15431898
  Ewald energy   TEWEN  =     26858.24821003
  -Hartree energ DENC   =    -39390.66769915
  -exchange      EXHF   =         0.00000000
  -V(xc)+E(xc)   XCENC  =      -478.20083840
  PAW double counting   =     14919.75806660   -13947.13304973
  entropy T*S    EENTRO =         0.05693042
  eigenvalues    EBANDS =      -990.88336726
  atomic energy  EATOM  =     12955.90228127
  Solvation  Ediel_sol  =         0.00000000
  ---------------------------------------------------
  free energy    TOTEN  =       -60.76514725 eV

  energy without entropy =      -60.82207767  energy(sigma->0) =      -60.78412406


--------------------------------------------------------------------------------------------------------




--------------------------------------- Iteration      1(  25)  ---------------------------------------


    POTLOK:  cpu time    5.2713: real time    5.2841
    SETDIJ:  cpu time    0.2018: real time    0.2020
     EDDAV:  cpu time   38.8866: real time   38.9457
       DOS:  cpu time    0.0061: real time    0.0061
    CHARGE:  cpu time    2.2271: real time    2.2293
    MIXING:  cpu time    0.5007: real time    0.5012
    --------------------------------------------
      LOOP:  cpu time   47.0936: real time   47.1684

 eigenvalue-minimisations  :   440
 total energy-change (2. order) :-0.2381424E+00  (-0.1134652E-02)
 number of electron     160.0000057 magnetization       7.2862553
 augmentation part       68.0739225 magnetization       4.4995164

 Broyden mixing:
  rms(total) = 0.30795E-01    rms(broyden)= 0.30791E-01
  rms(prec ) = 0.33320E-01
  weight for this iteration     100.00

 eigenvalues of (default mixing * dielectric matrix)
  average eigenvalue GAMMA=   0.8967
  4.8607  2.3428  2.3428  1.0397  1.0397  0.8340  0.8340  0.8417  0.6550  0.6550
  0.2969  0.2969  0.3146  0.3146  0.1571  0.1728  0.1908  0.2759  0.2291  0.2399

 Free energy of the ion-electron system (eV)
  ---------------------------------------------------
  alpha Z        PSCENC =        12.15431898
  Ewald energy   TEWEN  =     26858.24821003
  -Hartree energ DENC   =    -39389.54154277
  -exchange      EXHF   =         0.00000000
  -V(xc)+E(xc)   XCENC  =      -478.44564672
  PAW double counting   =     14918.90920761   -13946.29023315
  entropy T*S    EENTRO =         0.05649448
  eigenvalues    EBANDS =      -991.99637940
  atomic energy  EATOM  =     12955.90228127
  Solvation  Ediel_sol  =         0.00000000
  ---------------------------------------------------
  free energy    TOTEN  =       -61.00328968 eV

  energy without entropy =      -61.05978416  energy(sigma->0) =      -61.02212117


--------------------------------------------------------------------------------------------------------




--------------------------------------- Iteration      1(  26)  ---------------------------------------


    POTLOK:  cpu time    6.6339: real time    6.6438
    SETDIJ:  cpu time    0.1212: real time    0.1213
     EDDAV:  cpu time   35.0540: real time   35.0936
       DOS:  cpu time    0.3143: real time    0.3146
    CHARGE:  cpu time    2.4250: real time    2.4275
    MIXING:  cpu time    0.4037: real time    0.4041
    --------------------------------------------
      LOOP:  cpu time   44.9521: real time   45.0050

 eigenvalue-minimisations  :   456
 total energy-change (2. order) :-0.2778362E+00  (-0.9607493E-03)
 number of electron     160.0000057 magnetization       7.1104199
 augmentation part       68.0713355 magnetization       4.3333177

 Broyden mixing:
  rms(total) = 0.24660E-01    rms(broyden)= 0.24655E-01
  rms(prec ) = 0.26108E-01
  weight for this iteration     100.00

 eigenvalues of (default mixing * dielectric matrix)
  average eigenvalue GAMMA=   0.9085
  5.3516  2.3142  2.3142  1.2580  1.0036  1.0036  0.8029  0.8029  0.6893  0.6893
  0.3841  0.2970  0.2970  0.3081  0.3081  0.1571  0.1728  0.1908  0.2671  0.2279
  0.2384

 Free energy of the ion-electron system (eV)
  ---------------------------------------------------
  alpha Z        PSCENC =        12.15431898
  Ewald energy   TEWEN  =     26858.24821003
  -Hartree energ DENC   =    -39388.13992604
  -exchange      EXHF   =         0.00000000
  -V(xc)+E(xc)   XCENC  =      -478.73882050
  PAW double counting   =     14920.40352842   -13947.77766754
  entropy T*S    EENTRO =         0.05922536
  eigenvalues    EBANDS =      -993.39227583
  atomic energy  EATOM  =     12955.90228127
  Solvation  Ediel_sol  =         0.00000000
  ---------------------------------------------------
  free energy    TOTEN  =       -61.28112587 eV

  energy without entropy =      -61.34035123  energy(sigma->0) =      -61.30086765


--------------------------------------------------------------------------------------------------------




--------------------------------------- Iteration      1(  27)  ---------------------------------------


    POTLOK:  cpu time    6.2269: real time    6.2340
    SETDIJ:  cpu time    0.3019: real time    0.3022
     EDDAV:  cpu time   34.8537: real time   35.1031
       DOS:  cpu time    0.0814: real time    0.0815
    CHARGE:  cpu time    2.9862: real time    2.9891
    MIXING:  cpu time    0.3819: real time    0.3823
    --------------------------------------------
      LOOP:  cpu time   44.8319: real time   45.0921

 eigenvalue-minimisations  :   416
 total energy-change (2. order) :-0.2628344E+00  (-0.8747618E-03)
 number of electron     160.0000057 magnetization       6.9032807
 augmentation part       68.0696639 magnetization       4.1386561

 Broyden mixing:
  rms(total) = 0.22899E-01    rms(broyden)= 0.22892E-01
  rms(prec ) = 0.24575E-01
  weight for this iteration     100.00

 eigenvalues of (default mixing * dielectric matrix)
  average eigenvalue GAMMA=   0.9409
  6.0493  2.3782  2.3782  1.2882  0.9566  0.9566  0.9227  0.8178  0.8178  0.6860
  0.6860  0.2970  0.2970  0.3412  0.2967  0.2967  0.1571  0.1728  0.1908  0.2543
  0.2335  0.2258

 Free energy of the ion-electron system (eV)
  ---------------------------------------------------
  alpha Z        PSCENC =        12.15431898
  Ewald energy   TEWEN  =     26858.24821003
  -Hartree energ DENC   =    -39387.08453983
  -exchange      EXHF   =         0.00000000
  -V(xc)+E(xc)   XCENC  =      -479.00778486
  PAW double counting   =     14921.73807284   -13949.09020865
  entropy T*S    EENTRO =         0.05982612
  eigenvalues    EBANDS =      -994.46413611
  atomic energy  EATOM  =     12955.90228127
  Solvation  Ediel_sol  =         0.00000000
  ---------------------------------------------------
  free energy    TOTEN  =       -61.54396023 eV

  energy without entropy =      -61.60378635  energy(sigma->0) =      -61.56390227


--------------------------------------------------------------------------------------------------------




--------------------------------------- Iteration      1(  28)  ---------------------------------------


    POTLOK:  cpu time    5.5986: real time    5.6117
    SETDIJ:  cpu time    0.2321: real time    0.2323
     EDDAV:  cpu time   28.7321: real time   28.7682
       DOS:  cpu time    0.0012: real time    0.0012
    CHARGE:  cpu time    1.6984: real time    1.7002
    MIXING:  cpu time    0.6426: real time    0.6432
    --------------------------------------------
      LOOP:  cpu time   36.9049: real time   36.9568

 eigenvalue-minimisations  :   440
 total energy-change (2. order) :-0.2619054E+00  (-0.9049020E-03)
 number of electron     160.0000057 magnetization       6.7818807
 augmentation part       68.0723185 magnetization       4.0285760

 Broyden mixing:
  rms(total) = 0.12716E-01    rms(broyden)= 0.12714E-01
  rms(prec ) = 0.13925E-01
  weight for this iteration     100.00

 eigenvalues of (default mixing * dielectric matrix)
  average eigenvalue GAMMA=   0.9824
  6.6269  2.5134  2.5134  1.6807  0.9734  0.9734  0.8211  0.8211  0.8488  0.8488
  0.6277  0.5806  0.2970  0.2970  0.3369  0.2993  0.2993  0.1571  0.1728  0.1908
  0.2579  0.2325  0.2261

 Free energy of the ion-electron system (eV)
  ---------------------------------------------------
  alpha Z        PSCENC =        12.15431898
  Ewald energy   TEWEN  =     26858.24821003
  -Hartree energ DENC   =    -39385.33597993
  -exchange      EXHF   =         0.00000000
  -V(xc)+E(xc)   XCENC  =      -479.29185819
  PAW double counting   =     14922.81697317   -13950.15787434
  entropy T*S    EENTRO =         0.06113887
  eigenvalues    EBANDS =      -996.20307543
  atomic energy  EATOM  =     12955.90228127
  Solvation  Ediel_sol  =         0.00000000
  ---------------------------------------------------
  free energy    TOTEN  =       -61.80586559 eV

  energy without entropy =      -61.86700445  energy(sigma->0) =      -61.82624521


--------------------------------------------------------------------------------------------------------




--------------------------------------- Iteration      1(  29)  ---------------------------------------


    POTLOK:  cpu time    7.2829: real time    7.2923
    SETDIJ:  cpu time    0.1346: real time    0.1349
     EDDAV:  cpu time   39.3886: real time   39.5978
       DOS:  cpu time    0.4419: real time    0.4423
    CHARGE:  cpu time    2.8402: real time    2.8431
    MIXING:  cpu time    0.7600: real time    0.7608
    --------------------------------------------
      LOOP:  cpu time   50.8482: real time   51.0712

 eigenvalue-minimisations  :   496
 total energy-change (2. order) :-0.1218721E+00  (-0.2627820E-03)
 number of electron     160.0000057 magnetization       6.6805317
 augmentation part       68.0711608 magnetization       3.9300171

 Broyden mixing:
  rms(total) = 0.10983E-01    rms(broyden)= 0.10980E-01
  rms(prec ) = 0.11859E-01
  weight for this iteration     100.00

 eigenvalues of (default mixing * dielectric matrix)
  average eigenvalue GAMMA=   1.0226
  7.3708  2.6480  2.6480  2.0338  0.9542  0.9542  0.9307  0.9307  0.8162  0.8162
  0.6581  0.6581  0.3763  0.2970  0.2970  0.1571  0.1728  0.1908  0.3270  0.2959
  0.2959  0.2559  0.2323  0.2257

 Free energy of the ion-electron system (eV)
  ---------------------------------------------------
  alpha Z        PSCENC =        12.15431898
  Ewald energy   TEWEN  =     26858.24821003
  -Hartree energ DENC   =    -39384.02954757
  -exchange      EXHF   =         0.00000000
  -V(xc)+E(xc)   XCENC  =      -479.42571861
  PAW double counting   =     14924.86011723   -13952.17387861
  entropy T*S    EENTRO =         0.06105326
  eigenvalues    EBANDS =      -997.52457363
  atomic energy  EATOM  =     12955.90228127
  Solvation  Ediel_sol  =         0.00000000
  ---------------------------------------------------
  free energy    TOTEN  =       -61.92773766 eV

  energy without entropy =      -61.98879093  energy(sigma->0) =      -61.94808875


--------------------------------------------------------------------------------------------------------




--------------------------------------- Iteration      1(  30)  ---------------------------------------


    POTLOK:  cpu time    4.9252: real time    4.9307
    SETDIJ:  cpu time    0.1892: real time    0.1893
     EDDAV:  cpu time   41.2038: real time   41.2487
       DOS:  cpu time    0.0045: real time    0.0045
    CHARGE:  cpu time    1.6160: real time    1.6177
    MIXING:  cpu time    0.7061: real time    0.7068
    --------------------------------------------
      LOOP:  cpu time   48.6448: real time   48.6977

 eigenvalue-minimisations  :   432
 total energy-change (2. order) :-0.8244147E-01  (-0.1609819E-03)
 number of electron     160.0000057 magnetization       6.6217964
 augmentation part       68.0713033 magnetization       3.8757205

 Broyden mixing:
  rms(total) = 0.10776E-01    rms(broyden)= 0.10775E-01
  rms(prec ) = 0.12007E-01
  weight for this iteration     100.00

 eigenvalues of (default mixing * dielectric matrix)
  average eigenvalue GAMMA=   1.0469
  7.9074  2.6936  2.6936  2.3041  1.0753  1.0753  0.9223  0.9223  0.7794  0.7794
  0.6564  0.6564  0.6350  0.2970  0.2970  0.1571  0.3445  0.1728  0.1908  0.3041
  0.3041  0.2916  0.2558  0.2325  0.2258

[...]
     69      -4.8929      1.00051
     70      -4.8428      1.00162
     71      -4.7921      1.00444
     72      -4.7739      1.00614
     73      -4.7680      1.00679
     74      -4.7424      1.01022
     75      -4.6799      1.02265
     76      -4.6751      1.02376
     77      -4.6713      1.02463
     78      -4.6587      1.02751
     79      -4.6255      1.03379
     80      -4.6246      1.03392
     81      -4.5160      0.98742
     82      -4.4890      0.94309
     83      -4.4762      0.91586
     84      -4.1826     -0.00727
     85      -3.7129     -0.00002
     86      -3.5293     -0.00000
     87      -3.0503     -0.00000
     88      -3.0303     -0.00000
     89      -2.9738     -0.00000
     90      -2.7256     -0.00000
     91      -1.6502     -0.00000
     92      -1.6052     -0.00000
     93      -1.4110     -0.00000
     94      -1.2182     -0.00000
     95      -1.1000     -0.00000
     96      -1.0268     -0.00000
     97      -1.0019     -0.00000
     98      -0.9284     -0.00000
     99      -0.7346     -0.00000
    100      -0.6166     -0.00000
    101       0.1061     -0.00000
    102       0.2324     -0.00000
    103       0.2860     -0.00000
    104       0.3766     -0.00000

 spin component 2

 k-point     1 :       0.0000    0.0000    0.0000
  band No.  band energies     occupation 
      1      -9.2173      1.00000
      2      -8.7112      1.00000
      3      -8.5797      1.00000
      4      -8.4425      1.00000
      5      -8.4193      1.00000
      6      -8.2429      1.00000
      7      -7.8789      1.00000
      8      -7.8647      1.00000
      9      -7.8106      1.00000
     10      -7.7578      1.00000
     11      -7.6235      1.00000
     12      -7.5639      1.00000
     13      -7.5563      1.00000
     14      -7.3296      1.00000
     15      -7.2835      1.00000
     16      -7.2176      1.00000
     17      -7.1939      1.00000
     18      -7.1244      1.00000
     19      -7.1051      1.00000
     20      -7.1006      1.00000
     21      -7.0855      1.00000
     22      -7.0743      1.00000
     23      -7.0357      1.00000
     24      -6.9864      1.00000
     25      -6.9131      1.00000
     26      -6.7558      1.00000
     27      -6.7290      1.00000
     28      -6.6286      1.00000
     29      -6.6182      1.00000
     30      -6.5372      1.00000
     31      -6.5333      1.00000
     32      -6.4379      1.00000
     33      -6.3739      1.00000
     34      -6.3148      1.00000
     35      -6.2679      1.00000
     36      -6.1476      1.00000
     37      -6.0506      1.00000
     38      -6.0373      1.00000
     39      -5.9963      1.00000
     40      -5.8619      1.00000
     41      -5.7913      1.00000
     42      -5.7475      1.00000
     43      -5.7314      1.00000
     44      -5.6246      1.00000
     45      -5.5751      1.00000
     46      -5.5407      1.00000
     47      -5.4996      1.00000
     48      -5.4743      1.00000
     49      -5.4672      1.00000
     50      -5.3749      1.00000
     51      -5.3429      1.00000
     52      -5.2922      1.00000
     53      -5.1759      1.00000
     54      -5.1274      1.00000
     55      -5.0733      1.00000
     56      -5.0201      1.00001
     57      -5.0060      1.00002
     58      -4.9716      1.00006
     59      -4.9350      1.00018
     60      -4.9156      1.00029
     61      -4.9128      1.00031
     62      -4.8953      1.00048
     63      -4.8324      1.00202
     64      -4.8041      1.00355
     65      -4.7794      1.00558
     66      -4.7658      1.00704
     67      -4.7168      1.01467
     68      -4.6965      1.01889
     69      -4.6787      1.02291
     70      -4.6184      1.03464
     71      -4.5715      1.03076
     72      -4.5277      1.00133
     73      -4.5238      0.99707
     74      -4.4999      0.96299
     75      -4.4452      0.83268
     76      -4.4210      0.75221
     77      -4.3652      0.53024
     78      -4.3563      0.49248
     79      -4.3264      0.36800
     80      -4.1824     -0.00747
     81      -4.1103     -0.03543
     82      -4.0911     -0.03385
     83      -4.0513     -0.02612
     84      -3.9790     -0.01104
     85      -3.5366     -0.00000
     86      -3.3545     -0.00000
     87      -2.9246     -0.00000
     88      -2.9088     -0.00000
     89      -2.8554     -0.00000
     90      -2.5791     -0.00000
     91      -1.5848     -0.00000
     92      -1.5020     -0.00000
     93      -1.3196     -0.00000
     94      -1.1320     -0.00000
     95      -1.0244     -0.00000
     96      -0.9801     -0.00000
     97      -0.9384     -0.00000
     98      -0.8471     -0.00000
     99      -0.6961     -0.00000
    100      -0.5448     -0.00000
    101       0.1150     -0.00000
    102       0.2032     -0.00000
    103       0.2773     -0.00000
    104       0.4000     -0.00000


--------------------------------------------------------------------------------------------------------


 soft charge-density along one line, spin component            1
         0         1         2         3         4         5         6         7         8         9
 total charge-density along one line
 
 soft charge-density along one line, spin component            2
         0         1         2         3         4         5         6         7         8         9
 total charge-density along one line
 
 pseudopotential strength for first ion, spin component:            1
 -9.279  -0.019   0.023   0.046  -0.015  -9.213  -0.018   0.022
 -0.019  -9.259  -0.022  -0.004   0.003  -0.018  -9.194  -0.021
  0.023  -0.022  -9.313   0.004  -0.042   0.022  -0.021  -9.245
  0.046  -0.004   0.004  -9.304   0.002   0.044  -0.004   0.004
 -0.015   0.003  -0.042   0.002  -9.274  -0.015   0.003  -0.040
 -9.213  -0.018   0.022   0.044  -0.015  -9.126  -0.017   0.021
 -0.018  -9.194  -0.021  -0.004   0.003  -0.017  -9.108  -0.020
  0.022  -0.021  -9.245   0.004  -0.040   0.021  -0.020  -9.157
  0.044  -0.004   0.004  -9.237   0.002   0.042  -0.004   0.004
 -0.015   0.003  -0.040   0.002  -9.208  -0.014   0.002  -0.039
  0.007  -0.007   0.005   0.003  -0.006   0.007  -0.006   0.005
  0.012  -0.011   0.009   0.006  -0.010   0.012  -0.011   0.009
  0.000  -0.001  -0.000  -0.000   0.000   0.001  -0.001  -0.000
 -0.000  -0.001   0.001   0.000   0.000  -0.000  -0.001   0.001
 -0.001  -0.000   0.001  -0.001  -0.002  -0.001  -0.000   0.001
  0.000  -0.002  -0.000  -0.000   0.000   0.000  -0.002  -0.000
 -0.000  -0.002   0.001   0.000   0.001  -0.000  -0.001   0.001
 -0.001  -0.000   0.001  -0.001  -0.002  -0.001  -0.000   0.001
 pseudopotential strength for first ion, spin component:            2
 -9.022   0.002   0.009   0.007  -0.002  -8.967   0.002   0.009
  0.002  -9.047   0.006  -0.003  -0.005   0.002  -8.991   0.006
  0.009   0.006  -9.037  -0.001  -0.001   0.009   0.006  -8.982
  0.007  -0.003  -0.001  -9.026  -0.008   0.006  -0.003  -0.001
 -0.002  -0.005  -0.001  -0.008  -9.032  -0.002  -0.005  -0.001
 -8.967   0.002   0.009   0.006  -0.002  -8.891   0.002   0.008
  0.002  -8.991   0.006  -0.003  -0.005   0.002  -8.914   0.005
  0.009   0.006  -8.982  -0.001  -0.001   0.008   0.005  -8.905
  0.006  -0.003  -0.001  -8.971  -0.008   0.006  -0.003  -0.001
 -0.002  -0.005  -0.001  -0.008  -8.977  -0.002  -0.004  -0.001
  0.002  -0.002   0.002   0.001  -0.002   0.002  -0.002   0.002
  0.004  -0.004   0.003   0.002  -0.003   0.003  -0.003   0.003
  0.000  -0.001  -0.000  -0.000   0.000   0.000  -0.001  -0.000
 -0.000  -0.001   0.001   0.000   0.000  -0.000  -0.001   0.001
 -0.000  -0.000   0.001  -0.000  -0.001  -0.000  -0.000   0.001
  0.000  -0.001   0.000   0.000   0.000   0.000  -0.001   0.000
  0.000  -0.001   0.000  -0.000   0.000   0.000  -0.001   0.000
 -0.001   0.000   0.001  -0.001  -0.001  -0.001   0.000   0.001
 total augmentation occupancy for first ion, spin component:            1
  3.987  -0.072   0.148   0.553  -0.274  -2.575  -0.003  -0.032  -0.285   0.151  -0.152   0.037  -0.025  -0.012  -0.010   0.002
 -0.072   4.389  -0.341   0.186   0.204  -0.004  -2.759   0.150  -0.134  -0.094   0.073  -0.033   0.006  -0.007  -0.010  -0.000
  0.148  -0.341   3.701   0.149  -0.347  -0.031   0.151  -2.447  -0.102   0.137  -0.091   0.027   0.007  -0.021  -0.006  -0.001
  0.553   0.186   0.149   3.682   0.031  -0.286  -0.133  -0.102  -2.425  -0.031  -0.094   0.019  -0.012  -0.021  -0.005   0.001
 -0.274   0.204  -0.347   0.031   3.835   0.150  -0.095   0.137  -0.032  -2.461   0.097  -0.030   0.011  -0.004   0.014  -0.001
 -2.575  -0.004  -0.031  -0.286   0.150   2.939   0.060  -0.060   0.085  -0.056   0.119  -0.013   0.032   0.011   0.004  -0.001
 -0.003  -2.759   0.151  -0.133  -0.095   0.060   2.958  -0.003   0.094   0.007  -0.016   0.003  -0.025  -0.007   0.008   0.001
 -0.032   0.150  -2.447  -0.102   0.137  -0.060  -0.003   2.932   0.067   0.021   0.056  -0.006  -0.009   0.032   0.016  -0.000
 -0.285  -0.134  -0.102  -2.425  -0.032   0.085   0.094   0.067   2.907   0.036   0.083  -0.009   0.011   0.025  -0.004  -0.001
  0.151  -0.094   0.137  -0.031  -2.461  -0.056   0.007   0.021   0.036   2.857  -0.062   0.007  -0.010   0.009  -0.033  -0.000
 -0.152   0.073  -0.091  -0.094   0.097   0.119  -0.016   0.056   0.083  -0.062   2.159  -0.326  -0.008  -0.006  -0.004   0.001
  0.037  -0.033   0.027   0.019  -0.030  -0.013   0.003  -0.006  -0.009   0.007  -0.326   0.051   0.001   0.001   0.000  -0.000
 -0.025   0.006   0.007  -0.012   0.011   0.032  -0.025  -0.009   0.011  -0.010  -0.008   0.001   0.307   0.000   0.010  -0.016
 -0.012  -0.007  -0.021  -0.021  -0.004   0.011  -0.007   0.032   0.025   0.009  -0.006   0.001   0.000   0.309   0.007  -0.000
 -0.010  -0.010  -0.006  -0.005   0.014   0.004   0.008   0.016  -0.004  -0.033  -0.004   0.000   0.010   0.007   0.297   0.000
  0.002  -0.000  -0.001   0.001  -0.001  -0.001   0.001  -0.000  -0.001  -0.000   0.001  -0.000  -0.016  -0.000   0.000   0.001
  0.001   0.001   0.002   0.002   0.000  -0.001   0.001  -0.000  -0.001  -0.000   0.001  -0.000  -0.000  -0.016  -0.000   0.000
  0.001   0.001   0.001   0.001  -0.001  -0.000  -0.001  -0.001   0.000   0.002   0.000  -0.000   0.000  -0.000  -0.016  -0.000
 total augmentation occupancy for first ion, spin component:            2
  1.239   0.246  -0.214  -0.525   0.160  -0.772  -0.159   0.143   0.349  -0.104  -0.033   0.016  -0.005   0.002   0.002   0.001
  0.246   0.724   0.339   0.016  -0.075  -0.157  -0.434  -0.222  -0.008   0.047   0.022  -0.016   0.009   0.005   0.001   0.000
 -0.214   0.339   1.535  -0.040   0.545   0.142  -0.223  -0.974   0.023  -0.360  -0.021   0.012   0.005  -0.010  -0.004  -0.001
 -0.525   0.016  -0.040   1.512  -0.110   0.349  -0.009   0.024  -0.952   0.070  -0.017   0.007   0.002  -0.005   0.003  -0.000
  0.160  -0.075   0.545  -0.110   1.077  -0.104   0.048  -0.360   0.071  -0.668   0.026  -0.015   0.001  -0.004   0.008  -0.000
 -0.772  -0.157   0.142   0.349  -0.104   0.436   0.098  -0.093  -0.227   0.065   0.008  -0.003   0.003  -0.001  -0.002  -0.000
 -0.159  -0.434  -0.223  -0.009   0.048   0.098   0.220   0.142   0.004  -0.028  -0.003   0.003  -0.005  -0.003  -0.001  -0.000
  0.143  -0.222  -0.974   0.024  -0.360  -0.093   0.142   0.570  -0.013   0.232   0.005  -0.002  -0.003   0.005   0.002   0.001
  0.349  -0.008   0.023  -0.952   0.071  -0.227   0.004  -0.013   0.552  -0.045   0.005  -0.001  -0.001   0.002  -0.002   0.000
 -0.104   0.047  -0.360   0.070  -0.668   0.065  -0.028   0.232  -0.045   0.371  -0.005   0.003  -0.000   0.002  -0.005   0.000
 -0.033   0.022  -0.021  -0.017   0.026   0.008  -0.003   0.005   0.005  -0.005  -0.064   0.020  -0.001  -0.001  -0.001   0.000
  0.016  -0.016   0.012   0.007  -0.015  -0.003   0.003  -0.002  -0.001   0.003   0.020  -0.004  -0.000  -0.000  -0.000   0.000
 -0.005   0.009   0.005   0.002   0.001   0.003  -0.005  -0.003  -0.001  -0.000  -0.001  -0.000  -0.006  -0.000   0.000   0.001
  0.002   0.005  -0.010  -0.005  -0.004  -0.001  -0.003   0.005   0.002   0.002  -0.001  -0.000  -0.000  -0.005   0.000  -0.000
  0.002   0.001  -0.004   0.003   0.008  -0.002  -0.001   0.002  -0.002  -0.005  -0.001  -0.000   0.000   0.000  -0.006  -0.000
  0.001   0.000  -0.001  -0.000  -0.000  -0.000  -0.000   0.001   0.000   0.000   0.000   0.000   0.001  -0.000  -0.000  -0.000
 -0.000   0.000   0.001   0.001   0.000   0.000  -0.000  -0.001  -0.000  -0.000   0.000   0.000  -0.000   0.001  -0.000   0.000
  0.000   0.000  -0.000   0.000  -0.000  -0.000  -0.000   0.000  -0.000   0.000  -0.000   0.000  -0.000  -0.000   0.001   0.000


------------------------ aborting loop because EDIFF is reached ----------------------------------------


    CHARGE:  cpu time    1.1422: real time    1.1459
    FORLOC:  cpu time    0.1218: real time    0.1220
    FORNL :  cpu time    7.8133: real time    7.8193
    FORCOR:  cpu time    2.9236: real time    2.9283
    FORHAR:  cpu time    0.4149: real time    0.4173
    MIXING:  cpu time    0.0526: real time    0.0527
    OFIELD:  cpu time    0.0001: real time    0.0001

 VOLUME and BASIS-vectors are now :
 -----------------------------------------------------------------------------
  energy-cutoff  :      400.00
  volume of cell :    13727.51
      direct lattice vectors                 reciprocal lattice vectors
    23.857200753  0.000000000  0.000000000     0.041916066  0.000000000  0.000000000
     0.000000000 24.264316785  0.000000000     0.000000000  0.041212782  0.000000000
     0.000000000  0.000000000 23.713973070     0.000000000  0.000000000  0.042169231

  length of vectors
    23.857200753 24.264316785 23.713973070     0.041916066  0.041212782  0.042169231


 FORCES acting on ions
    electron-ion (+dipol)            ewald-force                    non-local-force                 convergence-correction
 -----------------------------------------------------------------------------------------------
   0.391E+02 0.536E+02 0.412E+02   -.393E+02 -.539E+02 -.414E+02   0.182E+00 0.288E+00 0.226E+00   0.373E-01 -.446E-01 -.363E-02
   -.571E+03 -.660E+03 -.588E+03   0.569E+03 0.658E+03 0.586E+03   0.202E+01 0.238E+01 0.210E+01   0.276E-01 -.221E-01 -.645E-03
   -.616E+03 0.508E+03 -.712E+03   0.613E+03 -.506E+03 0.709E+03   0.216E+01 -.197E+01 0.328E+01   0.129E-01 -.170E-01 -.187E-01
   0.383E+02 -.530E+03 0.967E+03   -.383E+02 0.527E+03 -.961E+03   -.261E-01 0.353E+01 -.581E+01   0.146E-01 -.101E-01 -.115E-01
   -.818E+03 0.624E+03 0.414E+03   0.815E+03 -.621E+03 -.412E+03   0.359E+01 -.321E+01 -.222E+01   0.199E-02 -.816E-02 0.779E-02
   0.293E+03 0.306E+01 -.103E+04   -.292E+03 -.272E+01 0.102E+04   -.746E+00 -.314E+00 0.429E+01   0.184E-01 -.298E-01 0.906E-02
   0.949E+03 0.574E+03 -.579E+02   -.945E+03 -.572E+03 0.581E+02   -.465E+01 -.232E+01 -.194E+00   0.154E-01 -.310E-01 0.138E-02
   0.101E+04 -.398E+03 -.226E+03   -.100E+04 0.397E+03 0.226E+03   -.499E+01 0.159E+01 0.769E+00   -.745E-02 -.126E-01 0.439E-02
   0.497E+02 0.108E+04 0.263E+03   -.497E+02 -.107E+04 -.261E+03   -.569E-01 -.490E+01 -.177E+01   0.245E-01 -.119E-02 0.295E-02
   -.745E+03 -.519E+03 0.560E+03   0.743E+03 0.516E+03 -.558E+03   0.272E+01 0.253E+01 -.223E+01   0.243E-01 -.308E-01 0.251E-02
   0.871E+03 -.392E+02 0.686E+03   -.867E+03 0.394E+02 -.683E+03   -.436E+01 -.227E+00 -.278E+01   0.523E-02 -.214E-01 -.133E-01
   -.308E+02 0.473E+03 0.100E+04   0.306E+02 -.470E+03 -.999E+03   0.198E+00 -.273E+01 -.439E+01   0.254E-01 -.226E-01 0.122E-01
   0.227E+03 -.850E+03 -.661E+03   -.225E+03 0.845E+03 0.657E+03   -.130E+01 0.550E+01 0.428E+01   0.979E-02 0.578E-02 0.167E-01
   0.213E+03 0.829E+03 -.699E+03   -.211E+03 -.825E+03 0.695E+03   -.110E+01 -.487E+01 0.453E+01   0.161E-01 -.787E-02 -.959E-02
   -.107E+04 -.123E+03 -.206E+03   0.107E+04 0.122E+03 0.205E+03   0.690E+01 0.862E+00 0.137E+01   -.337E-02 -.241E-01 -.946E-02
   0.166E+03 -.102E+04 0.243E+03   -.166E+03 0.102E+04 -.242E+03   -.169E+00 0.415E+01 -.119E+01   0.179E-01 0.173E-02 -.982E-02
 -----------------------------------------------------------------------------------------------
   -.620E+00 0.728E-02 -.267E+00   0.512E-12 0.000E+00 0.171E-12   0.379E+00 0.269E+00 0.273E+00   0.241E+00 -.276E+00 -.196E-01
 
 
 POSITION                                       TOTAL-FORCE (eV/Angst)
 -----------------------------------------------------------------------------------
     11.50130     11.97579     12.06974        -0.003990      0.019080     -0.002758
     12.92900     13.64077     13.54518        -0.009570      0.008286      0.006162
     13.11132     10.83366     13.75726        -0.001731     -0.005944     -0.025304
     11.41952     13.67537      9.11976        -0.000285      0.009326      0.012075
     13.84857     10.56422     11.16910         0.008283      0.007502      0.008892
     10.76790     12.13148     14.55859        -0.002748     -0.004306     -0.006269
      9.28868     10.64680     12.48689        -0.021728      0.002866     -0.008781
      8.99452     13.27663     12.87321         0.018465      0.007519     -0.001175
     11.50098      9.38715     11.68870         0.015055     -0.002670      0.002609
     13.40464     13.21044     10.79592        -0.006687     -0.021400      0.004613
      9.51515     12.36286     10.40757        -0.020045     -0.013334     -0.000451
     11.72902     11.09525      9.61235         0.009925      0.005312     -0.000162
     10.70418     14.77132     14.23353         0.006811     -0.017583     -0.012597
     10.88723      9.50168     14.25739        -0.002211      0.005830      0.019182
     15.02212     12.36362     12.72505         0.014154     -0.000261      0.001868
     11.05899     14.49970     11.61164        -0.003697     -0.000223      0.002095
 -----------------------------------------------------------------------------------
    total drift:                               -0.000243      0.000394     -0.013723


--------------------------------------------------------------------------------------------------------



  FREE ENERGIE OF THE ION-ELECTRON SYSTEM (eV)
  ---------------------------------------------------
  free  energy   TOTEN  =       -63.07016147 eV

  energy  without entropy=      -63.14527684  energy(sigma->0) =      -63.09519993
 
 d Force = 0.9297798E-05[ 0.414E-05, 0.145E-04]  d Energy = 0.3914137E-03-0.382E-03
 d Force =-0.1167274E+00[-0.117E+00,-0.117E+00]  d Ewald  =-0.1167274E+00 0.653E-09


--------------------------------------------------------------------------------------------------------


    POTLOK:  cpu time    3.0037: real time    3.0095


--------------------------------------------------------------------------------------------------------




--------------------------------------------------------------------------------------------------------


  
 reached required accuracy - stopping structural energy minimisation
     LOOP+:  cpu time   64.0745: real time   64.1843
    4ORBIT:  cpu time    0.0000: real time    0.0000

 total amount of memory used by VASP MPI-rank0   176075. kBytes
=======================================================================

   base      :      30000. kBytes
   nonl-proj :       6238. kBytes
   fftplans  :      33877. kBytes
   grid      :      79948. kBytes
   one-center:         31. kBytes
   wavefun   :      25981. kBytes
 
  
  
 General timing and accounting informations for this job:
 ========================================================
  
                  Total CPU time used (sec):    19433.158
                            User time (sec):    19343.760
                          System time (sec):       89.397
                         Elapsed time (sec):    19503.255
  
                   Maximum memory used (kb):      359720.
                   Average memory used (kb):           0.
  
                          Minor page faults:     24608226
                          Major page faults:       555439
                 Voluntary context switches:         7427
