<?xml version="1.0" encoding="ISO-8859-1"?>
<modeling>
 <generator>
  <i name="program" type="string">vasp </i>
  <i name="version" type="string">6.1.2  </i>
  <i name="subversion" type="string">22Jul20 (build Aug  2 2021 21:04:21) gamma-only                       parallel </i>
  <i name="platform" type="string">LinuxPGI </i>
  <i name="date" type="string">2021 12 14 </i>
  <i name="time" type="string">14:48:24 </i>
 </generator>
 <incar>
  <i type="int" name="ISPIN">     2</i>
  <i type="int" name="IBRION">     2</i>
  <i type="int" name="NSW">  1000</i>
  <i type="int" name="ISIF">     0</i>
  <i type="int" name="ISYM">     0</i>
  <i name="ENCUT">    400.00000000</i>
  <i type="logical" name="LREAL"> F  </i>
  <i type="int" name="ISMEAR">     1</i>
  <i name="SIGMA">      0.20000000</i>
  <i type="logical" name="LWAVE"> F  </i>
  <i type="logical" name="LCHARG"> F  </i>
  <i type="int" name="KPAR">     1</i>
  <i type="int" name="NCORE">     8</i>
  <i type="string" name="GGA"> PE</i>
  <i type="int" name="ISPIN">     2</i>
 </incar>
 <structure name="primitive_cell" >
  <crystal>
   <varray name="basis" >
    <v>      23.85720075       0.00000000       0.00000000 </v>
    <v>       0.00000000      24.26431678       0.00000000 </v>
    <v>       0.00000000       0.00000000      23.71397307 </v>
   </varray>
   <i name="volume">  13727.51334958 </i>
   <varray name="rec_basis" >
    <v>       0.04191607       0.00000000       0.00000000 </v>
    <v>       0.00000000       0.04121278       0.00000000 </v>
    <v>       0.00000000       0.00000000       0.04216923 </v>
   </varray>
  </crystal>
  <varray name="positions" >
   <v>       0.47453772       0.49164298       0.50591419 </v>
   <v>       0.54680525       0.55717747       0.56832305 </v>
   <v>       0.55071383       0.44785718       0.57387819 </v>
   <v>       0.46317339       0.56219019       0.41700030 </v>
   <v>       0.58172456       0.43428972       0.46942152 </v>
   <v>       0.44590772       0.52875115       0.60725641 </v>
   <v>       0.38356639       0.42115121       0.50892127 </v>
   <v>       0.37335007       0.52813516       0.52205844 </v>
   <v>       0.48753315       0.38670010       0.49531749 </v>
   <v>       0.56136601       0.54005733       0.45839254 </v>
   <v>       0.39373915       0.48279533       0.42283964 </v>
   <v>       0.49913757       0.45991248       0.40381497 </v>
   <v>       0.48301755       0.62626272       0.62024504 </v>
   <v>       0.44792412       0.42207211       0.59405818 </v>
   <v>       0.63392631       0.50405633       0.53203438 </v>
   <v>       0.45668291       0.59962094       0.51980778 </v>
  </varray>
 </structure>
 <varray name="primitive_index" >
  <v type="int" >        1 </v>
  <v type="int" >        2 </v>
  <v type="int" >        3 </v>
  <v type="int" >        4 </v>
  <v type="int" >        5 </v>
  <v type="int" >        6 </v>
  <v type="int" >        7 </v>
  <v type="int" >        8 </v>
  <v type="int" >        9 </v>
  <v type="int" >       10 </v>
  <v type="int" >       11 </v>
  <v type="int" >       12 </v>
  <v type="int" >       13 </v>
  <v type="int" >       14 </v>
  <v type="int" >       15 </v>
  <v type="int" >       16 </v>
 </varray>
 <kpoints>
  <generation param="Gamma">
   <v type="int" name="divisions">       1        1        1 </v>
   <v name="usershift">      0.00000000       0.00000000       0.00000000 </v>
   <v name="genvec1">      1.00000000       0.00000000       0.00000000 </v>
   <v name="genvec2">      0.00000000       1.00000000       0.00000000 </v>
   <v name="genvec3">      0.00000000       0.00000000       1.00000000 </v>
   <v name="shift">      0.00000000       0.00000000       0.00000000 </v>
  </generation>
  <varray name="kpointlist" >
   <v>       0.00000000       0.00000000       0.00000000 </v>
  </varray>
  <varray name="weights" >
   <v>       1.00000000 </v>
  </varray>
 </kpoints>
 <parameters>
  <separator name="general" >
   <i type="string" name="SYSTEM">unknown system</i>
   <i type="logical" name="LCOMPAT"> F  </i>
  </separator>
  <separator name="electronic" >
   <i type="string" name="PREC">normal</i>
   <i name="ENMAX">    400.00000000</i>
   <i name="ENAUG">    416.23000000</i>
   <i name="EDIFF">      0.00010000</i>
   <i type="int" name="IALGO">    38</i>
   <i type="int" name="IWAVPR">    11</i>
   <i type="int" name="NBANDS">   104</i>
   <i type="int" name="NBANDSLOW">    -1</i>
   <i type="int" name="NBANDSHIGH">    -1</i>
   <i name="NELECT">    160.00000000</i>
   <i type="int" name="TURBO">     0</i>
   <i type="int" name="IRESTART">     0</i>
   <i type="int" name="NREBOOT">     0</i>
   <i type="int" name="NMIN">     0</i>
   <i name="EREF">      0.00000000</i>
   <separator name="electronic smearing" >
    <i type="int" name="ISMEAR">     1</i>
    <i name="SIGMA">      0.20000000</i>
    <i name="KSPACING">      0.50000000</i>
    <i type="logical" name="KGAMMA"> T  </i>
    <i type="logical" name="KBLOWUP"> T  </i>
   </separator>
   <separator name="electronic projectors" >
    <i type="logical" name="LREAL"> F  </i>
    <v name="ROPT">      0.00000000</v>
    <i type="int" name="LMAXPAW">  -100</i>
    <i type="int" name="LMAXMIX">     2</i>
    <i type="logical" name="NLSPLINE"> F  </i>
   </separator>
   <separator name="electronic startup" >
    <i type="int" name="ISTART">     0</i>
    <i type="int" name="ICHARG">     2</i>
    <i type="int" name="INIWAV">     1</i>
   </separator>
   <separator name="electronic spin" >
    <i type="int" name="ISPIN">     2</i>
    <i type="logical" name="LNONCOLLINEAR"> F  </i>
    <v name="MAGMOM">      1.00000000      1.00000000      1.00000000      1.00000000      1.00000000      1.00000000      1.00000000      1.00000000      1.00000000      1.00000000      1.00000000      1.00000000      1.00000000      1.00000000      1.00000000      1.00000000</v>
    <i name="NUPDOWN">     -1.00000000</i>
    <i type="logical" name="LSORBIT"> F  </i>
    <v name="SAXIS">      0.00000000      0.00000000      1.00000000</v>
    <i type="logical" name="LSPIRAL"> F  </i>
    <v name="QSPIRAL">      0.00000000      0.00000000      0.00000000</v>
    <i type="logical" name="LZEROZ"> F  </i>
   </separator>
   <separator name="electronic exchange-correlation" >
    <i type="logical" name="LASPH"> F  </i>
    <i type="logical" name="LMETAGGA"> F  </i>
   </separator>
   <separator name="electronic convergence" >
    <i type="int" name="NELM">    60</i>
    <i type="int" name="NELMDL">     0</i>
    <i type="int" name="NELMIN">     2</i>
    <i name="ENINI">    400.00000000</i>
    <separator name="electronic convergence detail" >
     <i type="logical" name="LDIAG"> T  </i>
     <i type="logical" name="LSUBROT"> F  </i>
     <i name="WEIMIN">      0.00100000</i>
     <i name="EBREAK">      0.00000024</i>
     <i name="DEPER">      0.30000000</i>
     <i type="int" name="NRMM">     4</i>
     <i name="TIME">      0.40000000</i>
    </separator>
   </separator>
   <separator name="electronic mixer" >
    <i name="AMIX">      0.40000000</i>
    <i name="BMIX">      1.00000000</i>
    <i name="AMIN">      0.10000000</i>
    <i name="AMIX_MAG">      1.60000000</i>
    <i name="BMIX_MAG">      1.00000000</i>
    <separator name="electronic mixer details" >
     <i type="int" name="IMIX">     4</i>
     <i type="logical" name="MIXFIRST"> F  </i>
     <i type="int" name="MAXMIX">   -45</i>
     <i name="WC">    100.00000000</i>
     <i type="int" name="INIMIX">     1</i>
     <i type="int" name="MIXPRE">     1</i>
     <i type="int" name="MREMOVE">     5</i>
    </separator>
   </separator>
   <separator name="electronic dipolcorrection" >
    <i type="logical" name="LDIPOL"> F  </i>
    <i type="logical" name="LMONO"> F  </i>
    <i type="int" name="IDIPOL">     0</i>
    <i name="EPSILON">      1.00000000</i>
    <v name="DIPOL">   -100.00000000   -100.00000000   -100.00000000</v>
    <i name="EFIELD">      0.00000000</i>
   </separator>
  </separator>
  <separator name="grids" >
   <i type="int" name="NGX">   120</i>
   <i type="int" name="NGY">   120</i>
   <i type="int" name="NGZ">   120</i>
   <i type="int" name="NGXF">   240</i>
   <i type="int" name="NGYF">   240</i>
   <i type="int" name="NGZF">   240</i>
   <i type="logical" name="ADDGRID"> F  </i>
  </separator>
  <separator name="ionic" >
   <i type="int" name="NSW">  1000</i>
   <i type="int" name="IBRION">     2</i>
   <i type="int" name="MDALGO">     0</i>
   <i type="int" name="ISIF">     0</i>
   <i name="PSTRESS">      0.00000000</i>
   <i name="EDIFFG">      0.00100000</i>
   <i type="int" name="NFREE">     1</i>
   <i name="POTIM">      0.50000000</i>
   <i name="SMASS">     -3.00000000</i>
   <i name="SCALEE">      1.00000000</i>
  </separator>
  <separator name="ionic md" >
   <i name="TEBEG">      0.00010000</i>
   <i name="TEEND">      0.00010000</i>
   <i type="int" name="NBLOCK">     1</i>
   <i type="int" name="KBLOCK">  1000</i>
   <i type="int" name="NPACO">   256</i>
   <i name="APACO">     16.00000000</i>
  </separator>
  <separator name="symmetry" >
   <i type="int" name="ISYM">     0</i>
   <i name="SYMPREC">      0.00001000</i>
  </separator>
  <separator name="dos" >
   <i type="int" name="LORBIT">     0</i>
   <v name="RWIGS">     -1.00000000</v>
   <i type="int" name="NEDOS">   301</i>
   <i name="EMIN">     10.00000000</i>
   <i name="EMAX">    -10.00000000</i>
   <i name="EFERMI">      0.00000000</i>
  </separator>
  <separator name="writing" >
   <i type="int" name="NWRITE">     2</i>
   <i type="logical" name="LWAVE"> F  </i>
   <i type="logical" name="LDOWNSAMPLE"> F  </i>
   <i type="logical" name="LCHARG"> F  </i>
   <i type="logical" name="LPARD"> F  </i>
   <i type="logical" name="LVTOT"> F  </i>
   <i type="logical" name="LVHAR"> F  </i>
   <i type="logical" name="LELF"> F  </i>
   <i type="logical" name="LOPTICS"> F  </i>
   <v name="STM">      0.00000000      0.00000000      0.00000000      0.00000000      0.00000000      0.00000000      0.00000000</v>
  </separator>
  <separator name="performance" >
   <i type="int" name="NPAR">     2</i>
   <i type="int" name="NSIM">     4</i>
   <i type="int" name="NBLK">    -1</i>
   <i type="logical" name="LPLANE"> T  </i>
   <i type="logical" name="LSCALAPACK"> T  </i>
   <i type="logical" name="LSCAAWARE"> F  </i>
   <i type="logical" name="LSCALU"> F  </i>
   <i type="logical" name="LASYNC"> F  </i>
   <i type="logical" name="LORBITALREAL"> F  </i>
  </separator>
  <separator name="miscellaneous" >
   <i type="int" name="IDIOT">     3</i>
   <i type="int" name="PHON_NSTRUCT">    -1</i>
   <i type="logical" name="LMUSIC"> F  </i>
   <v name="POMASS">    106.42000000</v>
   <v name="DARWINR">      0.00000000</v>
   <v name="DARWINV">      1.00000000</v>
   <i type="logical" name="LCORR"> T  </i>
  </separator>
  <i type="logical" name="GGA_COMPAT"> T  </i>
  <i type="logical" name="LBERRY"> F  </i>
  <i type="int" name="ICORELEVEL">     0</i>
  <i type="logical" name="LDAU"> F  </i>
  <i type="int" name="I_CONSTRAINED_M">     0</i>
  <separator name="electronic exchange-correlation" >
   <i type="string" name="GGA">PE</i>
   <i type="int" name="VOSKOWN">     0</i>
   <i type="logical" name="LHFCALC"> F  </i>
   <i type="string" name="PRECFOCK"></i>
   <i type="logical" name="LSYMGRAD"> F  </i>
   <i type="logical" name="LHFONE"> F  </i>
   <i type="logical" name="LRHFCALC"> F  </i>
   <i type="logical" name="LTHOMAS"> F  </i>
   <i type="logical" name="LMODELHF"> F  </i>
   <i type="logical" name="LFOCKACE"> F  </i>
   <i name="ENCUT4O">     -1.00000000</i>
   <i type="int" name="EXXOEP">     0</i>
   <i type="int" name="FOURORBIT">     0</i>
   <i name="AEXX">      0.00000000</i>
   <i name="HFALPHA">      0.00000000</i>
   <i name="MCALPHA">      0.00000000</i>
   <i name="ALDAX">      1.00000000</i>
   <i name="AGGAX">      1.00000000</i>
   <i name="ALDAC">      1.00000000</i>
   <i name="AGGAC">      1.00000000</i>
   <i type="int" name="NKREDX">     1</i>
   <i type="int" name="NKREDY">     1</i>
   <i type="int" name="NKREDZ">     1</i>
   <i type="logical" name="SHIFTRED"> F  </i>
   <i type="logical" name="ODDONLY"> F  </i>
   <i type="logical" name="EVENONLY"> F  </i>
   <i type="int" name="LMAXFOCK">     0</i>
   <i type="int" name="NMAXFOCKAE">     0</i>
   <i type="logical" name="LFOCKAEDFT"> F  </i>
   <i name="HFSCREEN">      0.00000000</i>
   <i name="HFSCREENC">      0.00000000</i>
   <i type="int" name="NBANDSGWLOW">     0</i>
  </separator>
  <separator name="vdW DFT" >
   <i type="logical" name="LUSE_VDW"> F  </i>
   <i name="Zab_VDW">     -0.84910000</i>
   <i name="PARAM1">      0.12340000</i>
   <i name="PARAM2">      1.00000000</i>
   <i name="PARAM3">      0.00000000</i>
  </separator>
  <separator name="model GW" >
   <i type="int" name="MODEL_GW">     0</i>
   <i name="MODEL_EPS0">    514.78175061</i>
   <i name="MODEL_ALPHA">      1.00000000</i>
  </separator>
  <separator name="linear response parameters" >
   <i type="logical" name="LEPSILON"> F  </i>
   <i type="logical" name="LRPA"> F  </i>
   <i type="logical" name="LNABLA"> F  </i>
   <i type="logical" name="LVEL"> F  </i>
   <i type="int" name="KINTER">     0</i>
   <i name="CSHIFT">      0.10000000</i>
   <i name="OMEGAMAX">     -1.00000000</i>
   <i name="DEG_THRESHOLD">      0.00200000</i>
   <i name="RTIME">     -0.10000000</i>
   <i name="WPLASMAI">      0.00000000</i>
   <v name="DFIELD">      0.00000000      0.00000000      0.00000000</v>
   <v name="WPLASMA">      0.00000000      0.00000000      0.00000000      0.00000000      0.00000000      0.00000000      0.00000000      0.00000000      0.00000000</v>
  </separator>
  <separator name="orbital magnetization" >
   <i type="logical" name="NUCIND"> F  </i>
   <v name="MAGPOS">      0.00000000      0.00000000      0.00000000</v>
   <i type="logical" name="LNICSALL"> T  </i>
   <i type="logical" name="ORBITALMAG"> F  </i>
   <i type="logical" name="LMAGBLOCH"> F  </i>
   <i type="logical" name="LCHIMAG"> F  </i>
   <i type="logical" name="LGAUGE"> T  </i>
   <i type="int" name="MAGATOM">     0</i>
   <v name="MAGDIPOL">      0.00000000      0.00000000      0.00000000</v>
   <v name="AVECCONST">      0.00000000      0.00000000      0.00000000</v>
  </separator>
  <separator name="response functions" >
   <i type="logical" name="LFINITE_TEMPERATURE"> F  </i>
   <i type="logical" name="LADDER"> F  </i>
   <i type="logical" name="LRPAFORCE"> F  </i>
   <i type="logical" name="LFXC"> F  </i>
   <i type="logical" name="LHARTREE"> T  </i>
   <i type="int" name="IBSE">     0</i>
   <v type="int" name="KPOINT">    -1     0     0     0</v>
   <i type="logical" name="LTCTC"> F  </i>
   <i type="logical" name="LTCTE"> F  </i>
   <i type="logical" name="LTETE"> F  </i>
   <i type="logical" name="LTRIPLET"> F  </i>
   <i type="logical" name="LFXCEPS"> F  </i>
   <i type="logical" name="LFXHEG"> F  </i>
   <i type="int" name="NATURALO">     2</i>
   <i type="logical" name="LHOLEGF"> F  </i>
   <i type="logical" name="L2ORDER"> F  </i>
   <i type="logical" name="LDMP1"> F  </i>
   <i type="logical" name="LMP2LT"> F  </i>
   <i type="logical" name="LSMP2LT"> F  </i>
   <i type="logical" name="LGWLF"> F  </i>
   <i name="ENCUTGW">     -2.00000000</i>
   <i name="ENCUTGWSOFT">     -2.00000000</i>
   <i name="ENCUTLF">     -1.00000000</i>
   <i type="logical" name="LESF_SPLINES"> F  </i>
   <i type="int" name="LMAXMP2">    -1</i>
   <i name="SCISSOR">      0.00000000</i>
   <i type="int" name="NOMEGA">     0</i>
   <i type="int" name="NOMEGAR">     0</i>
   <i type="int" name="NBANDSGW">    -1</i>
   <i type="int" name="NBANDSO">    -1</i>
   <i type="int" name="NBANDSV">    -1</i>
   <i type="int" name="NELM">     1</i>
   <i type="int" name="NELMHF">     1</i>
   <i type="int" name="DIM">     3</i>
   <i type="int" name="IESPILON">     4</i>
   <i type="int" name="ANTIRES">     0</i>
   <i name="OMEGAMAX">    -30.00000000</i>
   <i name="OMEGAMIN">    -30.00000000</i>
   <i name="OMEGATL">   -200.00000000</i>
   <i type="int" name="OMEGAGRID">     0</i>
   <i name="CSHIFT">     -0.10000000</i>
   <i type="logical" name="LSELFENERGY"> F  </i>
   <i type="logical" name="LSPECTRAL"> F  </i>
   <i type="logical" name="LSPECTRALGW"> F  </i>
   <i type="logical" name="LSINGLES"> F  </i>
   <i type="logical" name="LFERMIGW"> F  </i>
   <i type="logical" name="ODDONLYGW"> F  </i>
   <i type="logical" name="EVENONLYGW"> F  </i>
   <i type="int" name="NKREDLFX">     1</i>
   <i type="int" name="NKREDLFY">     1</i>
   <i type="int" name="NKREDLFZ">     1</i>
   <i type="int" name="MAXMEM">  2800</i>
   <i type="int" name="TELESCOPE">     0</i>
   <i type="int" name="NTAUPAR">    -1</i>
   <i type="int" name="NOMEGAPAR">    -1</i>
   <i name="LAMBDA">      1.00000000</i>
  </separator>
  <separator name="External order field" >
   <i name="OFIELD_KAPPA">      0.00000000</i>
   <v name="OFIELD_K">      0.00000000      0.00000000      0.00000000</v>
   <i name="OFIELD_Q6_NEAR">      0.00000000</i>
   <i name="OFIELD_Q6_FAR">      0.00000000</i>
   <i name="OFIELD_A">      0.00000000</i>
  </separator>
 </parameters>
 <atominfo>
  <atoms>      16 </atoms>
  <types>       1 </types>
  <array name="atoms" >
   <dimension dim="1">ion</dimension>
   <field type="string">element</field>
   <field type="int">atomtype</field>
   <set>
    <rc><c>Pd</c><c>   1</c></rc>
    <rc><c>Pd</c><c>   1</c></rc>
    <rc><c>Pd</c><c>   1</c></rc>
    <rc><c>Pd</c><c>   1</c></rc>
    <rc><c>Pd</c><c>   1</c></rc>
    <rc><c>Pd</c><c>   1</c></rc>
    <rc><c>Pd</c><c>   1</c></rc>
    <rc><c>Pd</c><c>   1</c></rc>
    <rc><c>Pd</c><c>   1</c></rc>
    <rc><c>Pd</c><c>   1</c></rc>
    <rc><c>Pd</c><c>   1</c></rc>
    <rc><c>Pd</c><c>   1</c></rc>
    <rc><c>Pd</c><c>   1</c></rc>
    <rc><c>Pd</c><c>   1</c></rc>
    <rc><c>Pd</c><c>   1</c></rc>
    <rc><c>Pd</c><c>   1</c></rc>
   </set>
  </array>
  <array name="atomtypes" >
   <dimension dim="1">type</dimension>
   <field type="int">atomspertype</field>
   <field type="string">element</field>
   <field>mass</field>
   <field>valence</field>
   <field type="string">pseudopotential</field>
   <set>
    <rc><c>  16</c><c>Pd</c><c>    106.42000000</c><c>     10.00000000</c><c>  PAW_PBE Pd 04Jan2005                  </c></rc>
   </set>
  </array>
 </atominfo>
 <structure name="initialpos" >
  <crystal>
   <varray name="basis" >
    <v>      23.85720075       0.00000000       0.00000000 </v>
    <v>       0.00000000      24.26431678       0.00000000 </v>
    <v>       0.00000000       0.00000000      23.71397307 </v>
   </varray>
   <i name="volume">  13727.51334958 </i>
   <varray name="rec_basis" >
    <v>       0.04191607       0.00000000       0.00000000 </v>
    <v>       0.00000000       0.04121278       0.00000000 </v>
    <v>       0.00000000       0.00000000       0.04216923 </v>
   </varray>
  </crystal>
  <varray name="positions" >
   <v>       0.47453772       0.49164298       0.50591419 </v>
   <v>       0.54680525       0.55717747       0.56832305 </v>
   <v>       0.55071383       0.44785718       0.57387819 </v>
   <v>       0.46317339       0.56219019       0.41700030 </v>
   <v>       0.58172456       0.43428972       0.46942152 </v>
   <v>       0.44590772       0.52875115       0.60725641 </v>
   <v>       0.38356639       0.42115121       0.50892127 </v>
   <v>       0.37335007       0.52813516       0.52205844 </v>
   <v>       0.48753315       0.38670010       0.49531749 </v>
   <v>       0.56136601       0.54005733       0.45839254 </v>
   <v>       0.39373915       0.48279533       0.42283964 </v>
   <v>       0.49913757       0.45991248       0.40381497 </v>
   <v>       0.48301755       0.62626272       0.62024504 </v>
   <v>       0.44792412       0.42207211       0.59405818 </v>
   <v>       0.63392631       0.50405633       0.53203438 </v>
   <v>       0.45668291       0.59962094       0.51980778 </v>
  </varray>
 </structure>
 <calculation>
  <scstep>
   <time name="dav">   22.91   22.93</time>
   <time name="total">   29.14   29.37</time>
   <energy>
    <i name="alphaZ">     12.15431898 </i>
    <i name="ewald">  26858.24821003 </i>
    <i name="hartreedc"> -39154.65722441 </i>
    <i name="XCdc">   -479.14327057 </i>
    <i name="pawpsdc">  12906.36685261 </i>
    <i name="pawaedc"> -11910.91650437 </i>
    <i name="eentropy">     -0.03837347 </i>
    <i name="bandstr">    249.91124187 </i>
    <i name="atom">  12955.90228127 </i>
    <i name="e_fr_energy">   1437.82753194 </i>
    <i name="e_wo_entrp">   1437.86590541 </i>
    <i name="e_0_energy">   1437.84032309 </i>
   </energy>
  </scstep>
  <scstep>
   <time name="dav">   38.67   38.92</time>
   <time name="total">   38.68   38.92</time>
   <energy>
    <i name="e_fr_energy">    730.79646434 </i>
    <i name="e_wo_entrp">    730.88891281 </i>
    <i name="e_0_energy">    730.82728049 </i>
   </energy>
  </scstep>
  <scstep>
   <time name="dav">   29.77   29.87</time>
   <time name="total">   29.77   29.87</time>
   <energy>
    <i name="e_fr_energy">    127.48948123 </i>
    <i name="e_wo_entrp">    127.46480951 </i>
    <i name="e_0_energy">    127.48125732 </i>
   </energy>
  </scstep>
  <scstep>
   <time name="dav">   32.58   32.98</time>
   <time name="total">   32.58   32.98</time>
   <energy>
    <i name="e_fr_energy">    -40.70392774 </i>
    <i name="e_wo_entrp">    -40.70287444 </i>
    <i name="e_0_energy">    -40.70357664 </i>
   </energy>
  </scstep>
  <scstep>
   <time name="dav">   31.58   31.65</time>
   <time name="total">   33.02   33.09</time>
   <energy>
    <i name="e_fr_energy">    -63.99435019 </i>
    <i name="e_wo_entrp">    -63.97578707 </i>
    <i name="e_0_energy">    -63.98816248 </i>
   </energy>
  </scstep>
  <scstep>
   <time name="dav">   21.63   21.66</time>
   <time name="total">   27.84   27.88</time>
   <energy>
    <i name="e_fr_energy">    -54.97657194 </i>
    <i name="e_wo_entrp">    -54.93353010 </i>
    <i name="e_0_energy">    -54.96222466 </i>
   </energy>
  </scstep>
  <scstep>
   <time name="dav">   36.87   37.03</time>
   <time name="total">   44.16   44.46</time>
   <energy>
    <i name="e_fr_energy">    -53.35354725 </i>
    <i name="e_wo_entrp">    -53.31666873 </i>
    <i name="e_0_energy">    -53.34125441 </i>
   </energy>
  </scstep>
  <scstep>
   <time name="dav">   28.89   28.94</time>
   <time name="total">   38.00   38.07</time>
   <energy>
    <i name="e_fr_energy">    -47.82512483 </i>
    <i name="e_wo_entrp">    -47.78378995 </i>
    <i name="e_0_energy">    -47.81134654 </i>
   </energy>
  </scstep>
  <scstep>
   <time name="dav">   27.52   28.03</time>
   <time name="total">   34.05   34.59</time>
   <energy>
    <i name="e_fr_energy">    -45.50769503 </i>
    <i name="e_wo_entrp">    -45.53722391 </i>
    <i name="e_0_energy">    -45.51753799 </i>
   </energy>
  </scstep>
  <scstep>
   <time name="dav">   22.77   22.79</time>
   <time name="total">   28.79   28.82</time>
   <energy>
    <i name="e_fr_energy">    -45.69950625 </i>
    <i name="e_wo_entrp">    -45.70757294 </i>
    <i name="e_0_energy">    -45.70219515 </i>
   </energy>
  </scstep>
  <scstep>
   <time name="dav">   24.80   24.82</time>
   <time name="total">   32.19   32.24</time>
   <energy>
    <i name="e_fr_energy">    -47.17810569 </i>
    <i name="e_wo_entrp">    -47.19684548 </i>
    <i name="e_0_energy">    -47.18435228 </i>
   </energy>
  </scstep>
  <scstep>
   <time name="dav">   27.66   27.69</time>
   <time name="total">   34.20   34.24</time>
   <energy>
    <i name="e_fr_energy">    -48.02458608 </i>
    <i name="e_wo_entrp">    -48.05405138 </i>
    <i name="e_0_energy">    -48.03440785 </i>
   </energy>
  </scstep>
  <scstep>
   <time name="dav">   26.49   26.52</time>
   <time name="total">   35.00   35.04</time>
   <energy>
    <i name="e_fr_energy">    -49.24662813 </i>
    <i name="e_wo_entrp">    -49.26930887 </i>
    <i name="e_0_energy">    -49.25418838 </i>
   </energy>
  </scstep>
  <scstep>
   <time name="dav">   30.65   30.68</time>
   <time name="total">   37.44   37.47</time>
   <energy>
    <i name="e_fr_energy">    -51.37418190 </i>
    <i name="e_wo_entrp">    -51.41246273 </i>
    <i name="e_0_energy">    -51.38694218 </i>
   </energy>
  </scstep>
  <scstep>
   <time name="dav">   29.40   29.46</time>
   <time name="total">   36.89   36.97</time>
   <energy>
    <i name="e_fr_energy">    -53.09245800 </i>
    <i name="e_wo_entrp">    -53.10287420 </i>
    <i name="e_0_energy">    -53.09593007 </i>
   </energy>
  </scstep>
  <scstep>
   <time name="dav">   27.20   27.31</time>
   <time name="total">   34.27   34.51</time>
   <energy>
    <i name="e_fr_energy">    -54.05900693 </i>
    <i name="e_wo_entrp">    -54.09174621 </i>
    <i name="e_0_energy">    -54.06992002 </i>
   </energy>
  </scstep>
  <scstep>
   <time name="dav">   34.80   34.86</time>
   <time name="total">   42.52   42.61</time>
   <energy>
    <i name="e_fr_energy">    -55.32757430 </i>
    <i name="e_wo_entrp">    -55.35812617 </i>
    <i name="e_0_energy">    -55.33775825 </i>
   </energy>
  </scstep>
  <scstep>
   <time name="dav">   35.92   36.00</time>
   <time name="total">   43.85   43.94</time>
   <energy>
    <i name="e_fr_energy">    -56.15100171 </i>
    <i name="e_wo_entrp">    -56.18944338 </i>
    <i name="e_0_energy">    -56.16381560 </i>
   </energy>
  </scstep>
  <scstep>
   <time name="dav">   32.43   32.50</time>
   <time name="total">   40.77   40.85</time>
   <energy>
    <i name="e_fr_energy">    -57.55412122 </i>
    <i name="e_wo_entrp">    -57.59122628 </i>
    <i name="e_0_energy">    -57.56648957 </i>
   </energy>
  </scstep>
  <scstep>
   <time name="dav">   34.44   34.85</time>
   <time name="total">   40.99   41.66</time>
   <energy>
    <i name="e_fr_energy">    -58.20468740 </i>
    <i name="e_wo_entrp">    -58.24180521 </i>
    <i name="e_0_energy">    -58.21706000 </i>
   </energy>
  </scstep>
  <scstep>
   <time name="dav">   32.45   32.55</time>
   <time name="total">   40.15   40.27</time>
   <energy>
    <i name="e_fr_energy">    -59.12935093 </i>
    <i name="e_wo_entrp">    -59.17605381 </i>
    <i name="e_0_energy">    -59.14491856 </i>
   </energy>
  </scstep>
  <scstep>
   <time name="dav">   35.41   35.49</time>
   <time name="total">   45.39   45.51</time>
   <energy>
    <i name="e_fr_energy">    -59.77277776 </i>
    <i name="e_wo_entrp">    -59.82224747 </i>
    <i name="e_0_energy">    -59.78926766 </i>
   </energy>
  </scstep>
  <scstep>
   <time name="dav">   30.59   30.73</time>
   <time name="total">   40.74   40.89</time>
   <energy>
    <i name="e_fr_energy">    -60.38456447 </i>
    <i name="e_wo_entrp">    -60.44087233 </i>
    <i name="e_0_energy">    -60.40333376 </i>
   </energy>
  </scstep>
  <scstep>
   <time name="dav">   40.15   40.31</time>
   <time name="total">   49.90   50.32</time>
   <energy>
    <i name="e_fr_energy">    -60.76514725 </i>
    <i name="e_wo_entrp">    -60.82207767 </i>
    <i name="e_0_energy">    -60.78412406 </i>
   </energy>
  </scstep>
  <scstep>
   <time name="dav">   38.89   38.95</time>
   <time name="total">   47.09   47.17</time>
   <energy>
    <i name="e_fr_energy">    -61.00328968 </i>
    <i name="e_wo_entrp">    -61.05978416 </i>
    <i name="e_0_energy">    -61.02212117 </i>
   </energy>
  </scstep>
  <scstep>
   <time name="dav">   35.05   35.09</time>
   <time name="total">   44.95   45.01</time>
   <energy>
    <i name="e_fr_energy">    -61.28112587 </i>
    <i name="e_wo_entrp">    -61.34035123 </i>
    <i name="e_0_energy">    -61.30086765 </i>
   </energy>
  </scstep>
  <scstep>
   <time name="dav">   34.85   35.10</time>
   <time name="total">   44.83   45.09</time>
   <energy>
    <i name="e_fr_energy">    -61.54396023 </i>
    <i name="e_wo_entrp">    -61.60378635 </i>
    <i name="e_0_energy">    -61.56390227 </i>
   </energy>
  </scstep>
  <scstep>
   <time name="dav">   28.73   28.77</time>
   <time name="total">   36.90   36.96</time>
   <energy>
    <i name="e_fr_energy">    -61.80586559 </i>
    <i name="e_wo_entrp">    -61.86700445 </i>
    <i name="e_0_energy">    -61.82624521 </i>
   </energy>
  </scstep>
  <scstep>
   <time name="dav">   39.39   39.60</time>
   <time name="total">   50.85   51.07</time>
   <energy>
    <i name="e_fr_energy">    -61.92773766 </i>
    <i name="e_wo_entrp">    -61.98879093 </i>
    <i name="e_0_energy">    -61.94808875 </i>
   </energy>
  </scstep>
  <scstep>
   <time name="dav">   41.20   41.25</time>
   <time name="total">   48.64   48.70</time>
   <energy>
    <i name="e_fr_energy">    -62.01017913 </i>
    <i name="e_wo_entrp">    -62.07142611 </i>
    <i name="e_0_energy">    -62.03059479 </i>
   </energy>
  </scstep>
  <scstep>
   <time name="dav">   38.65   38.69</time>
   <time name="total">   46.78   46.83</time>
   <energy>
    <i name="e_fr_energy">    -62.05291708 </i>
    <i name="e_wo_entrp">    -62.11411887 </i>
    <i name="e_0_energy">    -62.07331767 </i>
   </energy>
  </scstep>
  <scstep>
   <time name="dav">   25.20   25.23</time>
   <time name="total">   34.30   34.37</time>
   <energy>
    <i name="e_fr_energy">    -62.08140779 </i>
    <i name="e_wo_entrp">    -62.14332486 </i>
    <i name="e_0_energy">    -62.10204681 </i>
   </energy>
  </scstep>
  <scstep>
   <time name="dav">   27.13   27.81</time>
   <time name="total">   35.93   36.62</time>
   <energy>
    <i name="e_fr_energy">    -62.09500317 </i>
    <i name="e_wo_entrp">    -62.15695886 </i>
    <i name="e_0_energy">    -62.11565507 </i>
   </energy>
  </scstep>
  <scstep>
   <time name="dav">   32.50   32.77</time>
   <time name="total">   41.10   41.38</time>
   <energy>
    <i name="e_fr_energy">    -62.10274311 </i>
    <i name="e_wo_entrp">    -62.16458845 </i>
    <i name="e_0_energy">    -62.12335823 </i>
   </energy>
  </scstep>
  <scstep>
   <time name="dav">   32.85   32.91</time>
   <time name="total">   44.15   44.22</time>
   <energy>
    <i name="e_fr_energy">    -62.10863360 </i>
    <i name="e_wo_entrp">    -62.17041457 </i>
    <i name="e_0_energy">    -62.12922726 </i>
   </energy>
  </scstep>
  <scstep>
   <time name="dav">   36.31   36.36</time>
   <time name="total">   45.19   45.26</time>
   <energy>
    <i name="e_fr_energy">    -62.11105094 </i>
    <i name="e_wo_entrp">    -62.17288494 </i>
    <i name="e_0_energy">    -62.13166227 </i>
   </energy>
  </scstep>
  <scstep>
   <time name="dav">   28.11   28.15</time>
   <time name="total">   39.78   39.84</time>
   <energy>
    <i name="e_fr_energy">    -62.11170438 </i>
    <i name="e_wo_entrp">    -62.17353131 </i>
    <i name="e_0_energy">    -62.13231336 </i>
   </energy>
  </scstep>
  <scstep>
   <time name="dav">   21.07   21.11</time>
   <time name="total">   29.86   29.91</time>
   <energy>
    <i name="e_fr_energy">    -62.11202322 </i>
    <i name="e_wo_entrp">    -62.17385532 </i>
    <i name="e_0_energy">    -62.13263392 </i>
   </energy>
  </scstep>
  <scstep>
   <time name="dav">   22.68   22.70</time>
   <time name="total">   32.30   32.34</time>
   <energy>
    <i name="e_fr_energy">    -62.11243252 </i>
    <i name="e_wo_entrp">    -62.17422478 </i>
    <i name="e_0_energy">    -62.13302994 </i>
   </energy>
  </scstep>
  <scstep>
   <time name="dav">   21.57   21.61</time>
   <time name="total">   32.34   32.41</time>
   <energy>
    <i name="e_fr_energy">    -62.11296342 </i>
    <i name="e_wo_entrp">    -62.17476747 </i>
    <i name="e_0_energy">    -62.13356477 </i>
   </energy>
  </scstep>
  <scstep>
   <time name="dav">   26.68   26.75</time>
   <time name="total">   35.17   35.25</time>
   <energy>
    <i name="e_fr_energy">    -62.11343184 </i>
    <i name="e_wo_entrp">    -62.17524617 </i>
    <i name="e_0_energy">    -62.13403662 </i>
   </energy>
  </scstep>
  <scstep>
   <time name="dav">   25.57   25.60</time>
   <time name="total">   35.68   35.72</time>
   <energy>
    <i name="e_fr_energy">    -62.11376320 </i>
    <i name="e_wo_entrp">    -62.17558302 </i>
    <i name="e_0_energy">    -62.13436981 </i>
   </energy>
  </scstep>
  <scstep>
   <time name="dav">   27.51   27.55</time>
   <time name="total">   37.11   37.17</time>
   <energy>
    <i name="e_fr_energy">    -62.11390284 </i>
    <i name="e_wo_entrp">    -62.17572888 </i>
    <i name="e_0_energy">    -62.13451152 </i>
   </energy>
  </scstep>
  <scstep>
   <time name="dav">   25.24   25.27</time>
   <time name="total">   31.54   31.57</time>
   <energy>
    <i name="alphaZ">     12.15431898 </i>
    <i name="ewald">  26858.24821003 </i>
    <i name="hartreedc"> -39378.04867847 </i>
    <i name="XCdc">   -479.64905288 </i>
    <i name="pawpsdc">  14927.15641111 </i>
    <i name="pawaedc"> -13954.44591606 </i>
    <i name="eentropy">      0.06182678 </i>
    <i name="bandstr">  -1003.49336143 </i>
    <i name="atom">  12955.90228127 </i>
    <i name="e_fr_energy">    -62.11396068 </i>
    <i name="e_wo_entrp">    -62.17578746 </i>
    <i name="e_0_energy">    -62.13456961 </i>
   </energy>
  </scstep>
  <structure>
   <crystal>
    <varray name="basis" >
     <v>      23.85720075       0.00000000       0.00000000 </v>
     <v>       0.00000000      24.26431678       0.00000000 </v>
     <v>       0.00000000       0.00000000      23.71397307 </v>
    </varray>
    <i name="volume">  13727.51334958 </i>
    <varray name="rec_basis" >
     <v>       0.04191607       0.00000000       0.00000000 </v>
     <v>       0.00000000       0.04121278       0.00000000 </v>
     <v>       0.00000000       0.00000000       0.04216923 </v>
    </varray>
   </crystal>
   <varray name="positions" >
    <v>       0.47453772       0.49164298       0.50591419 </v>
    <v>       0.54680525       0.55717747       0.56832305 </v>
    <v>       0.55071383       0.44785718       0.57387819 </v>
    <v>       0.46317339       0.56219019       0.41700030 </v>
    <v>       0.58172456       0.43428972       0.46942152 </v>
    <v>       0.44590772       0.52875115       0.60725641 </v>
    <v>       0.38356639       0.42115121       0.50892127 </v>
    <v>       0.37335007       0.52813516       0.52205844 </v>
    <v>       0.48753315       0.38670010       0.49531749 </v>
    <v>       0.56136601       0.54005733       0.45839254 </v>
    <v>       0.39373915       0.48279533       0.42283964 </v>
    <v>       0.49913757       0.45991248       0.40381497 </v>
    <v>       0.48301755       0.62626272       0.62024504 </v>
    <v>       0.44792412       0.42207211       0.59405818 </v>
    <v>       0.63392631       0.50405633       0.53203438 </v>
    <v>       0.45668291       0.59962094       0.51980778 </v>
   </varray>
  </structure>
  <varray name="forces" >
   <v>       0.20453334      -0.00452032       0.10432936 </v>
   <v>       0.41404898       0.31709815       0.34607256 </v>
   <v>       0.04264310      -0.09015248       0.31428519 </v>
   <v>       0.00847846       0.85472850      -0.34968809 </v>
   <v>       0.57854606      -0.53080707      -0.37301732 </v>
   <v>      -0.26433448      -0.47601797       0.49542115 </v>
   <v>      -0.47974111      -0.36852224      -0.16934898 </v>
   <v>      -0.52282164       0.26418393       0.16762842 </v>
   <v>       0.02272223      -0.52424219      -0.21141872 </v>
   <v>       0.12720577       0.35588654      -0.14739331 </v>
   <v>      -0.56797182      -0.15929860      -0.35474417 </v>
   <v>       0.01554132      -0.45089647      -0.46240377 </v>
   <v>       0.07338154       0.37139431       0.30795007 </v>
   <v>      -0.15398928      -0.15940521       0.77186214 </v>
   <v>       0.63896521       0.15281892       0.17540169 </v>
   <v>      -0.13720768       0.44775221      -0.61493621 </v>
  </varray>
  <energy>
   <i name="e_fr_energy">    -62.11396068 </i>
   <i name="e_wo_entrp">    -62.17578746 </i>
   <i name="e_0_energy">    -62.13456961 </i>
  </energy>
  <time name="totalsc"> 1716.21 1723.32</time>
 </calculation>
 <calculation>
  <scstep>
   <time name="dav">   31.61   33.29</time>
   <time name="total">   38.89   40.62</time>
   <energy>
    <i name="alphaZ">     12.15431898 </i>
    <i name="ewald">  26394.43312175 </i>
    <i name="hartreedc"> -38920.53528914 </i>
    <i name="XCdc">   -480.73903999 </i>
    <i name="pawpsdc">  14927.15535801 </i>
    <i name="pawaedc"> -13954.44504640 </i>
    <i name="eentropy">      0.05294510 </i>
    <i name="bandstr">   -996.19504688 </i>
    <i name="atom">  12955.90228127 </i>
    <i name="e_fr_energy">    -62.21639731 </i>
    <i name="e_wo_entrp">    -62.26934241 </i>
    <i name="e_0_energy">    -62.23404568 </i>
   </energy>
  </scstep>
  <scstep>
   <time name="dav">   27.90   28.02</time>
   <time name="total">   37.19   37.33</time>
   <energy>
    <i name="e_fr_energy">    -62.38061232 </i>
    <i name="e_wo_entrp">    -62.42872964 </i>
    <i name="e_0_energy">    -62.39665143 </i>
   </energy>
  </scstep>
  <scstep>
   <time name="dav">   30.01   30.08</time>
   <time name="total">   39.55   39.65</time>
   <energy>
    <i name="e_fr_energy">    -62.36049138 </i>
    <i name="e_wo_entrp">    -62.42326808 </i>
    <i name="e_0_energy">    -62.38141694 </i>
   </energy>
  </scstep>
  <scstep>
   <time name="dav">   27.71   27.86</time>
   <time name="total">   34.37   34.53</time>
   <energy>
    <i name="e_fr_energy">    -62.35821395 </i>
    <i name="e_wo_entrp">    -62.40052682 </i>
    <i name="e_0_energy">    -62.37231824 </i>
   </energy>
  </scstep>
  <scstep>
   <time name="dav">   27.25   27.32</time>
   <time name="total">   34.14   34.27</time>
   <energy>
    <i name="e_fr_energy">    -62.32705637 </i>
    <i name="e_wo_entrp">    -62.37645054 </i>
    <i name="e_0_energy">    -62.34352110 </i>
   </energy>
  </scstep>
  <scstep>
   <time name="dav">   21.76   21.94</time>
   <time name="total">   28.95   29.20</time>
   <energy>
    <i name="e_fr_energy">    -62.33767095 </i>
    <i name="e_wo_entrp">    -62.40312084 </i>
    <i name="e_0_energy">    -62.35948758 </i>
   </energy>
  </scstep>
  <scstep>
   <time name="dav">   32.27   32.35</time>
   <time name="total">   40.45   40.55</time>
   <energy>
    <i name="e_fr_energy">    -62.32899695 </i>
    <i name="e_wo_entrp">    -62.37829732 </i>
    <i name="e_0_energy">    -62.34543041 </i>
   </energy>
  </scstep>
  <scstep>
   <time name="dav">   27.01   27.08</time>
   <time name="total">   34.68   34.77</time>
   <energy>
    <i name="e_fr_energy">    -62.32826859 </i>
    <i name="e_wo_entrp">    -62.38022374 </i>
    <i name="e_0_energy">    -62.34558697 </i>
   </energy>
  </scstep>
  <scstep>
   <time name="dav">   27.66   27.72</time>
   <time name="total">   35.03   35.11</time>
   <energy>
    <i name="e_fr_energy">    -62.32835543 </i>
    <i name="e_wo_entrp">    -62.37817939 </i>
    <i name="e_0_energy">    -62.34496342 </i>
   </energy>
  </scstep>
  <scstep>
   <time name="dav">   29.62   29.70</time>
   <time name="total">   40.12   40.24</time>
   <energy>
    <i name="e_fr_energy">    -62.32853068 </i>
    <i name="e_wo_entrp">    -62.38006946 </i>
    <i name="e_0_energy">    -62.34571027 </i>
   </energy>
  </scstep>
  <scstep>
   <time name="dav">   24.73   24.79</time>
   <time name="total">   33.81   33.89</time>
   <energy>
    <i name="e_fr_energy">    -62.32880248 </i>
    <i name="e_wo_entrp">    -62.37948470 </i>
    <i name="e_0_energy">    -62.34569656 </i>
   </energy>
  </scstep>
  <scstep>
   <time name="dav">   24.48   24.53</time>
   <time name="total">   33.40   33.47</time>
   <energy>
    <i name="e_fr_energy">    -62.32899342 </i>
    <i name="e_wo_entrp">    -62.37972415 </i>
    <i name="e_0_energy">    -62.34590367 </i>
   </energy>
  </scstep>
  <scstep>
   <time name="dav">   17.92   17.94</time>
   <time name="total">   25.71   25.78</time>
   <energy>
    <i name="e_fr_energy">    -62.32916969 </i>
    <i name="e_wo_entrp">    -62.38009177 </i>
    <i name="e_0_energy">    -62.34614371 </i>
   </energy>
  </scstep>
  <scstep>
   <time name="dav">   24.75   24.86</time>
   <time name="total">   34.27   34.64</time>
   <energy>
    <i name="e_fr_energy">    -62.32937899 </i>
    <i name="e_wo_entrp">    -62.37998426 </i>
    <i name="e_0_energy">    -62.34624741 </i>
   </energy>
  </scstep>
  <scstep>
   <time name="dav">   22.38   22.41</time>
   <time name="total">   32.49   32.53</time>
   <energy>
    <i name="e_fr_energy">    -62.32959539 </i>
    <i name="e_wo_entrp">    -62.38029056 </i>
    <i name="e_0_energy">    -62.34649378 </i>
   </energy>
  </scstep>
  <scstep>
   <time name="dav">   21.15   21.18</time>
   <time name="total">   32.01   32.05</time>
   <energy>
    <i name="e_fr_energy">    -62.32984317 </i>
    <i name="e_wo_entrp">    -62.38057398 </i>
    <i name="e_0_energy">    -62.34675344 </i>
   </energy>
  </scstep>
  <scstep>
   <time name="dav">   23.01   23.04</time>
   <time name="total">   31.69   31.73</time>
   <energy>
    <i name="e_fr_energy">    -62.32997941 </i>
    <i name="e_wo_entrp">    -62.38071788 </i>
    <i name="e_0_energy">    -62.34689224 </i>
   </energy>
  </scstep>
  <scstep>
   <time name="dav">   25.92   25.95</time>
   <time name="total">   37.35   37.39</time>
   <energy>
    <i name="e_fr_energy">    -62.33008938 </i>
    <i name="e_wo_entrp">    -62.38082192 </i>
    <i name="e_0_energy">    -62.34700023 </i>
   </energy>
  </scstep>
  <scstep>
   <time name="dav">   22.05   22.34</time>
   <time name="total">   30.78   31.08</time>
   <energy>
    <i name="e_fr_energy">    -62.33030315 </i>
    <i name="e_wo_entrp">    -62.38103819 </i>
    <i name="e_0_energy">    -62.34721483 </i>
   </energy>
  </scstep>
  <scstep>
   <time name="dav">   24.65   24.70</time>
   <time name="total">   33.07   33.14</time>
   <energy>
    <i name="e_fr_energy">    -62.33046696 </i>
    <i name="e_wo_entrp">    -62.38119926 </i>
    <i name="e_0_energy">    -62.34737773 </i>
   </energy>
  </scstep>
  <scstep>
   <time name="dav">   25.96   26.15</time>
   <time name="total">   34.29   34.50</time>
   <energy>
    <i name="e_fr_energy">    -62.33060088 </i>
    <i name="e_wo_entrp">    -62.38133705 </i>
    <i name="e_0_energy">    -62.34751293 </i>
   </energy>
  </scstep>
  <scstep>
   <time name="dav">   29.13   29.44</time>
   <time name="total">   37.95   38.36</time>
   <energy>
    <i name="e_fr_energy">    -62.33070768 </i>
    <i name="e_wo_entrp">    -62.38143969 </i>
    <i name="e_0_energy">    -62.34761835 </i>
   </energy>
  </scstep>
  <scstep>
   <time name="dav">   29.66   29.72</time>
   <time name="total">   35.52   35.59</time>
   <energy>
    <i name="alphaZ">     12.15431898 </i>
    <i name="ewald">  26394.43312175 </i>
    <i name="hartreedc"> -38927.37342565 </i>
    <i name="XCdc">   -480.57999017 </i>
    <i name="pawpsdc">  14746.86646903 </i>
    <i name="pawaedc"> -13771.67540702 </i>
    <i name="eentropy">      0.05072743 </i>
    <i name="bandstr">   -992.10889525 </i>
    <i name="atom">  12955.90228127 </i>
    <i name="e_fr_energy">    -62.33079963 </i>
    <i name="e_wo_entrp">    -62.38152706 </i>
    <i name="e_0_energy">    -62.34770878 </i>
   </energy>
  </scstep>
  <structure>
   <crystal>
    <varray name="basis" >
     <v>      23.85720075       0.00000000       0.00000000 </v>
     <v>       0.00000000      24.26431678       0.00000000 </v>
     <v>       0.00000000       0.00000000      23.71397307 </v>
    </varray>
    <i name="volume">  13727.51334958 </i>
    <varray name="rec_basis" >
     <v>       0.04191607       0.00000000       0.00000000 </v>
     <v>       0.00000000       0.04121278       0.00000000 </v>
     <v>       0.00000000       0.00000000       0.04216923 </v>
    </varray>
   </crystal>
   <varray name="positions" >
    <v>       0.47495132       0.49163399       0.50612643 </v>
    <v>       0.54764252       0.55780793       0.56902708 </v>
    <v>       0.55080006       0.44767793       0.57451755 </v>
    <v>       0.46319054       0.56388957       0.41628891 </v>
    <v>       0.58289447       0.43323437       0.46866267 </v>
    <v>       0.44537320       0.52780473       0.60826427 </v>
    <v>       0.38259629       0.42041851       0.50857675 </v>
    <v>       0.37229285       0.52866042       0.52239946 </v>
    <v>       0.48757910       0.38565779       0.49488739 </v>
    <v>       0.56162323       0.54076491       0.45809269 </v>
    <v>       0.39259063       0.48247861       0.42211797 </v>
    <v>       0.49916900       0.45901600       0.40287428 </v>
    <v>       0.48316594       0.62700113       0.62087152 </v>
    <v>       0.44761274       0.42175518       0.59562843 </v>
    <v>       0.63521838       0.50436017       0.53239121 </v>
    <v>       0.45640545       0.60051117       0.51855678 </v>
   </varray>
  </structure>
  <varray name="forces" >
   <v>       0.05345419      -0.02210555      -0.02953216 </v>
   <v>       0.17253059       0.22694936       0.22788150 </v>
   <v>       0.03834561       0.03526046       0.02818481 </v>
   <v>      -0.03043896       0.31742263      -0.24108822 </v>
   <v>       0.34784342      -0.22607694      -0.15731910 </v>
   <v>      -0.06781635      -0.13430332       0.17961624 </v>
   <v>      -0.12233376      -0.14450217      -0.03573334 </v>
   <v>      -0.14084733       0.09417277       0.09207297 </v>
   <v>      -0.02254292      -0.13161424      -0.06777430 </v>
   <v>       0.02910807       0.07268583       0.02704343 </v>
   <v>      -0.16929166       0.03563431      -0.12642110 </v>
   <v>      -0.08723234      -0.16314022      -0.07215499 </v>
   <v>      -0.02092339       0.01094753      -0.00755821 </v>
   <v>      -0.15060804      -0.16159023       0.32882783 </v>
   <v>       0.19230838       0.03793630       0.04557230 </v>
   <v>      -0.02155553       0.15232348      -0.19161767 </v>
  </varray>
  <energy>
   <i name="e_fr_energy">    -62.33079963 </i>
   <i name="e_wo_entrp">    -62.38152706 </i>
   <i name="e_0_energy">    -62.34770878 </i>
  </energy>
  <time name="totalsc">  825.83  830.66</time>
 </calculation>
 <calculation>
  <scstep>
   <time name="dav">   35.20   35.27</time>
   <time name="total">   47.30   47.46</time>
   <energy>
    <i name="alphaZ">     12.15431898 </i>
    <i name="ewald">  26103.61003808 </i>
    <i name="hartreedc"> -38640.13735250 </i>
    <i name="XCdc">   -481.24710988 </i>
    <i name="pawpsdc">  14746.86221331 </i>
    <i name="pawaedc"> -13771.67112269 </i>
    <i name="eentropy">      0.04603339 </i>
    <i name="bandstr">   -987.83677844 </i>
    <i name="atom">  12955.90228127 </i>
    <i name="e_fr_energy">    -62.31747849 </i>
    <i name="e_wo_entrp">    -62.36351188 </i>
    <i name="e_0_energy">    -62.33282296 </i>
   </energy>
  </scstep>
  <scstep>
   <time name="dav">   32.83   33.53</time>
   <time name="total">   42.42   43.14</time>
   <energy>
    <i name="e_fr_energy">    -62.38601436 </i>
    <i name="e_wo_entrp">    -62.42727715 </i>
    <i name="e_0_energy">    -62.39976862 </i>
   </energy>
  </scstep>
  <scstep>
   <time name="dav">   32.04   32.11</time>
   <time name="total">   38.80   38.88</time>
   <energy>
    <i name="e_fr_energy">    -62.37527523 </i>
    <i name="e_wo_entrp">    -62.42686517 </i>
    <i name="e_0_energy">    -62.39247187 </i>
   </energy>
  </scstep>
  <scstep>
   <time name="dav">   31.44   31.50</time>
   <time name="total">   38.56   38.64</time>
   <energy>
    <i name="e_fr_energy">    -62.37441233 </i>
    <i name="e_wo_entrp">    -62.41390599 </i>
    <i name="e_0_energy">    -62.38757689 </i>
   </energy>
  </scstep>
  <scstep>
   <time name="dav">   26.93   26.99</time>
   <time name="total">   33.56   33.64</time>
   <energy>
    <i name="e_fr_energy">    -62.36240382 </i>
    <i name="e_wo_entrp">    -62.40422769 </i>
    <i name="e_0_energy">    -62.37634511 </i>
   </energy>
  </scstep>
  <scstep>
   <time name="dav">   26.45   26.51</time>
   <time name="total">   35.07   35.15</time>
   <energy>
    <i name="e_fr_energy">    -62.36726020 </i>
    <i name="e_wo_entrp">    -62.42197728 </i>
    <i name="e_0_energy">    -62.38549923 </i>
   </energy>
  </scstep>
  <scstep>
   <time name="dav">   26.55   26.62</time>
   <time name="total">   35.16   35.24</time>
   <energy>
    <i name="e_fr_energy">    -62.36285058 </i>
    <i name="e_wo_entrp">    -62.40687153 </i>
    <i name="e_0_energy">    -62.37752423 </i>
   </energy>
  </scstep>
  <scstep>
   <time name="dav">   28.21   28.27</time>
   <time name="total">   35.57   35.66</time>
   <energy>
    <i name="e_fr_energy">    -62.36258357 </i>
    <i name="e_wo_entrp">    -62.40679735 </i>
    <i name="e_0_energy">    -62.37732150 </i>
   </energy>
  </scstep>
  <scstep>
   <time name="dav">   30.91   31.20</time>
   <time name="total">   38.24   38.60</time>
   <energy>
    <i name="e_fr_energy">    -62.36275653 </i>
    <i name="e_wo_entrp">    -62.40627291 </i>
    <i name="e_0_energy">    -62.37726199 </i>
   </energy>
  </scstep>
  <scstep>
   <time name="dav">   24.08   24.14</time>
   <time name="total">   33.53   33.92</time>
   <energy>
    <i name="e_fr_energy">    -62.36290842 </i>
    <i name="e_wo_entrp">    -62.40739727 </i>
    <i name="e_0_energy">    -62.37773804 </i>
   </energy>
  </scstep>
  <scstep>
   <time name="dav">   20.19   20.31</time>
   <time name="total">   29.93   30.39</time>
   <energy>
    <i name="e_fr_energy">    -62.36309287 </i>
    <i name="e_wo_entrp">    -62.40704973 </i>
    <i name="e_0_energy">    -62.37774516 </i>
   </energy>
  </scstep>
  <scstep>
   <time name="dav">   20.15   20.17</time>
   <time name="total">   28.30   28.38</time>
   <energy>
    <i name="e_fr_energy">    -62.36327051 </i>
    <i name="e_wo_entrp">    -62.40722761 </i>
    <i name="e_0_energy">    -62.37792288 </i>
   </energy>
  </scstep>
  <scstep>
   <time name="dav">   22.79   23.01</time>
   <time name="total">   31.03   31.79</time>
   <energy>
    <i name="e_fr_energy">    -62.36339566 </i>
    <i name="e_wo_entrp">    -62.40748566 </i>
    <i name="e_0_energy">    -62.37809233 </i>
   </energy>
  </scstep>
  <scstep>
   <time name="dav">   27.25   27.61</time>
   <time name="total">   36.72   37.54</time>
   <energy>
    <i name="e_fr_energy">    -62.36354522 </i>
    <i name="e_wo_entrp">    -62.40742358 </i>
    <i name="e_0_energy">    -62.37817134 </i>
   </energy>
  </scstep>
  <scstep>
   <time name="dav">   25.81   25.98</time>
   <time name="total">   36.03   36.24</time>
   <energy>
    <i name="e_fr_energy">    -62.36370773 </i>
    <i name="e_wo_entrp">    -62.40763434 </i>
    <i name="e_0_energy">    -62.37834993 </i>
   </energy>
  </scstep>
  <scstep>
   <time name="dav">   24.26   24.29</time>
   <time name="total">   36.48   36.52</time>
   <energy>
    <i name="e_fr_energy">    -62.36391216 </i>
    <i name="e_wo_entrp">    -62.40785194 </i>
    <i name="e_0_energy">    -62.37855875 </i>
   </energy>
  </scstep>
  <scstep>
   <time name="dav">   26.69   26.72</time>
   <time name="total">   34.67   34.71</time>
   <energy>
    <i name="e_fr_energy">    -62.36403404 </i>
    <i name="e_wo_entrp">    -62.40798092 </i>
    <i name="e_0_energy">    -62.37868300 </i>
   </energy>
  </scstep>
  <scstep>
   <time name="dav">   29.09   29.58</time>
   <time name="total">   39.55   40.28</time>
   <energy>
    <i name="e_fr_energy">    -62.36414041 </i>
    <i name="e_wo_entrp">    -62.40807914 </i>
    <i name="e_0_energy">    -62.37878666 </i>
   </energy>
  </scstep>
  <scstep>
   <time name="dav">   22.92   22.95</time>
   <time name="total">   31.65   31.69</time>
   <energy>
    <i name="e_fr_energy">    -62.36431941 </i>
    <i name="e_wo_entrp">    -62.40825340 </i>
    <i name="e_0_energy">    -62.37896407 </i>
   </energy>
  </scstep>
  <scstep>
   <time name="dav">   25.57   25.60</time>
   <time name="total">   35.33   35.37</time>
   <energy>
    <i name="e_fr_energy">    -62.36447787 </i>
    <i name="e_wo_entrp">    -62.40840434 </i>
    <i name="e_0_energy">    -62.37912003 </i>
   </energy>
  </scstep>
  <scstep>
   <time name="dav">   26.58   26.61</time>
   <time name="total">   38.06   38.11</time>
   <energy>
    <i name="e_fr_energy">    -62.36464042 </i>
    <i name="e_wo_entrp">    -62.40856512 </i>
    <i name="e_0_energy">    -62.37928199 </i>
   </energy>
  </scstep>
  <scstep>
   <time name="dav">   32.08   32.47</time>
   <time name="total">   39.21   40.06</time>
   <energy>
    <i name="alphaZ">     12.15431898 </i>
    <i name="ewald">  26103.61003808 </i>
    <i name="hartreedc"> -38644.50492970 </i>
    <i name="XCdc">   -481.13990203 </i>
    <i name="pawpsdc">  14642.84782200 </i>
    <i name="pawaedc"> -13666.15943299 </i>
    <i name="eentropy">      0.04392076 </i>
    <i name="bandstr">   -985.11885380 </i>
    <i name="atom">  12955.90228127 </i>
    <i name="e_fr_energy">    -62.36473744 </i>
    <i name="e_wo_entrp">    -62.40865819 </i>
    <i name="e_0_energy">    -62.37937769 </i>
   </energy>
  </scstep>
  <structure>
   <crystal>
    <varray name="basis" >
     <v>      23.85720075       0.00000000       0.00000000 </v>
     <v>       0.00000000      24.26431678       0.00000000 </v>
     <v>       0.00000000       0.00000000      23.71397307 </v>
    </varray>
    <i name="volume">  13727.51334958 </i>
    <varray name="rec_basis" >
     <v>       0.04191607       0.00000000       0.00000000 </v>
     <v>       0.00000000       0.04121278       0.00000000 </v>
     <v>       0.00000000       0.00000000       0.04216923 </v>
    </varray>
   </crystal>
   <varray name="positions" >
    <v>       0.47521536       0.49162825       0.50626193 </v>
    <v>       0.54817704       0.55821042       0.56947655 </v>
    <v>       0.55085511       0.44756350       0.57492573 </v>
    <v>       0.46320148       0.56497448       0.41583475 </v>
    <v>       0.58364135       0.43256061       0.46817821 </v>
    <v>       0.44503195       0.52720052       0.60890771 </v>
    <v>       0.38197696       0.41995075       0.50835681 </v>
    <v>       0.37161790       0.52899575       0.52261717 </v>
    <v>       0.48760844       0.38499237       0.49461281 </v>
    <v>       0.56178745       0.54121663       0.45790126 </v>
    <v>       0.39185741       0.48227641       0.42165724 </v>
    <v>       0.49918906       0.45844367       0.40227373 </v>
    <v>       0.48326067       0.62747255       0.62127147 </v>
    <v>       0.44741394       0.42155285       0.59663089 </v>
    <v>       0.63604326       0.50455414       0.53261901 </v>
    <v>       0.45622832       0.60107950       0.51775812 </v>
   </varray>
  </structure>
  <varray name="forces" >
   <v>      -0.02524493      -0.03002998      -0.09798622 </v>
   <v>       0.04057887       0.16628690       0.15534086 </v>
   <v>       0.02974007       0.10896236      -0.12947462 </v>
   <v>      -0.04593718       0.03362884      -0.18765081 </v>
   <v>       0.21031605      -0.05960138      -0.03895476 </v>
   <v>       0.03810868       0.05608564       0.00327185 </v>
   <v>       0.07290933      -0.01761455       0.03179279 </v>
   <v>       0.07712606      -0.00007202       0.04998773 </v>
   <v>      -0.04287119       0.09178227       0.00356112 </v>
   <v>      -0.03153493      -0.08000975       0.12800770 </v>
   <v>       0.04520398       0.13118356       0.00417893 </v>
   <v>      -0.13661354      -0.01458799       0.14868192 </v>
   <v>      -0.06759828      -0.18605213      -0.17890901 </v>
   <v>      -0.14383901      -0.16824658       0.08983539 </v>
   <v>      -0.05904463      -0.02370135      -0.02521272 </v>
   <v>       0.03870067      -0.00801385       0.04352984 </v>
  </varray>
  <energy>
   <i name="e_fr_energy">    -62.36473744 </i>
   <i name="e_wo_entrp">    -62.40865819 </i>
   <i name="e_0_energy">    -62.37937769 </i>
  </energy>
  <time name="totalsc">  827.41  833.74</time>
 </calculation>
 <calculation>
  <scstep>
   <time name="dav">   27.71   27.74</time>
   <time name="total">   36.09   36.15</time>
   <energy>
    <i name="alphaZ">     12.15431898 </i>
    <i name="ewald">  26076.90582512 </i>
    <i name="hartreedc"> -38618.13562160 </i>
    <i name="XCdc">   -481.18838284 </i>
    <i name="pawpsdc">  14642.84909643 </i>
    <i name="pawaedc"> -13666.16069803 </i>
    <i name="eentropy">      0.04468303 </i>
    <i name="bandstr">   -984.74596132 </i>
    <i name="atom">  12955.90228127 </i>
    <i name="e_fr_energy">    -62.37445897 </i>
    <i name="e_wo_entrp">    -62.41914200 </i>
    <i name="e_0_energy">    -62.38935331 </i>
   </energy>
  </scstep>
  <scstep>
   <time name="dav">   29.22   29.25</time>
   <time name="total">   38.73   38.78</time>
   <energy>
    <i name="e_fr_energy">    -62.39097387 </i>
    <i name="e_wo_entrp">    -62.43451438 </i>
    <i name="e_0_energy">    -62.40548738 </i>
   </energy>
  </scstep>
  <scstep>
   <time name="dav">   25.91   25.94</time>
   <time name="total">   34.78   34.82</time>
   <energy>
    <i name="e_fr_energy">    -62.38463889 </i>
    <i name="e_wo_entrp">    -62.43233418 </i>
    <i name="e_0_energy">    -62.40053732 </i>
   </energy>
  </scstep>
  <scstep>
   <time name="dav">   29.95   29.99</time>
   <time name="total">   37.50   37.56</time>
   <energy>
    <i name="e_fr_energy">    -62.38435313 </i>
    <i name="e_wo_entrp">    -62.42922763 </i>
    <i name="e_0_energy">    -62.39931130 </i>
   </energy>
  </scstep>
  <scstep>
   <time name="dav">   29.90   29.94</time>
   <time name="total">   37.88   37.93</time>
   <energy>
    <i name="e_fr_energy">    -62.38410630 </i>
    <i name="e_wo_entrp">    -62.42758265 </i>
    <i name="e_0_energy">    -62.39859842 </i>
   </energy>
  </scstep>
  <scstep>
   <time name="dav">   31.28   31.35</time>
   <time name="total">   39.35   39.44</time>
   <energy>
    <i name="e_fr_energy">    -62.38406218 </i>
    <i name="e_wo_entrp">    -62.43157249 </i>
    <i name="e_0_energy">    -62.39989895 </i>
   </energy>
  </scstep>
  <scstep>
   <time name="dav">   31.78   31.82</time>
   <time name="total">   39.30   39.35</time>
   <energy>
    <i name="e_fr_energy">    -62.38409257 </i>
    <i name="e_wo_entrp">    -62.42858881 </i>
    <i name="e_0_energy">    -62.39892465 </i>
   </energy>
  </scstep>
  <scstep>
   <time name="dav">   26.17   26.20</time>
   <time name="total">   34.47   34.51</time>
   <energy>
    <i name="e_fr_energy">    -62.38397550 </i>
    <i name="e_wo_entrp">    -62.42953368 </i>
    <i name="e_0_energy">    -62.39916156 </i>
   </energy>
  </scstep>
  <scstep>
   <time name="dav">   23.78   23.80</time>
   <time name="total">   30.37   30.40</time>
   <energy>
    <i name="alphaZ">     12.15431898 </i>
    <i name="ewald">  26076.90582512 </i>
    <i name="hartreedc"> -38618.71307739 </i>
    <i name="XCdc">   -481.17749761 </i>
    <i name="pawpsdc">  14635.63640781 </i>
    <i name="pawaedc"> -13658.83417775 </i>
    <i name="eentropy">      0.04555938 </i>
    <i name="bandstr">   -984.30360170 </i>
    <i name="atom">  12955.90228127 </i>
    <i name="e_fr_energy">    -62.38396189 </i>
    <i name="e_wo_entrp">    -62.42952127 </i>
    <i name="e_0_energy">    -62.39914835 </i>
   </energy>
  </scstep>
  <structure>
   <crystal>
    <varray name="basis" >
     <v>      23.85720075       0.00000000       0.00000000 </v>
     <v>       0.00000000      24.26431678       0.00000000 </v>
     <v>       0.00000000       0.00000000      23.71397307 </v>
    </varray>
    <i name="volume">  13727.51334958 </i>
    <varray name="rec_basis" >
     <v>       0.04191607       0.00000000       0.00000000 </v>
     <v>       0.00000000       0.04121278       0.00000000 </v>
     <v>       0.00000000       0.00000000       0.04216923 </v>
    </varray>
   </crystal>
   <varray name="positions" >
    <v>       0.47519342       0.49156015       0.50605542 </v>
    <v>       0.54834168       0.55863755       0.56989355 </v>
    <v>       0.55093035       0.44779237       0.57468377 </v>
    <v>       0.46309821       0.56519624       0.41534299 </v>
    <v>       0.58422170       0.43233609       0.46802348 </v>
    <v>       0.44507281       0.52724475       0.60900202 </v>
    <v>       0.38205967       0.41984815       0.50840007 </v>
    <v>       0.37170272       0.52904082       0.52276121 </v>
    <v>       0.48751463       0.38510838       0.49458394 </v>
    <v>       0.56173770       0.54109819       0.45816910 </v>
    <v>       0.39186157       0.48254326       0.42160467 </v>
    <v>       0.49888024       0.45833376       0.40253380 </v>
    <v>       0.48311930       0.62711900       0.62091499 </v>
    <v>       0.44705912       0.42114833       0.59697222 </v>
    <v>       0.63601991       0.50452717       0.53259190 </v>
    <v>       0.45629268       0.60113821       0.51775024 </v>
   </varray>
  </structure>
  <varray name="forces" >
   <v>      -0.02705019       0.01910742      -0.01259502 </v>
   <v>       0.07913641       0.09506302       0.09836587 </v>
   <v>      -0.05739589       0.09502826      -0.12223652 </v>
   <v>      -0.01341458       0.02411109      -0.13018161 </v>
   <v>       0.15561054      -0.05937324      -0.05012786 </v>
   <v>       0.04294487      -0.05453118      -0.03944509 </v>
   <v>       0.07020538       0.01452570       0.01931858 </v>
   <v>       0.07536947      -0.00688449       0.04375425 </v>
   <v>      -0.00695340       0.09633678       0.00585459 </v>
   <v>      -0.07618796      -0.07712234       0.11466280 </v>
   <v>       0.02694656       0.12564676       0.03022891 </v>
   <v>      -0.09182864      -0.02059192       0.14866537 </v>
   <v>      -0.08323817      -0.08207789      -0.09494172 </v>
   <v>      -0.07692247      -0.10431824       0.05502773 </v>
   <v>      -0.06292660      -0.00502347      -0.01770062 </v>
   <v>       0.04570467      -0.05989627      -0.04864966 </v>
  </varray>
  <energy>
   <i name="e_fr_energy">    -62.38396189 </i>
   <i name="e_wo_entrp">    -62.42952127 </i>
   <i name="e_0_energy">    -62.39914835 </i>
  </energy>
  <time name="totalsc">  359.71  360.32</time>
 </calculation>
 <calculation>
  <scstep>
   <time name="dav">   28.34   28.37</time>
   <time name="total">   37.06   37.11</time>
   <energy>
    <i name="alphaZ">     12.15431898 </i>
    <i name="ewald">  26020.15484484 </i>
    <i name="hartreedc"> -38562.53629782 </i>
    <i name="XCdc">   -481.27360375 </i>
    <i name="pawpsdc">  14635.60359301 </i>
    <i name="pawaedc"> -13658.80105103 </i>
    <i name="eentropy">      0.05013409 </i>
    <i name="bandstr">   -983.60950190 </i>
    <i name="atom">  12955.90228127 </i>
    <i name="e_fr_energy">    -62.35528232 </i>
    <i name="e_wo_entrp">    -62.40541641 </i>
    <i name="e_0_energy">    -62.37199369 </i>
   </energy>
  </scstep>
  <scstep>
   <time name="dav">   31.38   31.44</time>
   <time name="total">   42.30   42.37</time>
   <energy>
    <i name="e_fr_energy">    -62.43292215 </i>
    <i name="e_wo_entrp">    -62.47732079 </i>
    <i name="e_0_energy">    -62.44772169 </i>
   </energy>
  </scstep>
  <scstep>
   <time name="dav">   36.49   36.56</time>
   <time name="total">   45.57   45.66</time>
   <energy>
    <i name="e_fr_energy">    -62.40385705 </i>
    <i name="e_wo_entrp">    -62.45999020 </i>
    <i name="e_0_energy">    -62.42256810 </i>
   </energy>
  </scstep>
  <scstep>
   <time name="dav">   28.40   28.44</time>
   <time name="total">   36.18   36.23</time>
   <energy>
    <i name="e_fr_energy">    -62.40157730 </i>
    <i name="e_wo_entrp">    -62.45126190 </i>
    <i name="e_0_energy">    -62.41813884 </i>
   </energy>
  </scstep>
  <scstep>
   <time name="dav">   25.43   25.47</time>
   <time name="total">   33.99   34.04</time>
   <energy>
    <i name="e_fr_energy">    -62.39980864 </i>
    <i name="e_wo_entrp">    -62.44559679 </i>
    <i name="e_0_energy">    -62.41507136 </i>
   </energy>
  </scstep>
  <scstep>
   <time name="dav">   33.95   33.99</time>
   <time name="total">   41.06   41.11</time>
   <energy>
    <i name="e_fr_energy">    -62.39936897 </i>
    <i name="e_wo_entrp">    -62.45424578 </i>
    <i name="e_0_energy">    -62.41766124 </i>
   </energy>
  </scstep>
  <scstep>
   <time name="dav">   35.30   35.34</time>
   <time name="total">   46.51   46.57</time>
   <energy>
    <i name="e_fr_energy">    -62.39923870 </i>
    <i name="e_wo_entrp">    -62.44792244 </i>
    <i name="e_0_energy">    -62.41546661 </i>
   </energy>
  </scstep>
  <scstep>
   <time name="dav">   30.12   30.19</time>
   <time name="total">   38.31   38.39</time>
   <energy>
    <i name="e_fr_energy">    -62.39859976 </i>
    <i name="e_wo_entrp">    -62.44889997 </i>
    <i name="e_0_energy">    -62.41536649 </i>
   </energy>
  </scstep>
  <scstep>
   <time name="dav">   30.65   31.10</time>
   <time name="total">   39.67   40.45</time>
   <energy>
    <i name="e_fr_energy">    -62.39860690 </i>
    <i name="e_wo_entrp">    -62.44952760 </i>
    <i name="e_0_energy">    -62.41558046 </i>
   </energy>
  </scstep>
  <scstep>
   <time name="dav">   30.42   30.98</time>
   <time name="total">   39.49   40.18</time>
   <energy>
    <i name="e_fr_energy">    -62.39872478 </i>
    <i name="e_wo_entrp">    -62.45015336 </i>
    <i name="e_0_energy">    -62.41586764 </i>
   </energy>
  </scstep>
  <scstep>
   <time name="dav">   22.57   22.60</time>
   <time name="total">   28.72   29.45</time>
   <energy>
    <i name="alphaZ">     12.15431898 </i>
    <i name="ewald">  26020.15484484 </i>
    <i name="hartreedc"> -38563.80065041 </i>
    <i name="XCdc">   -481.24621813 </i>
    <i name="pawpsdc">  14622.52717936 </i>
    <i name="pawaedc"> -13645.50306802 </i>
    <i name="eentropy">      0.05076922 </i>
    <i name="bandstr">   -982.63824196 </i>
    <i name="atom">  12955.90228127 </i>
    <i name="e_fr_energy">    -62.39878486 </i>
    <i name="e_wo_entrp">    -62.44955408 </i>
    <i name="e_0_energy">    -62.41570794 </i>
   </energy>
  </scstep>
  <structure>
   <crystal>
    <varray name="basis" >
     <v>      23.85720075       0.00000000       0.00000000 </v>
     <v>       0.00000000      24.26431678       0.00000000 </v>
     <v>       0.00000000       0.00000000      23.71397307 </v>
    </varray>
    <i name="volume">  13727.51334958 </i>
    <varray name="rec_basis" >
     <v>       0.04191607       0.00000000       0.00000000 </v>
     <v>       0.00000000       0.04121278       0.00000000 </v>
     <v>       0.00000000       0.00000000       0.04216923 </v>
    </varray>
   </crystal>
   <varray name="positions" >
    <v>       0.47514633       0.49141403       0.50561234 </v>
    <v>       0.54869493       0.55955396       0.57078825 </v>
    <v>       0.55109179       0.44828340       0.57416464 </v>
    <v>       0.46287663       0.56567204       0.41428790 </v>
    <v>       0.58546686       0.43185436       0.46769152 </v>
    <v>       0.44516049       0.52733966       0.60920436 </v>
    <v>       0.38223711       0.41962802       0.50849290 </v>
    <v>       0.37188470       0.52913754       0.52307027 </v>
    <v>       0.48731337       0.38535729       0.49452199 </v>
    <v>       0.56163094       0.54084406       0.45874376 </v>
    <v>       0.39187049       0.48311578       0.42149188 </v>
    <v>       0.49821766       0.45809792       0.40309179 </v>
    <v>       0.48281600       0.62636046       0.62015015 </v>
    <v>       0.44629784       0.42028042       0.59770456 </v>
    <v>       0.63596979       0.50446930       0.53253374 </v>
    <v>       0.45643075       0.60126416       0.51773333 </v>
   </varray>
  </structure>
  <varray name="forces" >
   <v>      -0.03659453       0.11678437       0.17198746 </v>
   <v>       0.17120550      -0.07798784      -0.03736591 </v>
   <v>      -0.23360569       0.06349684      -0.10672376 </v>
   <v>       0.05377802       0.00659965      -0.01490797 </v>
   <v>       0.04181030      -0.05829761      -0.06455907 </v>
   <v>       0.04649300      -0.29504679      -0.12433611 </v>
   <v>       0.06455262       0.08169457       0.00057851 </v>
   <v>       0.06737265      -0.02322372       0.03166962 </v>
   <v>       0.06713011       0.10877458       0.01983375 </v>
   <v>      -0.15666379      -0.06191172       0.07672910 </v>
   <v>      -0.02124127       0.10399990       0.07921912 </v>
   <v>       0.01051111      -0.03478192       0.13225733 </v>
   <v>      -0.12254950       0.16425069       0.10567234 </v>
   <v>       0.05971562       0.03030045      -0.02680290 </v>
   <v>      -0.06809775       0.03512854       0.00155170 </v>
   <v>       0.05618358      -0.15977997      -0.24480321 </v>
  </varray>
  <energy>
   <i name="e_fr_energy">    -62.39878486 </i>
   <i name="e_wo_entrp">    -62.44955408 </i>
   <i name="e_0_energy">    -62.41570794 </i>
  </energy>
  <time name="totalsc">  454.01  456.77</time>
 </calculation>
 <calculation>
  <scstep>
   <time name="dav">   36.06   37.04</time>
   <time name="total">   42.95   44.06</time>
   <energy>
    <i name="alphaZ">     12.15431898 </i>
    <i name="ewald">  26032.56352686 </i>
    <i name="hartreedc"> -38576.09319018 </i>
    <i name="XCdc">   -481.22198214 </i>
    <i name="pawpsdc">  14622.42606742 </i>
    <i name="pawaedc"> -13645.40192103 </i>
    <i name="eentropy">      0.05168049 </i>
    <i name="bandstr">   -982.78594041 </i>
    <i name="atom">  12955.90228127 </i>
    <i name="e_fr_energy">    -62.40515875 </i>
    <i name="e_wo_entrp">    -62.45683924 </i>
    <i name="e_0_energy">    -62.42238558 </i>
   </energy>
  </scstep>
  <scstep>
   <time name="dav">   29.76   29.93</time>
   <time name="total">   37.98   38.16</time>
   <energy>
    <i name="e_fr_energy">    -62.41678244 </i>
    <i name="e_wo_entrp">    -62.47092291 </i>
    <i name="e_0_energy">    -62.43482926 </i>
   </energy>
  </scstep>
  <scstep>
   <time name="dav">   30.12   30.16</time>
   <time name="total">   38.43   38.48</time>
   <energy>
    <i name="e_fr_energy">    -62.41338404 </i>
    <i name="e_wo_entrp">    -62.46358477 </i>
    <i name="e_0_energy">    -62.43011762 </i>
   </energy>
  </scstep>
  <scstep>
   <time name="dav">   29.57   29.62</time>
   <time name="total">   36.96   37.01</time>
   <energy>
    <i name="e_fr_energy">    -62.41403720 </i>
    <i name="e_wo_entrp">    -62.46928150 </i>
    <i name="e_0_energy">    -62.43245197 </i>
   </energy>
  </scstep>
  <scstep>
   <time name="dav">   39.03   39.74</time>
   <time name="total">   46.22   46.94</time>
   <energy>
    <i name="e_fr_energy">    -62.41339083 </i>
    <i name="e_wo_entrp">    -62.46546703 </i>
    <i name="e_0_energy">    -62.43074956 </i>
   </energy>
  </scstep>
  <scstep>
   <time name="dav">   30.45   30.55</time>
   <time name="total">   37.75   37.86</time>
   <energy>
    <i name="e_fr_energy">    -62.41356522 </i>
    <i name="e_wo_entrp">    -62.46572112 </i>
    <i name="e_0_energy">    -62.43095052 </i>
   </energy>
  </scstep>
  <scstep>
   <time name="dav">   34.15   34.20</time>
   <time name="total">   40.82   40.88</time>
   <energy>
    <i name="e_fr_energy">    -62.41392682 </i>
    <i name="e_wo_entrp">    -62.46807018 </i>
    <i name="e_0_energy">    -62.43197461 </i>
   </energy>
  </scstep>
  <scstep>
   <time name="dav">   31.23   31.36</time>
   <time name="total">   41.56   41.70</time>
   <energy>
    <i name="e_fr_energy">    -62.41378714 </i>
    <i name="e_wo_entrp">    -62.46600319 </i>
    <i name="e_0_energy">    -62.43119249 </i>
   </energy>
  </scstep>
  <scstep>
   <time name="dav">   20.62   20.82</time>
   <time name="total">   28.28   28.49</time>
   <energy>
    <i name="e_fr_energy">    -62.41388880 </i>
    <i name="e_wo_entrp">    -62.46649518 </i>
    <i name="e_0_energy">    -62.43142426 </i>
   </energy>
  </scstep>
  <scstep>
   <time name="dav">   21.91   21.97</time>
   <time name="total">   26.44   26.51</time>
   <energy>
    <i name="alphaZ">     12.15431898 </i>
    <i name="ewald">  26032.56352686 </i>
    <i name="hartreedc"> -38575.97022197 </i>
    <i name="XCdc">   -481.22441849 </i>
    <i name="pawpsdc">  14625.34498664 </i>
    <i name="pawaedc"> -13648.37762992 </i>
    <i name="eentropy">      0.05262196 </i>
    <i name="bandstr">   -982.85940093 </i>
    <i name="atom">  12955.90228127 </i>
    <i name="e_fr_energy">    -62.41393561 </i>
    <i name="e_wo_entrp">    -62.46655757 </i>
    <i name="e_0_energy">    -62.43147627 </i>
   </energy>
  </scstep>
  <structure>
   <crystal>
    <varray name="basis" >
     <v>      23.85720075       0.00000000       0.00000000 </v>
     <v>       0.00000000      24.26431678       0.00000000 </v>
     <v>       0.00000000       0.00000000      23.71397307 </v>
    </varray>
    <i name="volume">  13727.51334958 </i>
    <varray name="rec_basis" >
     <v>       0.04191607       0.00000000       0.00000000 </v>
     <v>       0.00000000       0.04121278       0.00000000 </v>
     <v>       0.00000000       0.00000000       0.04216923 </v>
    </varray>
   </crystal>
   <varray name="positions" >
    <v>       0.47508564       0.49151138       0.50568842 </v>
    <v>       0.54902101       0.55974835       0.57102465 </v>
    <v>       0.55085071       0.44851705       0.57386587 </v>
    <v>       0.46287371       0.56583088       0.41393490 </v>
    <v>       0.58591361       0.43163005       0.46750511 </v>
    <v>       0.44524642       0.52700684       0.60911199 </v>
    <v>       0.38237408       0.41965877       0.50852303 </v>
    <v>       0.37202663       0.52913961       0.52320804 </v>
    <v>       0.48733359       0.38556993       0.49452732 </v>
    <v>       0.56140115       0.54068740       0.45902236 </v>
    <v>       0.39184675       0.48342507       0.42155585 </v>
    <v>       0.49802091       0.45798043       0.40343501 </v>
    <v>       0.48256661       0.62632218       0.62004085 </v>
    <v>       0.44613138       0.42004275       0.59790283 </v>
    <v>       0.63586873       0.50449418       0.53251727 </v>
    <v>       0.45654477       0.60110754       0.51741989 </v>
   </varray>
  </structure>
  <varray name="forces" >
   <v>      -0.04133537       0.10762134       0.15814117 </v>
   <v>       0.14397515      -0.05378019      -0.02304969 </v>
   <v>      -0.23327488       0.04361625      -0.08461233 </v>
   <v>       0.06589805      -0.00296117      -0.01616367 </v>
   <v>       0.02489737      -0.06054198      -0.06717470 </v>
   <v>       0.06796847      -0.26739527      -0.10443975 </v>
   <v>       0.05483759       0.08459279      -0.00097767 </v>
   <v>       0.02523922      -0.00851540       0.03697774 </v>
   <v>       0.08350932       0.09865201       0.02106158 </v>
   <v>      -0.15640282      -0.04834182       0.05105853 </v>
   <v>      -0.03068708       0.09696108       0.07641283 </v>
   <v>       0.03043932      -0.03126496       0.12420450 </v>
   <v>      -0.12923138       0.13431315       0.08256899 </v>
   <v>       0.07379944       0.02221572      -0.03347590 </v>
   <v>      -0.05553633       0.02942300       0.00237344 </v>
   <v>       0.07590394      -0.14459454      -0.22290507 </v>
  </varray>
  <energy>
   <i name="e_fr_energy">    -62.41393561 </i>
   <i name="e_wo_entrp">    -62.46655757 </i>
   <i name="e_0_energy">    -62.43147627 </i>
  </energy>
  <time name="totalsc">  405.73  408.59</time>
 </calculation>
 <calculation>
  <scstep>
   <time name="dav">   31.95   32.98</time>
   <time name="total">   38.90   40.19</time>
   <energy>
    <i name="alphaZ">     12.15431898 </i>
    <i name="ewald">  26069.26380423 </i>
    <i name="hartreedc"> -38612.24545123 </i>
    <i name="XCdc">   -481.14868728 </i>
    <i name="pawpsdc">  14625.34181600 </i>
    <i name="pawaedc"> -13648.37472508 </i>
    <i name="eentropy">      0.05752865 </i>
    <i name="bandstr">   -983.32431453 </i>
    <i name="atom">  12955.90228127 </i>
    <i name="e_fr_energy">    -62.37342900 </i>
    <i name="e_wo_entrp">    -62.43095765 </i>
    <i name="e_0_energy">    -62.39260522 </i>
   </energy>
  </scstep>
  <scstep>
   <time name="dav">   30.44   31.03</time>
   <time name="total">   37.81   38.40</time>
   <energy>
    <i name="e_fr_energy">    -62.47908854 </i>
    <i name="e_wo_entrp">    -62.54079497 </i>
    <i name="e_0_energy">    -62.49965735 </i>
   </energy>
  </scstep>
  <scstep>
   <time name="dav">   34.35   34.39</time>
   <time name="total">   43.57   43.63</time>
   <energy>
    <i name="e_fr_energy">    -62.44810124 </i>
    <i name="e_wo_entrp">    -62.50140978 </i>
    <i name="e_0_energy">    -62.46587075 </i>
   </energy>
  </scstep>
  <scstep>
   <time name="dav">   29.94   29.97</time>
   <time name="total">   36.39   36.43</time>
   <energy>
    <i name="e_fr_energy">    -62.45202613 </i>
    <i name="e_wo_entrp">    -62.51864807 </i>
    <i name="e_0_energy">    -62.47423345 </i>
   </energy>
  </scstep>
  <scstep>
   <time name="dav">   29.21   29.25</time>
   <time name="total">   37.17   37.23</time>
   <energy>
    <i name="e_fr_energy">    -62.44500249 </i>
    <i name="e_wo_entrp">    -62.50292825 </i>
    <i name="e_0_energy">    -62.46431108 </i>
   </energy>
  </scstep>
  <scstep>
   <time name="dav">   37.07   37.11</time>
   <time name="total">   45.78   46.02</time>
   <energy>
    <i name="e_fr_energy">    -62.44529260 </i>
    <i name="e_wo_entrp">    -62.50280346 </i>
    <i name="e_0_energy">    -62.46446288 </i>
   </energy>
  </scstep>
  <scstep>
   <time name="dav">   24.49   24.52</time>
   <time name="total">   32.87   32.91</time>
   <energy>
    <i name="e_fr_energy">    -62.44653822 </i>
    <i name="e_wo_entrp">    -62.51112231 </i>
    <i name="e_0_energy">    -62.46806625 </i>
   </energy>
  </scstep>
  <scstep>
   <time name="dav">   31.44   31.50</time>
   <time name="total">   40.04   40.12</time>
   <energy>
    <i name="e_fr_energy">    -62.44476463 </i>
    <i name="e_wo_entrp">    -62.50237676 </i>
    <i name="e_0_energy">    -62.46396868 </i>
   </energy>
  </scstep>
  <scstep>
   <time name="dav">   30.82   30.87</time>
   <time name="total">   38.64   38.70</time>
   <energy>
    <i name="e_fr_energy">    -62.44512334 </i>
    <i name="e_wo_entrp">    -62.50420285 </i>
    <i name="e_0_energy">    -62.46481651 </i>
   </energy>
  </scstep>
  <scstep>
   <time name="dav">   23.05   23.08</time>
   <time name="total">   29.99   30.02</time>
   <energy>
    <i name="alphaZ">     12.15431898 </i>
    <i name="ewald">  26069.26380423 </i>
    <i name="hartreedc"> -38611.71796903 </i>
    <i name="XCdc">   -481.15436085 </i>
    <i name="pawpsdc">  14636.02267069 </i>
    <i name="pawaedc"> -13659.22779618 </i>
    <i name="eentropy">      0.05891914 </i>
    <i name="bandstr">   -983.74701322 </i>
    <i name="atom">  12955.90228127 </i>
    <i name="e_fr_energy">    -62.44514497 </i>
    <i name="e_wo_entrp">    -62.50406411 </i>
    <i name="e_0_energy">    -62.46478468 </i>
   </energy>
  </scstep>
  <structure>
   <crystal>
    <varray name="basis" >
     <v>      23.85720075       0.00000000       0.00000000 </v>
     <v>       0.00000000      24.26431678       0.00000000 </v>
     <v>       0.00000000       0.00000000      23.71397307 </v>
    </varray>
    <i name="volume">  13727.51334958 </i>
    <varray name="rec_basis" >
     <v>       0.04191607       0.00000000       0.00000000 </v>
     <v>       0.00000000       0.04121278       0.00000000 </v>
     <v>       0.00000000       0.00000000       0.04216923 </v>
    </varray>
   </crystal>
   <varray name="positions" >
    <v>       0.47490356       0.49180343       0.50591667 </v>
    <v>       0.54999923       0.56033152       0.57173387 </v>
    <v>       0.55012746       0.44921801       0.57296957 </v>
[...]
       <r>    -0.7903     6.9323    98.3206 </r>
       <r>    -0.7448     6.5183    98.6177 </r>
       <r>    -0.6992     6.6329    98.9200 </r>
       <r>    -0.6536     6.6932    99.2250 </r>
       <r>    -0.6080     6.2402    99.5094 </r>
       <r>    -0.5624     5.1533    99.7443 </r>
       <r>    -0.5169     3.6489    99.9106 </r>
       <r>    -0.4713     2.1085   100.0067 </r>
       <r>    -0.4257     0.8661   100.0462 </r>
       <r>    -0.3801     0.0732   100.0495 </r>
       <r>    -0.3346    -0.3110   100.0353 </r>
       <r>    -0.2890    -0.4373   100.0154 </r>
       <r>    -0.2434    -0.4618    99.9943 </r>
       <r>    -0.1978    -0.4687    99.9730 </r>
       <r>    -0.1523    -0.4397    99.9529 </r>
       <r>    -0.1067    -0.2621    99.9410 </r>
       <r>    -0.0611     0.2262    99.9513 </r>
       <r>    -0.0155     1.1682   100.0045 </r>
       <r>     0.0300     2.6194   100.1239 </r>
       <r>     0.0756     4.5122   100.3296 </r>
       <r>     0.1212     6.6635   100.6333 </r>
       <r>     0.1668     8.8036   101.0345 </r>
       <r>     0.2123    10.6035   101.5178 </r>
       <r>     0.2579    11.7120   102.0515 </r>
       <r>     0.3035    11.8349   102.5909 </r>
       <r>     0.3491    10.8540   103.0856 </r>
       <r>     0.3946     8.9201   103.4922 </r>
       <r>     0.4402     6.4413   103.7857 </r>
       <r>     0.4858     3.9459   103.9656 </r>
       <r>     0.5314     1.8886   104.0516 </r>
       <r>     0.5769     0.5052   104.0747 </r>
       <r>     0.6225    -0.2142   104.0649 </r>
       <r>     0.6681    -0.4451   104.0446 </r>
       <r>     0.7137    -0.4088   104.0260 </r>
       <r>     0.7593    -0.2811   104.0132 </r>
       <r>     0.8048    -0.1598   104.0059 </r>
       <r>     0.8504    -0.0779   104.0023 </r>
       <r>     0.8960    -0.0331   104.0008 </r>
       <r>     0.9416    -0.0124   104.0003 </r>
       <r>     0.9871    -0.0041   104.0001 </r>
       <r>     1.0327    -0.0012   104.0000 </r>
       <r>     1.0783    -0.0003   104.0000 </r>
       <r>     1.1239    -0.0001   104.0000 </r>
       <r>     1.1694    -0.0000   104.0000 </r>
       <r>     1.2150    -0.0000   104.0000 </r>
       <r>     1.2606    -0.0000   104.0000 </r>
       <r>     1.3062    -0.0000   104.0000 </r>
       <r>     1.3517    -0.0000   104.0000 </r>
       <r>     1.3973    -0.0000   104.0000 </r>
       <r>     1.4429    -0.0000   104.0000 </r>
       <r>     1.4885    -0.0000   104.0000 </r>
       <r>     1.5340    -0.0000   104.0000 </r>
       <r>     1.5796    -0.0000   104.0000 </r>
       <r>     1.6252    -0.0000   104.0000 </r>
       <r>     1.6708     0.0000   104.0000 </r>
       <r>     1.7163     0.0000   104.0000 </r>
       <r>     1.7619     0.0000   104.0000 </r>
       <r>     1.8075     0.0000   104.0000 </r>
       <r>     1.8531     0.0000   104.0000 </r>
       <r>     1.8986     0.0000   104.0000 </r>
       <r>     1.9442     0.0000   104.0000 </r>
       <r>     1.9898     0.0000   104.0000 </r>
       <r>     2.0354     0.0000   104.0000 </r>
       <r>     2.0810     0.0000   104.0000 </r>
       <r>     2.1265     0.0000   104.0000 </r>
       <r>     2.1721     0.0000   104.0000 </r>
       <r>     2.2177     0.0000   104.0000 </r>
       <r>     2.2633     0.0000   104.0000 </r>
       <r>     2.3088     0.0000   104.0000 </r>
       <r>     2.3544     0.0000   104.0000 </r>
       <r>     2.4000     0.0000   104.0000 </r>
      </set>
      <set comment="spin 2">
       <r>   -11.2728     0.0000     0.0000 </r>
       <r>   -11.2272     0.0000     0.0000 </r>
       <r>   -11.1816     0.0000     0.0000 </r>
       <r>   -11.1360     0.0000     0.0000 </r>
       <r>   -11.0905     0.0000     0.0000 </r>
       <r>   -11.0449     0.0000     0.0000 </r>
       <r>   -10.9993     0.0000     0.0000 </r>
       <r>   -10.9537     0.0000     0.0000 </r>
       <r>   -10.9082     0.0000     0.0000 </r>
       <r>   -10.8626    -0.0000    -0.0000 </r>
       <r>   -10.8170    -0.0000    -0.0000 </r>
       <r>   -10.7714    -0.0000    -0.0000 </r>
       <r>   -10.7259    -0.0000    -0.0000 </r>
       <r>   -10.6803    -0.0000    -0.0000 </r>
       <r>   -10.6347    -0.0000    -0.0000 </r>
       <r>   -10.5891    -0.0000    -0.0000 </r>
       <r>   -10.5436    -0.0000    -0.0000 </r>
       <r>   -10.4980    -0.0000    -0.0000 </r>
       <r>   -10.4524    -0.0000    -0.0000 </r>
       <r>   -10.4068    -0.0000    -0.0000 </r>
       <r>   -10.3613    -0.0000    -0.0000 </r>
       <r>   -10.3157    -0.0000    -0.0000 </r>
       <r>   -10.2701    -0.0000    -0.0000 </r>
       <r>   -10.2245    -0.0000    -0.0000 </r>
       <r>   -10.1790    -0.0000    -0.0000 </r>
       <r>   -10.1334    -0.0000    -0.0000 </r>
       <r>   -10.0878    -0.0000    -0.0000 </r>
       <r>   -10.0422    -0.0000    -0.0000 </r>
       <r>    -9.9966    -0.0000    -0.0000 </r>
       <r>    -9.9511    -0.0000    -0.0000 </r>
       <r>    -9.9055    -0.0001    -0.0000 </r>
       <r>    -9.8599    -0.0005    -0.0000 </r>
       <r>    -9.8143    -0.0016    -0.0001 </r>
       <r>    -9.7688    -0.0052    -0.0003 </r>
       <r>    -9.7232    -0.0148    -0.0010 </r>
       <r>    -9.6776    -0.0366    -0.0027 </r>
       <r>    -9.6320    -0.0784    -0.0063 </r>
       <r>    -9.5865    -0.1421    -0.0127 </r>
       <r>    -9.5409    -0.2085    -0.0222 </r>
       <r>    -9.4953    -0.2170    -0.0321 </r>
       <r>    -9.4497    -0.0587    -0.0348 </r>
       <r>    -9.4042     0.3927    -0.0169 </r>
       <r>    -9.3586     1.2019     0.0379 </r>
       <r>    -9.3130     2.2805     0.1418 </r>
       <r>    -9.2674     3.3558     0.2948 </r>
       <r>    -9.2219     4.0594     0.4798 </r>
       <r>    -9.1763     4.1087     0.6670 </r>
       <r>    -9.1307     3.4656     0.8250 </r>
       <r>    -9.0851     2.3590     0.9325 </r>
       <r>    -9.0396     1.1608     0.9854 </r>
       <r>    -8.9940     0.2174     0.9953 </r>
       <r>    -8.9484    -0.2488     0.9840 </r>
       <r>    -8.9028    -0.1433     0.9774 </r>
       <r>    -8.8573     0.5343     1.0018 </r>
       <r>    -8.8117     1.6983     1.0792 </r>
       <r>    -8.7661     3.1731     1.2238 </r>
       <r>    -8.7205     4.7260     1.4392 </r>
       <r>    -8.6749     6.1587     1.7199 </r>
       <r>    -8.6294     7.3924     2.0568 </r>
       <r>    -8.5838     8.4639     2.4425 </r>
       <r>    -8.5382     9.4163     2.8717 </r>
       <r>    -8.4926    10.1802     3.3357 </r>
       <r>    -8.4471    10.5634     3.8171 </r>
       <r>    -8.4015    10.3744     4.2899 </r>
       <r>    -8.3559     9.5655     4.7259 </r>
       <r>    -8.3103     8.2608     5.1024 </r>
       <r>    -8.2648     6.6564     5.4057 </r>
       <r>    -8.2192     4.9204     5.6300 </r>
       <r>    -8.1736     3.2112     5.7763 </r>
       <r>    -8.1280     1.7905     5.8579 </r>
       <r>    -8.0825     1.0837     5.9073 </r>
       <r>    -8.0369     1.5658     5.9787 </r>
       <r>    -7.9913     3.4928     6.1379 </r>
       <r>    -7.9457     6.6421     6.4406 </r>
       <r>    -7.9002    10.2715     6.9087 </r>
       <r>    -7.8546    13.3981     7.5194 </r>
       <r>    -7.8090    15.2789     8.2157 </r>
       <r>    -7.7634    15.7786     8.9348 </r>
       <r>    -7.7179    15.3402     9.6340 </r>
       <r>    -7.6723    14.5649    10.2978 </r>
       <r>    -7.6267    13.7413    10.9241 </r>
       <r>    -7.5811    12.7262    11.5041 </r>
       <r>    -7.5356    11.2708    12.0177 </r>
       <r>    -7.4900     9.4790    12.4498 </r>
       <r>    -7.4444     7.9722    12.8131 </r>
       <r>    -7.3988     7.6180    13.1603 </r>
       <r>    -7.3532     9.0669    13.5735 </r>
       <r>    -7.3077    12.4497    14.1409 </r>
       <r>    -7.2621    17.3628    14.9323 </r>
       <r>    -7.2165    22.9996    15.9805 </r>
       <r>    -7.1709    28.2729    17.2690 </r>
       <r>    -7.1254    31.9629    18.7258 </r>
       <r>    -7.0798    33.0225    20.2308 </r>
       <r>    -7.0342    31.0171    21.6444 </r>
       <r>    -6.9886    26.4388    22.8494 </r>
       <r>    -6.9431    20.6171    23.7890 </r>
       <r>    -6.8975    15.2122    24.4824 </r>
       <r>    -6.8519    11.5671    25.0095 </r>
       <r>    -6.8063    10.2669    25.4775 </r>
       <r>    -6.7608    11.0810    25.9825 </r>
       <r>    -6.7152    13.2227    26.5851 </r>
       <r>    -6.6696    15.7329    27.3022 </r>
       <r>    -6.6240    17.8065    28.1137 </r>
       <r>    -6.5785    18.9814    28.9788 </r>
       <r>    -6.5329    19.1841    29.8531 </r>
       <r>    -6.4873    18.6458    30.7029 </r>
       <r>    -6.4417    17.7197    31.5105 </r>
       <r>    -6.3962    16.6788    32.2707 </r>
       <r>    -6.3506    15.6210    32.9826 </r>
       <r>    -6.3050    14.5531    33.6459 </r>
       <r>    -6.2594    13.5651    34.2641 </r>
       <r>    -6.2139    12.9035    34.8522 </r>
       <r>    -6.1683    12.8255    35.4367 </r>
       <r>    -6.1227    13.3423    36.0448 </r>
       <r>    -6.0771    14.1093    36.6879 </r>
       <r>    -6.0315    14.6237    37.3544 </r>
       <r>    -5.9860    14.6021    38.0199 </r>
       <r>    -5.9404    14.2103    38.6675 </r>
       <r>    -5.8948    13.9269    39.3022 </r>
       <r>    -5.8492    14.1562    39.9474 </r>
       <r>    -5.8037    14.9491    40.6287 </r>
       <r>    -5.7581    16.0719    41.3612 </r>
       <r>    -5.7125    17.3152    42.1504 </r>
       <r>    -5.6669    18.6974    43.0025 </r>
       <r>    -5.6214    20.3488    43.9299 </r>
       <r>    -5.5758    22.2057    44.9420 </r>
       <r>    -5.5302    23.8452    46.0287 </r>
       <r>    -5.4846    24.6460    47.1520 </r>
       <r>    -5.4391    24.1496    48.2526 </r>
       <r>    -5.3935    22.3389    49.2708 </r>
       <r>    -5.3479    19.6639    50.1670 </r>
       <r>    -5.3023    16.8656    50.9356 </r>
       <r>    -5.2568    14.7458    51.6077 </r>
       <r>    -5.2112    13.9734    52.2445 </r>
       <r>    -5.1656    14.9392    52.9254 </r>
       <r>    -5.1200    17.6576    53.7302 </r>
       <r>    -5.0745    21.7357    54.7208 </r>
       <r>    -5.0289    26.4429    55.9259 </r>
       <r>    -4.9833    30.8916    57.3338 </r>
       <r>    -4.9377    34.2945    58.8968 </r>
       <r>    -4.8922    36.1969    60.5465 </r>
       <r>    -4.8466    36.5693    62.2132 </r>
       <r>    -4.8010    35.7220    63.8413 </r>
       <r>    -4.7554    34.1317    65.3969 </r>
       <r>    -4.7098    32.3065    66.8693 </r>
       <r>    -4.6643    30.7165    68.2692 </r>
       <r>    -4.6187    29.7164    69.6235 </r>
       <r>    -4.5731    29.4118    70.9640 </r>
       <r>    -4.5275    29.5455    72.3106 </r>
       <r>    -4.4820    29.5343    73.6566 </r>
       <r>    -4.4364    28.7056    74.9649 </r>
       <r>    -4.3908    26.6435    76.1792 </r>
       <r>    -4.3452    23.4726    77.2490 </r>
       <r>    -4.2997    19.9050    78.1562 </r>
       <r>    -4.2541    16.9582    78.9291 </r>
       <r>    -4.2085    15.4327    79.6324 </r>
       <r>    -4.1629    15.4310    80.3357 </r>
       <r>    -4.1174    16.2454    81.0761 </r>
       <r>    -4.0718    16.7273    81.8385 </r>
       <r>    -4.0262    15.9139    82.5637 </r>
       <r>    -3.9806    13.5120    83.1796 </r>
       <r>    -3.9351     9.9648    83.6337 </r>
       <r>    -3.8895     6.1350    83.9133 </r>
       <r>    -3.8439     2.8645    84.0439 </r>
       <r>    -3.7983     0.6741    84.0746 </r>
       <r>    -3.7528    -0.2966    84.0611 </r>
       <r>    -3.7072    -0.1871    84.0526 </r>
       <r>    -3.6616     0.7142    84.0851 </r>
       <r>    -3.6160     2.0559    84.1788 </r>
       <r>    -3.5705     3.4815    84.3375 </r>
       <r>    -3.5249     4.6930    84.5514 </r>
       <r>    -3.4793     5.5059    84.8023 </r>
       <r>    -3.4337     5.8488    85.0689 </r>
       <r>    -3.3881     5.7066    85.3290 </r>
       <r>    -3.3426     5.0760    85.5603 </r>
       <r>    -3.2970     3.9925    85.7423 </r>
       <r>    -3.2514     2.6105    85.8612 </r>
       <r>    -3.2058     1.2556    85.9185 </r>
       <r>    -3.1603     0.3901    85.9362 </r>
       <r>    -3.1147     0.4885    85.9585 </r>
       <r>    -3.0691     1.8494    86.0428 </r>
       <r>    -3.0235     4.3923    86.2430 </r>
       <r>    -2.9780     7.5401    86.5866 </r>
       <r>    -2.9324    10.3279    87.0573 </r>
       <r>    -2.8868    11.7870    87.5945 </r>
       <r>    -2.8412    11.4391    88.1159 </r>
       <r>    -2.7957     9.5780    88.5524 </r>
       <r>    -2.7501     7.1093    88.8764 </r>
       <r>    -2.7045     5.0289    89.1056 </r>
       <r>    -2.6589     3.8882    89.2828 </r>
       <r>    -2.6134     3.5932    89.4466 </r>
       <r>    -2.5678     3.6189    89.6115 </r>
       <r>    -2.5222     3.4317    89.7679 </r>
       <r>    -2.4766     2.8089    89.8959 </r>
       <r>    -2.4311     1.8809    89.9816 </r>
       <r>    -2.3855     0.9478    90.0248 </r>
       <r>    -2.3399     0.2557    90.0365 </r>
       <r>    -2.2943    -0.1156    90.0312 </r>
       <r>    -2.2488    -0.2293    90.0208 </r>
       <r>    -2.2032    -0.2030    90.0115 </r>
       <r>    -2.1576    -0.1355    90.0054 </r>
       <r>    -2.1120    -0.0812    90.0017 </r>
       <r>    -2.0665    -0.0605    89.9989 </r>
       <r>    -2.0209    -0.0799    89.9953 </r>
       <r>    -1.9753    -0.1434    89.9887 </r>
       <r>    -1.9297    -0.2463    89.9775 </r>
       <r>    -1.8841    -0.3526    89.9614 </r>
       <r>    -1.8386    -0.3653    89.9448 </r>
       <r>    -1.7930    -0.1172    89.9394 </r>
       <r>    -1.7474     0.5857    89.9661 </r>
       <r>    -1.7018     1.8580    90.0508 </r>
       <r>    -1.6563     3.6119    90.2154 </r>
       <r>    -1.6107     5.5112    90.4666 </r>
       <r>    -1.5651     7.0767    90.7891 </r>
       <r>    -1.5195     7.9114    91.1497 </r>
       <r>    -1.4740     7.9023    91.5098 </r>
       <r>    -1.4284     7.2533    91.8404 </r>
       <r>    -1.3828     6.3378    92.1293 </r>
       <r>    -1.3372     5.5056    92.3802 </r>
       <r>    -1.2917     4.9979    92.6080 </r>
       <r>    -1.2461     4.9866    92.8352 </r>
       <r>    -1.2005     5.6288    93.0918 </r>
       <r>    -1.1549     7.0238    93.4119 </r>
       <r>    -1.1094     9.0873    93.8261 </r>
       <r>    -1.0638    11.4577    94.3483 </r>
       <r>    -1.0182    13.5462    94.9656 </r>
       <r>    -0.9726    14.7470    95.6377 </r>
       <r>    -0.9271    14.7059    96.3080 </r>
       <r>    -0.8815    13.4937    96.9230 </r>
       <r>    -0.8359    11.5723    97.4504 </r>
       <r>    -0.7903     9.5678    97.8864 </r>
       <r>    -0.7448     7.9862    98.2504 </r>
       <r>    -0.6992     7.0267    98.5707 </r>
       <r>    -0.6536     6.5691    98.8701 </r>
       <r>    -0.6080     6.2980    99.1571 </r>
       <r>    -0.5624     5.8770    99.4249 </r>
       <r>    -0.5169     5.0977    99.6573 </r>
       <r>    -0.4713     3.9562    99.8376 </r>
       <r>    -0.4257     2.6338    99.9576 </r>
       <r>    -0.3801     1.3915   100.0210 </r>
       <r>    -0.3346     0.4362   100.0409 </r>
       <r>    -0.2890    -0.1656   100.0334 </r>
       <r>    -0.2434    -0.4783   100.0116 </r>
       <r>    -0.1978    -0.6131    99.9836 </r>
       <r>    -0.1523    -0.6251    99.9551 </r>
       <r>    -0.1067    -0.4518    99.9346 </r>
       <r>    -0.0611     0.0770    99.9381 </r>
       <r>    -0.0155     1.1529    99.9906 </r>
       <r>     0.0300     2.8618   100.1210 </r>
       <r>     0.0756     5.0791   100.3525 </r>
       <r>     0.1212     7.4589   100.6925 </r>
       <r>     0.1668     9.5387   101.1272 </r>
       <r>     0.2123    10.9104   101.6244 </r>
       <r>     0.2579    11.3583   102.1421 </r>
       <r>     0.3035    10.8928   102.6386 </r>
       <r>     0.3491     9.6853   103.0800 </r>
       <r>     0.3946     7.9743   103.4434 </r>
       <r>     0.4402     6.0097   103.7173 </r>
       <r>     0.4858     4.0402   103.9014 </r>
       <r>     0.5314     2.3022   104.0064 </r>
       <r>     0.5769     0.9779   104.0509 </r>
       <r>     0.6225     0.1416   104.0574 </r>
       <r>     0.6681    -0.2561   104.0457 </r>
       <r>     0.7137    -0.3495   104.0298 </r>
       <r>     0.7593    -0.2890   104.0166 </r>
       <r>     0.8048    -0.1870   104.0081 </r>
       <r>     0.8504    -0.1013   104.0035 </r>
       <r>     0.8960    -0.0472   104.0013 </r>
       <r>     0.9416    -0.0192   104.0005 </r>
       <r>     0.9871    -0.0069   104.0001 </r>
       <r>     1.0327    -0.0022   104.0000 </r>
       <r>     1.0783    -0.0006   104.0000 </r>
       <r>     1.1239    -0.0002   104.0000 </r>
       <r>     1.1694    -0.0000   104.0000 </r>
       <r>     1.2150    -0.0000   104.0000 </r>
       <r>     1.2606    -0.0000   104.0000 </r>
       <r>     1.3062    -0.0000   104.0000 </r>
       <r>     1.3517    -0.0000   104.0000 </r>
       <r>     1.3973    -0.0000   104.0000 </r>
       <r>     1.4429    -0.0000   104.0000 </r>
       <r>     1.4885    -0.0000   104.0000 </r>
       <r>     1.5340    -0.0000   104.0000 </r>
       <r>     1.5796    -0.0000   104.0000 </r>
       <r>     1.6252    -0.0000   104.0000 </r>
       <r>     1.6708     0.0000   104.0000 </r>
       <r>     1.7163     0.0000   104.0000 </r>
       <r>     1.7619     0.0000   104.0000 </r>
       <r>     1.8075     0.0000   104.0000 </r>
       <r>     1.8531     0.0000   104.0000 </r>
       <r>     1.8986     0.0000   104.0000 </r>
       <r>     1.9442     0.0000   104.0000 </r>
       <r>     1.9898     0.0000   104.0000 </r>
       <r>     2.0354     0.0000   104.0000 </r>
       <r>     2.0810     0.0000   104.0000 </r>
       <r>     2.1265     0.0000   104.0000 </r>
       <r>     2.1721     0.0000   104.0000 </r>
       <r>     2.2177     0.0000   104.0000 </r>
       <r>     2.2633     0.0000   104.0000 </r>
       <r>     2.3088     0.0000   104.0000 </r>
       <r>     2.3544     0.0000   104.0000 </r>
       <r>     2.4000     0.0000   104.0000 </r>
      </set>
     </set>
    </array>
   </total>
  </dos>
 </calculation>
 <structure name="finalpos" >
  <crystal>
   <varray name="basis" >
    <v>      23.85720075       0.00000000       0.00000000 </v>
    <v>       0.00000000      24.26431678       0.00000000 </v>
    <v>       0.00000000       0.00000000      23.71397307 </v>
   </varray>
   <i name="volume">  13727.51334958 </i>
   <varray name="rec_basis" >
    <v>       0.04191607       0.00000000       0.00000000 </v>
    <v>       0.00000000       0.04121278       0.00000000 </v>
    <v>       0.00000000       0.00000000       0.04216923 </v>
   </varray>
  </crystal>
  <varray name="positions" >
   <v>       0.48208929       0.49355579       0.50897162 </v>
   <v>       0.54193286       0.56217415       0.57119001 </v>
   <v>       0.54957515       0.44648521       0.58013293 </v>
   <v>       0.47866142       0.56359989       0.38457330 </v>
   <v>       0.58047750       0.43538075       0.47099240 </v>
   <v>       0.45134786       0.49997207       0.61392454 </v>
   <v>       0.38934496       0.43878425       0.52656268 </v>
   <v>       0.37701495       0.54716699       0.54285341 </v>
   <v>       0.48207580       0.38687065       0.49290330 </v>
   <v>       0.56186996       0.54443897       0.45525565 </v>
   <v>       0.39883755       0.50950779       0.43887906 </v>
   <v>       0.49163417       0.45726604       0.40534525 </v>
   <v>       0.44867710       0.60876704       0.60021690 </v>
   <v>       0.45634964       0.39159074       0.60122298 </v>
   <v>       0.62966834       0.50953918       0.53660557 </v>
   <v>       0.46354915       0.59757290       0.48965377 </v>
  </varray>
 </structure>
</modeling>
