unknown system                          
            1
    23.857201    0.000000    0.000000
     0.000000   24.264317    0.000000
     0.000000    0.000000   23.713973
   Pd
    16
Direct configuration=     1
   0.47453772  0.49164298  0.50591419
   0.54680525  0.55717747  0.56832305
   0.55071383  0.44785718  0.57387819
   0.46317339  0.56219019  0.41700030
   0.58172456  0.43428972  0.46942152
   0.44590772  0.52875115  0.60725641
   0.38356639  0.42115121  0.50892127
   0.37335007  0.52813516  0.52205844
   0.48753315  0.38670010  0.49531749
   0.56136601  0.54005733  0.45839254
   0.39373915  0.48279533  0.42283964
   0.49913757  0.45991248  0.40381497
   0.48301755  0.62626272  0.62024504
   0.44792412  0.42207211  0.59405818
   0.63392631  0.50405633  0.53203438
   0.45668291  0.59962094  0.51980778
Direct configuration=     2
   0.47495132  0.49163399  0.50612643
   0.54764252  0.55780793  0.56902708
   0.55080006  0.44767793  0.57451755
   0.46319054  0.56388957  0.41628891
   0.58289447  0.43323437  0.46866267
   0.44537320  0.52780473  0.60826427
   0.38259629  0.42041851  0.50857675
   0.37229285  0.52866042  0.52239946
   0.48757910  0.38565779  0.49488739
   0.56162323  0.54076491  0.45809269
   0.39259063  0.48247861  0.42211797
   0.49916900  0.45901600  0.40287428
   0.48316594  0.62700113  0.62087152
   0.44761274  0.42175518  0.59562843
   0.63521838  0.50436017  0.53239121
   0.45640545  0.60051117  0.51855678
Direct configuration=     3
   0.47521536  0.49162825  0.50626193
   0.54817704  0.55821042  0.56947655
   0.55085511  0.44756350  0.57492573
   0.46320148  0.56497448  0.41583475
   0.58364135  0.43256061  0.46817821
   0.44503195  0.52720052  0.60890771
   0.38197696  0.41995075  0.50835681
   0.37161790  0.52899575  0.52261717
   0.48760844  0.38499237  0.49461281
   0.56178745  0.54121663  0.45790126
   0.39185741  0.48227641  0.42165724
   0.49918906  0.45844367  0.40227373
   0.48326067  0.62747255  0.62127147
   0.44741394  0.42155285  0.59663089
   0.63604326  0.50455414  0.53261901
   0.45622832  0.60107950  0.51775812
Direct configuration=     4
   0.47519342  0.49156015  0.50605542
   0.54834168  0.55863755  0.56989355
   0.55093035  0.44779237  0.57468377
   0.46309821  0.56519624  0.41534299
   0.58422170  0.43233609  0.46802348
   0.44507281  0.52724475  0.60900202
   0.38205967  0.41984815  0.50840007
   0.37170272  0.52904082  0.52276121
   0.48751463  0.38510838  0.49458394
   0.56173770  0.54109819  0.45816910
   0.39186157  0.48254326  0.42160467
   0.49888024  0.45833376  0.40253380
   0.48311930  0.62711900  0.62091499
   0.44705912  0.42114833  0.59697222
   0.63601991  0.50452717  0.53259190
   0.45629268  0.60113821  0.51775024
Direct configuration=     5
   0.47514633  0.49141403  0.50561234
   0.54869493  0.55955396  0.57078825
   0.55109179  0.44828340  0.57416464
   0.46287663  0.56567204  0.41428790
   0.58546686  0.43185436  0.46769152
   0.44516049  0.52733966  0.60920436
   0.38223711  0.41962802  0.50849290
   0.37188470  0.52913754  0.52307027
   0.48731337  0.38535729  0.49452199
   0.56163094  0.54084406  0.45874376
   0.39187049  0.48311578  0.42149188
   0.49821766  0.45809792  0.40309179
   0.48281600  0.62636046  0.62015015
   0.44629784  0.42028042  0.59770456
   0.63596979  0.50446930  0.53253374
   0.45643075  0.60126416  0.51773333
Direct configuration=     6
   0.47508564  0.49151138  0.50568842
   0.54902101  0.55974835  0.57102465
   0.55085071  0.44851705  0.57386587
   0.46287371  0.56583088  0.41393490
   0.58591361  0.43163005  0.46750511
   0.44524642  0.52700684  0.60911199
   0.38237408  0.41965877  0.50852303
   0.37202663  0.52913961  0.52320804
   0.48733359  0.38556993  0.49452732
   0.56140115  0.54068740  0.45902236
   0.39184675  0.48342507  0.42155585
   0.49802091  0.45798043  0.40343501
   0.48256661  0.62632218  0.62004085
   0.44613138  0.42004275  0.59790283
   0.63586873  0.50449418  0.53251727
   0.45654477  0.60110754  0.51741989
Direct configuration=     7
   0.47490356  0.49180343  0.50591667
   0.54999923  0.56033152  0.57173387
   0.55012746  0.44921801  0.57296957
   0.46286494  0.56630742  0.41287589
   0.58725389  0.43095712  0.46694588
   0.44550422  0.52600836  0.60883486
   0.38278497  0.41975100  0.50861343
   0.37245241  0.52914583  0.52362132
   0.48739425  0.38620784  0.49454333
   0.56071177  0.54021744  0.45985819
   0.39177552  0.48435292  0.42174775
   0.49743066  0.45762796  0.40446464
   0.48181846  0.62620734  0.61971293
   0.44563198  0.41932972  0.59849763
   0.63556554  0.50456880  0.53246786
   0.45688684  0.60063768  0.51647957
Direct configuration=     8
   0.47453940  0.49238753  0.50637316
   0.55195566  0.56149787  0.57315232
   0.54868096  0.45061993  0.57117696
   0.46284741  0.56726048  0.41075786
   0.58993443  0.42961127  0.46582742
   0.44601983  0.52401141  0.60828062
   0.38360676  0.41993547  0.50879423
   0.37330398  0.52915828  0.52444790
   0.48751556  0.38748367  0.49457534
   0.55933300  0.53927752  0.46152983
   0.39163307  0.48620862  0.42213154
   0.49625017  0.45692303  0.40652391
   0.48032214  0.62597766  0.61905709
   0.44463319  0.41790366  0.59968723
   0.63495917  0.50471804  0.53236902
   0.45757097  0.59969797  0.51459893
Direct configuration=     9
   0.47473488  0.49207399  0.50612812
   0.55090547  0.56087179  0.57239092
   0.54945742  0.44986740  0.57213921
   0.46285682  0.56674889  0.41189479
   0.58849555  0.43033371  0.46642779
   0.44574306  0.52508335  0.60857813
   0.38316563  0.41983645  0.50869718
   0.37284687  0.52915160  0.52400421
   0.48745044  0.38679882  0.49455816
   0.56007311  0.53978206  0.46063252
   0.39170953  0.48521251  0.42192553
   0.49688384  0.45730143  0.40541852
   0.48112534  0.62610095  0.61940914
   0.44516933  0.41866915  0.59904867
   0.63528466  0.50463793  0.53242208
   0.45720374  0.60020239  0.51560843
Direct configuration=    10
   0.47433276  0.49233143  0.50639325
   0.55114653  0.56126682  0.57276016
   0.54873825  0.44988739  0.57204758
   0.46322840  0.56675120  0.41146411
   0.58870937  0.43001471  0.46606009
   0.44632093  0.52449680  0.60859073
   0.38324030  0.42010179  0.50870780
   0.37246846  0.52936857  0.52432366
   0.48794871  0.38697051  0.49465632
   0.55949002  0.53974309  0.46063455
   0.39148733  0.48571444  0.42213705
   0.49708733  0.45720103  0.40587663
   0.48044647  0.62591268  0.61911156
   0.44540134  0.41832828  0.59910305
   0.63526335  0.50462357  0.53239237
   0.45779615  0.59996011  0.51502446
Direct configuration=    11
   0.47382752  0.49265490  0.50672637
   0.55144941  0.56176317  0.57322411
   0.54783461  0.44991250  0.57193245
   0.46369528  0.56675411  0.41092297
   0.58897804  0.42961389  0.46559809
   0.44704701  0.52375981  0.60860656
   0.38333413  0.42043517  0.50872114
   0.37199300  0.52964118  0.52472505
   0.48857478  0.38718624  0.49477965
   0.55875738  0.53969413  0.46063711
   0.39120814  0.48634511  0.42240283
   0.49734301  0.45707487  0.40645224
   0.47959347  0.62567613  0.61873766
   0.44569286  0.41789999  0.59917137
   0.63523656  0.50460552  0.53235505
   0.45854050  0.59965567  0.51429072
Direct configuration=    12
   0.47359985  0.49280065  0.50687648
   0.55158589  0.56198683  0.57343316
   0.54742744  0.44992382  0.57188058
   0.46390566  0.56675542  0.41067913
   0.58909910  0.42943328  0.46538991
   0.44737418  0.52342772  0.60861370
   0.38337640  0.42058540  0.50872715
   0.37177876  0.52976402  0.52490591
   0.48885688  0.38728344  0.49483523
   0.55842725  0.53967207  0.46063826
   0.39108234  0.48662929  0.42252259
   0.49745822  0.45701803  0.40671160
   0.47920912  0.62556954  0.61856919
   0.44582422  0.41770701  0.59920216
   0.63522449  0.50459738  0.53233823
   0.45887590  0.59951850  0.51396009
Direct configuration=    13
   0.47298681  0.49267849  0.50668721
   0.55184389  0.56223028  0.57365533
   0.54729485  0.45008961  0.57193092
   0.46420095  0.56658136  0.41002814
   0.58919503  0.42939186  0.46525909
   0.44800801  0.52304985  0.60889059
   0.38355533  0.42088019  0.50884100
   0.37124811  0.53027539  0.52543184
   0.48930431  0.38729630  0.49499099
   0.55825183  0.53963734  0.46077879
   0.39104359  0.48717506  0.42271863
   0.49763396  0.45710128  0.40702243
   0.47835066  0.62529505  0.61815147
   0.44595509  0.41707736  0.59917314
   0.63472872  0.50442965  0.53219912
   0.45950457  0.59948334  0.51352467
Direct configuration=    14
   0.47141519  0.49236533  0.50620200
   0.55250531  0.56285439  0.57422490
   0.54695493  0.45051463  0.57206000
   0.46495796  0.56613513  0.40835924
   0.58944095  0.42928566  0.46492371
   0.44963292  0.52208113  0.60960046
   0.38401405  0.42163591  0.50913285
   0.36988770  0.53158635  0.52678013
   0.49045136  0.38732928  0.49539030
   0.55780210  0.53954832  0.46113905
   0.39094426  0.48857423  0.42322121
   0.49808450  0.45731470  0.40781929
   0.47614989  0.62459133  0.61708060
   0.44629060  0.41546317  0.59909874
   0.63345773  0.50399963  0.53184250
   0.46111626  0.59939319  0.51240838
Direct configuration=    15
   0.47095737  0.49219895  0.50627093
   0.55237030  0.56305558  0.57434722
   0.54691532  0.45101116  0.57216532
   0.46522588  0.56605097  0.40747983
   0.58956369  0.42945605  0.46504750
   0.45008974  0.52122662  0.60952470
   0.38424857  0.42198292  0.50948749
   0.36993790  0.53249963  0.52771140
   0.49055214  0.38691061  0.49559731
   0.55773628  0.53957023  0.46155500
   0.39109325  0.48924406  0.42348037
   0.49801189  0.45742587  0.40731264
   0.47527391  0.62444297  0.61664682
   0.44637611  0.41467239  0.59915350
   0.63326598  0.50381997  0.53179029
   0.46148738  0.59910444  0.51171305
Direct configuration=    16
   0.47022117  0.49193141  0.50638177
   0.55215320  0.56337908  0.57454391
   0.54685163  0.45180959  0.57233468
   0.46565671  0.56591563  0.40606571
   0.58976106  0.42973004  0.46524655
   0.45082432  0.51985255  0.60940288
   0.38462567  0.42254092  0.51005776
   0.37001861  0.53396820  0.52920890
   0.49071420  0.38623738  0.49593019
   0.55763045  0.53960546  0.46222387
   0.39133282  0.49032115  0.42389710
   0.49789513  0.45760464  0.40649792
   0.47386530  0.62420440  0.61594928
   0.44651361  0.41340078  0.59924157
   0.63295765  0.50353106  0.53170634
   0.46208416  0.59864011  0.51059494
Direct configuration=    17
   0.47029258  0.49160458  0.50606725
   0.55200312  0.56358947  0.57465786
   0.54663037  0.45204981  0.57242251
   0.46598966  0.56593274  0.40544153
   0.58961518  0.42985365  0.46532710
   0.45099860  0.51926134  0.60942929
   0.38467164  0.42284641  0.51034152
   0.37027042  0.53464097  0.52989910
   0.49071695  0.38610472  0.49597527
   0.55736854  0.53959407  0.46242115
   0.39144113  0.49080754  0.42425349
   0.49780186  0.45766704  0.40627404
   0.47324291  0.62394161  0.61553167
   0.44669206  0.41277058  0.59938626
   0.63317520  0.50357458  0.53185161
   0.46219549  0.59843330  0.51000373
Direct configuration=    18
   0.47050680  0.49062410  0.50512370
   0.55155287  0.56422064  0.57499971
   0.54596658  0.45277047  0.57268601
   0.46698853  0.56598406  0.40356900
   0.58917755  0.43022448  0.46556873
   0.45152143  0.51748772  0.60950852
   0.38480954  0.42376287  0.51119278
   0.37102584  0.53665930  0.53196969
   0.49072520  0.38570674  0.49611051
   0.55658279  0.53955989  0.46301296
   0.39176604  0.49226672  0.42532269
   0.49752204  0.45785425  0.40560238
   0.47137572  0.62315326  0.61427885
   0.44722740  0.41087995  0.59982033
   0.63382787  0.50370513  0.53228739
   0.46252948  0.59781286  0.50823011
Direct configuration=    19
   0.47093525  0.48866312  0.50323661
   0.55065239  0.56548297  0.57568340
   0.54463901  0.45421179  0.57321301
   0.46898626  0.56608670  0.39982395
   0.58830229  0.43096613  0.46605200
   0.45256709  0.51394046  0.60966698
   0.38508534  0.42559578  0.51289532
   0.37253668  0.54069596  0.53611087
   0.49074169  0.38491078  0.49638099
   0.55501129  0.53949153  0.46419660
   0.39241588  0.49518507  0.42746107
   0.49696242  0.45822866  0.40425907
   0.46764136  0.62157654  0.61177321
   0.44829809  0.40709870  0.60068846
   0.63513320  0.50396623  0.53315897
   0.46319746  0.59657199  0.50468287
Direct configuration=    20
   0.47060909  0.49015592  0.50467316
   0.55133789  0.56452202  0.57516294
   0.54564963  0.45311458  0.57281183
   0.46746548  0.56600856  0.40267488
   0.58896859  0.43040155  0.46568411
   0.45177108  0.51664082  0.60954635
   0.38487539  0.42420047  0.51159926
   0.37138655  0.53762304  0.53295838
   0.49072913  0.38551671  0.49617509
   0.55620760  0.53954357  0.46329555
   0.39192119  0.49296346  0.42583322
   0.49738843  0.45794364  0.40528167
   0.47048415  0.62277682  0.61368064
   0.44748303  0.40997719  0.60002759
   0.63413951  0.50376746  0.53249548
   0.46268896  0.59751661  0.50738322
Direct configuration=    21
   0.47067594  0.48998820  0.50451579
   0.55152388  0.56463660  0.57515831
   0.54558258  0.45318579  0.57295522
   0.46814862  0.56621822  0.40165409
   0.58835930  0.43071517  0.46589139
   0.45182749  0.51593418  0.60947927
   0.38460039  0.42481248  0.51232265
   0.37219994  0.53823116  0.53372133
   0.49062434  0.38553623  0.49597986
   0.55633968  0.53958140  0.46339176
   0.39186725  0.49387520  0.42669018
   0.49737908  0.45769768  0.40495294
   0.46930787  0.62186120  0.61271269
   0.44792211  0.40899011  0.60032065
   0.63413619  0.50422921  0.53297980
   0.46261103  0.59717959  0.50655744
Direct configuration=    22
   0.47087647  0.48948503  0.50404368
   0.55208185  0.56498034  0.57514443
   0.54538143  0.45339941  0.57338537
   0.47019806  0.56684721  0.39859171
   0.58653144  0.43165603  0.46651323
   0.45199674  0.51381428  0.60927803
   0.38377538  0.42664850  0.51449283
   0.37464011  0.54005550  0.53601017
   0.49030995  0.38559481  0.49539418
   0.55673592  0.53969490  0.46368040
   0.39170544  0.49661040  0.42926106
   0.49735102  0.45695983  0.40396674
   0.46577901  0.61911435  0.60980885
   0.44923937  0.40602887  0.60119983
   0.63412624  0.50561443  0.53443278
   0.46237726  0.59616852  0.50408010
Direct configuration=    23
   0.47138696  0.48947313  0.50404439
   0.55207607  0.56502677  0.57503389
   0.54561330  0.45324916  0.57360236
   0.47095318  0.56667462  0.39769058
   0.58609582  0.43213336  0.46689897
   0.45219813  0.51263832  0.60947511
   0.38353171  0.42733998  0.51566387
   0.37483939  0.54051624  0.53665038
   0.48976638  0.38559735  0.49520727
   0.55705366  0.53989551  0.46345855
   0.39182979  0.49788184  0.43007500
   0.49706047  0.45690921  0.40373166
   0.46438198  0.61806462  0.60875843
   0.44975737  0.40515262  0.60123613
   0.63396781  0.50607335  0.53494638
   0.46259367  0.59604633  0.50281041
Direct configuration=    24
   0.47291843  0.48943744  0.50404651
   0.55205875  0.56516606  0.57470225
   0.54630894  0.45279840  0.57425333
   0.47321854  0.56615683  0.39498720
   0.58478895  0.43356534  0.46805621
   0.45280231  0.50911045  0.61006632
   0.38280068  0.42941444  0.51917700
   0.37543720  0.54189847  0.53857100
   0.48813567  0.38560496  0.49464655
   0.55800687  0.54049736  0.46279302
   0.39220284  0.50169615  0.43251681
   0.49618883  0.45675735  0.40302644
   0.46019090  0.61491542  0.60560719
   0.45131137  0.40252387  0.60134504
   0.63349254  0.50745009  0.53648717
   0.46324288  0.59567976  0.49900134
Direct configuration=    25
   0.47598135  0.48936607  0.50405076
   0.55202411  0.56544464  0.57403898
   0.54770020  0.45189689  0.57555527
   0.47774926  0.56512127  0.38958044
   0.58217522  0.43642931  0.47037069
   0.45401068  0.50205471  0.61124876
   0.38133863  0.43356335  0.52620325
   0.37663284  0.54466293  0.54241225
   0.48487425  0.38562018  0.49352510
   0.55991328  0.54170106  0.46146195
   0.39294893  0.50932478  0.43740044
   0.49444554  0.45645363  0.40161600
   0.45180874  0.60861703  0.59930469
   0.45441936  0.39726637  0.60156284
   0.63254200  0.51020357  0.53956876
   0.46454131  0.59494662  0.49138319
Direct configuration=    26
   0.47392212  0.48941406  0.50404791
   0.55204740  0.56525735  0.57448490
   0.54676484  0.45250299  0.57467996
   0.47470322  0.56581749  0.39321545
   0.58393245  0.43450384  0.46881465
   0.45319828  0.50679835  0.61045380
   0.38232158  0.43077400  0.52147944
   0.37582900  0.54280436  0.53982975
   0.48706693  0.38560994  0.49427906
   0.55863158  0.54089180  0.46235684
   0.39244733  0.50419599  0.43411714
   0.49561757  0.45665782  0.40256425
   0.45744414  0.61285150  0.60354191
   0.45232983  0.40080103  0.60141641
   0.63318106  0.50835238  0.53749698
   0.46366837  0.59543952  0.49650493
Direct configuration=    27
   0.47422226  0.48957424  0.50427542
   0.55131865  0.56538700  0.57438770
   0.54708341  0.45222962  0.57501442
   0.47539845  0.56545733  0.39220704
   0.58363515  0.43483615  0.46913972
   0.45343032  0.50579730  0.61060951
   0.38245474  0.43169041  0.52249309
   0.37600969  0.54326577  0.54048847
   0.48639912  0.38556014  0.49409948
   0.55902407  0.54124925  0.46200159
   0.39275816  0.50530980  0.43489374
   0.49519212  0.45672771  0.40248704
   0.45611684  0.61177602  0.60249831
   0.45282330  0.39985777  0.60136685
   0.63330412  0.50860006  0.53780831
   0.46393530  0.59535384  0.49551269
Direct configuration=    28
   0.47512268  0.49005479  0.50495795
   0.54913239  0.56577595  0.57409608
   0.54803912  0.45140952  0.57601779
   0.47748417  0.56437685  0.38918182
   0.58274323  0.43583310  0.47011493
   0.45412644  0.50279415  0.61107666
   0.38285423  0.43443966  0.52553405
   0.37655175  0.54465000  0.54246462
   0.48439567  0.38541072  0.49356072
   0.56020151  0.54232160  0.46093585
   0.39369066  0.50865123  0.43722357
   0.49391578  0.45693737  0.40225538
   0.45213495  0.60854961  0.59936751
   0.45430370  0.39702796  0.60121816
   0.63367332  0.50934308  0.53874231
   0.46473609  0.59509681  0.49253598
Direct configuration=    29
   0.47533338  0.49016724  0.50511767
   0.54862079  0.56586697  0.57402784
   0.54826276  0.45121761  0.57625259
   0.47797224  0.56412401  0.38847388
   0.58253452  0.43606640  0.47034314
   0.45428934  0.50209138  0.61118597
   0.38294772  0.43508302  0.52624566
   0.37667859  0.54497393  0.54292706
   0.48392684  0.38537576  0.49343465
   0.56047705  0.54257254  0.46068646
   0.39390888  0.50943315  0.43776877
   0.49361711  0.45698643  0.40220117
   0.45120315  0.60779460  0.59863487
   0.45465013  0.39636576  0.60118337
   0.63375972  0.50951696  0.53896088
   0.46492348  0.59503666  0.49183939
Direct configuration=    30
   0.47602054  0.49027103  0.50541395
   0.54761260  0.56552142  0.57361770
   0.54861447  0.45093240  0.57645597
   0.47837267  0.56376488  0.38770120
   0.58225016  0.43608271  0.47045463
   0.45428674  0.50175618  0.61141178
   0.38355479  0.43579688  0.52655950
   0.37656810  0.54524798  0.54333979
   0.48343748  0.38561538  0.49326773
   0.56083831  0.54275745  0.46048642
   0.39426432  0.50986544  0.43792451
   0.49318982  0.45712340  0.40276829
   0.45048783  0.60764363  0.59847271
   0.45500323  0.39555292  0.60107672
   0.63360541  0.50963238  0.53890577
   0.46499923  0.59510831  0.49142670
Direct configuration=    31
   0.47808200  0.49058239  0.50630280
   0.54458802  0.56448478  0.57238727
   0.54966958  0.45007680  0.57706612
   0.47957397  0.56268748  0.38538317
   0.58139708  0.43613167  0.47078910
   0.45427897  0.50075059  0.61208921
   0.38537598  0.43793848  0.52750101
   0.37623664  0.54607015  0.54457797
   0.48196941  0.38633425  0.49276697
   0.56192212  0.54331219  0.45988630
   0.39533063  0.51116230  0.43839175
   0.49190796  0.45753431  0.40446965
   0.44834188  0.60719072  0.59798623
   0.45606252  0.39311439  0.60075679
   0.63314248  0.50997865  0.53874045
   0.46522646  0.59532326  0.49018860
Direct configuration=    32
   0.47858145  0.49148996  0.50680720
   0.54410355  0.56388358  0.57194452
   0.54985747  0.44936217  0.57761534
   0.47990889  0.56262538  0.38525180
   0.58121440  0.43587196  0.47071257
   0.45397236  0.50039362  0.61240532
   0.38611078  0.43827099  0.52741504
   0.37582668  0.54605357  0.54431412
   0.48166281  0.38630069  0.49253712
   0.56212987  0.54350524  0.45926734
   0.39593780  0.51121060  0.43851188
   0.49150895  0.45732991  0.40485825
   0.44830763  0.60796583  0.59861935
   0.45652141  0.39283212  0.60062693
   0.63261229  0.51024152  0.53859455
   0.46484936  0.59533526  0.48980204
Direct configuration=    33
   0.47912337  0.49247471  0.50735450
   0.54357787  0.56323125  0.57146412
   0.55006134  0.44858676  0.57821127
   0.48027229  0.56255799  0.38510926
   0.58101617  0.43559017  0.47062953
   0.45363968  0.50000630  0.61274831
   0.38690807  0.43863178  0.52732176
   0.37538186  0.54603558  0.54402784
   0.48133013  0.38626427  0.49228771
   0.56235528  0.54371471  0.45859576
   0.39659660  0.51126300  0.43864223
   0.49107602  0.45710813  0.40527990
   0.44827048  0.60880686  0.59930632
   0.45701932  0.39252586  0.60048603
   0.63203702  0.51052673  0.53843624
   0.46444020  0.59534828  0.48938260
Direct configuration=    34
   0.48017634  0.49248550  0.50806837
   0.54284905  0.56286697  0.57133056
   0.55009229  0.44774609  0.57855641
   0.48059203  0.56263242  0.38502334
   0.58069687  0.43543656  0.47072784
   0.45296874  0.50028108  0.61316094
   0.38777189  0.43864662  0.52702968
   0.37539150  0.54639338  0.54386794
   0.48117676  0.38660277  0.49214056
   0.56251497  0.54380491  0.45758498
   0.39715218  0.51103040  0.43857610
   0.49073712  0.45679735  0.40561756
   0.44857096  0.60895932  0.59952598
   0.45745461  0.39228665  0.60038811
   0.63136227  0.51057230  0.53811200
   0.46359812  0.59613009  0.48957301
Direct configuration=    35
   0.48081066  0.49249200  0.50849841
   0.54241001  0.56264753  0.57125010
   0.55011094  0.44723967  0.57876433
   0.48078465  0.56267726  0.38497159
   0.58050453  0.43534402  0.47078707
   0.45256456  0.50044660  0.61340951
   0.38829227  0.43865557  0.52685373
   0.37539730  0.54660892  0.54377161
   0.48108437  0.38680669  0.49205192
   0.56261117  0.54385924  0.45697608
   0.39748685  0.51089027  0.43853626
   0.49053297  0.45661014  0.40582096
   0.44875196  0.60905116  0.59965831
   0.45771683  0.39214255  0.60032912
   0.63095579  0.51059974  0.53791667
   0.46309085  0.59660105  0.48968771
Direct configuration=    36
   0.48138903  0.49321377  0.50860993
   0.54199237  0.56253400  0.57119127
   0.55030897  0.44689243  0.57906209
   0.48070248  0.56275095  0.38505378
   0.58039563  0.43538891  0.47092803
   0.45201876  0.50061548  0.61366879
   0.38863473  0.43870853  0.52663152
   0.37590370  0.54695028  0.54369418
   0.48117926  0.38654373  0.49200202
   0.56237281  0.54384075  0.45651455
   0.39806888  0.51062112  0.43876172
   0.49048509  0.45665329  0.40564578
   0.44880006  0.60885561  0.59963081
   0.45767651  0.39198573  0.60051273
   0.63046742  0.51035090  0.53757440
   0.46270998  0.59676694  0.48980177
Direct configuration=    37
   0.48142727  0.49326148  0.50861730
   0.54196476  0.56252650  0.57118738
   0.55032206  0.44686947  0.57908178
   0.48069705  0.56275582  0.38505922
   0.58038844  0.43539188  0.47093735
   0.45198268  0.50062665  0.61368593
   0.38865737  0.43871203  0.52661683
   0.37593718  0.54697285  0.54368906
   0.48118553  0.38652635  0.49199872
   0.56235705  0.54383953  0.45648403
   0.39810735  0.51060333  0.43877663
   0.49048193  0.45665614  0.40563420
   0.44880325  0.60884268  0.59962899
   0.45767385  0.39197536  0.60052487
   0.63043514  0.51033445  0.53755177
   0.46268480  0.59677791  0.48980931
Direct configuration=    38
   0.48164710  0.49329095  0.50882719
   0.54197733  0.56244769  0.57117313
   0.55021383  0.44682628  0.57929164
   0.48035559  0.56292749  0.38502281
   0.58032133  0.43540679  0.47097474
   0.45173966  0.50034173  0.61374427
   0.38893519  0.43886337  0.52652629
   0.37629433  0.54707644  0.54359186
   0.48136439  0.38646567  0.49211962
   0.56223806  0.54393850  0.45628687
   0.39838495  0.51035469  0.43897614
   0.49063483  0.45672305  0.40538861
   0.44863728  0.60889153  0.59977433
   0.45743504  0.39202346  0.60066611
   0.63023478  0.51010596  0.53730146
   0.46269202  0.59698881  0.48961832
Direct configuration=    39
   0.48194555  0.49333096  0.50911212
   0.54199438  0.56234069  0.57115377
   0.55006689  0.44676763  0.57957656
   0.47989203  0.56316054  0.38497337
   0.58023023  0.43542704  0.47102551
   0.45140974  0.49995493  0.61382348
   0.38931236  0.43906884  0.52640337
   0.37677919  0.54721707  0.54345989
   0.48160721  0.38638329  0.49228375
   0.56207651  0.54407287  0.45601919
   0.39876181  0.51001713  0.43924699
   0.49084241  0.45681390  0.40505519
   0.44841195  0.60895785  0.59997164
   0.45711084  0.39208876  0.60085786
   0.62996277  0.50979577  0.53696164
   0.46270182  0.59727514  0.48935903
Direct configuration=    40
   0.48228606  0.49334293  0.50899908
   0.54185167  0.56235782  0.57119126
   0.54989912  0.44667075  0.57991039
   0.47938351  0.56336363  0.38479251
   0.58014206  0.43540012  0.47097447
   0.45122852  0.49985081  0.61400984
   0.38943761  0.43905417  0.52638512
   0.37701757  0.54730193  0.54330417
   0.48185470  0.38648738  0.49244876
   0.56189577  0.54421727  0.45577329
   0.39897334  0.50975919  0.43927873
   0.49113376  0.45694655  0.40505204
   0.44839320  0.60889548  0.60007992
   0.45676544  0.39194930  0.60103906
   0.62992128  0.50956648  0.53670877
   0.46292209  0.59750862  0.48933597
Direct configuration=    41
   0.48241832  0.49334758  0.50895518
   0.54179623  0.56236447  0.57120582
   0.54983396  0.44663311  0.58004006
   0.47918598  0.56344251  0.38472225
   0.58010781  0.43538966  0.47095464
   0.45115812  0.49981036  0.61408223
   0.38948626  0.43904847  0.52637802
   0.37711017  0.54733490  0.54324369
   0.48195083  0.38652781  0.49251286
   0.56182557  0.54427336  0.45567777
   0.39905551  0.50965899  0.43929106
   0.49124692  0.45699808  0.40505081
   0.44838592  0.60887125  0.60012198
   0.45663127  0.39189513  0.60110944
   0.62990517  0.50947741  0.53661055
   0.46300766  0.59759931  0.48932701
Direct configuration=    42
   0.48234193  0.49349081  0.50902203
   0.54175513  0.56229793  0.57119113
   0.54975039  0.44659297  0.58014093
   0.47895386  0.56351127  0.38460151
   0.58024990  0.43536021  0.47093606
   0.45122808  0.49995534  0.61401032
   0.38943334  0.43893414  0.52646523
   0.37710051  0.54728359  0.54310712
   0.48199332  0.38661610  0.49265061
   0.56184842  0.54438292  0.45551863
   0.39898662  0.50961744  0.43912224
   0.49140126  0.45708114  0.40512302
   0.44851837  0.60877056  0.60012056
   0.45649138  0.39171167  0.60116453
   0.62982665  0.50948468  0.53659200
   0.46322654  0.59758164  0.48951745
Direct configuration=    43
   0.48229709  0.49357490  0.50906128
   0.54173100  0.56225886  0.57118250
   0.54970133  0.44656940  0.58020015
   0.47881759  0.56355163  0.38453062
   0.58033331  0.43534292  0.47092515
   0.45126915  0.50004045  0.61396810
   0.38940227  0.43886702  0.52651642
   0.37709484  0.54725347  0.54302694
   0.48201827  0.38666793  0.49273148
   0.56186184  0.54444724  0.45542521
   0.39894618  0.50959304  0.43902314
   0.49149186  0.45712989  0.40516541
   0.44859613  0.60871145  0.60011973
   0.45640926  0.39160398  0.60119688
   0.62978055  0.50948895  0.53658112
   0.46335504  0.59757127  0.48962925
Direct configuration=    44
   0.48209660  0.49355646  0.50897477
   0.54192576  0.56217713  0.57118974
   0.54957959  0.44648817  0.58013530
   0.47866692  0.56359819  0.38457180
   0.58047242  0.43537942  0.47099003
   0.45134509  0.49997448  0.61392608
   0.38934698  0.43878717  0.52656105
   0.37701776  0.54717003  0.54285952
   0.48207377  0.38686351  0.49289725
   0.56186967  0.54443926  0.45526162
   0.39884137  0.50951079  0.43888413
   0.49162916  0.45726124  0.40533892
   0.44867425  0.60876508  0.60021348
   0.45635174  0.39159121  0.60122206
   0.62967229  0.50953741  0.53660471
   0.46354232  0.59757284  0.48965291
Direct configuration=    45
   0.48208929  0.49355579  0.50897162
   0.54193286  0.56217415  0.57119001
   0.54957515  0.44648521  0.58013293
   0.47866142  0.56359989  0.38457330
   0.58047750  0.43538075  0.47099240
   0.45134786  0.49997207  0.61392454
   0.38934496  0.43878425  0.52656268
   0.37701495  0.54716699  0.54285341
   0.48207580  0.38687065  0.49290330
   0.56186996  0.54443897  0.45525565
   0.39883755  0.50950779  0.43887906
   0.49163417  0.45726604  0.40534525
   0.44867710  0.60876704  0.60021690
   0.45634964  0.39159074  0.60122298
   0.62966834  0.50953918  0.53660557
   0.46354915  0.59757290  0.48965377
