   5   5   0   0
  0.2084901E+04  0.2400468E-08  0.1946825E-08  0.2230657E-08  0.5000000E-15
   1.0000000000000000E-004
  CAR 
 unknown system                          
      1.68749233    -10.01526661  301     -4.29797321      1.00000000
    -10.015  0.0000E+00  0.0000E+00  0.0000E+00  0.0000E+00
     -9.976  0.0000E+00  0.0000E+00  0.0000E+00  0.0000E+00
     -9.937  0.0000E+00  0.0000E+00  0.0000E+00  0.0000E+00
     -9.898  0.0000E+00  0.0000E+00  0.0000E+00  0.0000E+00
     -9.859  0.0000E+00  0.0000E+00  0.0000E+00  0.0000E+00
     -9.820  0.0000E+00  0.0000E+00  0.0000E+00  0.0000E+00
     -9.781  0.0000E+00  0.0000E+00  0.0000E+00  0.0000E+00
     -9.742  0.0000E+00  0.0000E+00  0.0000E+00  0.0000E+00
     -9.703  0.0000E+00  0.0000E+00  0.0000E+00  0.0000E+00
     -9.664  0.0000E+00  0.0000E+00  0.0000E+00  0.0000E+00
     -9.625  0.0000E+00 -0.4215E-29  0.0000E+00 -0.1644E-30
     -9.586  0.0000E+00 -0.8728E-28  0.0000E+00 -0.3569E-29
     -9.547  0.0000E+00 -0.1748E-26  0.0000E+00 -0.7174E-28
     -9.508 -0.4607E-29 -0.3240E-25 -0.1797E-30 -0.1336E-26
     -9.469 -0.9516E-28 -0.5561E-24 -0.3892E-29 -0.2303E-25
     -9.430 -0.1901E-26 -0.8834E-23 -0.7806E-28 -0.3677E-24
     -9.391 -0.3517E-25 -0.1299E-21 -0.1450E-26 -0.5436E-23
     -9.352 -0.6023E-24 -0.1768E-20 -0.2494E-25 -0.7442E-22
     -9.313 -0.9548E-23 -0.2228E-19 -0.3974E-24 -0.9435E-21
     -9.274 -0.1401E-21 -0.2597E-18 -0.5863E-23 -0.1107E-19
     -9.235 -0.1903E-20 -0.2801E-17 -0.8009E-22 -0.1203E-18
     -9.196 -0.2392E-19 -0.2653E-16 -0.1013E-20 -0.1155E-17
     -9.157 -0.2782E-18 -0.2509E-15 -0.1187E-19 -0.1094E-16
     -9.118 -0.2994E-17 -0.2131E-14 -0.1287E-18 -0.9406E-16
     -9.079 -0.2839E-16 -0.1678E-13 -0.1236E-17 -0.7488E-15
     -9.040 -0.2661E-15 -0.1222E-12 -0.1162E-16 -0.5515E-14
     -9.001 -0.2264E-14 -0.8218E-12 -0.9993E-16 -0.3757E-13
     -8.962 -0.1778E-13 -0.5106E-11 -0.7935E-15 -0.2368E-12
     -8.923 -0.1291E-12 -0.2930E-10 -0.5831E-14 -0.1380E-11
     -8.884 -0.8667E-12 -0.1552E-09 -0.3964E-13 -0.7433E-11
     -8.845 -0.5373E-11 -0.7583E-09 -0.2492E-12 -0.3701E-10
     -8.806 -0.3076E-10 -0.3417E-08 -0.1449E-11 -0.1703E-09
     -8.767 -0.1625E-09 -0.1418E-07 -0.7790E-11 -0.7236E-09
     -8.728 -0.7924E-09 -0.5422E-07 -0.3870E-10 -0.2839E-08
     -8.689 -0.3562E-08 -0.1906E-06 -0.1777E-09 -0.1027E-07
     -8.650 -0.1475E-07 -0.6154E-06 -0.7532E-09 -0.3428E-07
     -8.611 -0.5626E-07 -0.1822E-05 -0.2948E-08 -0.1054E-06
     -8.572 -0.1973E-06 -0.4936E-05 -0.1064E-07 -0.2979E-06
     -8.533 -0.6355E-06 -0.1220E-04 -0.3544E-07 -0.7736E-06
     -8.494 -0.1877E-05 -0.2737E-04 -0.1087E-06 -0.1841E-05
     -8.455 -0.5071E-05 -0.5542E-04 -0.3065E-06 -0.4003E-05
     -8.416 -0.1250E-04 -0.1003E-03 -0.7940E-06 -0.7914E-05
     -8.377 -0.2797E-04 -0.1592E-03 -0.1885E-05 -0.1412E-04
     -8.338 -0.5646E-04 -0.2138E-03 -0.4088E-05 -0.2247E-04
     -8.299 -0.1018E-03 -0.2213E-03 -0.8059E-05 -0.3110E-04
     -8.260 -0.1610E-03 -0.1119E-03 -0.1434E-04 -0.3546E-04
     -8.221 -0.2153E-03  0.1962E-03 -0.2274E-04 -0.2781E-04
     -8.182 -0.2211E-03  0.7627E-03 -0.3136E-04  0.1943E-05
     -8.143 -0.1087E-03  0.1579E-02 -0.3560E-04  0.6352E-04
     -8.104  0.2024E-03  0.2533E-02 -0.2771E-04  0.1623E-03
     -8.065  0.7680E-03  0.3423E-02  0.2256E-05  0.2959E-03
     -8.026  0.1573E-02  0.4008E-02  0.6364E-04  0.4522E-03
     -7.987  0.2502E-02  0.4109E-02  0.1612E-03  0.6125E-03
     -7.948  0.3349E-02  0.3682E-02  0.2919E-03  0.7561E-03
     -7.909  0.3886E-02  0.2851E-02  0.4435E-03  0.8674E-03
     -7.870  0.3967E-02  0.1867E-02  0.5982E-03  0.9402E-03
     -7.831  0.3605E-02  0.1021E-02  0.7389E-03  0.9800E-03
     -7.792  0.2992E-02  0.5575E-03  0.8556E-03  0.1002E-02
     -7.753  0.2422E-02  0.6060E-03  0.9500E-03  0.1025E-02
     -7.714  0.2167E-02  0.1151E-02  0.1035E-02  0.1070E-02
     -7.675  0.2346E-02  0.2035E-02  0.1126E-02  0.1150E-02
     -7.636  0.2873E-02  0.2994E-02  0.1238E-02  0.1266E-02
     -7.597  0.3493E-02  0.3732E-02  0.1374E-02  0.1412E-02
     -7.558  0.3901E-02  0.4014E-02  0.1527E-02  0.1569E-02
     -7.519  0.3873E-02  0.3753E-02  0.1678E-02  0.1715E-02
     -7.480  0.3354E-02  0.3046E-02  0.1808E-02  0.1834E-02
     -7.441  0.2465E-02  0.2144E-02  0.1905E-02  0.1917E-02
     -7.402  0.1438E-02  0.1360E-02  0.1961E-02  0.1971E-02
     -7.363  0.5287E-03  0.9591E-03  0.1981E-02  0.2008E-02
     -7.324 -0.5486E-04  0.1071E-02  0.1979E-02  0.2050E-02
     -7.285 -0.1738E-03  0.1646E-02  0.1972E-02  0.2114E-02
     -7.246  0.2403E-03  0.2473E-02  0.1982E-02  0.2210E-02
     -7.207  0.1187E-02  0.3256E-02  0.2028E-02  0.2337E-02
     -7.168  0.2588E-02  0.3730E-02  0.2129E-02  0.2483E-02
     -7.129  0.4278E-02  0.3767E-02  0.2296E-02  0.2630E-02
     -7.090  0.6019E-02  0.3433E-02  0.2531E-02  0.2764E-02
     -7.051  0.7544E-02  0.2961E-02  0.2825E-02  0.2879E-02
     -7.012  0.8617E-02  0.2641E-02  0.3161E-02  0.2982E-02
     -6.973  0.9089E-02  0.2696E-02  0.3516E-02  0.3087E-02
     -6.934  0.8916E-02  0.3197E-02  0.3864E-02  0.3212E-02
     -6.895  0.8165E-02  0.4059E-02  0.4182E-02  0.3371E-02
     -6.856  0.6994E-02  0.5108E-02  0.4455E-02  0.3570E-02
     -6.817  0.5636E-02  0.6161E-02  0.4675E-02  0.3810E-02
     -6.778  0.4365E-02  0.7071E-02  0.4845E-02  0.4086E-02
     -6.738  0.3424E-02  0.7728E-02  0.4979E-02  0.4387E-02
     -6.699  0.2956E-02  0.8038E-02  0.5094E-02  0.4701E-02
     -6.660  0.2947E-02  0.7933E-02  0.5209E-02  0.5010E-02
     -6.621  0.3232E-02  0.7405E-02  0.5335E-02  0.5299E-02
     -6.582  0.3585E-02  0.6548E-02  0.5475E-02  0.5555E-02
     -6.543  0.3833E-02  0.5563E-02  0.5624E-02  0.5772E-02
     -6.504  0.3941E-02  0.4693E-02  0.5778E-02  0.5955E-02
     -6.465  0.4010E-02  0.4117E-02  0.5934E-02  0.6115E-02
     -6.426  0.4189E-02  0.3879E-02  0.6098E-02  0.6267E-02
     -6.387  0.4568E-02  0.3886E-02  0.6276E-02  0.6418E-02
     -6.348  0.5114E-02  0.3981E-02  0.6476E-02  0.6574E-02
     -6.309  0.5678E-02  0.4050E-02  0.6697E-02  0.6732E-02
     -6.270  0.6071E-02  0.4064E-02  0.6934E-02  0.6890E-02
     -6.231  0.6150E-02  0.4065E-02  0.7174E-02  0.7049E-02
     -6.192  0.5883E-02  0.4086E-02  0.7403E-02  0.7208E-02
     -6.153  0.5364E-02  0.4113E-02  0.7613E-02  0.7368E-02
     -6.114  0.4782E-02  0.4093E-02  0.7799E-02  0.7528E-02
     -6.075  0.4345E-02  0.4004E-02  0.7969E-02  0.7684E-02
     -6.036  0.4202E-02  0.3898E-02  0.8132E-02  0.7836E-02
     -5.997  0.4388E-02  0.3895E-02  0.8304E-02  0.7988E-02
     -5.958  0.4830E-02  0.4117E-02  0.8492E-02  0.8149E-02
     -5.919  0.5386E-02  0.4610E-02  0.8702E-02  0.8329E-02
     -5.880  0.5921E-02  0.5320E-02  0.8933E-02  0.8536E-02
     -5.841  0.6339E-02  0.6126E-02  0.9180E-02  0.8775E-02
     -5.802  0.6591E-02  0.6892E-02  0.9437E-02  0.9044E-02
     -5.763  0.6655E-02  0.7518E-02  0.9697E-02  0.9337E-02
     -5.724  0.6519E-02  0.7949E-02  0.9951E-02  0.9647E-02
     -5.685  0.6196E-02  0.8167E-02  0.1019E-01  0.9966E-02
     -5.646  0.5748E-02  0.8169E-02  0.1042E-01  0.1028E-01
     -5.607  0.5307E-02  0.7968E-02  0.1062E-01  0.1060E-01
     -5.568  0.5059E-02  0.7604E-02  0.1082E-01  0.1089E-01
     -5.529  0.5168E-02  0.7154E-02  0.1102E-01  0.1117E-01
     -5.490  0.5707E-02  0.6742E-02  0.1125E-01  0.1143E-01
     -5.451  0.6601E-02  0.6521E-02  0.1150E-01  0.1169E-01
     -5.412  0.7666E-02  0.6630E-02  0.1180E-01  0.1195E-01
     -5.373  0.8684E-02  0.7126E-02  0.1214E-01  0.1223E-01
     -5.334  0.9492E-02  0.7934E-02  0.1251E-01  0.1253E-01
     -5.295  0.1001E-01  0.8844E-02  0.1290E-01  0.1288E-01
     -5.256  0.1022E-01  0.9566E-02  0.1330E-01  0.1325E-01
     -5.217  0.1013E-01  0.9847E-02  0.1370E-01  0.1364E-01
     -5.178  0.9745E-02  0.9577E-02  0.1408E-01  0.1401E-01
     -5.139  0.9131E-02  0.8842E-02  0.1443E-01  0.1436E-01
     -5.100  0.8410E-02  0.7892E-02  0.1476E-01  0.1466E-01
     -5.061  0.7762E-02  0.7040E-02  0.1506E-01  0.1494E-01
     -5.022  0.7382E-02  0.6552E-02  0.1535E-01  0.1519E-01
     -4.983  0.7432E-02  0.6588E-02  0.1564E-01  0.1545E-01
     -4.944  0.8025E-02  0.7212E-02  0.1595E-01  0.1573E-01
     -4.905  0.9233E-02  0.8451E-02  0.1631E-01  0.1606E-01
     -4.866  0.1107E-01  0.1031E-01  0.1675E-01  0.1646E-01
     -4.827  0.1343E-01  0.1274E-01  0.1727E-01  0.1696E-01
     -4.788  0.1607E-01  0.1554E-01  0.1790E-01  0.1757E-01
     -4.749  0.1857E-01  0.1831E-01  0.1862E-01  0.1828E-01
     -4.710  0.2049E-01  0.2057E-01  0.1942E-01  0.1908E-01
     -4.671  0.2150E-01  0.2183E-01  0.2026E-01  0.1994E-01
     -4.632  0.2147E-01  0.2189E-01  0.2110E-01  0.2079E-01
     -4.593  0.2051E-01  0.2081E-01  0.2190E-01  0.2160E-01
     -4.554  0.1884E-01  0.1892E-01  0.2263E-01  0.2234E-01
     -4.515  0.1668E-01  0.1660E-01  0.2328E-01  0.2299E-01
     -4.476  0.1415E-01  0.1414E-01  0.2383E-01  0.2354E-01
     -4.437  0.1137E-01  0.1170E-01  0.2428E-01  0.2399E-01
     -4.398  0.8538E-02  0.9349E-02  0.2461E-01  0.2436E-01
     -4.359  0.5936E-02  0.7179E-02  0.2484E-01  0.2464E-01
     -4.320  0.3911E-02  0.5357E-02  0.2499E-01  0.2485E-01
     -4.281  0.2736E-02  0.4090E-02  0.2510E-01  0.2501E-01
     -4.242  0.2502E-02  0.3531E-02  0.2520E-01  0.2515E-01
     -4.203  0.3068E-02  0.3681E-02  0.2532E-01  0.2529E-01
     -4.164  0.4116E-02  0.4361E-02  0.2548E-01  0.2546E-01
     -4.125  0.5254E-02  0.5264E-02  0.2568E-01  0.2566E-01
     -4.086  0.6126E-02  0.6048E-02  0.2592E-01  0.2590E-01
     -4.047  0.6497E-02  0.6438E-02  0.2618E-01  0.2615E-01
     -4.008  0.6278E-02  0.6288E-02  0.2642E-01  0.2640E-01
     -3.969  0.5522E-02  0.5605E-02  0.2664E-01  0.2662E-01
     -3.930  0.4390E-02  0.4521E-02  0.2681E-01  0.2679E-01
     -3.891  0.3104E-02  0.3248E-02  0.2693E-01  0.2692E-01
     -3.852  0.1884E-02  0.2012E-02  0.2700E-01  0.2700E-01
     -3.813  0.8947E-03  0.9912E-03  0.2704E-01  0.2704E-01
     -3.774  0.2128E-03  0.2742E-03  0.2705E-01  0.2705E-01
     -3.735 -0.1757E-03 -0.1421E-03  0.2704E-01  0.2704E-01
     -3.696 -0.3459E-03 -0.3283E-03  0.2703E-01  0.2703E-01
     -3.657 -0.3923E-03 -0.3798E-03  0.2701E-01  0.2701E-01
     -3.618 -0.3882E-03 -0.3767E-03  0.2699E-01  0.2700E-01
     -3.579 -0.3612E-03 -0.3576E-03  0.2698E-01  0.2698E-01
     -3.540 -0.2848E-03 -0.3082E-03  0.2697E-01  0.2697E-01
     -3.501 -0.8909E-04 -0.1673E-03  0.2697E-01  0.2697E-01
     -3.462  0.3099E-03  0.1503E-03  0.2698E-01  0.2697E-01
     -3.423  0.9633E-03  0.7130E-03  0.2702E-01  0.2700E-01
     -3.384  0.1842E-02  0.1523E-02  0.2709E-01  0.2706E-01
     -3.345  0.2811E-02  0.2483E-02  0.2720E-01  0.2716E-01
     -3.306  0.3655E-02  0.3396E-02  0.2734E-01  0.2729E-01
     -3.267  0.4146E-02  0.4030E-02  0.2750E-01  0.2745E-01
     -3.228  0.4141E-02  0.4202E-02  0.2766E-01  0.2761E-01
     -3.189  0.3640E-02  0.3860E-02  0.2781E-01  0.2776E-01
     -3.150  0.2792E-02  0.3107E-02  0.2791E-01  0.2788E-01
     -3.111  0.1824E-02  0.2154E-02  0.2799E-01  0.2797E-01
     -3.072  0.9545E-03  0.1230E-02  0.2802E-01  0.2801E-01
     -3.033  0.3177E-03  0.5051E-03  0.2804E-01  0.2803E-01
     -2.994 -0.5410E-04  0.4486E-04  0.2803E-01  0.2803E-01
     -2.955 -0.2074E-03 -0.1748E-03  0.2802E-01  0.2803E-01
     -2.916 -0.2227E-03 -0.2279E-03  0.2802E-01  0.2802E-01
     -2.877 -0.1750E-03 -0.1946E-03  0.2801E-01  0.2801E-01
     -2.838 -0.1146E-03 -0.1347E-03  0.2800E-01  0.2801E-01
     -2.799 -0.6537E-04 -0.8029E-04  0.2800E-01  0.2800E-01
     -2.760 -0.3320E-04 -0.4237E-04  0.2800E-01  0.2800E-01
     -2.721 -0.1521E-04 -0.2009E-04  0.2800E-01  0.2800E-01
     -2.682 -0.6411E-05 -0.8709E-05  0.2800E-01  0.2800E-01
     -2.643 -0.2764E-05 -0.3730E-05  0.2800E-01  0.2800E-01
     -2.604 -0.2002E-05 -0.2354E-05  0.2800E-01  0.2800E-01
     -2.565 -0.3582E-05 -0.3657E-05  0.2800E-01  0.2800E-01
     -2.526 -0.8619E-05 -0.8523E-05  0.2800E-01  0.2800E-01
     -2.486 -0.2004E-04 -0.1973E-04  0.2800E-01  0.2800E-01
     -2.447 -0.4254E-04 -0.4182E-04  0.2800E-01  0.2800E-01
     -2.408 -0.8137E-04 -0.7982E-04  0.2799E-01  0.2799E-01
     -2.369 -0.1385E-03 -0.1353E-03  0.2799E-01  0.2799E-01
     -2.330 -0.2054E-03 -0.1993E-03  0.2798E-01  0.2798E-01
     -2.291 -0.2539E-03 -0.2427E-03  0.2797E-01  0.2797E-01
     -2.252 -0.2295E-03 -0.2108E-03  0.2796E-01  0.2796E-01
     -2.213 -0.5633E-04 -0.2860E-04  0.2796E-01  0.2796E-01
     -2.174  0.3420E-03  0.3755E-03  0.2797E-01  0.2798E-01
     -2.135  0.1008E-02  0.1033E-02  0.2801E-01  0.2802E-01
     -2.096  0.1917E-02  0.1905E-02  0.2809E-01  0.2809E-01
     -2.057  0.2971E-02  0.2874E-02  0.2820E-01  0.2820E-01
     -2.018  0.4021E-02  0.3784E-02  0.2836E-01  0.2835E-01
     -1.979  0.4919E-02  0.4506E-02  0.2855E-01  0.2853E-01
     -1.940  0.5558E-02  0.4979E-02  0.2877E-01  0.2872E-01
     -1.901  0.5886E-02  0.5221E-02  0.2900E-01  0.2892E-01
     -1.862  0.5888E-02  0.5281E-02  0.2923E-01  0.2913E-01
     -1.823  0.5564E-02  0.5173E-02  0.2944E-01  0.2933E-01
     -1.784  0.4927E-02  0.4868E-02  0.2964E-01  0.2952E-01
     -1.745  0.4025E-02  0.4318E-02  0.2979E-01  0.2969E-01
     -1.706  0.2960E-02  0.3517E-02  0.2991E-01  0.2983E-01
     -1.667  0.1874E-02  0.2542E-02  0.2998E-01  0.2993E-01
     -1.628  0.9133E-03  0.1534E-02  0.3002E-01  0.2999E-01
     -1.589  0.1826E-03  0.6514E-03  0.3003E-01  0.3001E-01
     -1.550 -0.2712E-03  0.1667E-04  0.3001E-01  0.3001E-01
     -1.511 -0.4420E-03 -0.2986E-03  0.3000E-01  0.3000E-01
     -1.472 -0.3331E-03 -0.2645E-03  0.2998E-01  0.2999E-01
     -1.433  0.5984E-04  0.1219E-03  0.2999E-01  0.3000E-01
     -1.394  0.7326E-03  0.8301E-03  0.3002E-01  0.3003E-01
     -1.355  0.1631E-02  0.1770E-02  0.3008E-01  0.3010E-01
     -1.316  0.2616E-02  0.2771E-02  0.3018E-01  0.3021E-01
     -1.277  0.3474E-02  0.3601E-02  0.3032E-01  0.3035E-01
     -1.238  0.3977E-02  0.4036E-02  0.3047E-01  0.3050E-01
     -1.199  0.3979E-02  0.3948E-02  0.3063E-01  0.3066E-01
     -1.160  0.3495E-02  0.3375E-02  0.3076E-01  0.3079E-01
     -1.121  0.2714E-02  0.2520E-02  0.3087E-01  0.3089E-01
     -1.082  0.1939E-02  0.1688E-02  0.3094E-01  0.3095E-01
     -1.043  0.1470E-02  0.1176E-02  0.3100E-01  0.3100E-01
     -1.004  0.1490E-02  0.1164E-02  0.3106E-01  0.3104E-01
     -0.965  0.1991E-02  0.1657E-02  0.3114E-01  0.3111E-01
     -0.926  0.2777E-02  0.2480E-02  0.3125E-01  0.3121E-01
     -0.887  0.3544E-02  0.3340E-02  0.3138E-01  0.3134E-01
     -0.848  0.3993E-02  0.3929E-02  0.3154E-01  0.3149E-01
     -0.809  0.3945E-02  0.4037E-02  0.3169E-01  0.3165E-01
     -0.770  0.3400E-02  0.3617E-02  0.3183E-01  0.3179E-01
     -0.731  0.2510E-02  0.2792E-02  0.3192E-01  0.3190E-01
     -0.692  0.1512E-02  0.1787E-02  0.3198E-01  0.3197E-01
     -0.653  0.6255E-03  0.8453E-03  0.3201E-01  0.3200E-01
     -0.614  0.3535E-05  0.1529E-03  0.3201E-01  0.3201E-01
     -0.575 -0.2776E-03 -0.1797E-03  0.3200E-01  0.3200E-01
     -0.536 -0.1928E-03 -0.1091E-03  0.3199E-01  0.3199E-01
     -0.497  0.2521E-03  0.3570E-03  0.3200E-01  0.3201E-01
     -0.458  0.1015E-02  0.1156E-02  0.3204E-01  0.3205E-01
     -0.419  0.1990E-02  0.2156E-02  0.3212E-01  0.3214E-01
     -0.380  0.2994E-02  0.3148E-02  0.3223E-01  0.3226E-01
     -0.341  0.3795E-02  0.3893E-02  0.3238E-01  0.3241E-01
     -0.302  0.4182E-02  0.4192E-02  0.3254E-01  0.3258E-01
     -0.263  0.4049E-02  0.3965E-02  0.3270E-01  0.3273E-01
     -0.224  0.3443E-02  0.3289E-02  0.3284E-01  0.3286E-01
     -0.185  0.2542E-02  0.2359E-02  0.3294E-01  0.3295E-01
     -0.146  0.1582E-02  0.1413E-02  0.3300E-01  0.3301E-01
     -0.107  0.7640E-03  0.6369E-03  0.3303E-01  0.3303E-01
     -0.068  0.1967E-03  0.1202E-03  0.3304E-01  0.3304E-01
     -0.029 -0.1118E-03 -0.1451E-03  0.3303E-01  0.3303E-01
      0.010 -0.2213E-03 -0.2264E-03  0.3302E-01  0.3302E-01
      0.049 -0.2138E-03 -0.2055E-03  0.3301E-01  0.3301E-01
      0.088 -0.1592E-03 -0.1476E-03  0.3301E-01  0.3301E-01
      0.127 -0.1003E-03 -0.9054E-04  0.3300E-01  0.3300E-01
      0.166 -0.5542E-04 -0.4895E-04  0.3300E-01  0.3300E-01
      0.205 -0.2737E-04 -0.2370E-04  0.3300E-01  0.3300E-01
      0.244 -0.1220E-04 -0.1037E-04  0.3300E-01  0.3300E-01
      0.283 -0.4936E-05 -0.4122E-05  0.3300E-01  0.3300E-01
      0.322 -0.1822E-05 -0.1496E-05  0.3300E-01  0.3300E-01
      0.361 -0.6154E-06 -0.4972E-06  0.3300E-01  0.3300E-01
      0.400 -0.1906E-06 -0.1515E-06  0.3300E-01  0.3300E-01
      0.439 -0.5422E-07 -0.4243E-07  0.3300E-01  0.3300E-01
      0.478 -0.1418E-07 -0.1093E-07  0.3300E-01  0.3300E-01
      0.517 -0.3417E-08 -0.2592E-08  0.3300E-01  0.3300E-01
      0.556 -0.7583E-09 -0.5665E-09  0.3300E-01  0.3300E-01
      0.595 -0.1552E-09 -0.1142E-09  0.3300E-01  0.3300E-01
      0.634 -0.2930E-10 -0.2124E-10  0.3300E-01  0.3300E-01
      0.673 -0.5106E-11 -0.3646E-11  0.3300E-01  0.3300E-01
      0.712 -0.8218E-12 -0.5782E-12  0.3300E-01  0.3300E-01
      0.751 -0.1222E-12 -0.8469E-13  0.3300E-01  0.3300E-01
      0.790 -0.1678E-13 -0.1147E-13  0.3300E-01  0.3300E-01
      0.829 -0.2135E-14 -0.1429E-14  0.3300E-01  0.3300E-01
      0.868 -0.2505E-15 -0.1651E-15  0.3300E-01  0.3300E-01
      0.907 -0.2277E-16 -0.2277E-16  0.3300E-01  0.3300E-01
      0.946 -0.5692E-17  0.0000E+00  0.3300E-01  0.3300E-01
      0.985  0.0000E+00  0.0000E+00  0.3300E-01  0.3300E-01
      1.024  0.0000E+00  0.0000E+00  0.3300E-01  0.3300E-01
      1.063  0.0000E+00  0.0000E+00  0.3300E-01  0.3300E-01
      1.102  0.0000E+00  0.0000E+00  0.3300E-01  0.3300E-01
      1.141  0.0000E+00  0.0000E+00  0.3300E-01  0.3300E-01
      1.180  0.0000E+00  0.0000E+00  0.3300E-01  0.3300E-01
      1.219  0.0000E+00  0.0000E+00  0.3300E-01  0.3300E-01
      1.258  0.0000E+00  0.0000E+00  0.3300E-01  0.3300E-01
      1.297  0.0000E+00  0.0000E+00  0.3300E-01  0.3300E-01
      1.336  0.0000E+00  0.0000E+00  0.3300E-01  0.3300E-01
      1.375  0.0000E+00  0.0000E+00  0.3300E-01  0.3300E-01
      1.414  0.0000E+00  0.0000E+00  0.3300E-01  0.3300E-01
      1.453  0.0000E+00  0.0000E+00  0.3300E-01  0.3300E-01
      1.492  0.0000E+00  0.0000E+00  0.3300E-01  0.3300E-01
      1.531  0.0000E+00  0.0000E+00  0.3300E-01  0.3300E-01
      1.570  0.0000E+00  0.0000E+00  0.3300E-01  0.3300E-01
      1.609  0.0000E+00  0.0000E+00  0.3300E-01  0.3300E-01
      1.648  0.0000E+00  0.0000E+00  0.3300E-01  0.3300E-01
      1.687  0.0000E+00  0.0000E+00  0.3300E-01  0.3300E-01
