    5    5 1000    2
  0.2084901E+04  0.2400468E-08  0.1946825E-08  0.2230657E-08  0.5000000E-15
   1.0000000000000000E-004
  CAR 
 unknown system                          
     50      1     33
 
  0.1262379E-14  0.1262379E-14  0.1262379E-14  0.1000000E+01
    1       -7.899351     -8.015267   1.000000   1.000000
    2       -7.560146     -7.575578   1.000000   1.000000
    3       -7.078860     -7.169156   1.000000   1.000000
    4       -6.981735     -6.866179   1.000000   1.000000
    5       -6.860437     -6.713741   1.000000   1.000000
    6       -6.577067     -6.609949   1.000000   1.000000
    7       -6.334663     -6.362848   1.000000   1.000000
    8       -6.185971     -6.123715   1.000000   1.000000
    9       -5.951038     -5.881263   1.000000   1.000000
   10       -5.791749     -5.740067   1.000000   1.000000
   11       -5.643778     -5.624297   1.000000   1.000000
   12       -5.425681     -5.490353   1.000000   1.000000
   13       -5.354628     -5.315605   1.000000   1.000000
   14       -5.211382     -5.231462   1.000000   1.000000
   15       -5.166502     -5.148498   1.000000   1.000000
   16       -4.996146     -4.967543   1.000005   1.000012
   17       -4.895446     -4.874128   1.000100   1.000179
   18       -4.777231     -4.736453   1.001817   1.004090
   19       -4.740471     -4.729334   1.003793   1.004663
   20       -4.699193     -4.696049   1.007838   1.008246
   21       -4.660540     -4.662564   1.013943   1.013565
   22       -4.658630     -4.622630   1.014306   1.021992
   23       -4.533437     -4.544437   1.035088   1.035449
   24       -4.510385     -4.475284   1.030427   1.008999
   25       -4.439781     -4.395905   0.962990   0.864364
   26       -4.142181     -4.136139   0.015533   0.007643
   27       -3.999646     -3.995162  -0.028023  -0.027020
   28       -3.267097     -3.253766  -0.000000  -0.000000
   29       -1.991760     -1.991208  -0.000000  -0.000000
   30       -1.810246     -1.783039  -0.000000  -0.000000
   31       -1.233915     -1.240970  -0.000000  -0.000000
   32       -0.855368     -0.843639  -0.000000  -0.000000
   33       -0.312508     -0.319828  -0.000000  -0.000000
