       N       E                     dE             d eps       ncg     rms          rms(c)
DAV:   1     0.395530698107E+03    0.39553E+03   -0.64319E+03   132   0.624E+02
DAV:   2     0.272264425624E+03   -0.12327E+03   -0.11582E+03   247   0.574E+01
DAV:   3     0.735304929557E+02   -0.19873E+03   -0.18976E+03   264   0.586E+01
DAV:   4    -0.335600486773E+01   -0.76886E+02   -0.71090E+02   200   0.558E+01
DAV:   5    -0.142633823027E+02   -0.10907E+02   -0.94847E+01   152   0.227E+01    0.113E+01
DAV:   6    -0.123831591538E+02    0.18802E+01   -0.12013E+01   148   0.154E+01    0.120E+01
DAV:   7    -0.127673790174E+02   -0.38422E+00   -0.14791E+01   174   0.266E+01    0.130E+01
DAV:   8    -0.118322346724E+02    0.93514E+00   -0.45789E+00   134   0.192E+01    0.114E+01
DAV:   9    -0.106885231502E+02    0.11437E+01   -0.14853E+00   151   0.141E+01    0.461E+00
DAV:  10    -0.105495286092E+02    0.13899E+00   -0.12361E+00   135   0.927E+00    0.391E+00
DAV:  11    -0.105839245907E+02   -0.34396E-01   -0.23832E-01   152   0.603E+00    0.197E+00
DAV:  12    -0.107898028380E+02   -0.20588E+00   -0.11356E-01   159   0.225E+00    0.198E+00
DAV:  13    -0.114266330343E+02   -0.63683E+00   -0.16235E-01   142   0.216E+00    0.115E+00
DAV:  14    -0.118717233017E+02   -0.44509E+00   -0.96508E-02   142   0.204E+00    0.168E+00
DAV:  15    -0.120404683305E+02   -0.16875E+00   -0.23201E-02   135   0.147E+00    0.795E-01
DAV:  16    -0.124246466148E+02   -0.38418E+00   -0.56427E-02   132   0.126E+00    0.535E-01
DAV:  17    -0.126829233489E+02   -0.25828E+00   -0.29896E-02   142   0.791E-01    0.433E-01
DAV:  18    -0.129061673804E+02   -0.22324E+00   -0.18390E-02   142   0.590E-01    0.280E-01
DAV:  19    -0.130982261121E+02   -0.19206E+00   -0.12200E-02   140   0.419E-01    0.228E-01
DAV:  20    -0.132939813589E+02   -0.19576E+00   -0.13386E-02   133   0.438E-01    0.145E-01
DAV:  21    -0.134432517241E+02   -0.14927E+00   -0.86481E-03   148   0.278E-01    0.107E-01
DAV:  22    -0.135606776653E+02   -0.11743E+00   -0.51574E-03   133   0.248E-01    0.780E-02
DAV:  23    -0.136179756919E+02   -0.57298E-01   -0.15014E-03   150   0.142E-01    0.521E-02
DAV:  24    -0.136593104892E+02   -0.41335E-01   -0.10161E-03   140   0.105E-01    0.421E-02
DAV:  25    -0.136929060364E+02   -0.33596E-01   -0.79912E-04   134   0.825E-02    0.380E-02
DAV:  26    -0.137034990748E+02   -0.10593E-01   -0.12457E-04   119   0.428E-02    0.269E-02
DAV:  27    -0.137158632899E+02   -0.12364E-01   -0.16976E-04   101   0.437E-02    0.125E-02
DAV:  28    -0.137210063838E+02   -0.51431E-02   -0.45295E-05    93   0.248E-02    0.102E-02
DAV:  29    -0.137248922448E+02   -0.38859E-02   -0.54424E-05    93   0.197E-02    0.618E-03
DAV:  30    -0.137272372896E+02   -0.23450E-02   -0.27752E-05   101   0.147E-02    0.562E-03
DAV:  31    -0.137284458590E+02   -0.12086E-02   -0.17162E-05   102   0.118E-02    0.303E-03
DAV:  32    -0.137292820320E+02   -0.83617E-03   -0.13589E-05    93   0.977E-03    0.194E-03
DAV:  33    -0.137296623820E+02   -0.38035E-03   -0.61322E-06   102   0.729E-03    0.128E-03
DAV:  34    -0.137299029189E+02   -0.24054E-03   -0.36819E-06   101   0.514E-03    0.952E-04
DAV:  35    -0.137300677396E+02   -0.16482E-03   -0.20766E-06   102   0.414E-03    0.123E-03
DAV:  36    -0.137301563014E+02   -0.88562E-04   -0.12414E-06    85   0.296E-03
   1 F= -.13730156E+02 E0= -.13745068E+02  d E =-.137302E+02  mag=     2.2250
       N       E                     dE             d eps       ncg     rms          rms(c)
DAV:   1    -0.138198867748E+02   -0.89819E-01   -0.83742E+01   133   0.420E+01    0.316E+00
DAV:   2    -0.140013704643E+02   -0.18148E+00   -0.22015E+00   132   0.117E+01    0.691E+00
DAV:   3    -0.138830840310E+02    0.11829E+00   -0.15272E+00   132   0.100E+01    0.297E+00
DAV:   4    -0.139013936705E+02   -0.18310E-01   -0.63858E-01   140   0.459E+00    0.319E+00
DAV:   5    -0.138502360532E+02    0.51158E-01   -0.11502E-01   149   0.362E+00    0.978E-01
DAV:   6    -0.138526369378E+02   -0.24009E-02   -0.38795E-02   133   0.202E+00    0.942E-01
DAV:   7    -0.138512739075E+02    0.13630E-02   -0.19583E-02   132   0.156E+00    0.553E-01
DAV:   8    -0.138529656072E+02   -0.16917E-02   -0.81524E-03   150   0.968E-01    0.430E-01
DAV:   9    -0.138534118032E+02   -0.44620E-03   -0.38160E-03   149   0.723E-01    0.221E-01
DAV:  10    -0.138560718426E+02   -0.26600E-02   -0.68439E-04   133   0.234E-01    0.596E-02
DAV:  11    -0.138581460907E+02   -0.20742E-02   -0.23265E-04    94   0.953E-02    0.803E-02
DAV:  12    -0.138593691902E+02   -0.12231E-02   -0.79695E-05    95   0.671E-02    0.252E-02
DAV:  13    -0.138614035704E+02   -0.20344E-02   -0.47296E-05    85   0.359E-02    0.255E-02
DAV:  14    -0.138630718427E+02   -0.16683E-02   -0.37256E-05   102   0.318E-02    0.145E-02
DAV:  15    -0.138647180637E+02   -0.16462E-02   -0.27841E-05    86   0.209E-02    0.790E-03
DAV:  16    -0.138661665766E+02   -0.14485E-02   -0.26517E-05   102   0.148E-02    0.569E-03
DAV:  17    -0.138675741552E+02   -0.14076E-02   -0.26264E-05    94   0.136E-02    0.617E-03
DAV:  18    -0.138689188730E+02   -0.13447E-02   -0.31028E-05   102   0.149E-02    0.383E-03
DAV:  19    -0.138696219525E+02   -0.70308E-03   -0.18117E-05   102   0.114E-02    0.254E-03
DAV:  20    -0.138703500199E+02   -0.72807E-03   -0.20769E-05   102   0.118E-02    0.174E-03
DAV:  21    -0.138706683546E+02   -0.31833E-03   -0.11218E-05    94   0.961E-03    0.125E-03
DAV:  22    -0.138708663386E+02   -0.19798E-03   -0.51743E-06   100   0.644E-03    0.968E-04
DAV:  23    -0.138710090223E+02   -0.14268E-03   -0.26156E-06    93   0.479E-03    0.775E-04
DAV:  24    -0.138711359900E+02   -0.12697E-03   -0.14936E-06    92   0.353E-03    0.505E-04
DAV:  25    -0.138712263126E+02   -0.90323E-04   -0.10089E-06   102   0.294E-03
   2 F= -.13871226E+02 E0= -.13890288E+02  d E =-.141070E+00  mag=     2.2384
       N       E                     dE             d eps       ncg     rms          rms(c)
DAV:   1    -0.138713410989E+02   -0.20511E-03   -0.13920E-01   134   0.170E+00    0.126E-01
DAV:   2    -0.138715692300E+02   -0.22813E-03   -0.34785E-03   142   0.485E-01    0.275E-01
DAV:   3    -0.138712563998E+02    0.31283E-03   -0.14019E-03   133   0.426E-01    0.917E-02
DAV:   4    -0.138714034674E+02   -0.14707E-03   -0.38837E-04    86   0.163E-01    0.147E-01
DAV:   5    -0.138712836674E+02    0.11980E-03   -0.28549E-04    84   0.145E-01    0.606E-02
DAV:   6    -0.138712766181E+02    0.70493E-05   -0.47652E-05    93   0.882E-02
   3 F= -.13871277E+02 E0= -.13890384E+02  d E =-.141120E+00  mag=     2.2387
       N       E                     dE             d eps       ncg     rms          rms(c)
DAV:   1    -0.138793485774E+02   -0.80649E-02   -0.49127E+00   132   0.101E+01    0.548E-01
DAV:   2    -0.138887642913E+02   -0.94157E-02   -0.98779E-02   134   0.226E+00    0.120E+00
DAV:   3    -0.138843912766E+02    0.43730E-02   -0.27238E-02   141   0.186E+00    0.732E-01
DAV:   4    -0.138852223119E+02   -0.83104E-03   -0.14167E-02   132   0.960E-01    0.679E-01
DAV:   5    -0.138836562138E+02    0.15661E-02   -0.55754E-03   132   0.654E-01    0.158E-01
DAV:   6    -0.138840383489E+02   -0.38214E-03   -0.99292E-04   133   0.301E-01    0.140E-01
DAV:   7    -0.138840385639E+02   -0.21505E-06   -0.46264E-04   125   0.245E-01
   4 F= -.13884039E+02 E0= -.13905158E+02  d E =-.127619E-01  mag=     2.2338
       N       E                     dE             d eps       ncg     rms          rms(c)
DAV:   1    -0.138780344641E+02    0.60039E-02   -0.13704E+01   132   0.169E+01    0.965E-01
DAV:   2    -0.139114141947E+02   -0.33380E-01   -0.30043E-01   133   0.405E+00    0.247E+00
DAV:   3    -0.138920069916E+02    0.19407E-01   -0.11218E-01   133   0.332E+00    0.133E+00
DAV:   4    -0.138936138712E+02   -0.16069E-02   -0.68570E-02   132   0.172E+00    0.102E+00
DAV:   5    -0.138892796503E+02    0.43342E-02   -0.17619E-02   132   0.108E+00    0.226E-01
DAV:   6    -0.138899540659E+02   -0.67442E-03   -0.25861E-03   148   0.574E-01    0.245E-01
DAV:   7    -0.138899673802E+02   -0.13314E-04   -0.11833E-03   132   0.418E-01    0.167E-01
DAV:   8    -0.138902759617E+02   -0.30858E-03   -0.57732E-04   132   0.242E-01    0.838E-02
DAV:   9    -0.138905643530E+02   -0.28839E-03   -0.28625E-04   101   0.165E-01    0.714E-02
DAV:  10    -0.138908785471E+02   -0.31419E-03   -0.90843E-05    84   0.703E-02    0.129E-02
DAV:  11    -0.138910815140E+02   -0.20297E-03   -0.20657E-05   102   0.260E-02    0.189E-02
DAV:  12    -0.138912630561E+02   -0.18154E-03   -0.99064E-06   101   0.180E-02    0.579E-03
DAV:  13    -0.138914410948E+02   -0.17804E-03   -0.56376E-06   102   0.801E-03    0.311E-03
DAV:  14    -0.138915753437E+02   -0.13425E-03   -0.28792E-06    93   0.626E-03    0.296E-03
DAV:  15    -0.138916986924E+02   -0.12335E-03   -0.25351E-06   102   0.452E-03    0.191E-03
DAV:  16    -0.138918008728E+02   -0.10218E-03   -0.18573E-06    93   0.401E-03    0.110E-03
DAV:  17    -0.138918939316E+02   -0.93059E-04   -0.16594E-06    94   0.329E-03
   5 F= -.13891894E+02 E0= -.13915802E+02  d E =-.206173E-01  mag=     2.2136
       N       E                     dE             d eps       ncg     rms          rms(c)
DAV:   1    -0.138944927796E+02   -0.26919E-02   -0.64030E+00   132   0.115E+01    0.670E-01
DAV:   2    -0.139369243132E+02   -0.42432E-01   -0.28908E-01   134   0.323E+00    0.336E+00
DAV:   3    -0.138982087627E+02    0.38716E-01   -0.21126E-01   133   0.291E+00    0.654E-01
DAV:   4    -0.139014739818E+02   -0.32652E-02   -0.12046E-02   132   0.935E-01    0.511E-01
DAV:   5    -0.138998821802E+02    0.15918E-02   -0.32747E-03   132   0.687E-01    0.186E-01
DAV:   6    -0.139004037365E+02   -0.52156E-03   -0.17018E-03   132   0.340E-01    0.256E-01
DAV:   7    -0.139007871603E+02   -0.38342E-03   -0.10253E-03   132   0.320E-01    0.296E-01
DAV:   8    -0.139005047106E+02    0.28245E-03   -0.64939E-04   118   0.213E-01    0.125E-01
DAV:   9    -0.139005552849E+02   -0.50574E-04   -0.25942E-04   102   0.109E-01
   6 F= -.13900555E+02 E0= -.13925365E+02  d E =-.866135E-02  mag=     2.2089
       N       E                     dE             d eps       ncg     rms          rms(c)
DAV:   1    -0.138825025858E+02    0.18002E-01   -0.23786E+01   132   0.222E+01    0.115E+00
DAV:   2    -0.139911420959E+02   -0.10864E+00   -0.77280E-01   133   0.546E+00    0.501E+00
DAV:   3    -0.139049341436E+02    0.86208E-01   -0.58642E-01   132   0.462E+00    0.110E+00
DAV:   4    -0.139088132386E+02   -0.38791E-02   -0.25937E-02   140   0.142E+00    0.852E-01
DAV:   5    -0.139044791076E+02    0.43341E-02   -0.88953E-03   132   0.116E+00    0.498E-01
DAV:   6    -0.139041565994E+02    0.32251E-03   -0.81921E-03   140   0.695E-01    0.367E-01
DAV:   7    -0.139057059731E+02   -0.15494E-02   -0.43163E-03   140   0.578E-01    0.497E-01
DAV:   8    -0.139059029723E+02   -0.19700E-03   -0.13385E-03   134   0.358E-01    0.346E-01
DAV:   9    -0.139055045714E+02    0.39840E-03   -0.11717E-03   141   0.267E-01    0.138E-01
DAV:  10    -0.139060752108E+02   -0.57064E-03   -0.35132E-04    94   0.151E-01    0.738E-02
DAV:  11    -0.139067350612E+02   -0.65985E-03   -0.20027E-04    93   0.873E-02    0.236E-02
DAV:  12    -0.139070866628E+02   -0.35160E-03   -0.45829E-05    94   0.398E-02    0.154E-02
DAV:  13    -0.139073321398E+02   -0.24548E-03   -0.20223E-05    93   0.198E-02    0.113E-02
DAV:  14    -0.139075166027E+02   -0.18446E-03   -0.13816E-05    93   0.140E-02    0.350E-03
DAV:  15    -0.139076426377E+02   -0.12603E-03   -0.72613E-06    93   0.880E-03    0.229E-03
DAV:  16    -0.139077361629E+02   -0.93525E-04   -0.44796E-06    94   0.655E-03
   7 F= -.13907736E+02 E0= -.13934648E+02  d E =-.158422E-01  mag=     2.1960
       N       E                     dE             d eps       ncg     rms          rms(c)
DAV:   1    -0.139084424994E+02   -0.79986E-03   -0.53155E+00   132   0.101E+01    0.480E-01
DAV:   2    -0.139228866784E+02   -0.14444E-01   -0.11327E-01   134   0.227E+00    0.157E+00
DAV:   3    -0.139150939516E+02    0.77927E-02   -0.45936E-02   133   0.179E+00    0.565E-01
DAV:   4    -0.139147536184E+02    0.34033E-03   -0.83604E-03   132   0.850E-01    0.229E-01
DAV:   5    -0.139146542193E+02    0.99399E-04   -0.79178E-04   133   0.352E-01
   8 F= -.13914654E+02 E0= -.13941579E+02  d E =-.691806E-02  mag=     2.1956
       N       E                     dE             d eps       ncg     rms          rms(c)
DAV:   1    -0.138920932088E+02    0.22660E-01   -0.24232E+01   132   0.215E+01    0.102E+00
DAV:   2    -0.139553920601E+02   -0.63299E-01   -0.49975E-01   142   0.473E+00    0.316E+00
DAV:   3    -0.139253407670E+02    0.30051E-01   -0.21488E-01   141   0.368E+00    0.113E+00
DAV:   4    -0.139207641675E+02    0.45766E-02   -0.27719E-02   132   0.178E+00    0.457E-01
DAV:   5    -0.139197957107E+02    0.96846E-03   -0.38621E-03   133   0.793E-01    0.219E-01
DAV:   6    -0.139202781143E+02   -0.48240E-03   -0.27457E-03   150   0.401E-01    0.385E-01
DAV:   7    -0.139204419107E+02   -0.16380E-03   -0.21959E-03   150   0.509E-01    0.299E-01
DAV:   8    -0.139202594938E+02    0.18242E-03   -0.15210E-03   134   0.341E-01    0.824E-02
DAV:   9    -0.139205174773E+02   -0.25798E-03   -0.23121E-04    84   0.149E-01    0.892E-02
DAV:  10    -0.139205935385E+02   -0.76061E-04   -0.87234E-05    85   0.840E-02
   9 F= -.13920594E+02 E0= -.13947478E+02  d E =-.128574E-01  mag=     2.1932
       N       E                     dE             d eps       ncg     rms          rms(c)
DAV:   1    -0.139226181227E+02   -0.21006E-02   -0.13033E+00   132   0.501E+00    0.165E-01
DAV:   2    -0.139245381842E+02   -0.19201E-02   -0.21380E-02   142   0.883E-01    0.223E-01
DAV:   3    -0.139244510271E+02    0.87157E-04   -0.22381E-03   132   0.521E-01    0.157E-01
DAV:   4    -0.139245588970E+02   -0.10787E-03   -0.98827E-04   118   0.254E-01    0.180E-01
DAV:   5    -0.139244525038E+02    0.10639E-03   -0.33130E-04    85   0.166E-01    0.481E-02
DAV:   6    -0.139245471421E+02   -0.94638E-04   -0.94261E-05    92   0.101E-01
  10 F= -.13924547E+02 E0= -.13951343E+02  d E =-.395360E-02  mag=     2.1919
       N       E                     dE             d eps       ncg     rms          rms(c)
DAV:   1    -0.139205476325E+02    0.39049E-02   -0.11768E+01   132   0.151E+01    0.472E-01
DAV:   2    -0.139365115596E+02   -0.15964E-01   -0.18677E-01   134   0.255E+00    0.562E-01
DAV:   3    -0.139367512993E+02   -0.23974E-03   -0.20645E-02   132   0.145E+00    0.577E-01
DAV:   4    -0.139360941633E+02    0.65714E-03   -0.10453E-02   140   0.768E-01    0.482E-01
DAV:   5    -0.139354554279E+02    0.63874E-03   -0.24991E-03   132   0.466E-01    0.135E-01
DAV:   6    -0.139357675577E+02   -0.31213E-03   -0.10816E-03   143   0.293E-01    0.192E-01
DAV:   7    -0.139357507990E+02    0.16759E-04   -0.85826E-04   141   0.314E-01
  11 F= -.13935751E+02 E0= -.13962280E+02  d E =-.151573E-01  mag=     2.1871
       N       E                     dE             d eps       ncg     rms          rms(c)
DAV:   1    -0.138990865704E+02    0.36681E-01   -0.47428E+01   132   0.304E+01    0.967E-01
DAV:   2    -0.139646108383E+02   -0.65524E-01   -0.75746E-01   133   0.525E+00    0.124E+00
DAV:   3    -0.139647124360E+02   -0.10160E-03   -0.91947E-02   132   0.311E+00    0.128E+00
DAV:   4    -0.139609309278E+02    0.37815E-02   -0.60904E-02   132   0.163E+00    0.957E-01
DAV:   5    -0.139584531847E+02    0.24777E-02   -0.87994E-03   132   0.929E-01    0.325E-01
DAV:   6    -0.139586664850E+02   -0.21330E-03   -0.37756E-03   142   0.593E-01    0.330E-01
DAV:   7    -0.139589724127E+02   -0.30593E-03   -0.35305E-03   141   0.546E-01    0.297E-01
DAV:   8    -0.139591743455E+02   -0.20193E-03   -0.10288E-03   132   0.340E-01    0.109E-01
DAV:   9    -0.139594899110E+02   -0.31557E-03   -0.34131E-04    94   0.177E-01    0.476E-02
DAV:  10    -0.139599660373E+02   -0.47613E-03   -0.73195E-05    85   0.621E-02    0.211E-02
DAV:  11    -0.139603407165E+02   -0.37468E-03   -0.27937E-05    93   0.349E-02    0.113E-02
DAV:  12    -0.139606484982E+02   -0.30778E-03   -0.14974E-05   101   0.178E-02    0.696E-03
DAV:  13    -0.139609855685E+02   -0.33707E-03   -0.12455E-05    93   0.134E-02    0.346E-03
DAV:  14    -0.139612459351E+02   -0.26037E-03   -0.76547E-06   101   0.894E-03    0.278E-03
DAV:  15    -0.139614698789E+02   -0.22394E-03   -0.61348E-06    93   0.686E-03    0.208E-03
DAV:  16    -0.139616717664E+02   -0.20189E-03   -0.50648E-06   101   0.598E-03    0.162E-03
DAV:  17    -0.139619433815E+02   -0.27162E-03   -0.76788E-06    94   0.653E-03    0.140E-03
DAV:  18    -0.139621372591E+02   -0.19388E-03   -0.67069E-06   102   0.635E-03    0.928E-04
DAV:  19    -0.139622330628E+02   -0.95804E-04   -0.41727E-06    94   0.518E-03
  12 F= -.13962233E+02 E0= -.13988060E+02  d E =-.416395E-01  mag=     2.1577
       N       E                     dE             d eps       ncg     rms          rms(c)
DAV:   1    -0.137823475548E+02    0.17979E+00   -0.19534E+02   132   0.629E+01    0.194E+00
DAV:   2    -0.140424740312E+02   -0.26013E+00   -0.30089E+00   132   0.106E+01    0.248E+00
DAV:   3    -0.140498936017E+02   -0.74196E-02   -0.40881E-01   132   0.642E+00    0.279E+00
DAV:   4    -0.140241906527E+02    0.25703E-01   -0.30107E-01   132   0.350E+00    0.146E+00
DAV:   5    -0.140174298443E+02    0.67608E-02   -0.17833E-02   133   0.160E+00    0.770E-01
DAV:   6    -0.140147088444E+02    0.27210E-02   -0.18123E-02   135   0.111E+00    0.603E-01
DAV:   7    -0.140139004094E+02    0.80844E-03   -0.14184E-02   149   0.112E+00    0.657E-01
DAV:   8    -0.140133622700E+02    0.53814E-03   -0.44711E-03   132   0.693E-01    0.393E-01
DAV:   9    -0.140149030941E+02   -0.15408E-02   -0.31358E-03   134   0.492E-01    0.140E-01
DAV:  10    -0.140172939778E+02   -0.23909E-02   -0.81149E-04   117   0.197E-01    0.523E-02
DAV:  11    -0.140193779441E+02   -0.20840E-02   -0.10433E-04    85   0.737E-02    0.278E-02
DAV:  12    -0.140210317827E+02   -0.16538E-02   -0.72851E-05    93   0.470E-02    0.198E-02
DAV:  13    -0.140224076685E+02   -0.13759E-02   -0.43125E-05    86   0.319E-02    0.119E-02
DAV:  14    -0.140236295315E+02   -0.12219E-02   -0.34083E-05    93   0.192E-02    0.104E-02
DAV:  15    -0.140246535682E+02   -0.10240E-02   -0.25943E-05    86   0.169E-02    0.668E-03
DAV:  16    -0.140257433641E+02   -0.10898E-02   -0.30329E-05    93   0.148E-02    0.604E-03
DAV:  17    -0.140268933034E+02   -0.11499E-02   -0.36868E-05    86   0.157E-02    0.348E-03
DAV:  18    -0.140277942074E+02   -0.90090E-03   -0.36708E-05   101   0.153E-02    0.229E-03
DAV:  19    -0.140282123712E+02   -0.41816E-03   -0.22904E-05    94   0.119E-02    0.153E-03
DAV:  20    -0.140285295903E+02   -0.31722E-03   -0.17288E-05   102   0.101E-02    0.115E-03
DAV:  21    -0.140287095567E+02   -0.17997E-03   -0.10784E-05   102   0.827E-03    0.737E-04
DAV:  22    -0.140288370420E+02   -0.12749E-03   -0.64824E-06   102   0.640E-03    0.586E-04
DAV:  23    -0.140288894530E+02   -0.52411E-04   -0.32971E-06   104   0.463E-03
  13 F= -.14028889E+02 E0= -.14052924E+02  d E =-.108296E+00  mag=     2.0588
       N       E                     dE             d eps       ncg     rms          rms(c)
DAV:   1    -0.131671434249E+02    0.86169E+00   -0.85741E+02   132   0.139E+02    0.492E+00
DAV:   2    -0.142178805688E+02   -0.10507E+01   -0.13550E+01   132   0.236E+01    0.701E+00
DAV:   3    -0.143972235135E+02   -0.17934E+00   -0.35297E+00   140   0.159E+01    0.554E+00
DAV:   4    -0.142270038602E+02    0.17022E+00   -0.14077E+00   132   0.804E+00    0.271E+00
DAV:   5    -0.141720997627E+02    0.54904E-01   -0.10311E-01   136   0.397E+00    0.170E+00
DAV:   6    -0.141526831774E+02    0.19417E-01   -0.36918E-02   133   0.199E+00    0.152E+00
DAV:   7    -0.141058575480E+02    0.46826E-01   -0.29700E-02   143   0.169E+00    0.949E-01
DAV:   8    -0.140495180838E+02    0.56339E-01   -0.61279E-02   133   0.163E+00    0.130E+00
DAV:   9    -0.140413666883E+02    0.81514E-02   -0.69822E-02   144   0.161E+00    0.780E-01
DAV:  10    -0.140778761079E+02   -0.36509E-01   -0.11569E-02   132   0.819E-01    0.749E-01
DAV:  11    -0.141066483919E+02   -0.28772E-01   -0.61533E-03   133   0.729E-01    0.312E-01
DAV:  12    -0.141306811092E+02   -0.24033E-01   -0.30175E-03   140   0.434E-01    0.177E-01
DAV:  13    -0.141463393160E+02   -0.15658E-01   -0.86543E-04   133   0.169E-01    0.975E-02
DAV:  14    -0.141634557942E+02   -0.17116E-01   -0.54663E-04   108   0.123E-01    0.692E-02
DAV:  15    -0.141820356183E+02   -0.18580E-01   -0.57306E-04   117   0.830E-02    0.493E-02
DAV:  16    -0.141976328738E+02   -0.15597E-01   -0.42199E-04   100   0.713E-02    0.403E-02
DAV:  17    -0.142157486054E+02   -0.18116E-01   -0.73215E-04   117   0.749E-02    0.332E-02
DAV:  18    -0.142291044253E+02   -0.13356E-01   -0.49652E-04   109   0.610E-02    0.262E-02
DAV:  19    -0.142397406721E+02   -0.10636E-01   -0.42671E-04   109   0.565E-02    0.146E-02
DAV:  20    -0.142450895242E+02   -0.53489E-02   -0.19495E-04   110   0.395E-02    0.792E-03
DAV:  21    -0.142476763589E+02   -0.25868E-02   -0.44954E-05    94   0.232E-02    0.579E-03
DAV:  22    -0.142489930329E+02   -0.13167E-02   -0.20703E-05    94   0.157E-02    0.606E-03
DAV:  23    -0.142497418699E+02   -0.74884E-03   -0.11454E-05    93   0.107E-02    0.519E-03
DAV:  24    -0.142502946794E+02   -0.55281E-03   -0.88731E-06    94   0.904E-03    0.377E-03
DAV:  25    -0.142507317958E+02   -0.43712E-03   -0.81480E-06    94   0.827E-03    0.266E-03
DAV:  26    -0.142510835663E+02   -0.35177E-03   -0.86537E-06    94   0.878E-03    0.147E-03
DAV:  27    -0.142512088379E+02   -0.12527E-03   -0.49504E-06   102   0.628E-03    0.849E-04
DAV:  28    -0.142512546497E+02   -0.45812E-04   -0.23920E-06    94   0.446E-03
  14 F= -.14251255E+02 E0= -.14274954E+02  d E =-.330661E+00  mag=     1.4776
       N       E                     dE             d eps       ncg     rms          rms(c)
DAV:   1    -0.350050460891E+01    0.10751E+02   -0.32966E+03   148   0.292E+02    0.297E+01
DAV:   2    -0.227385289883E+02   -0.19238E+02   -0.13772E+02   133   0.781E+01    0.254E+01
DAV:   3    -0.190749805691E+02    0.36635E+01   -0.40778E+01   135   0.549E+01    0.190E+01
DAV:   4    -0.155539215212E+02    0.35211E+01   -0.15049E+01   142   0.329E+01    0.122E+01
DAV:   5    -0.151176099736E+02    0.43631E+00   -0.33835E+00   144   0.226E+01    0.904E+00
DAV:   6    -0.147540509097E+02    0.36356E+00   -0.93573E-01   142   0.946E+00    0.789E+00
DAV:   7    -0.146498013611E+02    0.10425E+00   -0.19278E-01   136   0.521E+00    0.708E+00
DAV:   8    -0.146268503185E+02    0.22951E-01   -0.11756E-01   142   0.257E+00    0.584E+00
DAV:   9    -0.147567522042E+02   -0.12990E+00   -0.83817E-02   148   0.259E+00    0.490E+00
DAV:  10    -0.148793182359E+02   -0.12257E+00   -0.50856E-02   141   0.156E+00    0.423E+00
DAV:  11    -0.148601590364E+02    0.19159E-01   -0.90152E-02   166   0.257E+00    0.324E+00
DAV:  12    -0.146771758796E+02    0.18298E+00   -0.55294E-02   141   0.117E+00    0.238E+00
DAV:  13    -0.145005601516E+02    0.17662E+00   -0.49075E-02   142   0.196E+00    0.128E+00
DAV:  14    -0.146072242581E+02   -0.10666E+00   -0.15056E-02   135   0.685E-01    0.104E+00
DAV:  15    -0.147486405834E+02   -0.14142E+00   -0.22738E-02   132   0.752E-01    0.680E-01
DAV:  16    -0.148195524882E+02   -0.70912E-01   -0.10152E-02   157   0.508E-01    0.432E-01
DAV:  17    -0.148675491344E+02   -0.47997E-01   -0.47227E-03   133   0.333E-01    0.291E-01
DAV:  18    -0.148959553649E+02   -0.28406E-01   -0.19229E-03   165   0.198E-01    0.193E-01
DAV:  19    -0.149286377262E+02   -0.32682E-01   -0.21193E-03   141   0.234E-01    0.792E-02
DAV:  20    -0.149487430790E+02   -0.20105E-01   -0.58391E-04   126   0.106E-01    0.488E-02
DAV:  21    -0.149586627242E+02   -0.99196E-02   -0.25584E-04   110   0.716E-02    0.242E-02
DAV:  22    -0.149642078680E+02   -0.55451E-02   -0.65213E-05    94   0.348E-02    0.222E-02
DAV:  23    -0.149709430700E+02   -0.67352E-02   -0.93711E-05   101   0.295E-02    0.203E-02
DAV:  24    -0.149772640359E+02   -0.63210E-02   -0.71001E-05    86   0.346E-02    0.118E-02
DAV:  25    -0.149836663300E+02   -0.64023E-02   -0.20816E-04   109   0.345E-02    0.121E-02
DAV:  26    -0.149865179268E+02   -0.28516E-02   -0.50054E-05   102   0.228E-02    0.754E-03
DAV:  27    -0.149885829791E+02   -0.20651E-02   -0.68072E-05    95   0.214E-02    0.439E-03
DAV:  28    -0.149894376854E+02   -0.85471E-03   -0.32632E-05   103   0.179E-02    0.286E-03
DAV:  29    -0.149898956707E+02   -0.45799E-03   -0.20559E-05    96   0.124E-02    0.157E-03
DAV:  30    -0.149901597917E+02   -0.26412E-03   -0.11804E-05   101   0.982E-03    0.180E-03
DAV:  31    -0.149902875575E+02   -0.12777E-03   -0.52759E-06    96   0.685E-03    0.789E-04
DAV:  32    -0.149903783873E+02   -0.90830E-04   -0.23257E-06    85   0.424E-03
  15 F= -.14990378E+02 E0= -.15004018E+02  d E =-.106978E+01  mag=     1.8249
       N       E                     dE             d eps       ncg     rms          rms(c)
DAV:   1     0.884749527959E+02    0.10347E+03   -0.92405E+03   156   0.520E+02    0.225E+02
DAV:   2     0.922384201676E+01   -0.79251E+02   -0.82126E+02   157   0.146E+02    0.152E+02
DAV:   3    -0.207938903713E+01   -0.11303E+02   -0.21506E+02   157   0.893E+01    0.117E+02
DAV:   4    -0.219654888693E+02   -0.19886E+02   -0.47167E+02   165   0.108E+02    0.133E+02
DAV:   5    -0.238410549468E+02   -0.18756E+01   -0.96680E+01   158   0.785E+01    0.710E+01
DAV:   6     0.293171465190E+01    0.26773E+02   -0.18647E+02   142   0.496E+01    0.472E+01
DAV:   7     0.131930026412E+02    0.10261E+02   -0.20768E+01   132   0.342E+01    0.397E+01
DAV:   8     0.155437043601E+02    0.23507E+01   -0.14486E+01   133   0.247E+01    0.228E+01
DAV:   9     0.177802705367E+02    0.22366E+01   -0.41947E+00   132   0.168E+01    0.220E+01
DAV:  10     0.179984600107E+02    0.21819E+00   -0.18939E+00   134   0.123E+01    0.175E+01
DAV:  11     0.173977430653E+02   -0.60072E+00   -0.44366E+00   144   0.160E+01    0.236E+01
DAV:  12     0.183684334202E+02    0.97069E+00   -0.71173E+00   134   0.109E+01    0.777E+00
DAV:  13     0.183980970993E+02    0.29664E-01   -0.17922E+00   132   0.837E+00    0.763E+00
DAV:  14     0.183365307746E+02   -0.61566E-01   -0.35033E-01   150   0.274E+00    0.430E+00
DAV:  15     0.183477774311E+02    0.11247E-01   -0.15437E-01   133   0.205E+00    0.311E+00
DAV:  16     0.184400452319E+02    0.92268E-01   -0.59118E-02   132   0.100E+00    0.266E+00
DAV:  17     0.188223330772E+02    0.38229E+00   -0.17194E-01   140   0.149E+00    0.180E+00
DAV:  18     0.189479353920E+02    0.12560E+00   -0.29110E-02   142   0.803E-01    0.155E+00
DAV:  19     0.191692395710E+02    0.22130E+00   -0.79186E-02   140   0.138E+00    0.107E+00
DAV:  20     0.190152538273E+02   -0.15399E+00   -0.20231E-02   135   0.754E-01    0.742E-01
DAV:  21     0.185880149013E+02   -0.42724E+00   -0.11182E-01   132   0.114E+00    0.890E-01
DAV:  22     0.184370427813E+02   -0.15097E+00   -0.15670E-02   140   0.646E-01    0.406E-01
DAV:  23     0.182103299739E+02   -0.22671E+00   -0.21160E-02   132   0.552E-01    0.355E-01
DAV:  24     0.180277311837E+02   -0.18260E+00   -0.18555E-02   140   0.485E-01    0.316E-01
DAV:  25     0.178291498407E+02   -0.19858E+00   -0.24693E-02   140   0.506E-01    0.241E-01
DAV:  26     0.177470849620E+02   -0.82065E-01   -0.78288E-03   150   0.332E-01    0.198E-01
DAV:  27     0.177079246742E+02   -0.39160E-01   -0.19616E-03   150   0.192E-01    0.149E-01
DAV:  28     0.176493578808E+02   -0.58567E-01   -0.53366E-03   132   0.265E-01    0.102E-01
DAV:  29     0.176082261491E+02   -0.41132E-01   -0.28178E-03   148   0.168E-01    0.711E-02
DAV:  30     0.175724574143E+02   -0.35769E-01   -0.16011E-03   132   0.131E-01    0.529E-02
DAV:  31     0.175589206778E+02   -0.13537E-01   -0.31334E-04   127   0.619E-02    0.477E-02
DAV:  32     0.175463095485E+02   -0.12611E-01   -0.17123E-04   101   0.444E-02    0.244E-02
DAV:  33     0.175393484953E+02   -0.69611E-02   -0.94728E-05    86   0.299E-02    0.184E-02
DAV:  34     0.175357435653E+02   -0.36049E-02   -0.84020E-05   111   0.221E-02    0.148E-02
DAV:  35     0.175336240384E+02   -0.21195E-02   -0.32560E-05    93   0.183E-02    0.102E-02
DAV:  36     0.175313803610E+02   -0.22437E-02   -0.39088E-05    93   0.161E-02    0.656E-03
DAV:  37     0.175304634603E+02   -0.91690E-03   -0.16634E-05   104   0.121E-02    0.411E-03
DAV:  38     0.175299015380E+02   -0.56192E-03   -0.13662E-05    93   0.933E-03    0.342E-03
DAV:  39     0.175294398493E+02   -0.46169E-03   -0.11745E-05   102   0.913E-03    0.312E-03
DAV:  40     0.175292566714E+02   -0.18318E-03   -0.64861E-06   104   0.680E-03    0.197E-03
DAV:  41     0.175290915467E+02   -0.16512E-03   -0.40644E-06    86   0.547E-03    0.169E-03
DAV:  42     0.175289821613E+02   -0.10939E-03   -0.27789E-06   102   0.452E-03    0.104E-03
DAV:  43     0.175289083738E+02   -0.73787E-04   -0.16802E-06    87   0.366E-03
  16 F= 0.17528908E+02 E0= 0.17511294E+02  d E =0.314495E+02  mag=    -1.9827
       N       E                     dE             d eps       ncg     rms          rms(c)
DAV:   1     0.261639669176E+02    0.86350E+01   -0.87593E+03   148   0.499E+02    0.181E+02
DAV:   2    -0.618405432317E+02   -0.88005E+02   -0.72651E+02   164   0.164E+02    0.118E+02
DAV:   3    -0.686675526066E+02   -0.68270E+01   -0.79842E+02   164   0.153E+02    0.109E+02
DAV:   4    -0.365317661761E+02    0.32136E+02   -0.14643E+02   151   0.629E+01    0.442E+01
DAV:   5    -0.226361837214E+02    0.13896E+02   -0.66621E+01   134   0.611E+01    0.376E+01
DAV:   6    -0.178631991371E+02    0.47730E+01   -0.27727E+01   134   0.328E+01    0.292E+01
DAV:   7    -0.170263943010E+02    0.83680E+00   -0.17530E+01   135   0.361E+01    0.266E+01
DAV:   8    -0.192898783323E+02   -0.22635E+01   -0.10867E+01   133   0.391E+01    0.255E+01
DAV:   9    -0.757180862593E+01    0.11718E+02   -0.20374E+01   132   0.290E+01    0.182E+01
DAV:  10    -0.870132908761E+01   -0.11295E+01   -0.44078E+00   132   0.198E+01    0.992E+00
DAV:  11    -0.912419223261E+01   -0.42286E+00   -0.26652E+00   135   0.155E+01    0.120E+01
DAV:  12    -0.109335551049E+02   -0.18094E+01   -0.19155E+00   134   0.985E+00    0.672E+00
DAV:  13    -0.120002170268E+02   -0.10667E+01   -0.48944E-01   144   0.387E+00    0.514E+00
DAV:  14    -0.129345168426E+02   -0.93430E+00   -0.41636E-01   142   0.403E+00    0.306E+00
DAV:  15    -0.134956403292E+02   -0.56112E+00   -0.15328E-01   144   0.234E+00    0.178E+00
DAV:  16    -0.139902633094E+02   -0.49462E+00   -0.12297E-01   134   0.226E+00    0.783E-01
DAV:  17    -0.142312430418E+02   -0.24098E+00   -0.33138E-02   144   0.103E+00    0.606E-01
DAV:  18    -0.144724222715E+02   -0.24118E+00   -0.34263E-02   150   0.704E-01    0.433E-01
DAV:  19    -0.146309428108E+02   -0.15852E+00   -0.12591E-02   149   0.503E-01    0.259E-01
DAV:  20    -0.147291681600E+02   -0.98225E-01   -0.47294E-03   148   0.396E-01    0.159E-01
DAV:  21    -0.147847083161E+02   -0.55540E-01   -0.17657E-03   141   0.215E-01    0.819E-02
DAV:  22    -0.148350583749E+02   -0.50350E-01   -0.71857E-04   141   0.129E-01    0.592E-02
DAV:  23    -0.148752177143E+02   -0.40159E-01   -0.44739E-04   118   0.941E-02    0.417E-02
DAV:  24    -0.149176956350E+02   -0.42478E-01   -0.71786E-04   149   0.108E-01    0.391E-02
DAV:  25    -0.149414408970E+02   -0.23745E-01   -0.26296E-04   110   0.678E-02    0.410E-02
DAV:  26    -0.149573176414E+02   -0.15877E-01   -0.19162E-04    93   0.588E-02    0.282E-02
DAV:  27    -0.149630766705E+02   -0.57590E-02   -0.13557E-04    94   0.451E-02    0.148E-02
DAV:  28    -0.149651357110E+02   -0.20590E-02   -0.68920E-05    87   0.304E-02    0.866E-03
DAV:  29    -0.149668975200E+02   -0.17618E-02   -0.81000E-05    93   0.253E-02    0.487E-03
DAV:  30    -0.149677309539E+02   -0.83343E-03   -0.35061E-05    88   0.186E-02    0.317E-03
DAV:  31    -0.149682465231E+02   -0.51557E-03   -0.29762E-05    86   0.151E-02    0.275E-03
DAV:  32    -0.149685742210E+02   -0.32770E-03   -0.19238E-05    92   0.115E-02    0.235E-03
DAV:  33    -0.149687916375E+02   -0.21742E-03   -0.13513E-05    87   0.969E-03    0.207E-03
DAV:  34    -0.149689091583E+02   -0.11752E-03   -0.96796E-06   102   0.764E-03    0.116E-03
DAV:  35    -0.149689881882E+02   -0.79030E-04   -0.59167E-06    94   0.620E-03
  17 F= -.14968988E+02 E0= -.15002905E+02  d E =-.104839E+01  mag=     0.1152
