 vasp.6.1.2 22Jul20 (build Feb  1 2022 14:42:14) gamma-only                      
 executed on             LinuxPGI date 2022.02.04  03:14:44
 running on    8 total cores
 distrk:  each k-point on    8 cores,    1 groups
 distr:  one band on NCORE=   8 cores,    1 groups


--------------------------------------------------------------------------------------------------------


 INCAR:
 POTCAR:    PAW_PBE Pd 04Jan2005                  
 -----------------------------------------------------------------------------
|                                                                             |
|           W    W    AA    RRRRR   N    N  II  N    N   GGGG   !!!           |
|           W    W   A  A   R    R  NN   N  II  NN   N  G    G  !!!           |
|           W    W  A    A  R    R  N N  N  II  N N  N  G       !!!           |
|           W WW W  AAAAAA  RRRRR   N  N N  II  N  N N  G  GGG   !            |
|           WW  WW  A    A  R   R   N   NN  II  N   NN  G    G                |
|           W    W  A    A  R    R  N    N  II  N    N   GGGG   !!!           |
|                                                                             |
|     You use a magnetic or noncollinear calculation, but did not specify     |
|     the initial magnetic moment with the MAGMOM tag. Note that a            |
|     default of 1 will be used for all atoms. This ferromagnetic setup       |
|     may break the symmetry of the crystal, in particular it may rule        |
|     out finding an antiferromagnetic solution. Thence, we recommend         |
|     setting the initial magnetic moment manually or verifying carefully     |
|     that this magnetic setup is desired.                                    |
|                                                                             |
 -----------------------------------------------------------------------------

 -----------------------------------------------------------------------------
|                                                                             |
|           W    W    AA    RRRRR   N    N  II  N    N   GGGG   !!!           |
|           W    W   A  A   R    R  NN   N  II  NN   N  G    G  !!!           |
|           W    W  A    A  R    R  N N  N  II  N N  N  G       !!!           |
|           W WW W  AAAAAA  RRRRR   N  N N  II  N  N N  G  GGG   !            |
|           WW  WW  A    A  R   R   N   NN  II  N   NN  G    G                |
|           W    W  A    A  R    R  N    N  II  N    N   GGGG   !!!           |
|                                                                             |
|     For optimal performance we recommend to set                             |
|       NCORE = 4 - approx SQRT(number of cores).                             |
|     NCORE specifies how many cores store one orbital (NPAR=cpu/NCORE).      |
|     This setting can greatly improve the performance of VASP for DFT.       |
|     The default, NCORE=1 might be grossly inefficient on modern             |
|     multi-core architectures or massively parallel machines. Do your        |
|     own testing!!!!                                                         |
|     Unfortunately you need to use the default for GW and RPA                |
|     calculations (for HF NCORE is supported but not extensively tested      |
|     yet).                                                                   |
|                                                                             |
 -----------------------------------------------------------------------------

 POTCAR:    PAW_PBE Pd 04Jan2005                  
   SHA256 =  dd6f6f02930356371984e2b707ff5e456046761dc76b07c1eba30abd15eb3c39 Pd/POTCAR             
   COPYR  = (c) Copyright 04Jan2005 Georg Kresse                                                    
   COPYR  = This file is part of the software VASP. Any use, copying, and all other rights are regul
   COPYR  = If you do not have a valid VASP license, you may not use, copy or distribute this file. 
   VRHFIN =Pd : s1 d9                                                                               
   LEXCH  = PE                                                                                      
   EATOM  =   809.7530 eV,   59.5152 Ry                                                             
                                                                                                    
   TITEL  = PAW_PBE Pd 04Jan2005                                                                    
   LULTRA =        F    use ultrasoft PP ?                                                          
   IUNSCR =        1    unscreen: 0-lin 1-nonlin 2-no                                               
   RPACOR =    2.000    partial core radius                                                         
   POMASS =  106.420; ZVAL   =   10.000    mass and valenz                                          
   RCORE  =    2.600    outmost cutoff radius                                                       
   RWIGS  =    2.710; RWIGS  =    1.434    wigner-seitz radius (au A)                               
   ENMAX  =  250.925; ENMIN  =  188.194 eV                                                          
   ICORE  =        3    local potential                                                             
   LCOR   =        T    correct aug charges                                                         
   LPAW   =        T    paw PP                                                                      
   EAUG   =  416.230                                                                                
   DEXC   =    0.000                                                                                
   RMAX   =    2.653    core radius for proj-oper                                                   
   RAUG   =    1.300    factor for augmentation sphere                                              
   RDEP   =    2.734    radius for radial grids                                                     
   RDEPT  =    2.103    core radius for aug-charge                                                  
                                                                                                    
   Atomic configuration                                                                             
   12 entries                                                                                       
     n  l   j            E        occ.                                                              
     1  0  0.50    -24164.6631   2.0000                                                             
     2  0  0.50     -3530.9218   2.0000                                                             
     2  1  1.50     -3165.6822   6.0000                                                             
     3  0  0.50      -639.4577   2.0000                                                             
     3  1  1.50      -519.4532   6.0000                                                             
     3  2  2.50      -328.9757  10.0000                                                             
     4  0  0.50       -88.7014   2.0000                                                             
     4  1  1.50       -54.4540   6.0000                                                             
     4  2  2.50        -6.6878   9.0000                                                             
     5  0  0.50        -4.3543   1.0000                                                             
     5  1  0.50        -1.3606   0.0000                                                             
     4  3  2.50        -1.3606   0.0000                                                             
   Description                                                                                      
     l       E           TYP  RCUT    TYP  RCUT                                                     
     2     -6.6878251     23  2.400                                                                 
     2     -8.0484077     23  2.400                                                                 
     0     -4.3542939     23  2.400                                                                 
     0      4.3406793     23  2.400                                                                 
     1     -4.0817478     23  2.600                                                                 
     1     15.8380318     23  2.600                                                                 
     3     -4.0817478     23  2.400                                                                 
  local pseudopotential read in
  partial core-charges read in
  partial kinetic energy density read in
  atomic valenz-charges read in
  non local Contribution for L=            2  read in
    real space projection operators read in
  non local Contribution for L=            2  read in
    real space projection operators read in
  non local Contribution for L=            0  read in
    real space projection operators read in
  non local Contribution for L=            0  read in
    real space projection operators read in
  non local Contribution for L=            1  read in
    real space projection operators read in
  non local Contribution for L=            1  read in
    real space projection operators read in
    PAW grid and wavefunctions read in
 
   number of l-projection  operators is LMAX  =            6
   number of lm-projection operators is LMMAX =           18
 
  PAW_PBE Pd 04Jan2005                  :
 energy of atom  1       EATOM= -809.7530
 kinetic energy error for atom=    0.0091 (will be added to EATOM!!)
 
 
 POSCAR: Pd
  positions in cartesian coordinates
  No initial velocities read in
 exchange correlation table for  LEXCH =        8
   RHO(1)=    0.500       N(1)  =     2000
   RHO(2)=  100.500       N(2)  =     4000
 


--------------------------------------------------------------------------------------------------------


 ion  position               nearest neighbor table
   1  0.432  0.515  0.487-   2 2.41   4 2.49
   2  0.413  0.534  0.592-   1 2.41   4 2.49
   3  0.608  0.468  0.419-   5 2.34
   4  0.511  0.518  0.559-   2 2.49   1 2.49   5 2.52
   5  0.609  0.508  0.518-   3 2.34   4 2.52
 

IMPORTANT INFORMATION: All symmetrisations will be switched off!
NOSYMM: (Re-)initialisation of all symmetry stuff for point group C_1.


----------------------------------------------------------------------------------------

                                     Primitive cell                                     

  volume of cell :   10424.5044

  direct lattice vectors                    reciprocal lattice vectors
    24.004675988  0.000000000  0.000000000     0.041658550  0.000000000  0.000000000
     0.000000000 19.468246591  0.000000000     0.000000000  0.051365694  0.000000000
     0.000000000  0.000000000 22.306566609     0.000000000  0.000000000  0.044829848

  length of vectors
    24.004675988 19.468246591 22.306566609     0.041658550  0.051365694  0.044829848

  position of ions in fractional coordinates (direct lattice)
     0.431816652  0.514505078  0.487030513
     0.413377805  0.533596295  0.592057603
     0.607701583  0.468087094  0.418943342
     0.511336999  0.517784655  0.558510684
     0.608866850  0.507534091  0.517800269

  ion indices of the primitive-cell ions
   primitive index   ion index
                 1           1
                 2           2
                 3           3
                 4           4
                 5           5

----------------------------------------------------------------------------------------

 
 
 KPOINTS: KPOINTS created by Atomic Simulation Env

Automatic generation of k-mesh.
Space group operators:
 irot       det(A)        alpha          n_x          n_y          n_z        tau_x        tau_y        tau_z
    1     1.000000     0.000000     1.000000     0.000000     0.000000     0.000000     0.000000     0.000000
 
 Subroutine IBZKPT returns following result:
 ===========================================
 
 Found      1 irreducible k-points:
 
 Following reciprocal coordinates:
            Coordinates               Weight
  0.000000  0.000000  0.000000      1.000000
 
 Following cartesian coordinates:
            Coordinates               Weight
  0.000000  0.000000  0.000000      1.000000
 


--------------------------------------------------------------------------------------------------------




 Dimension of arrays:
   k-points           NKPTS =      1   k-points in BZ     NKDIM =      1   number of bands    NBANDS=     33
   number of dos      NEDOS =    301   number of ions     NIONS =      5
   non local maximal  LDIM  =      6   non local SUM 2l+1 LMDIM =     18
   total plane-waves  NPLWV = ******
   max r-space proj   IRMAX =      1   max aug-charges    IRDMAX=   6203
   dimension x,y,z NGX =   120 NGY =   96 NGZ =  112
   dimension x,y,z NGXF=   240 NGYF=  192 NGZF=  224
   support grid    NGXF=   240 NGYF=  192 NGZF=  224
   ions per type =               5
   NGX,Y,Z   is equivalent  to a cutoff of   8.31,  8.20,  8.35 a.u.
   NGXF,Y,Z  is equivalent  to a cutoff of  16.62, 16.40, 16.69 a.u.

 SYSTEM =  unknown system                          
 POSCAR =  Pd                                      

 Startparameter for this run:
   NWRITE =      2    write-flag & timer
   PREC   = normal    normal or accurate (medium, high low for compatibility)
   ISTART =      0    job   : 0-new  1-cont  2-samecut
   ICHARG =      2    charge: 1-file 2-atom 10-const
   ISPIN  =      2    spin polarized calculation?
   LNONCOLLINEAR =      F non collinear calculations
   LSORBIT =      F    spin-orbit coupling
   INIWAV =      1    electr: 0-lowe 1-rand  2-diag
   LASPH  =      F    aspherical Exc in radial PAW
   METAGGA=      F    non-selfconsistent MetaGGA calc.

 Electronic Relaxation 1
   ENCUT  =  400.0 eV  29.40 Ry    5.42 a.u.  39.15 31.75 36.38*2*pi/ulx,y,z
   ENINI  =  400.0     initial cutoff
   ENAUG  =  416.2 eV  augmentation charge cutoff
   NELM   =     60;   NELMIN=  2; NELMDL=  0     # of ELM steps 
   EDIFF  = 0.1E-03   stopping-criterion for ELM
   LREAL  =      F    real-space projection
   NLSPLINE    = F    spline interpolate recip. space projectors
   LCOMPAT=      F    compatible to vasp.4.4
   GGA_COMPAT  = T    GGA compatible to vasp.4.4-vasp.4.6
   LMAXPAW     = -100 max onsite density
   LMAXMIX     =    2 max onsite mixed and CHGCAR
   VOSKOWN=      0    Vosko Wilk Nusair interpolation
   ROPT   =    0.00000
 Ionic relaxation
   EDIFFG = 0.1E-02   stopping-criterion for IOM
   NSW    =   1000    number of steps for IOM
   NBLOCK =      1;   KBLOCK =   1000    inner block; outer block 
   IBRION =      2    ionic relax: 0-MD 1-quasi-New 2-CG
   NFREE  =      1    steps in history (QN), initial steepest desc. (CG)
   ISIF   =      0    stress and relaxation
   IWAVPR =     11    prediction:  0-non 1-charg 2-wave 3-comb
   ISYM   =      0    0-nonsym 1-usesym 2-fastsym
   LCORR  =      T    Harris-Foulkes like correction to forces

   POTIM  = 0.5000    time-step for ionic-motion
   TEIN   =    0.0    initial temperature
   TEBEG  =    0.0;   TEEND  =   0.0 temperature during run
   SMASS  =  -3.00    Nose mass-parameter (am)
   estimated Nose-frequenzy (Omega)   =  0.10E-29 period in steps = 0.13E+47 mass=  -0.132E-25a.u.
   SCALEE = 1.0000    scale energy and forces
   NPACO  =    256;   APACO  = 16.0  distance and # of slots for P.C.
   PSTRESS=    0.0 pullay stress

  Mass of Ions in am
   POMASS = 106.42
  Ionic Valenz
   ZVAL   =  10.00
  Atomic Wigner-Seitz radii
   RWIGS  =  -1.00
  virtual crystal weights 
   VCA    =   1.00
   NELECT =      50.0000    total number of electrons
   NUPDOWN=      -1.0000    fix difference up-down

 DOS related values:
   EMIN   =  10.00;   EMAX   =-10.00  energy-range for DOS
   EFERMI =   0.00
   ISMEAR =     1;   SIGMA  =   0.20  broadening in eV -4-tet -1-fermi 0-gaus

 Electronic relaxation 2 (details)
   IALGO  =     38    algorithm
   LDIAG  =      T    sub-space diagonalisation (order eigenvalues)
   LSUBROT=      F    optimize rotation matrix (better conditioning)
   TURBO    =      0    0=normal 1=particle mesh
   IRESTART =      0    0=no restart 2=restart with 2 vectors
   NREBOOT  =      0    no. of reboots
   NMIN     =      0    reboot dimension
   EREF     =   0.00    reference energy to select bands
   IMIX   =      4    mixing-type and parameters
     AMIX     =   0.40;   BMIX     =  1.00
     AMIX_MAG =   1.60;   BMIX_MAG =  1.00
     AMIN     =   0.10
     WC   =   100.;   INIMIX=   1;  MIXPRE=   1;  MAXMIX= -45

 Intra band minimization:
   WEIMIN = 0.0010     energy-eigenvalue tresh-hold
   EBREAK =  0.76E-06  absolut break condition
   DEPER  =   0.30     relativ break condition  

   TIME   =   0.40     timestep for ELM

  volume/ion in A,a.u.               =    2084.90     14069.61
  Fermi-wavevector in a.u.,A,eV,Ry     =   0.276087  0.521729  1.037093  0.076224
  Thomas-Fermi vector in A             =   1.120410
 
 Write flags
   LWAVE        =      F    write WAVECAR
   LDOWNSAMPLE  =      F    k-point downsampling of WAVECAR
   LCHARG       =      F    write CHGCAR
   LVTOT        =      F    write LOCPOT, total local potential
   LVHAR        =      F    write LOCPOT, Hartree potential only
   LELF         =      F    write electronic localiz. function (ELF)
   LORBIT       =      0    0 simple, 1 ext, 2 COOP (PROOUT), +10 PAW based schemes


 Dipole corrections
   LMONO  =      F    monopole corrections only (constant potential shift)
   LDIPOL =      F    correct potential (dipole corrections)
   IDIPOL =      0    1-x, 2-y, 3-z, 4-all directions 
   EPSILON=  1.0000000 bulk dielectric constant

 Exchange correlation treatment:
   GGA     =    PE    GGA type
   LEXCH   =     8    internal setting for exchange type
   VOSKOWN=      0    Vosko Wilk Nusair interpolation
   LHFCALC =     F    Hartree Fock is set to
   LHFONE  =     F    Hartree Fock one center treatment
   AEXX    =    0.0000 exact exchange contribution

 Linear response parameters
   LEPSILON=     F    determine dielectric tensor
   LRPA    =     F    only Hartree local field effects (RPA)
   LNABLA  =     F    use nabla operator in PAW spheres
   LVEL    =     F    velocity operator in full k-point grid
   LINTERFAST=   F  fast interpolation
   KINTER  =     0    interpolate to denser k-point grid
   CSHIFT  =0.1000    complex shift for real part using Kramers Kronig
   OMEGAMAX=  -1.0    maximum frequency
   DEG_THRESHOLD= 0.2000000E-02 threshold for treating states as degnerate
   RTIME   =   -0.100 relaxation time in fs
  (WPLASMAI=    0.000 imaginary part of plasma frequency in eV, 0.658/RTIME)
   DFIELD  = 0.0000000 0.0000000 0.0000000 field for delta impulse in time
 
 Orbital magnetization related:
   ORBITALMAG=     F  switch on orbital magnetization
   LCHIMAG   =     F  perturbation theory with respect to B field
   DQ        =  0.001000  dq finite difference perturbation B field
   LLRAUG    =     F  two centre corrections for induced B field



--------------------------------------------------------------------------------------------------------


 conjugate gradient relaxation of ions
 charge density and potential will be updated during run
 spin polarized calculation
 Variant of blocked Davidson
 Davidson routine will perform the subspace rotation
 perform sub-space diagonalisation
    after iterative eigenvector-optimisation
 modified Broyden-mixing scheme, WC =      100.0
 initial mixing is a Kerker type mixing with AMIX =  0.4000 and BMIX =      1.0000
 Hartree-type preconditioning will be used
 using additional bands             8
 reciprocal scheme for non local part
 use partial core corrections
 calculate Harris-corrections to forces 
   (improved forces if not selfconsistent)
 use gradient corrections 
 use of overlap-Matrix (Vanderbilt PP)
 Methfessel and Paxton  Order N= 1 SIGMA  =   0.20


--------------------------------------------------------------------------------------------------------


  energy-cutoff  :      400.00
  volume of cell :    10424.50
      direct lattice vectors                 reciprocal lattice vectors
    24.004675988  0.000000000  0.000000000     0.041658550  0.000000000  0.000000000
     0.000000000 19.468246591  0.000000000     0.000000000  0.051365694  0.000000000
     0.000000000  0.000000000 22.306566609     0.000000000  0.000000000  0.044829848

  length of vectors
    24.004675988 19.468246591 22.306566609     0.041658550  0.051365694  0.044829848


 
 k-points in units of 2pi/SCALE and weight: KPOINTS created by Atomic Simulation Env
   0.00000000  0.00000000  0.00000000       1.000
 
 k-points in reciprocal lattice and weights: KPOINTS created by Atomic Simulation Env
   0.00000000  0.00000000  0.00000000       1.000
 
 position of ions in fractional coordinates (direct lattice) 
   0.43181665  0.51450508  0.48703051
   0.41337780  0.53359629  0.59205760
   0.60770158  0.46808709  0.41894334
   0.51133700  0.51778466  0.55851068
   0.60886685  0.50753409  0.51780027
 
 position of ions in cartesian coordinates  (Angst):
  10.36561881 10.01651174 10.86397858
   9.92300026 10.38818425 13.20677237
  14.58767959  9.11283497  9.34518755
  12.27447898 10.08035935 12.45845577
  14.61565145  9.88079883 11.55034620
 


--------------------------------------------------------------------------------------------------------


 use parallel FFT for orbitals z direction half grid
 k-point   1 :   0.0000 0.0000 0.0000  plane waves:   94693

 maximum and minimum number of plane-waves per node :     11849    11821

 maximum number of plane-waves:     94693
 maximum index in each direction: 
   IXMAX=   39   IYMAX=   31   IZMAX=   36
   IXMIN=  -39   IYMIN=  -31   IZMIN=    0


 parallel 3D FFT for wavefunctions:
    minimum data exchange during FFTs selected (reduces bandwidth)
 parallel 3D FFT for charge:
    minimum data exchange during FFTs selected (reduces bandwidth)


 total amount of memory used by VASP MPI-rank0   198744. kBytes
=======================================================================

   base      :      30000. kBytes
   nonl-proj :       2647. kBytes
   fftplans  :      47100. kBytes
   grid      :     106490. kBytes
   one-center:         15. kBytes
   wavefun   :      12492. kBytes
 
     INWAV:  cpu time    0.0000: real time    0.0000
 Broyden mixing: mesh for mixing (old mesh)
   NGX = 79   NGY = 63   NGZ = 73
  (NGX  =240   NGY  =192   NGZ  =224)
  gives a total of 363321 points

 initial charge density was supplied:
 charge density of overlapping atoms calculated
 number of electron      50.0000000 magnetization       5.0000000
 keeping initial charge density in first step


--------------------------------------------------------------------------------------------------------


 Maximum index for augmentation-charges           778 (set IRDMAX)


--------------------------------------------------------------------------------------------------------


 First call to EWALD:  gamma=   0.081
 Maximum number of real-space cells 3x 3x 3
 Maximum number of reciprocal cells 3x 3x 3

    FEWALD:  cpu time    0.0010: real time    0.0010


--------------------------------------- Iteration      1(   1)  ---------------------------------------


    POTLOK:  cpu time    2.4884: real time    2.5115
    SETDIJ:  cpu time    0.0212: real time    0.0213
     EDDAV:  cpu time    2.2392: real time    2.3280
       DOS:  cpu time    0.0031: real time    0.0032
    --------------------------------------------
      LOOP:  cpu time    4.7520: real time    4.8639

 eigenvalue-minimisations  :   132
 total energy-change (2. order) : 0.3955307E+03  (-0.6431853E+03)
 number of electron      50.0000000 magnetization       5.0000000
 augmentation part       50.0000000 magnetization       5.0000000

 Free energy of the ion-electron system (eV)
  ---------------------------------------------------
  alpha Z        PSCENC =         1.56302934
  Ewald energy   TEWEN  =      2191.79176910
  -Hartree energ DENC   =     -6049.04984326
  -exchange      EXHF   =         0.00000000
  -V(xc)+E(xc)   XCENC  =      -153.29042044
  PAW double counting   =      4033.23964144    -3722.16140761
  entropy T*S    EENTRO =        -0.01782502
  eigenvalues    EBANDS =        44.73629166
  atomic energy  EATOM  =      4048.71946290
  Solvation  Ediel_sol  =         0.00000000
  ---------------------------------------------------
  free energy    TOTEN  =       395.53069811 eV

  energy without entropy =      395.54852312  energy(sigma->0) =      395.53663978


--------------------------------------------------------------------------------------------------------




--------------------------------------- Iteration      1(   2)  ---------------------------------------


     EDDAV:  cpu time    3.5092: real time    3.5519
       DOS:  cpu time    0.0019: real time    0.0019
    --------------------------------------------
      LOOP:  cpu time    3.5111: real time    3.5539

 eigenvalue-minimisations  :   247
 total energy-change (2. order) :-0.1232663E+03  (-0.1158191E+03)
 number of electron      50.0000000 magnetization       5.0000000
 augmentation part       50.0000000 magnetization       5.0000000

 Free energy of the ion-electron system (eV)
  ---------------------------------------------------
  alpha Z        PSCENC =         1.56302934
  Ewald energy   TEWEN  =      2191.79176910
  -Hartree energ DENC   =     -6049.04984326
  -exchange      EXHF   =         0.00000000
  -V(xc)+E(xc)   XCENC  =      -153.29042044
  PAW double counting   =      4033.23964144    -3722.16140761
  entropy T*S    EENTRO =        -0.00984456
  eigenvalues    EBANDS =       -78.53796127
  atomic energy  EATOM  =      4048.71946290
  Solvation  Ediel_sol  =         0.00000000
  ---------------------------------------------------
  free energy    TOTEN  =       272.26442562 eV

  energy without entropy =      272.27427019  energy(sigma->0) =      272.26770715


--------------------------------------------------------------------------------------------------------




--------------------------------------- Iteration      1(   3)  ---------------------------------------


     EDDAV:  cpu time    3.7271: real time    3.7295
       DOS:  cpu time    0.0019: real time    0.0019
    --------------------------------------------
      LOOP:  cpu time    3.7290: real time    3.7313

 eigenvalue-minimisations  :   264
 total energy-change (2. order) :-0.1987339E+03  (-0.1897624E+03)
 number of electron      50.0000000 magnetization       5.0000000
 augmentation part       50.0000000 magnetization       5.0000000

 Free energy of the ion-electron system (eV)
  ---------------------------------------------------
  alpha Z        PSCENC =         1.56302934
  Ewald energy   TEWEN  =      2191.79176910
  -Hartree energ DENC   =     -6049.04984326
  -exchange      EXHF   =         0.00000000
  -V(xc)+E(xc)   XCENC  =      -153.29042044
  PAW double counting   =      4033.23964144    -3722.16140761
  entropy T*S    EENTRO =         0.00296398
  eigenvalues    EBANDS =      -277.28470248
  atomic energy  EATOM  =      4048.71946290
  Solvation  Ediel_sol  =         0.00000000
  ---------------------------------------------------
  free energy    TOTEN  =        73.53049296 eV

  energy without entropy =       73.52752898  energy(sigma->0) =       73.52950496


--------------------------------------------------------------------------------------------------------




--------------------------------------- Iteration      1(   4)  ---------------------------------------


     EDDAV:  cpu time    2.9957: real time    2.9977
       DOS:  cpu time    0.0018: real time    0.0018
    --------------------------------------------
      LOOP:  cpu time    2.9975: real time    2.9995

 eigenvalue-minimisations  :   200
 total energy-change (2. order) :-0.7688650E+02  (-0.7109012E+02)
 number of electron      50.0000000 magnetization       5.0000000
 augmentation part       50.0000000 magnetization       5.0000000

 Free energy of the ion-electron system (eV)
  ---------------------------------------------------
  alpha Z        PSCENC =         1.56302934
  Ewald energy   TEWEN  =      2191.79176910
  -Hartree energ DENC   =     -6049.04984326
  -exchange      EXHF   =         0.00000000
  -V(xc)+E(xc)   XCENC  =      -153.29042044
  PAW double counting   =      4033.23964144    -3722.16140761
  entropy T*S    EENTRO =         0.00768056
  eigenvalues    EBANDS =      -354.17591689
  atomic energy  EATOM  =      4048.71946290
  Solvation  Ediel_sol  =         0.00000000
  ---------------------------------------------------
  free energy    TOTEN  =        -3.35600487 eV

  energy without entropy =       -3.36368543  energy(sigma->0) =       -3.35856505


--------------------------------------------------------------------------------------------------------




--------------------------------------- Iteration      1(   5)  ---------------------------------------


     EDDAV:  cpu time    2.5410: real time    2.5587
       DOS:  cpu time    0.0016: real time    0.0016
    CHARGE:  cpu time    0.4414: real time    0.4897
    MIXING:  cpu time    0.0336: real time    0.0483
    --------------------------------------------
      LOOP:  cpu time    3.0177: real time    3.0984

 eigenvalue-minimisations  :   152
 total energy-change (2. order) :-0.1090738E+02  (-0.9484674E+01)
 number of electron      50.0000044 magnetization       4.7152351
 augmentation part       21.5639303 magnetization       3.4641191

 Broyden mixing:
  rms(total) = 0.11252E+01    rms(broyden)= 0.11249E+01
  rms(prec ) = 0.11541E+01
  weight for this iteration     100.00

 Free energy of the ion-electron system (eV)
  ---------------------------------------------------
  alpha Z        PSCENC =         1.56302934
  Ewald energy   TEWEN  =      2191.79176910
  -Hartree energ DENC   =     -6049.04984326
  -exchange      EXHF   =         0.00000000
  -V(xc)+E(xc)   XCENC  =      -153.29042044
  PAW double counting   =      4033.23964144    -3722.16140761
  entropy T*S    EENTRO =        -0.02389205
  eigenvalues    EBANDS =      -365.05172171
  atomic energy  EATOM  =      4048.71946290
  Solvation  Ediel_sol  =         0.00000000
  ---------------------------------------------------
  free energy    TOTEN  =       -14.26338230 eV

  energy without entropy =      -14.23949026  energy(sigma->0) =      -14.25541829


--------------------------------------------------------------------------------------------------------




--------------------------------------- Iteration      1(   6)  ---------------------------------------


    POTLOK:  cpu time    2.4905: real time    2.5893
    SETDIJ:  cpu time    0.0214: real time    0.0254
     EDDAV:  cpu time    2.3567: real time    2.3839
       DOS:  cpu time    0.0013: real time    0.0013
    CHARGE:  cpu time    0.4163: real time    0.4177
    MIXING:  cpu time    0.0453: real time    0.0455
    --------------------------------------------
      LOOP:  cpu time    5.3315: real time    5.4631

 eigenvalue-minimisations  :   148
 total energy-change (2. order) : 0.1880223E+01  (-0.1201292E+01)
 number of electron      50.0000042 magnetization       4.6695941
 augmentation part       21.6163710 magnetization       2.1862191

 Broyden mixing:
  rms(total) = 0.11958E+01    rms(broyden)= 0.11957E+01
  rms(prec ) = 0.13152E+01
  weight for this iteration     100.00

 eigenvalues of (default mixing * dielectric matrix)
  average eigenvalue GAMMA=   0.4458
  0.4458

 Free energy of the ion-electron system (eV)
  ---------------------------------------------------
  alpha Z        PSCENC =         1.56302934
  Ewald energy   TEWEN  =      2191.79176910
  -Hartree energ DENC   =     -6071.34540484
  -exchange      EXHF   =         0.00000000
  -V(xc)+E(xc)   XCENC  =      -151.47888595
  PAW double counting   =      4259.29133215    -3949.74815851
  entropy T*S    EENTRO =         0.02391893
  eigenvalues    EBANDS =      -341.20022228
  atomic energy  EATOM  =      4048.71946290
  Solvation  Ediel_sol  =         0.00000000
  ---------------------------------------------------
  free energy    TOTEN  =       -12.38315915 eV

  energy without entropy =      -12.40707809  energy(sigma->0) =      -12.39113213


--------------------------------------------------------------------------------------------------------




--------------------------------------- Iteration      1(   7)  ---------------------------------------


    POTLOK:  cpu time    2.5140: real time    2.5320
    SETDIJ:  cpu time    0.0240: real time    0.0240
     EDDAV:  cpu time    2.6329: real time    2.7296
       DOS:  cpu time    0.0015: real time    0.0015
    CHARGE:  cpu time    0.4239: real time    0.4323
    MIXING:  cpu time    0.0470: real time    0.0470
    --------------------------------------------
      LOOP:  cpu time    5.6431: real time    5.7664

 eigenvalue-minimisations  :   174
 total energy-change (2. order) :-0.3842199E+00  (-0.1479074E+01)
 number of electron      50.0000060 magnetization       4.5353460
 augmentation part       21.4517311 magnetization       3.1232912

 Broyden mixing:
  rms(total) = 0.12987E+01    rms(broyden)= 0.12984E+01
  rms(prec ) = 0.14423E+01
  weight for this iteration     100.00

 eigenvalues of (default mixing * dielectric matrix)
  average eigenvalue GAMMA=   0.4547
  0.6980  0.2113

 Free energy of the ion-electron system (eV)
  ---------------------------------------------------
  alpha Z        PSCENC =         1.56302934
  Ewald energy   TEWEN  =      2191.79176910
  -Hartree energ DENC   =     -6080.00882459
  -exchange      EXHF   =         0.00000000
  -V(xc)+E(xc)   XCENC  =      -150.90122124
  PAW double counting   =      4308.91817519    -3999.53871285
  entropy T*S    EENTRO =        -0.00364506
  eigenvalues    EBANDS =      -333.30741180
  atomic energy  EATOM  =      4048.71946290
  Solvation  Ediel_sol  =         0.00000000
  ---------------------------------------------------
  free energy    TOTEN  =       -12.76737902 eV

  energy without entropy =      -12.76373396  energy(sigma->0) =      -12.76616400


--------------------------------------------------------------------------------------------------------




--------------------------------------- Iteration      1(   8)  ---------------------------------------


    POTLOK:  cpu time    2.4999: real time    2.5222
    SETDIJ:  cpu time    0.0202: real time    0.0202
     EDDAV:  cpu time    2.2765: real time    2.2859
       DOS:  cpu time    0.0012: real time    0.0012
    CHARGE:  cpu time    0.4135: real time    0.4223
    MIXING:  cpu time    0.0506: real time    0.0507
    --------------------------------------------
      LOOP:  cpu time    5.2620: real time    5.3024

 eigenvalue-minimisations  :   134
 total energy-change (2. order) : 0.9351443E+00  (-0.4578936E+00)
 number of electron      50.0000056 magnetization       4.4225588
 augmentation part       21.3741866 magnetization       3.1761297

 Broyden mixing:
  rms(total) = 0.11371E+01    rms(broyden)= 0.11370E+01
  rms(prec ) = 0.12376E+01
  weight for this iteration     100.00

 eigenvalues of (default mixing * dielectric matrix)
  average eigenvalue GAMMA=   0.4404
  0.8607  0.2302  0.2302

 Free energy of the ion-electron system (eV)
  ---------------------------------------------------
  alpha Z        PSCENC =         1.56302934
  Ewald energy   TEWEN  =      2191.79176910
  -Hartree energ DENC   =     -6087.57782311
  -exchange      EXHF   =         0.00000000
  -V(xc)+E(xc)   XCENC  =      -150.54787855
  PAW double counting   =      4369.68635778    -4060.75423436
  entropy T*S    EENTRO =         0.00404067
  eigenvalues    EBANDS =      -324.71695845
  atomic energy  EATOM  =      4048.71946290
  Solvation  Ediel_sol  =         0.00000000
  ---------------------------------------------------
  free energy    TOTEN  =       -11.83223467 eV

  energy without entropy =      -11.83627535  energy(sigma->0) =      -11.83358156


--------------------------------------------------------------------------------------------------------




--------------------------------------- Iteration      1(   9)  ---------------------------------------


    POTLOK:  cpu time    2.5407: real time    2.5682
    SETDIJ:  cpu time    0.0244: real time    0.0245
     EDDAV:  cpu time    2.5040: real time    2.5638
       DOS:  cpu time    0.0016: real time    0.0016
    CHARGE:  cpu time    0.4126: real time    0.4129
    MIXING:  cpu time    0.0711: real time    0.0711
    --------------------------------------------
      LOOP:  cpu time    5.5545: real time    5.6420

 eigenvalue-minimisations  :   151
 total energy-change (2. order) : 0.1143712E+01  (-0.1485317E+00)
 number of electron      50.0000048 magnetization       4.2481460
 augmentation part       21.6185021 magnetization       2.7129848

 Broyden mixing:
  rms(total) = 0.46053E+00    rms(broyden)= 0.46037E+00
  rms(prec ) = 0.49104E+00
  weight for this iteration     100.00

 eigenvalues of (default mixing * dielectric matrix)
  average eigenvalue GAMMA=   0.5660
  1.3581  0.4409  0.2325  0.2325

 Free energy of the ion-electron system (eV)
  ---------------------------------------------------
  alpha Z        PSCENC =         1.56302934
  Ewald energy   TEWEN  =      2191.79176910
  -Hartree energ DENC   =     -6090.29632275
  -exchange      EXHF   =         0.00000000
  -V(xc)+E(xc)   XCENC  =      -150.12260172
  PAW double counting   =      4407.80101628    -4099.11834081
  entropy T*S    EENTRO =         0.00684839
  eigenvalues    EBANDS =      -321.03338387
  atomic energy  EATOM  =      4048.71946290
  Solvation  Ediel_sol  =         0.00000000
  ---------------------------------------------------
  free energy    TOTEN  =       -10.68852315 eV

  energy without entropy =      -10.69537154  energy(sigma->0) =      -10.69080595


--------------------------------------------------------------------------------------------------------




--------------------------------------- Iteration      1(  10)  ---------------------------------------


    POTLOK:  cpu time    2.5562: real time    2.5633
    SETDIJ:  cpu time    0.0256: real time    0.0256
     EDDAV:  cpu time    2.2551: real time    2.2627
       DOS:  cpu time    0.0022: real time    0.0022
    CHARGE:  cpu time    0.4409: real time    0.4455
    MIXING:  cpu time    0.0576: real time    0.0577
    --------------------------------------------
      LOOP:  cpu time    5.3376: real time    5.3569

 eigenvalue-minimisations  :   135
 total energy-change (2. order) : 0.1389945E+00  (-0.1236075E+00)
 number of electron      50.0000048 magnetization       4.1207693
 augmentation part       21.5667040 magnetization       2.4984526

 Broyden mixing:
  rms(total) = 0.39131E+00    rms(broyden)= 0.39120E+00
  rms(prec ) = 0.41565E+00
  weight for this iteration     100.00

 eigenvalues of (default mixing * dielectric matrix)
  average eigenvalue GAMMA=   0.5693
  1.5990  0.4055  0.4055  0.2182  0.2182

 Free energy of the ion-electron system (eV)
  ---------------------------------------------------
  alpha Z        PSCENC =         1.56302934
  Ewald energy   TEWEN  =      2191.79176910
  -Hartree energ DENC   =     -6099.60249459
  -exchange      EXHF   =         0.00000000
  -V(xc)+E(xc)   XCENC  =      -149.78808427
  PAW double counting   =      4455.95231046    -4147.21277712
  entropy T*S    EENTRO =         0.02322001
  eigenvalues    EBANDS =      -311.99596443
  atomic energy  EATOM  =      4048.71946290
  Solvation  Ediel_sol  =         0.00000000
  ---------------------------------------------------
  free energy    TOTEN  =       -10.54952861 eV

  energy without entropy =      -10.57274862  energy(sigma->0) =      -10.55726861


--------------------------------------------------------------------------------------------------------




--------------------------------------- Iteration      1(  11)  ---------------------------------------


    POTLOK:  cpu time    2.5214: real time    2.5327
    SETDIJ:  cpu time    0.0180: real time    0.0180
     EDDAV:  cpu time    2.4690: real time    2.5017
       DOS:  cpu time    0.0027: real time    0.0027
    CHARGE:  cpu time    0.4155: real time    0.4241
    MIXING:  cpu time    0.0687: real time    0.0728
    --------------------------------------------
      LOOP:  cpu time    5.4953: real time    5.5518

 eigenvalue-minimisations  :   152
 total energy-change (2. order) :-0.3439598E-01  (-0.2383169E-01)
 number of electron      50.0000047 magnetization       3.9473637
 augmentation part       21.5313982 magnetization       2.3715909

 Broyden mixing:
  rms(total) = 0.19746E+00    rms(broyden)= 0.19740E+00
  rms(prec ) = 0.20451E+00
  weight for this iteration     100.00

 eigenvalues of (default mixing * dielectric matrix)
  average eigenvalue GAMMA=   0.6316
  1.7782  0.6221  0.6221  0.3162  0.2256  0.2256

 Free energy of the ion-electron system (eV)
  ---------------------------------------------------
  alpha Z        PSCENC =         1.56302934
  Ewald energy   TEWEN  =      2191.79176910
  -Hartree energ DENC   =     -6104.80985138
  -exchange      EXHF   =         0.00000000
  -V(xc)+E(xc)   XCENC  =      -149.74874212
  PAW double counting   =      4478.51402268    -4169.62129699
  entropy T*S    EENTRO =         0.04366370
  eigenvalues    EBANDS =      -307.03598183
  atomic energy  EATOM  =      4048.71946290
  Solvation  Ediel_sol  =         0.00000000
  ---------------------------------------------------
  free energy    TOTEN  =       -10.58392459 eV

  energy without entropy =      -10.62758829  energy(sigma->0) =      -10.59847916


--------------------------------------------------------------------------------------------------------




--------------------------------------- Iteration      1(  12)  ---------------------------------------


    POTLOK:  cpu time    2.5090: real time    2.5367
    SETDIJ:  cpu time    0.0243: real time    0.0243
     EDDAV:  cpu time    2.4981: real time    2.5327
       DOS:  cpu time    0.0033: real time    0.0033
    CHARGE:  cpu time    0.4232: real time    0.4238
    MIXING:  cpu time    0.0694: real time    0.0735
    --------------------------------------------
      LOOP:  cpu time    5.5274: real time    5.5943

 eigenvalue-minimisations  :   159
 total energy-change (2. order) :-0.2058782E+00  (-0.1135619E-01)
 number of electron      50.0000047 magnetization       3.7733522
 augmentation part       21.5155263 magnetization       2.1427844

 Broyden mixing:
  rms(total) = 0.19793E+00    rms(broyden)= 0.19788E+00
  rms(prec ) = 0.21183E+00
  weight for this iteration     100.00

 eigenvalues of (default mixing * dielectric matrix)
  average eigenvalue GAMMA=   0.6345
  1.5822  0.9755  0.4943  0.4943  0.4536  0.2209  0.2209

 Free energy of the ion-electron system (eV)
  ---------------------------------------------------
  alpha Z        PSCENC =         1.56302934
  Ewald energy   TEWEN  =      2191.79176910
  -Hartree energ DENC   =     -6108.46037596
  -exchange      EXHF   =         0.00000000
  -V(xc)+E(xc)   XCENC  =      -149.83004162
  PAW double counting   =      4494.31662732    -4185.30516469
  entropy T*S    EENTRO =         0.04072937
  eigenvalues    EBANDS =      -303.62583859
  atomic energy  EATOM  =      4048.71946290
  Solvation  Ediel_sol  =         0.00000000
  ---------------------------------------------------
  free energy    TOTEN  =       -10.78980284 eV

  energy without entropy =      -10.83053221  energy(sigma->0) =      -10.80337929


--------------------------------------------------------------------------------------------------------




--------------------------------------- Iteration      1(  13)  ---------------------------------------


    POTLOK:  cpu time    2.5001: real time    2.5198
    SETDIJ:  cpu time    0.0211: real time    0.0211
     EDDAV:  cpu time    2.3646: real time    2.3831
       DOS:  cpu time    0.0017: real time    0.0017
    CHARGE:  cpu time    0.4275: real time    0.4320
    MIXING:  cpu time    0.0886: real time    0.0887
    --------------------------------------------
      LOOP:  cpu time    5.4036: real time    5.4464

 eigenvalue-minimisations  :   142
 total energy-change (2. order) :-0.6368302E+00  (-0.1623494E-01)
 number of electron      50.0000045 magnetization       3.5959255
 augmentation part       21.4901171 magnetization       2.0325386

 Broyden mixing:
  rms(total) = 0.11462E+00    rms(broyden)= 0.11457E+00
  rms(prec ) = 0.12217E+00
  weight for this iteration     100.00

 eigenvalues of (default mixing * dielectric matrix)
  average eigenvalue GAMMA=   0.7152
  1.5136  1.5136  0.6957  0.6957  0.4826  0.3767  0.2220  0.2220

 Free energy of the ion-electron system (eV)
  ---------------------------------------------------
  alpha Z        PSCENC =         1.56302934
  Ewald energy   TEWEN  =      2191.79176910
  -Hartree energ DENC   =     -6111.29886591
  -exchange      EXHF   =         0.00000000
  -V(xc)+E(xc)   XCENC  =      -150.26677960
  PAW double counting   =      4502.16668911    -4192.98119978
  entropy T*S    EENTRO =         0.04041279
  eigenvalues    EBANDS =      -301.16115098
  atomic energy  EATOM  =      4048.71946290
  Solvation  Ediel_sol  =         0.00000000
  ---------------------------------------------------
  free energy    TOTEN  =       -11.42663303 eV

  energy without entropy =      -11.46704582  energy(sigma->0) =      -11.44010396


--------------------------------------------------------------------------------------------------------




--------------------------------------- Iteration      1(  14)  ---------------------------------------


    POTLOK:  cpu time    2.5524: real time    2.5703
    SETDIJ:  cpu time    0.0234: real time    0.0234
     EDDAV:  cpu time    2.5171: real time    2.5480
       DOS:  cpu time    0.0026: real time    0.0026
    CHARGE:  cpu time    0.4590: real time    0.4595
    MIXING:  cpu time    0.0855: real time    0.0856
    --------------------------------------------
      LOOP:  cpu time    5.6401: real time    5.6894

 eigenvalue-minimisations  :   142
 total energy-change (2. order) :-0.4450903E+00  (-0.9650816E-02)
 number of electron      50.0000043 magnetization       3.4724709
 augmentation part       21.5062922 magnetization       1.9455089

 Broyden mixing:
  rms(total) = 0.16838E+00    rms(broyden)= 0.16835E+00
  rms(prec ) = 0.18324E+00
  weight for this iteration     100.00

 eigenvalues of (default mixing * dielectric matrix)
  average eigenvalue GAMMA=   0.7338
  2.0168  1.2772  0.7872  0.7872  0.4752  0.4752  0.2223  0.2223  0.3405

 Free energy of the ion-electron system (eV)
  ---------------------------------------------------
  alpha Z        PSCENC =         1.56302934
  Ewald energy   TEWEN  =      2191.79176910
  -Hartree energ DENC   =     -6112.48978671
  -exchange      EXHF   =         0.00000000
  -V(xc)+E(xc)   XCENC  =      -150.60532674
  PAW double counting   =      4507.31152659    -4198.11972436
  entropy T*S    EENTRO =         0.04466723
  eigenvalues    EBANDS =      -300.08734064
  atomic energy  EATOM  =      4048.71946290
  Solvation  Ediel_sol  =         0.00000000
  ---------------------------------------------------
  free energy    TOTEN  =       -11.87172330 eV

  energy without entropy =      -11.91639053  energy(sigma->0) =      -11.88661238


--------------------------------------------------------------------------------------------------------




--------------------------------------- Iteration      1(  15)  ---------------------------------------


    POTLOK:  cpu time    2.5033: real time    2.5320
    SETDIJ:  cpu time    0.0236: real time    0.0237
     EDDAV:  cpu time    2.3590: real time    2.3694
       DOS:  cpu time    0.0029: real time    0.0029
    CHARGE:  cpu time    0.4366: real time    0.4411
    MIXING:  cpu time    0.0830: real time    0.0871
    --------------------------------------------
      LOOP:  cpu time    5.4083: real time    5.4561

 eigenvalue-minimisations  :   135
 total energy-change (2. order) :-0.1687450E+00  (-0.2320126E-02)
 number of electron      50.0000044 magnetization       3.2763180
 augmentation part       21.4990137 magnetization       1.7326940

 Broyden mixing:
  rms(total) = 0.79534E-01    rms(broyden)= 0.79526E-01
  rms(prec ) = 0.86749E-01
  weight for this iteration     100.00

 eigenvalues of (default mixing * dielectric matrix)
  average eigenvalue GAMMA=   0.7914
  2.0915  1.6758  1.0349  0.7396  0.5383  0.5383  0.2223  0.2223  0.3504  0.5004

 Free energy of the ion-electron system (eV)
  ---------------------------------------------------
  alpha Z        PSCENC =         1.56302934
  Ewald energy   TEWEN  =      2191.79176910
  -Hartree energ DENC   =     -6113.58546671
  -exchange      EXHF   =         0.00000000
  -V(xc)+E(xc)   XCENC  =      -150.73858362
  PAW double counting   =      4510.24305694    -4201.05748812
  entropy T*S    EENTRO =         0.05799882
  eigenvalues    EBANDS =      -299.03424697
  atomic energy  EATOM  =      4048.71946290
  Solvation  Ediel_sol  =         0.00000000
  ---------------------------------------------------
  free energy    TOTEN  =       -12.04046833 eV

  energy without entropy =      -12.09846715  energy(sigma->0) =      -12.05980127


--------------------------------------------------------------------------------------------------------




--------------------------------------- Iteration      1(  16)  ---------------------------------------


    POTLOK:  cpu time    2.5104: real time    2.5366
    SETDIJ:  cpu time    0.0215: real time    0.0215
     EDDAV:  cpu time    2.1926: real time    2.2144
       DOS:  cpu time    0.0016: real time    0.0016
    CHARGE:  cpu time    0.4137: real time    0.4140
    MIXING:  cpu time    0.1103: real time    0.1104
    --------------------------------------------
      LOOP:  cpu time    5.2501: real time    5.2985

 eigenvalue-minimisations  :   132
 total energy-change (2. order) :-0.3841783E+00  (-0.5642727E-02)
 number of electron      50.0000044 magnetization       3.1491739
 augmentation part       21.4956346 magnetization       1.6102199

 Broyden mixing:
  rms(total) = 0.53496E-01    rms(broyden)= 0.53469E-01
  rms(prec ) = 0.56192E-01
  weight for this iteration     100.00

 eigenvalues of (default mixing * dielectric matrix)
  average eigenvalue GAMMA=   0.8212
  2.1331  2.1331  0.8411  0.8411  0.7521  0.5534  0.5534  0.2223  0.2223  0.3480
  0.4331

 Free energy of the ion-electron system (eV)
  ---------------------------------------------------
  alpha Z        PSCENC =         1.56302934
  Ewald energy   TEWEN  =      2191.79176910
  -Hartree energ DENC   =     -6114.54740234
  -exchange      EXHF   =         0.00000000
  -V(xc)+E(xc)   XCENC  =      -151.05239731
  PAW double counting   =      4509.12356338    -4199.96687704
  entropy T*S    EENTRO =         0.05397095
  eigenvalues    EBANDS =      -298.10976558
  atomic energy  EATOM  =      4048.71946290
  Solvation  Ediel_sol  =         0.00000000
  ---------------------------------------------------
  free energy    TOTEN  =       -12.42464661 eV

  energy without entropy =      -12.47861756  energy(sigma->0) =      -12.44263693


--------------------------------------------------------------------------------------------------------




--------------------------------------- Iteration      1(  17)  ---------------------------------------


    POTLOK:  cpu time    2.6111: real time    2.7105
    SETDIJ:  cpu time    0.0275: real time    0.0276
     EDDAV:  cpu time    2.3156: real time    2.3170
       DOS:  cpu time    0.0029: real time    0.0029
    CHARGE:  cpu time    0.4131: real time    0.4133
    MIXING:  cpu time    0.1220: real time    0.1220
    --------------------------------------------
      LOOP:  cpu time    5.4921: real time    5.5933

 eigenvalue-minimisations  :   142
 total energy-change (2. order) :-0.2582767E+00  (-0.2989640E-02)
 number of electron      50.0000044 magnetization       3.0193627
 augmentation part       21.4863166 magnetization       1.5094538

 Broyden mixing:
  rms(total) = 0.43332E-01    rms(broyden)= 0.43322E-01
  rms(prec ) = 0.46922E-01
  weight for this iteration     100.00

 eigenvalues of (default mixing * dielectric matrix)
  average eigenvalue GAMMA=   0.8647
  2.2788  2.2788  1.3700  0.7200  0.7200  0.5912  0.5912  0.6094  0.2223  0.2223
  0.3487  0.4236

 Free energy of the ion-electron system (eV)
  ---------------------------------------------------
  alpha Z        PSCENC =         1.56302934
  Ewald energy   TEWEN  =      2191.79176910
  -Hartree energ DENC   =     -6114.96047537
  -exchange      EXHF   =         0.00000000
  -V(xc)+E(xc)   XCENC  =      -151.27207677
  PAW double counting   =      4507.13399626    -4197.99636497
  entropy T*S    EENTRO =         0.05157167
  eigenvalues    EBANDS =      -297.71383551
  atomic energy  EATOM  =      4048.71946290
  Solvation  Ediel_sol  =         0.00000000
  ---------------------------------------------------
  free energy    TOTEN  =       -12.68292335 eV

  energy without entropy =      -12.73449502  energy(sigma->0) =      -12.70011391


--------------------------------------------------------------------------------------------------------




--------------------------------------- Iteration      1(  18)  ---------------------------------------


    POTLOK:  cpu time    2.5227: real time    2.5494
    SETDIJ:  cpu time    0.0258: real time    0.0258
     EDDAV:  cpu time    2.3025: real time    2.3282
       DOS:  cpu time    0.0017: real time    0.0017
    CHARGE:  cpu time    0.4085: real time    0.4128
    MIXING:  cpu time    0.1296: real time    0.1296
    --------------------------------------------
      LOOP:  cpu time    5.3908: real time    5.4475

 eigenvalue-minimisations  :   142
 total energy-change (2. order) :-0.2232440E+00  (-0.1839030E-02)
 number of electron      50.0000044 magnetization       2.8839070
 augmentation part       21.4964137 magnetization       1.3933513

 Broyden mixing:
  rms(total) = 0.27992E-01    rms(broyden)= 0.27984E-01
  rms(prec ) = 0.30391E-01
  weight for this iteration     100.00

 eigenvalues of (default mixing * dielectric matrix)
  average eigenvalue GAMMA=   0.8916
  2.3400  2.3400  1.6077  0.7540  0.7540  0.6102  0.6102  0.6781  0.6781  0.2223
  0.2223  0.3473  0.4270

 Free energy of the ion-electron system (eV)
  ---------------------------------------------------
  alpha Z        PSCENC =         1.56302934
  Ewald energy   TEWEN  =      2191.79176910
  -Hartree energ DENC   =     -6114.82178894
  -exchange      EXHF   =         0.00000000
  -V(xc)+E(xc)   XCENC  =      -151.48642864
  PAW double counting   =      4504.61185071    -4195.52672197
  entropy T*S    EENTRO =         0.05340700
  eigenvalues    EBANDS =      -297.81074689
  atomic energy  EATOM  =      4048.71946290
  Solvation  Ediel_sol  =         0.00000000
  ---------------------------------------------------
  free energy    TOTEN  =       -12.90616738 eV

  energy without entropy =      -12.95957439  energy(sigma->0) =      -12.92396972


--------------------------------------------------------------------------------------------------------




--------------------------------------- Iteration      1(  19)  ---------------------------------------


    POTLOK:  cpu time    2.5298: real time    2.5594
    SETDIJ:  cpu time    0.0258: real time    0.0258
     EDDAV:  cpu time    2.3091: real time    2.3409
       DOS:  cpu time    0.0014: real time    0.0014
    CHARGE:  cpu time    0.4411: real time    0.4422
    MIXING:  cpu time    0.1225: real time    0.1231
    --------------------------------------------
      LOOP:  cpu time    5.4297: real time    5.4928

 eigenvalue-minimisations  :   140
 total energy-change (2. order) :-0.1920587E+00  (-0.1219968E-02)
 number of electron      50.0000044 magnetization       2.7454949
 augmentation part       21.4889125 magnetization       1.2639557

 Broyden mixing:
  rms(total) = 0.22760E-01    rms(broyden)= 0.22753E-01
  rms(prec ) = 0.24073E-01
  weight for this iteration     100.00

 eigenvalues of (default mixing * dielectric matrix)
  average eigenvalue GAMMA=   0.9416
  2.6714  2.6714  1.6329  0.9408  0.9408  0.5901  0.5901  0.6845  0.6845  0.2223
  0.2223  0.5581  0.3471  0.4265

 Free energy of the ion-electron system (eV)
  ---------------------------------------------------
  alpha Z        PSCENC =         1.56302934
  Ewald energy   TEWEN  =      2191.79176910
  -Hartree energ DENC   =     -6115.18255220
  -exchange      EXHF   =         0.00000000
  -V(xc)+E(xc)   XCENC  =      -151.66475160
  PAW double counting   =      4503.18866526    -4194.12900654
  entropy T*S    EENTRO =         0.05068583
  eigenvalues    EBANDS =      -297.43552821
  atomic energy  EATOM  =      4048.71946290
  Solvation  Ediel_sol  =         0.00000000
  ---------------------------------------------------
  free energy    TOTEN  =       -13.09822611 eV

  energy without entropy =      -13.14891194  energy(sigma->0) =      -13.11512139


--------------------------------------------------------------------------------------------------------




--------------------------------------- Iteration      1(  20)  ---------------------------------------


    POTLOK:  cpu time    2.4894: real time    2.5205
    SETDIJ:  cpu time    0.0218: real time    0.0219
     EDDAV:  cpu time    2.2416: real time    2.2610
       DOS:  cpu time    0.0025: real time    0.0025
    CHARGE:  cpu time    0.4230: real time    0.4276
    MIXING:  cpu time    0.1407: real time    0.1409
    --------------------------------------------
      LOOP:  cpu time    5.3190: real time    5.3744

 eigenvalue-minimisations  :   133
 total energy-change (2. order) :-0.1957552E+00  (-0.1338552E-02)
 number of electron      50.0000044 magnetization       2.6113836
 augmentation part       21.4915060 magnetization       1.1521038

 Broyden mixing:
  rms(total) = 0.14473E-01    rms(broyden)= 0.14469E-01
  rms(prec ) = 0.15313E-01
  weight for this iteration     100.00

 eigenvalues of (default mixing * dielectric matrix)
  average eigenvalue GAMMA=   0.9888
  2.8604  2.8604  2.1099  0.8775  0.8775  0.7678  0.7507  0.7507  0.5967  0.5967
  0.2223  0.2223  0.5617  0.3470  0.4299

 Free energy of the ion-electron system (eV)
  ---------------------------------------------------
  alpha Z        PSCENC =         1.56302934
  Ewald energy   TEWEN  =      2191.79176910
  -Hartree energ DENC   =     -6115.00092459
  -exchange      EXHF   =         0.00000000
  -V(xc)+E(xc)   XCENC  =      -151.86491086
  PAW double counting   =      4500.65588859    -4191.63739977
  entropy T*S    EENTRO =         0.04973548
  eigenvalues    EBANDS =      -297.57063155
  atomic energy  EATOM  =      4048.71946290
  Solvation  Ediel_sol  =         0.00000000
  ---------------------------------------------------
  free energy    TOTEN  =       -13.29398136 eV

  energy without entropy =      -13.34371684  energy(sigma->0) =      -13.31055985


--------------------------------------------------------------------------------------------------------




--------------------------------------- Iteration      1(  21)  ---------------------------------------


    POTLOK:  cpu time    2.5092: real time    2.5249
    SETDIJ:  cpu time    0.0328: real time    0.0328
     EDDAV:  cpu time    2.4679: real time    2.5086
       DOS:  cpu time    0.0012: real time    0.0012
    CHARGE:  cpu time    0.4214: real time    0.4300
    MIXING:  cpu time    0.1474: real time    0.1478
    --------------------------------------------
      LOOP:  cpu time    5.5799: real time    5.6454

 eigenvalue-minimisations  :   148
 total energy-change (2. order) :-0.1492704E+00  (-0.8648139E-03)
 number of electron      50.0000044 magnetization       2.4925473
 augmentation part       21.4905760 magnetization       1.0472030

 Broyden mixing:
  rms(total) = 0.10697E-01    rms(broyden)= 0.10693E-01
  rms(prec ) = 0.11410E-01
  weight for this iteration     100.00

 eigenvalues of (default mixing * dielectric matrix)
  average eigenvalue GAMMA=   1.0545
  4.0719  2.3732  2.2861  1.2280  0.9232  0.9232  0.7639  0.7639  0.5946  0.5946
  0.2223  0.2223  0.5661  0.5661  0.3470  0.4259

 Free energy of the ion-electron system (eV)
  ---------------------------------------------------
  alpha Z        PSCENC =         1.56302934
  Ewald energy   TEWEN  =      2191.79176910
  -Hartree energ DENC   =     -6115.10655944
  -exchange      EXHF   =         0.00000000
  -V(xc)+E(xc)   XCENC  =      -152.01446837
  PAW double counting   =      4499.65384526    -4190.65567146
  entropy T*S    EENTRO =         0.04891742
  eigenvalues    EBANDS =      -297.44357646
  atomic energy  EATOM  =      4048.71946290
  Solvation  Ediel_sol  =         0.00000000
  ---------------------------------------------------
  free energy    TOTEN  =       -13.44325172 eV

  energy without entropy =      -13.49216914  energy(sigma->0) =      -13.45955753


--------------------------------------------------------------------------------------------------------




--------------------------------------- Iteration      1(  22)  ---------------------------------------


    POTLOK:  cpu time    2.4974: real time    2.5457
    SETDIJ:  cpu time    0.0281: real time    0.0281
     EDDAV:  cpu time    2.2429: real time    2.2523
       DOS:  cpu time    0.0037: real time    0.0037
    CHARGE:  cpu time    0.4221: real time    0.4223
    MIXING:  cpu time    0.1682: real time    0.1723
    --------------------------------------------
      LOOP:  cpu time    5.3623: real time    5.4244

 eigenvalue-minimisations  :   133
 total energy-change (2. order) :-0.1174259E+00  (-0.5157377E-03)
 number of electron      50.0000044 magnetization       2.4275054
 augmentation part       21.4909156 magnetization       0.9929934

 Broyden mixing:
  rms(total) = 0.77954E-02    rms(broyden)= 0.77901E-02
  rms(prec ) = 0.82223E-02
  weight for this iteration     100.00

 eigenvalues of (default mixing * dielectric matrix)
  average eigenvalue GAMMA=   1.1082
  4.6916  2.5569  2.3648  1.3630  0.9385  0.9385  0.8739  0.8739  0.5917  0.5917
  0.2223  0.2223  0.6285  0.6285  0.5789  0.3470  0.4272

 Free energy of the ion-electron system (eV)
  ---------------------------------------------------
  alpha Z        PSCENC =         1.56302934
  Ewald energy   TEWEN  =      2191.79176910
  -Hartree energ DENC   =     -6115.13817007
  -exchange      EXHF   =         0.00000000
  -V(xc)+E(xc)   XCENC  =      -152.13612535
  PAW double counting   =      4498.92800790    -4189.93979899
  entropy T*S    EENTRO =         0.04781981
  eigenvalues    EBANDS =      -297.39667230
  atomic energy  EATOM  =      4048.71946290
  Solvation  Ediel_sol  =         0.00000000
  ---------------------------------------------------
  free energy    TOTEN  =       -13.56067767 eV

  energy without entropy =      -13.60849748  energy(sigma->0) =      -13.57661760


--------------------------------------------------------------------------------------------------------




--------------------------------------- Iteration      1(  23)  ---------------------------------------


    POTLOK:  cpu time    2.5128: real time    2.5426
    SETDIJ:  cpu time    0.0269: real time    0.0270
     EDDAV:  cpu time    2.3976: real time    2.4151
       DOS:  cpu time    0.0064: real time    0.0064
    CHARGE:  cpu time    0.4032: real time    0.4074
    MIXING:  cpu time    0.1792: real time    0.1833
    --------------------------------------------
      LOOP:  cpu time    5.5262: real time    5.5819

 eigenvalue-minimisations  :   150
 total energy-change (2. order) :-0.5729803E-01  (-0.1501372E-03)
 number of electron      50.0000044 magnetization       2.3691297
 augmentation part       21.4872974 magnetization       0.9423416

 Broyden mixing:
  rms(total) = 0.52060E-02    rms(broyden)= 0.52009E-02
  rms(prec ) = 0.54272E-02
  weight for this iteration     100.00

 eigenvalues of (default mixing * dielectric matrix)
  average eigenvalue GAMMA=   1.1485
  5.4195  2.6619  2.0153  2.0153  1.0270  1.0270  0.8281  0.8281  0.5930  0.5930
  0.2223  0.2223  0.6660  0.6660  0.5573  0.5573  0.3470  0.4270

 Free energy of the ion-electron system (eV)
  ---------------------------------------------------
  alpha Z        PSCENC =         1.56302934
  Ewald energy   TEWEN  =      2191.79176910
  -Hartree energ DENC   =     -6115.20358872
  -exchange      EXHF   =         0.00000000
  -V(xc)+E(xc)   XCENC  =      -152.19473709
  PAW double counting   =      4499.08775072    -4190.09928484
  entropy T*S    EENTRO =         0.04694449
  eigenvalues    EBANDS =      -297.32932159
  atomic energy  EATOM  =      4048.71946290
  Solvation  Ediel_sol  =         0.00000000
  ---------------------------------------------------
  free energy    TOTEN  =       -13.61797569 eV

  energy without entropy =      -13.66492018  energy(sigma->0) =      -13.63362385


--------------------------------------------------------------------------------------------------------




--------------------------------------- Iteration      1(  24)  ---------------------------------------


    POTLOK:  cpu time    2.5466: real time    2.6024
    SETDIJ:  cpu time    0.0278: real time    0.0278
     EDDAV:  cpu time    2.2938: real time    2.2994
       DOS:  cpu time    0.0025: real time    0.0025
    CHARGE:  cpu time    0.4091: real time    0.4093
    MIXING:  cpu time    0.1913: real time    0.1914
    --------------------------------------------
      LOOP:  cpu time    5.4711: real time    5.5328

 eigenvalue-minimisations  :   140
 total energy-change (2. order) :-0.4133480E-01  (-0.1016115E-03)
 number of electron      50.0000044 magnetization       2.3106231
 augmentation part       21.4891534 magnetization       0.8907023

 Broyden mixing:
  rms(total) = 0.42116E-02    rms(broyden)= 0.42063E-02
  rms(prec ) = 0.44723E-02
  weight for this iteration     100.00

 eigenvalues of (default mixing * dielectric matrix)
  average eigenvalue GAMMA=   1.2329
  6.5541  2.6219  2.6219  2.0478  1.1118  1.1118  0.8544  0.8544  0.2223  0.2223
  0.5930  0.5930  0.7329  0.7329  0.3470  0.6011  0.6011  0.5738  0.4272

 Free energy of the ion-electron system (eV)
  ---------------------------------------------------
  alpha Z        PSCENC =         1.56302934
  Ewald energy   TEWEN  =      2191.79176910
  -Hartree energ DENC   =     -6115.11767877
  -exchange      EXHF   =         0.00000000
  -V(xc)+E(xc)   XCENC  =      -152.23937541
  PAW double counting   =      4499.02249874    -4190.03401890
  entropy T*S    EENTRO =         0.04647096
  eigenvalues    EBANDS =      -297.41146845
  atomic energy  EATOM  =      4048.71946290
  Solvation  Ediel_sol  =         0.00000000
  ---------------------------------------------------
  free energy    TOTEN  =       -13.65931049 eV

  energy without entropy =      -13.70578145  energy(sigma->0) =      -13.67480081


--------------------------------------------------------------------------------------------------------




--------------------------------------- Iteration      1(  25)  ---------------------------------------


    POTLOK:  cpu time    2.4789: real time    2.5619
    SETDIJ:  cpu time    0.0263: real time    0.0263
     EDDAV:  cpu time    2.2229: real time    2.2364
       DOS:  cpu time    0.0024: real time    0.0024
    CHARGE:  cpu time    0.4046: real time    0.4049
    MIXING:  cpu time    0.2164: real time    0.2165
    --------------------------------------------
      LOOP:  cpu time    5.3516: real time    5.4485

 eigenvalue-minimisations  :   134
 total energy-change (2. order) :-0.3359555E-01  (-0.7991179E-04)
 number of electron      50.0000044 magnetization       2.2911966
 augmentation part       21.4879523 magnetization       0.8752717

 Broyden mixing:
  rms(total) = 0.37951E-02    rms(broyden)= 0.37908E-02
  rms(prec ) = 0.40601E-02
  weight for this iteration     100.00

 eigenvalues of (default mixing * dielectric matrix)
  average eigenvalue GAMMA=   1.2586
  7.2090  3.0292  2.2832  2.2832  1.1035  1.1035  0.8305  0.8305  0.8596  0.8596
  0.5918  0.5918  0.2223  0.2223  0.6356  0.6356  0.3470  0.4271  0.5535  0.5535

 Free energy of the ion-electron system (eV)
  ---------------------------------------------------
  alpha Z        PSCENC =         1.56302934
  Ewald energy   TEWEN  =      2191.79176910
  -Hartree energ DENC   =     -6115.10327556
  -exchange      EXHF   =         0.00000000
  -V(xc)+E(xc)   XCENC  =      -152.27513178
  PAW double counting   =      4499.22413145    -4190.23468922
  entropy T*S    EENTRO =         0.04550793
  eigenvalues    EBANDS =      -297.42371018
  atomic energy  EATOM  =      4048.71946290
  Solvation  Ediel_sol  =         0.00000000
  ---------------------------------------------------
  free energy    TOTEN  =       -13.69290604 eV

  energy without entropy =      -13.73841396  energy(sigma->0) =      -13.70807535


--------------------------------------------------------------------------------------------------------




--------------------------------------- Iteration      1(  26)  ---------------------------------------


    POTLOK:  cpu time    2.4939: real time    2.5206
    SETDIJ:  cpu time    0.0238: real time    0.0278
     EDDAV:  cpu time    2.0377: real time    2.0592
       DOS:  cpu time    0.0025: real time    0.0025
    CHARGE:  cpu time    0.4236: real time    0.4280
    MIXING:  cpu time    0.2179: real time    0.2181
    --------------------------------------------
      LOOP:  cpu time    5.1995: real time    5.2561

 eigenvalue-minimisations  :   119
 total energy-change (2. order) :-0.1059304E-01  (-0.1245736E-04)
 number of electron      50.0000044 magnetization       2.2669746
 augmentation part       21.4889743 magnetization       0.8531229

 Broyden mixing:
  rms(total) = 0.26943E-02    rms(broyden)= 0.26920E-02
  rms(prec ) = 0.28823E-02
  weight for this iteration     100.00

 eigenvalues of (default mixing * dielectric matrix)
  average eigenvalue GAMMA=   1.3022
  7.8006  3.4489  2.2551  2.2551  1.3983  1.0729  1.0729  0.7987  0.7987  0.8091
  0.8091  0.5920  0.5920  0.2223  0.2223  0.6548  0.6548  0.3470  0.4271  0.5573
  0.5573

 Free energy of the ion-electron system (eV)
  ---------------------------------------------------
  alpha Z        PSCENC =         1.56302934
  Ewald energy   TEWEN  =      2191.79176910
  -Hartree energ DENC   =     -6115.02641121
  -exchange      EXHF   =         0.00000000
  -V(xc)+E(xc)   XCENC  =      -152.28760825
  PAW double counting   =      4499.22695163    -4190.24044618
  entropy T*S    EENTRO =         0.04533816
  eigenvalues    EBANDS =      -297.49558457
  atomic energy  EATOM  =      4048.71946290
  Solvation  Ediel_sol  =         0.00000000
  ---------------------------------------------------
  free energy    TOTEN  =       -13.70349907 eV

  energy without entropy =      -13.74883724  energy(sigma->0) =      -13.71861180


--------------------------------------------------------------------------------------------------------




--------------------------------------- Iteration      1(  27)  ---------------------------------------


    POTLOK:  cpu time    2.4733: real time    2.5170
    SETDIJ:  cpu time    0.0253: real time    0.0253
     EDDAV:  cpu time    1.8705: real time    1.9046
       DOS:  cpu time    0.0020: real time    0.0020
    CHARGE:  cpu time    0.4365: real time    0.4369
    MIXING:  cpu time    0.2385: real time    0.2388
    --------------------------------------------
      LOOP:  cpu time    5.0461: real time    5.1246

 eigenvalue-minimisations  :   101
 total energy-change (2. order) :-0.1236422E-01  (-0.1697649E-04)
 number of electron      50.0000044 magnetization       2.2557140
 augmentation part       21.4889532 magnetization       0.8428228

 Broyden mixing:
  rms(total) = 0.12534E-02    rms(broyden)= 0.12476E-02
  rms(prec ) = 0.13555E-02
  weight for this iteration     100.00

 eigenvalues of (default mixing * dielectric matrix)
  average eigenvalue GAMMA=   1.3304
  8.2297  3.7500  2.2747  2.2747  1.6968  1.0776  1.0776  0.9173  0.9173  0.8017
  0.8017  0.2223  0.2223  0.5919  0.5919  0.3470  0.6613  0.6613  0.4271  0.5790
  0.5726  0.5726

 Free energy of the ion-electron system (eV)
  ---------------------------------------------------
  alpha Z        PSCENC =         1.56302934
  Ewald energy   TEWEN  =      2191.79176910
  -Hartree energ DENC   =     -6114.95460590
  -exchange      EXHF   =         0.00000000
  -V(xc)+E(xc)   XCENC  =      -152.30154123
  PAW double counting   =      4499.33806402    -4190.35336984
  entropy T*S    EENTRO =         0.04512213
  eigenvalues    EBANDS =      -297.56379381
  atomic energy  EATOM  =      4048.71946290
  Solvation  Ediel_sol  =         0.00000000
  ---------------------------------------------------
  free energy    TOTEN  =       -13.71586329 eV

  energy without entropy =      -13.76098542  energy(sigma->0) =      -13.73090400


--------------------------------------------------------------------------------------------------------




--------------------------------------- Iteration      1(  28)  ---------------------------------------


    POTLOK:  cpu time    2.5090: real time    2.5363
    SETDIJ:  cpu time    0.0216: real time    0.0216
     EDDAV:  cpu time    1.7998: real time    1.8018
       DOS:  cpu time    0.0033: real time    0.0033
    CHARGE:  cpu time    0.4260: real time    0.4265
    MIXING:  cpu time    0.2241: real time    0.2244
    --------------------------------------------
      LOOP:  cpu time    4.9838: real time    5.0139

 eigenvalue-minimisations  :    93
 total energy-change (2. order) :-0.5143094E-02  (-0.4529451E-05)
 number of electron      50.0000044 magnetization       2.2453314
 augmentation part       21.4887757 magnetization       0.8332128

 Broyden mixing:
  rms(total) = 0.10182E-02    rms(broyden)= 0.10148E-02
  rms(prec ) = 0.11107E-02
  weight for this iteration     100.00

 eigenvalues of (default mixing * dielectric matrix)
  average eigenvalue GAMMA=   1.3407
  8.5964  3.8780  2.2626  2.2626  1.9210  1.0337  1.0337  1.0271  1.0271  0.7914
  0.7914  0.2223  0.2223  0.5919  0.5919  0.3470  0.7040  0.7040  0.4271  0.6448
  0.6448  0.5550  0.5550

 Free energy of the ion-electron system (eV)
  ---------------------------------------------------
  alpha Z        PSCENC =         1.56302934
  Ewald energy   TEWEN  =      2191.79176910
  -Hartree energ DENC   =     -6114.91768819
  -exchange      EXHF   =         0.00000000
  -V(xc)+E(xc)   XCENC  =      -152.30698987
  PAW double counting   =      4499.38824560    -4190.40356797
  entropy T*S    EENTRO =         0.04502321
  eigenvalues    EBANDS =      -297.60029050
  atomic energy  EATOM  =      4048.71946290
  Solvation  Ediel_sol  =         0.00000000
  ---------------------------------------------------
  free energy    TOTEN  =       -13.72100638 eV

  energy without entropy =      -13.76602959  energy(sigma->0) =      -13.73601412


--------------------------------------------------------------------------------------------------------




--------------------------------------- Iteration      1(  29)  ---------------------------------------


    POTLOK:  cpu time    2.4962: real time    2.5145
    SETDIJ:  cpu time    0.0231: real time    0.0231
     EDDAV:  cpu time    1.7937: real time    1.8156
       DOS:  cpu time    0.0035: real time    0.0035
    CHARGE:  cpu time    0.4488: real time    0.4533
    MIXING:  cpu time    0.2341: real time    0.2384
    --------------------------------------------
      LOOP:  cpu time    4.9995: real time    5.0484

 eigenvalue-minimisations  :    93
 total energy-change (2. order) :-0.3885861E-02  (-0.5442398E-05)
 number of electron      50.0000044 magnetization       2.2382731
 augmentation part       21.4887977 magnetization       0.8266693

 Broyden mixing:
  rms(total) = 0.61768E-03    rms(broyden)= 0.61480E-03
  rms(prec ) = 0.68158E-03
  weight for this iteration     100.00

 eigenvalues of (default mixing * dielectric matrix)
  average eigenvalue GAMMA=   1.3752
  8.9702  4.3325  2.4393  2.1989  2.1989  1.0146  1.0146  1.0848  1.0848  0.8058
  0.8058  0.2223  0.2223  0.5920  0.5920  0.7846  0.7846  0.3470  0.6661  0.6661
  0.4271  0.6345  0.5580  0.5580

 Free energy of the ion-electron system (eV)
  ---------------------------------------------------
  alpha Z        PSCENC =         1.56302934
  Ewald energy   TEWEN  =      2191.79176910
  -Hartree energ DENC   =     -6114.87509390
  -exchange      EXHF   =         0.00000000
  -V(xc)+E(xc)   XCENC  =      -152.31110050
  PAW double counting   =      4499.42986220    -4190.44503653
  entropy T*S    EENTRO =         0.04489426
  eigenvalues    EBANDS =      -297.64267910
  atomic energy  EATOM  =      4048.71946290
  Solvation  Ediel_sol  =         0.00000000
  ---------------------------------------------------
  free energy    TOTEN  =       -13.72489224 eV

  energy without entropy =      -13.76978651  energy(sigma->0) =      -13.73985700


--------------------------------------------------------------------------------------------------------




--------------------------------------- Iteration      1(  30)  ---------------------------------------


    POTLOK:  cpu time    2.5006: real time    2.5148
    SETDIJ:  cpu time    0.0233: real time    0.0234
     EDDAV:  cpu time    1.8506: real time    1.8768
       DOS:  cpu time    0.0028: real time    0.0028
    CHARGE:  cpu time    0.4326: real time    0.4330
    MIXING:  cpu time    0.2480: real time    0.2483
    --------------------------------------------
      LOOP:  cpu time    5.0579: real time    5.0990

 eigenvalue-minimisations  :   101
 total energy-change (2. order) :-0.2345045E-02  (-0.2775186E-05)
 number of electron      50.0000044 magnetization       2.2339831
 augmentation part       21.4888713 magnetization       0.8226841

 Broyden mixing:
  rms(total) = 0.56186E-03    rms(broyden)= 0.56014E-03
  rms(prec ) = 0.62241E-03
  weight for this iteration     100.00

 eigenvalues of (default mixing * dielectric matrix)
  average eigenvalue GAMMA=   1.4021
  9.1622  4.7440  2.6041  2.2381  2.2381  1.1685  1.1685  1.0374  1.0374  0.9723
  0.9723  0.8037  0.8037  0.2223  0.2223  0.5919  0.5919  0.3470  0.6628  0.6628
  0.4271  0.6764  0.5736  0.5736  0.5505

 Free energy of the ion-electron system (eV)
  ---------------------------------------------------
  alpha Z        PSCENC =         1.56302934
  Ewald energy   TEWEN  =      2191.79176910
  -Hartree energ DENC   =     -6114.83178874
  -exchange      EXHF   =         0.00000000
  -V(xc)+E(xc)   XCENC  =      -152.31388296
  PAW double counting   =      4499.42716963    -4190.44234613
  entropy T*S    EENTRO =         0.04483903
  eigenvalues    EBANDS =      -297.68548945
  atomic energy  EATOM  =      4048.71946290
  Solvation  Ediel_sol  =         0.00000000
  ---------------------------------------------------
  free energy    TOTEN  =       -13.72723729 eV

  energy without entropy =      -13.77207632  energy(sigma->0) =      -13.74218363


--------------------------------------------------------------------------------------------------------




--------------------------------------- Iteration      1(  31)  ---------------------------------------


    POTLOK:  cpu time    2.5098: real time    2.5152
    SETDIJ:  cpu time    0.0216: real time    0.0216
[...]
  ---------------------------------------------------
  alpha Z        PSCENC =         1.56302934
  Ewald energy   TEWEN  =      2526.37070860
  -Hartree energ DENC   =     -6469.21081972
  -exchange      EXHF   =         0.00000000
  -V(xc)+E(xc)   XCENC  =      -151.97031829
  PAW double counting   =      4458.27215960    -4147.27493064
  entropy T*S    EENTRO =         0.10177374
  eigenvalues    EBANDS =      -281.53985717
  atomic energy  EATOM  =      4048.71946290
  Solvation  Ediel_sol  =         0.00000000
  ---------------------------------------------------
  free energy    TOTEN  =       -14.96879164 eV

  energy without entropy =      -15.07056537  energy(sigma->0) =      -15.00271622


--------------------------------------------------------------------------------------------------------




--------------------------------------- Iteration     17(  34)  ---------------------------------------


    POTLOK:  cpu time    2.5081: real time    2.5251
    SETDIJ:  cpu time    0.0218: real time    0.0218
     EDDAV:  cpu time    1.9406: real time    1.9487
       DOS:  cpu time    0.0018: real time    0.0018
    CHARGE:  cpu time    0.4231: real time    0.4236
    MIXING:  cpu time    0.3899: real time    0.3944
    --------------------------------------------
      LOOP:  cpu time    5.2853: real time    5.3153

 eigenvalue-minimisations  :   102
 total energy-change (2. order) :-0.1175209E-03  (-0.9679569E-06)
 number of electron      50.0000017 magnetization       0.1150474
 augmentation part       21.6006264 magnetization       0.0754913

 Broyden mixing:
  rms(total) = 0.11621E-03    rms(broyden)= 0.11614E-03
  rms(prec ) = 0.13084E-03
  weight for this iteration     100.00

 eigenvalues of (default mixing * dielectric matrix)
  average eigenvalue GAMMA=   1.4440
  9.1731  4.1988  2.9849  2.8556  2.8556  2.6570  2.0565  2.0565  1.3912  1.3912
  1.1244  1.1244  1.0261  1.0261  0.9561  0.9561  0.2155  0.3525  0.3525  0.7869
  0.7869  0.6559  0.6559  0.7038  0.7038  0.4727  0.4727  0.7099  0.5665  0.5665
  0.6167  0.6167  0.5828

 Free energy of the ion-electron system (eV)
  ---------------------------------------------------
  alpha Z        PSCENC =         1.56302934
  Ewald energy   TEWEN  =      2526.37070860
  -Hartree energ DENC   =     -6469.19979735
  -exchange      EXHF   =         0.00000000
  -V(xc)+E(xc)   XCENC  =      -151.97062584
  PAW double counting   =      4458.27758474    -4147.28008488
  entropy T*S    EENTRO =         0.10175866
  eigenvalues    EBANDS =      -281.55094534
  atomic energy  EATOM  =      4048.71946290
  Solvation  Ediel_sol  =         0.00000000
  ---------------------------------------------------
  free energy    TOTEN  =       -14.96890916 eV

  energy without entropy =      -15.07066782  energy(sigma->0) =      -15.00282871


--------------------------------------------------------------------------------------------------------




--------------------------------------- Iteration     17(  35)  ---------------------------------------


    POTLOK:  cpu time    2.5017: real time    2.5118
    SETDIJ:  cpu time    0.0251: real time    0.0251
     EDDAV:  cpu time    1.7659: real time    1.7800
       DOS:  cpu time    0.0037: real time    0.0037
    --------------------------------------------
      LOOP:  cpu time    4.2964: real time    4.3206

 eigenvalue-minimisations  :    94
 total energy-change (2. order) :-0.7902991E-04  (-0.5916690E-06)
 number of electron      50.0000017 magnetization       0.1150474
 augmentation part       21.6006264 magnetization       0.0754913

 Free energy of the ion-electron system (eV)
  ---------------------------------------------------
  alpha Z        PSCENC =         1.56302934
  Ewald energy   TEWEN  =      2526.37070860
  -Hartree energ DENC   =     -6469.18943624
  -exchange      EXHF   =         0.00000000
  -V(xc)+E(xc)   XCENC  =      -151.97089188
  PAW double counting   =      4458.28337507    -4147.28576747
  entropy T*S    EENTRO =         0.10175022
  eigenvalues    EBANDS =      -281.56121873
  atomic energy  EATOM  =      4048.71946290
  Solvation  Ediel_sol  =         0.00000000
  ---------------------------------------------------
  free energy    TOTEN  =       -14.96898819 eV

  energy without entropy =      -15.07073841  energy(sigma->0) =      -15.00290493


--------------------------------------------------------------------------------------------------------




 average (electrostatic) potential at core
  the test charge radii are     1.1199
  (the norm of the test charge is              1.0000)
       1 -83.3870       2 -83.2176       3 -83.1640       4 -83.8778       5 -83.4570
 
 
 
 E-fermi :  -4.2980     XC(G=0):  -0.2590     alpha+bet : -0.1181


 spin component 1

 k-point     1 :       0.0000    0.0000    0.0000
  band No.  band energies     occupation 
      1      -7.8994      1.00000
      2      -7.5601      1.00000
      3      -7.0789      1.00000
      4      -6.9817      1.00000
      5      -6.8604      1.00000
      6      -6.5771      1.00000
      7      -6.3347      1.00000
      8      -6.1860      1.00000
      9      -5.9510      1.00000
     10      -5.7917      1.00000
     11      -5.6438      1.00000
     12      -5.4257      1.00000
     13      -5.3546      1.00000
     14      -5.2114      1.00000
     15      -5.1665      1.00000
     16      -4.9961      1.00000
     17      -4.8954      1.00010
     18      -4.7772      1.00182
     19      -4.7405      1.00379
     20      -4.6992      1.00784
     21      -4.6605      1.01394
     22      -4.6586      1.01431
     23      -4.5334      1.03509
     24      -4.5104      1.03043
     25      -4.4398      0.96299
     26      -4.1422      0.01553
     27      -3.9996     -0.02802
     28      -3.2671     -0.00000
     29      -1.9918     -0.00000
     30      -1.8102     -0.00000
     31      -1.2339     -0.00000
     32      -0.8554     -0.00000
     33      -0.3125     -0.00000

 spin component 2

 k-point     1 :       0.0000    0.0000    0.0000
  band No.  band energies     occupation 
      1      -8.0153      1.00000
      2      -7.5756      1.00000
      3      -7.1692      1.00000
      4      -6.8662      1.00000
      5      -6.7137      1.00000
      6      -6.6099      1.00000
      7      -6.3628      1.00000
      8      -6.1237      1.00000
      9      -5.8813      1.00000
     10      -5.7401      1.00000
     11      -5.6243      1.00000
     12      -5.4904      1.00000
     13      -5.3156      1.00000
     14      -5.2315      1.00000
     15      -5.1485      1.00000
     16      -4.9675      1.00001
     17      -4.8741      1.00018
     18      -4.7365      1.00409
     19      -4.7293      1.00466
     20      -4.6960      1.00825
     21      -4.6626      1.01356
     22      -4.6226      1.02199
     23      -4.5444      1.03545
     24      -4.4753      1.00900
     25      -4.3959      0.86436
     26      -4.1361      0.00764
     27      -3.9952     -0.02702
     28      -3.2538     -0.00000
     29      -1.9912     -0.00000
     30      -1.7830     -0.00000
     31      -1.2410     -0.00000
     32      -0.8436     -0.00000
     33      -0.3198     -0.00000


--------------------------------------------------------------------------------------------------------


 soft charge-density along one line, spin component            1
         0         1         2         3         4         5         6         7         8         9
 total charge-density along one line
 
 soft charge-density along one line, spin component            2
         0         1         2         3         4         5         6         7         8         9
 total charge-density along one line
 
 pseudopotential strength for first ion, spin component:            1
 -8.351   0.044  -0.046  -0.024  -0.002  -8.328   0.042  -0.044
  0.044  -8.366  -0.020   0.061   0.025   0.042  -8.343  -0.019
 -0.046  -0.020  -8.530   0.054   0.119  -0.044  -0.019  -8.500
 -0.024   0.061   0.054  -8.673   0.045  -0.023   0.058   0.052
 -0.002   0.025   0.119   0.045  -8.347  -0.002   0.024   0.114
 -8.328   0.042  -0.044  -0.023  -0.002  -8.284   0.041  -0.042
  0.042  -8.343  -0.019   0.058   0.024   0.041  -8.297  -0.018
 -0.044  -0.019  -8.500   0.052   0.114  -0.042  -0.018  -8.448
 -0.023   0.058   0.052  -8.636   0.043  -0.022   0.055   0.049
 -0.002   0.024   0.114   0.043  -8.324  -0.002   0.023   0.109
 -0.024   0.012   0.041  -0.025   0.060  -0.024   0.012   0.039
 -0.042   0.021   0.069  -0.043   0.102  -0.040   0.020   0.066
 -0.025  -0.020  -0.001  -0.001  -0.002  -0.024  -0.020  -0.001
 -0.001   0.003  -0.020  -0.027   0.001  -0.000   0.003  -0.020
  0.002  -0.001   0.014  -0.019  -0.025   0.002  -0.000   0.013
 -0.029  -0.022  -0.001  -0.001  -0.003  -0.028  -0.021  -0.001
 -0.001   0.003  -0.021  -0.031   0.001  -0.001   0.003  -0.021
  0.002  -0.001   0.016  -0.020  -0.029   0.002  -0.001   0.015
 pseudopotential strength for first ion, spin component:            2
 -8.258   0.024  -0.048  -0.026   0.006  -8.240   0.023  -0.046
  0.024  -8.276  -0.013   0.025   0.018   0.023  -8.257  -0.012
 -0.048  -0.013  -8.435   0.006   0.122  -0.046  -0.012  -8.409
 -0.026   0.025   0.006  -8.485   0.026  -0.025   0.024   0.005
  0.006   0.018   0.122   0.026  -8.266   0.006   0.018   0.116
 -8.240   0.023  -0.046  -0.025   0.006  -8.199   0.022  -0.044
  0.023  -8.257  -0.012   0.024   0.018   0.022  -8.215  -0.012
 -0.046  -0.012  -8.409   0.005   0.116  -0.044  -0.012  -8.361
 -0.025   0.024   0.005  -8.457   0.025  -0.024   0.023   0.005
  0.006   0.018   0.116   0.025  -8.247   0.005   0.017   0.111
 -0.015   0.010   0.031  -0.006   0.048  -0.015   0.009   0.029
 -0.026   0.016   0.051  -0.009   0.081  -0.025   0.015   0.049
 -0.025  -0.022  -0.001   0.000  -0.003  -0.024  -0.021  -0.001
  0.000   0.003  -0.023  -0.025  -0.000   0.000   0.003  -0.022
  0.002   0.000   0.015  -0.023  -0.025   0.002   0.000   0.014
 -0.029  -0.024  -0.001   0.001  -0.003  -0.028  -0.024  -0.001
  0.001   0.003  -0.025  -0.029  -0.000   0.000   0.003  -0.024
  0.002   0.001   0.017  -0.025  -0.029   0.002   0.000   0.017
 total augmentation occupancy for first ion, spin component:            1
  1.848  -0.065  -0.041  -0.020  -0.058  -0.258   0.097  -0.039  -0.064   0.096   0.547  -0.142  -0.022   0.028   0.031  -0.034
 -0.065   1.958   0.027   0.030   0.000   0.099  -0.372  -0.077   0.093   0.014  -0.265   0.069  -0.058  -0.024  -0.007  -0.034
 -0.041   0.027   2.021   0.125   0.103  -0.043  -0.077  -0.769  -0.031   0.024  -0.765   0.238  -0.005  -0.144  -0.025   0.000
 -0.020   0.030   0.125   1.344   0.021  -0.065   0.088  -0.025  -0.496   0.042   0.039  -0.013  -0.007  -0.050  -0.036  -0.001
 -0.058   0.000   0.103   0.021   1.939   0.099   0.016   0.028   0.035  -0.387  -1.263   0.378   0.018  -0.063  -0.087  -0.007
 -0.258   0.099  -0.043  -0.065   0.099   0.599  -0.103   0.082   0.124  -0.133  -0.311   0.023   0.070  -0.013  -0.057  -0.010
  0.097  -0.372  -0.077   0.088   0.016  -0.103   0.722   0.104  -0.169  -0.015   0.173  -0.013   0.099   0.021   0.001  -0.011
 -0.039  -0.077  -0.769  -0.025   0.028   0.082   0.104   1.315  -0.006  -0.083   0.445  -0.036   0.027   0.273  -0.057  -0.003
 -0.064   0.093  -0.031  -0.496   0.035   0.124  -0.169  -0.006   1.258  -0.062  -0.055  -0.025   0.001   0.092   0.128   0.000
  0.096   0.014   0.024   0.042  -0.387  -0.133  -0.015  -0.083  -0.062   0.762   0.577  -0.035  -0.019   0.048   0.164   0.001
  0.547  -0.265  -0.765   0.039  -1.263  -0.311   0.173   0.445  -0.055   0.577   1.828  -0.374  -0.025   0.203   0.164   0.002
 -0.142   0.069   0.238  -0.013   0.378   0.023  -0.013  -0.036  -0.025  -0.035  -0.374   0.121   0.004  -0.023  -0.021  -0.000
 -0.022  -0.058  -0.005  -0.007   0.018   0.070   0.099   0.027   0.001  -0.019  -0.025   0.004   0.035   0.008  -0.015  -0.003
  0.028  -0.024  -0.144  -0.050  -0.063  -0.013   0.021   0.273   0.092   0.048   0.203  -0.023   0.008   0.099  -0.005  -0.000
  0.031  -0.007  -0.025  -0.036  -0.087  -0.057   0.001  -0.057   0.128   0.164   0.164  -0.021  -0.015  -0.005   0.089   0.001
 -0.034  -0.034   0.000  -0.001  -0.007  -0.010  -0.011  -0.003   0.000   0.001   0.002  -0.000  -0.003  -0.000   0.001   0.002
  0.000   0.005  -0.024  -0.018   0.002   0.001  -0.000  -0.027  -0.018  -0.005  -0.010  -0.002  -0.000  -0.009  -0.001  -0.000
  0.001  -0.002   0.016  -0.018  -0.026   0.006   0.000   0.007  -0.020  -0.020  -0.005  -0.002   0.001  -0.001  -0.009  -0.000
 total augmentation occupancy for first ion, spin component:            2
  0.104  -0.099  -0.004   0.001   0.026  -0.035   0.032   0.005   0.000  -0.008   0.045  -0.023   0.001   0.003   0.000  -0.001
 -0.099   0.124   0.046  -0.197  -0.024   0.033  -0.047  -0.022   0.096   0.007  -0.057   0.014  -0.004  -0.006   0.015  -0.001
 -0.004   0.046   0.181  -0.263  -0.001   0.005  -0.022  -0.072   0.123   0.000  -0.103   0.040  -0.006  -0.015   0.021  -0.001
  0.001  -0.197  -0.263   0.657  -0.099  -0.004   0.076   0.109  -0.283   0.022   0.203  -0.078   0.017   0.017  -0.032   0.003
  0.026  -0.024  -0.001  -0.099   0.068  -0.005   0.006  -0.004   0.048  -0.026  -0.058   0.035  -0.002   0.001   0.001  -0.000
 -0.035   0.033   0.005  -0.004  -0.005   0.001  -0.002  -0.004  -0.002   0.001  -0.003  -0.002  -0.001  -0.001   0.000   0.000
  0.032  -0.047  -0.022   0.076   0.006  -0.002   0.000   0.008  -0.030   0.001   0.017  -0.004   0.001   0.003  -0.005   0.000
  0.005  -0.022  -0.072   0.109  -0.004  -0.004   0.008   0.006  -0.042   0.002   0.023  -0.007   0.002   0.003  -0.006   0.000
  0.000   0.096   0.123  -0.283   0.048  -0.002  -0.030  -0.042   0.089  -0.002  -0.052   0.014  -0.007  -0.007   0.010  -0.001
 -0.008   0.007   0.000   0.022  -0.026   0.001   0.001   0.002  -0.002  -0.001   0.001   0.002   0.001  -0.001  -0.000   0.000
  0.045  -0.057  -0.103   0.203  -0.058  -0.003   0.017   0.023  -0.052   0.001   0.106  -0.048   0.005   0.004  -0.008   0.000
 -0.023   0.014   0.040  -0.078   0.035  -0.002  -0.004  -0.007   0.014   0.002  -0.048   0.026  -0.002  -0.002   0.003   0.000
  0.001  -0.004  -0.006   0.017  -0.002  -0.001   0.001   0.002  -0.007   0.001   0.005  -0.002   0.000   0.001  -0.001   0.000
  0.003  -0.006  -0.015   0.017   0.001  -0.001   0.003   0.003  -0.007  -0.001   0.004  -0.002   0.001   0.001  -0.002   0.000
  0.000   0.015   0.021  -0.032   0.001   0.000  -0.005  -0.006   0.010  -0.000  -0.008   0.003  -0.001  -0.002   0.001  -0.000
 -0.001  -0.001  -0.001   0.003  -0.000   0.000   0.000   0.000  -0.001   0.000   0.000   0.000   0.000   0.000  -0.000   0.000
 -0.000   0.002   0.000  -0.006   0.001   0.000  -0.001  -0.000   0.003  -0.001  -0.002   0.000  -0.000  -0.000   0.000  -0.000
  0.000   0.003   0.005  -0.009  -0.001   0.000  -0.001  -0.002   0.004   0.000  -0.003   0.001  -0.000  -0.000   0.001  -0.000


------------------------ aborting loop because EDIFF is reached ----------------------------------------


    CHARGE:  cpu time    0.4413: real time    0.4417
    FORLOC:  cpu time    0.0428: real time    0.0429
    FORNL :  cpu time    0.5962: real time    0.6086
    FORCOR:  cpu time    2.4568: real time    2.4669
    FORHAR:  cpu time    0.3095: real time    0.3097
    MIXING:  cpu time    0.4160: real time    0.4165
    OFIELD:  cpu time    0.0000: real time    0.0000

 VOLUME and BASIS-vectors are now :
 -----------------------------------------------------------------------------
  energy-cutoff  :      400.00
  volume of cell :    10424.50
      direct lattice vectors                 reciprocal lattice vectors
    24.004675988  0.000000000  0.000000000     0.041658550  0.000000000  0.000000000
     0.000000000 19.468246591  0.000000000     0.000000000  0.051365694  0.000000000
     0.000000000  0.000000000 22.306566609     0.000000000  0.000000000  0.044829848

  length of vectors
    24.004675988 19.468246591 22.306566609     0.041658550  0.051365694  0.044829848


 FORCES acting on ions
    electron-ion (+dipol)            ewald-force                    non-local-force                 convergence-correction
 -----------------------------------------------------------------------------------------------
   0.323E+03 -.264E+02 0.339E+03   -.319E+03 0.257E+02 -.333E+03   -.384E+01 0.687E+00 -.517E+01   0.678E-03 -.330E-04 0.679E-03
   0.395E+03 -.930E+02 -.287E+03   -.389E+03 0.916E+02 0.282E+03   -.536E+01 0.130E+01 0.461E+01   0.605E-03 -.147E-03 0.435E-03
   -.165E+03 0.180E+03 0.414E+03   0.163E+03 -.177E+03 -.408E+03   0.163E+01 -.278E+01 -.550E+01   0.836E-03 0.319E-03 0.103E-02
   -.513E+02 0.595E+02 -.381E+03   0.495E+02 -.585E+02 0.377E+03   -.361E-01 -.139E+01 0.506E+01   0.129E-02 0.171E-03 0.276E-03
   -.501E+03 -.120E+03 -.852E+02   0.495E+03 0.118E+03 0.825E+02   0.710E+01 0.216E+01 0.168E+01   -.150E-03 -.129E-03 0.274E-03
 -----------------------------------------------------------------------------------------------
   0.498E+00 0.166E-01 -.677E+00   0.568E-13 -.142E-13 0.284E-13   -.501E+00 -.184E-01 0.674E+00   0.326E-02 0.181E-03 0.269E-02
 
 
 POSITION                                       TOTAL-FORCE (eV/Angst)
 -----------------------------------------------------------------------------------
     10.96613      9.94388     10.51082         0.691630     -0.019456      0.078281
     10.06953     10.33399     12.87070         0.455046     -0.109659     -0.178625
     13.40945      9.20424      9.70883        -0.390933      0.263435      0.799251
     12.58768      9.82808     12.57734        -1.889032     -0.329011      0.273383
     14.73363     10.16851     11.75705         1.133290      0.194692     -0.972291
 -----------------------------------------------------------------------------------
    total drift:                                0.000202     -0.001590     -0.000810


--------------------------------------------------------------------------------------------------------



  FREE ENERGIE OF THE ION-ELECTRON SYSTEM (eV)
  ---------------------------------------------------
  free  energy   TOTEN  =       -14.96898819 eV

  energy  without entropy=      -15.07073841  energy(sigma->0) =      -15.00290493
 
 d Force = 0.9227491E+02[-0.821E+00, 0.185E+03]  d Energy = 0.3249790E+02 0.598E+02
 d Force = 0.9954879E+03[ 0.349E+03, 0.164E+04]  d Ewald  = 0.7335272E+03 0.262E+03


--------------------------------------------------------------------------------------------------------


    POTLOK:  cpu time    2.5876: real time    2.6204


--------------------------------------------------------------------------------------------------------




--------------------------------------------------------------------------------------------------------


  
 reached required accuracy - stopping structural energy minimisation
     LOOP+:  cpu time  192.3424: real time  194.9917
    4ORBIT:  cpu time    0.0000: real time    0.0000

 total amount of memory used by VASP MPI-rank0   198744. kBytes
=======================================================================

   base      :      30000. kBytes
   nonl-proj :       2647. kBytes
   fftplans  :      47100. kBytes
   grid      :     106490. kBytes
   one-center:         15. kBytes
   wavefun   :      12492. kBytes
 
  
  
 General timing and accounting informations for this job:
 ========================================================
  
                  Total CPU time used (sec):     1789.425
                            User time (sec):     1751.765
                          System time (sec):       37.660
                         Elapsed time (sec):     1818.685
  
                   Maximum memory used (kb):      435576.
                   Average memory used (kb):           0.
  
                          Minor page faults:      9497522
                          Major page faults:           11
                 Voluntary context switches:         2180
