<?xml version="1.0" encoding="ISO-8859-1"?>
<modeling>
 <generator>
  <i name="program" type="string">vasp </i>
  <i name="version" type="string">6.1.2  </i>
  <i name="subversion" type="string">22Jul20 (build Feb  1 2022 14:42:14) gamma-only                       parallel </i>
  <i name="platform" type="string">LinuxPGI </i>
  <i name="date" type="string">2022 02 04 </i>
  <i name="time" type="string">03:14:44 </i>
 </generator>
 <incar>
  <i type="int" name="ISPIN">     2</i>
  <i type="int" name="IBRION">     2</i>
  <i type="int" name="NSW">  1000</i>
  <i type="int" name="ISIF">     0</i>
  <i type="int" name="ISYM">     0</i>
  <i name="ENCUT">    400.00000000</i>
  <i type="logical" name="LREAL"> F  </i>
  <i type="int" name="ISMEAR">     1</i>
  <i name="SIGMA">      0.20000000</i>
  <i type="logical" name="LWAVE"> F  </i>
  <i type="logical" name="LCHARG"> F  </i>
  <i type="int" name="KPAR">     1</i>
  <i type="int" name="NCORE">     8</i>
  <i type="string" name="GGA"> PE</i>
  <i type="int" name="ISPIN">     2</i>
 </incar>
 <structure name="primitive_cell" >
  <crystal>
   <varray name="basis" >
    <v>      24.00467599       0.00000000       0.00000000 </v>
    <v>       0.00000000      19.46824659       0.00000000 </v>
    <v>       0.00000000       0.00000000      22.30656661 </v>
   </varray>
   <i name="volume">  10424.50438431 </i>
   <varray name="rec_basis" >
    <v>       0.04165855       0.00000000       0.00000000 </v>
    <v>       0.00000000       0.05136569       0.00000000 </v>
    <v>       0.00000000       0.00000000       0.04482985 </v>
   </varray>
  </crystal>
  <varray name="positions" >
   <v>       0.43181665       0.51450508       0.48703051 </v>
   <v>       0.41337780       0.53359629       0.59205760 </v>
   <v>       0.60770158       0.46808709       0.41894334 </v>
   <v>       0.51133700       0.51778466       0.55851068 </v>
   <v>       0.60886685       0.50753409       0.51780027 </v>
  </varray>
 </structure>
 <varray name="primitive_index" >
  <v type="int" >        1 </v>
  <v type="int" >        2 </v>
  <v type="int" >        3 </v>
  <v type="int" >        4 </v>
  <v type="int" >        5 </v>
 </varray>
 <kpoints>
  <generation param="Gamma">
   <v type="int" name="divisions">       1        1        1 </v>
   <v name="usershift">      0.00000000       0.00000000       0.00000000 </v>
   <v name="genvec1">      1.00000000       0.00000000       0.00000000 </v>
   <v name="genvec2">      0.00000000       1.00000000       0.00000000 </v>
   <v name="genvec3">      0.00000000       0.00000000       1.00000000 </v>
   <v name="shift">      0.00000000       0.00000000       0.00000000 </v>
  </generation>
  <varray name="kpointlist" >
   <v>       0.00000000       0.00000000       0.00000000 </v>
  </varray>
  <varray name="weights" >
   <v>       1.00000000 </v>
  </varray>
 </kpoints>
 <parameters>
  <separator name="general" >
   <i type="string" name="SYSTEM">unknown system</i>
   <i type="logical" name="LCOMPAT"> F  </i>
  </separator>
  <separator name="electronic" >
   <i type="string" name="PREC">normal</i>
   <i name="ENMAX">    400.00000000</i>
   <i name="ENAUG">    416.23000000</i>
   <i name="EDIFF">      0.00010000</i>
   <i type="int" name="IALGO">    38</i>
   <i type="int" name="IWAVPR">    11</i>
   <i type="int" name="NBANDS">    33</i>
   <i type="int" name="NBANDSLOW">    -1</i>
   <i type="int" name="NBANDSHIGH">    -1</i>
   <i name="NELECT">     50.00000000</i>
   <i type="int" name="TURBO">     0</i>
   <i type="int" name="IRESTART">     0</i>
   <i type="int" name="NREBOOT">     0</i>
   <i type="int" name="NMIN">     0</i>
   <i name="EREF">      0.00000000</i>
   <separator name="electronic smearing" >
    <i type="int" name="ISMEAR">     1</i>
    <i name="SIGMA">      0.20000000</i>
    <i name="KSPACING">      0.50000000</i>
    <i type="logical" name="KGAMMA"> T  </i>
    <i type="logical" name="KBLOWUP"> T  </i>
   </separator>
   <separator name="electronic projectors" >
    <i type="logical" name="LREAL"> F  </i>
    <v name="ROPT">      0.00000000</v>
    <i type="int" name="LMAXPAW">  -100</i>
    <i type="int" name="LMAXMIX">     2</i>
    <i type="logical" name="NLSPLINE"> F  </i>
   </separator>
   <separator name="electronic startup" >
    <i type="int" name="ISTART">     0</i>
    <i type="int" name="ICHARG">     2</i>
    <i type="int" name="INIWAV">     1</i>
   </separator>
   <separator name="electronic spin" >
    <i type="int" name="ISPIN">     2</i>
    <i type="logical" name="LNONCOLLINEAR"> F  </i>
    <v name="MAGMOM">      1.00000000      1.00000000      1.00000000      1.00000000      1.00000000</v>
    <i name="NUPDOWN">     -1.00000000</i>
    <i type="logical" name="LSORBIT"> F  </i>
    <v name="SAXIS">      0.00000000      0.00000000      1.00000000</v>
    <i type="logical" name="LSPIRAL"> F  </i>
    <v name="QSPIRAL">      0.00000000      0.00000000      0.00000000</v>
    <i type="logical" name="LZEROZ"> F  </i>
   </separator>
   <separator name="electronic exchange-correlation" >
    <i type="logical" name="LASPH"> F  </i>
    <i type="logical" name="LMETAGGA"> F  </i>
   </separator>
   <separator name="electronic convergence" >
    <i type="int" name="NELM">    60</i>
    <i type="int" name="NELMDL">     0</i>
    <i type="int" name="NELMIN">     2</i>
    <i name="ENINI">    400.00000000</i>
    <separator name="electronic convergence detail" >
     <i type="logical" name="LDIAG"> T  </i>
     <i type="logical" name="LSUBROT"> F  </i>
     <i name="WEIMIN">      0.00100000</i>
     <i name="EBREAK">      0.00000076</i>
     <i name="DEPER">      0.30000000</i>
     <i type="int" name="NRMM">     4</i>
     <i name="TIME">      0.40000000</i>
    </separator>
   </separator>
   <separator name="electronic mixer" >
    <i name="AMIX">      0.40000000</i>
    <i name="BMIX">      1.00000000</i>
    <i name="AMIN">      0.10000000</i>
    <i name="AMIX_MAG">      1.60000000</i>
    <i name="BMIX_MAG">      1.00000000</i>
    <separator name="electronic mixer details" >
     <i type="int" name="IMIX">     4</i>
     <i type="logical" name="MIXFIRST"> F  </i>
     <i type="int" name="MAXMIX">   -45</i>
     <i name="WC">    100.00000000</i>
     <i type="int" name="INIMIX">     1</i>
     <i type="int" name="MIXPRE">     1</i>
     <i type="int" name="MREMOVE">     5</i>
    </separator>
   </separator>
   <separator name="electronic dipolcorrection" >
    <i type="logical" name="LDIPOL"> F  </i>
    <i type="logical" name="LMONO"> F  </i>
    <i type="int" name="IDIPOL">     0</i>
    <i name="EPSILON">      1.00000000</i>
    <v name="DIPOL">   -100.00000000   -100.00000000   -100.00000000</v>
    <i name="EFIELD">      0.00000000</i>
   </separator>
  </separator>
  <separator name="grids" >
   <i type="int" name="NGX">   120</i>
   <i type="int" name="NGY">    96</i>
   <i type="int" name="NGZ">   112</i>
   <i type="int" name="NGXF">   240</i>
   <i type="int" name="NGYF">   192</i>
   <i type="int" name="NGZF">   224</i>
   <i type="logical" name="ADDGRID"> F  </i>
  </separator>
  <separator name="ionic" >
   <i type="int" name="NSW">  1000</i>
   <i type="int" name="IBRION">     2</i>
   <i type="int" name="MDALGO">     0</i>
   <i type="int" name="ISIF">     0</i>
   <i name="PSTRESS">      0.00000000</i>
   <i name="EDIFFG">      0.00100000</i>
   <i type="int" name="NFREE">     1</i>
   <i name="POTIM">      0.50000000</i>
   <i name="SMASS">     -3.00000000</i>
   <i name="SCALEE">      1.00000000</i>
  </separator>
  <separator name="ionic md" >
   <i name="TEBEG">      0.00010000</i>
   <i name="TEEND">      0.00010000</i>
   <i type="int" name="NBLOCK">     1</i>
   <i type="int" name="KBLOCK">  1000</i>
   <i type="int" name="NPACO">   256</i>
   <i name="APACO">     16.00000000</i>
  </separator>
  <separator name="symmetry" >
   <i type="int" name="ISYM">     0</i>
   <i name="SYMPREC">      0.00001000</i>
  </separator>
  <separator name="dos" >
   <i type="int" name="LORBIT">     0</i>
   <v name="RWIGS">     -1.00000000</v>
   <i type="int" name="NEDOS">   301</i>
   <i name="EMIN">     10.00000000</i>
   <i name="EMAX">    -10.00000000</i>
   <i name="EFERMI">      0.00000000</i>
  </separator>
  <separator name="writing" >
   <i type="int" name="NWRITE">     2</i>
   <i type="logical" name="LWAVE"> F  </i>
   <i type="logical" name="LDOWNSAMPLE"> F  </i>
   <i type="logical" name="LCHARG"> F  </i>
   <i type="logical" name="LPARD"> F  </i>
   <i type="logical" name="LVTOT"> F  </i>
   <i type="logical" name="LVHAR"> F  </i>
   <i type="logical" name="LELF"> F  </i>
   <i type="logical" name="LOPTICS"> F  </i>
   <v name="STM">      0.00000000      0.00000000      0.00000000      0.00000000      0.00000000      0.00000000      0.00000000</v>
  </separator>
  <separator name="performance" >
   <i type="int" name="NPAR">     1</i>
   <i type="int" name="NSIM">     4</i>
   <i type="int" name="NBLK">    -1</i>
   <i type="logical" name="LPLANE"> T  </i>
   <i type="logical" name="LSCALAPACK"> T  </i>
   <i type="logical" name="LSCAAWARE"> F  </i>
   <i type="logical" name="LSCALU"> F  </i>
   <i type="logical" name="LASYNC"> F  </i>
   <i type="logical" name="LORBITALREAL"> F  </i>
  </separator>
  <separator name="miscellaneous" >
   <i type="int" name="IDIOT">     3</i>
   <i type="int" name="PHON_NSTRUCT">    -1</i>
   <i type="logical" name="LMUSIC"> F  </i>
   <v name="POMASS">    106.42000000</v>
   <v name="DARWINR">      0.00000000</v>
   <v name="DARWINV">      1.00000000</v>
   <i type="logical" name="LCORR"> T  </i>
  </separator>
  <i type="logical" name="GGA_COMPAT"> T  </i>
  <i type="logical" name="LBERRY"> F  </i>
  <i type="int" name="ICORELEVEL">     0</i>
  <i type="logical" name="LDAU"> F  </i>
  <i type="int" name="I_CONSTRAINED_M">     0</i>
  <separator name="electronic exchange-correlation" >
   <i type="string" name="GGA">PE</i>
   <i type="int" name="VOSKOWN">     0</i>
   <i type="logical" name="LHFCALC"> F  </i>
   <i type="string" name="PRECFOCK"></i>
   <i type="logical" name="LSYMGRAD"> F  </i>
   <i type="logical" name="LHFONE"> F  </i>
   <i type="logical" name="LRHFCALC"> F  </i>
   <i type="logical" name="LTHOMAS"> F  </i>
   <i type="logical" name="LMODELHF"> F  </i>
   <i type="logical" name="LFOCKACE"> F  </i>
   <i name="ENCUT4O">     -1.00000000</i>
   <i type="int" name="EXXOEP">     0</i>
   <i type="int" name="FOURORBIT">     0</i>
   <i name="AEXX">      0.00000000</i>
   <i name="HFALPHA">      0.00000000</i>
   <i name="MCALPHA">      0.00000000</i>
   <i name="ALDAX">      1.00000000</i>
   <i name="AGGAX">      1.00000000</i>
   <i name="ALDAC">      1.00000000</i>
   <i name="AGGAC">      1.00000000</i>
   <i type="int" name="NKREDX">     1</i>
   <i type="int" name="NKREDY">     1</i>
   <i type="int" name="NKREDZ">     1</i>
   <i type="logical" name="SHIFTRED"> F  </i>
   <i type="logical" name="ODDONLY"> F  </i>
   <i type="logical" name="EVENONLY"> F  </i>
   <i type="int" name="LMAXFOCK">     0</i>
   <i type="int" name="NMAXFOCKAE">     0</i>
   <i type="logical" name="LFOCKAEDFT"> F  </i>
   <i name="HFSCREEN">      0.00000000</i>
   <i name="HFSCREENC">      0.00000000</i>
   <i type="int" name="NBANDSGWLOW">     0</i>
  </separator>
  <separator name="vdW DFT" >
   <i type="logical" name="LUSE_VDW"> F  </i>
   <i name="Zab_VDW">     -0.84910000</i>
   <i name="PARAM1">      0.12340000</i>
   <i name="PARAM2">      1.00000000</i>
   <i name="PARAM3">      0.00000000</i>
  </separator>
  <separator name="model GW" >
   <i type="int" name="MODEL_GW">     0</i>
   <i name="MODEL_EPS0">   1250.94052612</i>
   <i name="MODEL_ALPHA">      1.00000000</i>
  </separator>
  <separator name="linear response parameters" >
   <i type="logical" name="LEPSILON"> F  </i>
   <i type="logical" name="LRPA"> F  </i>
   <i type="logical" name="LNABLA"> F  </i>
   <i type="logical" name="LVEL"> F  </i>
   <i type="int" name="KINTER">     0</i>
   <i name="CSHIFT">      0.10000000</i>
   <i name="OMEGAMAX">     -1.00000000</i>
   <i name="DEG_THRESHOLD">      0.00200000</i>
   <i name="RTIME">     -0.10000000</i>
   <i name="WPLASMAI">      0.00000000</i>
   <v name="DFIELD">      0.00000000      0.00000000      0.00000000</v>
   <v name="WPLASMA">      0.00000000      0.00000000      0.00000000      0.00000000      0.00000000      0.00000000      0.00000000      0.00000000      0.00000000</v>
  </separator>
  <separator name="orbital magnetization" >
   <i type="logical" name="NUCIND"> F  </i>
   <v name="MAGPOS">      0.00000000      0.00000000      0.00000000</v>
   <i type="logical" name="LNICSALL"> T  </i>
   <i type="logical" name="ORBITALMAG"> F  </i>
   <i type="logical" name="LMAGBLOCH"> F  </i>
   <i type="logical" name="LCHIMAG"> F  </i>
   <i type="logical" name="LGAUGE"> T  </i>
   <i type="int" name="MAGATOM">     0</i>
   <v name="MAGDIPOL">      0.00000000      0.00000000      0.00000000</v>
   <v name="AVECCONST">      0.00000000      0.00000000      0.00000000</v>
  </separator>
  <separator name="response functions" >
   <i type="logical" name="LFINITE_TEMPERATURE"> F  </i>
   <i type="logical" name="LADDER"> F  </i>
   <i type="logical" name="LRPAFORCE"> F  </i>
   <i type="logical" name="LFXC"> F  </i>
   <i type="logical" name="LHARTREE"> T  </i>
   <i type="int" name="IBSE">     0</i>
   <v type="int" name="KPOINT">    -1     0     0     0</v>
   <i type="logical" name="LTCTC"> F  </i>
   <i type="logical" name="LTCTE"> F  </i>
   <i type="logical" name="LTETE"> F  </i>
   <i type="logical" name="LTRIPLET"> F  </i>
   <i type="logical" name="LFXCEPS"> F  </i>
   <i type="logical" name="LFXHEG"> F  </i>
   <i type="int" name="NATURALO">     2</i>
   <i type="logical" name="LHOLEGF"> F  </i>
   <i type="logical" name="L2ORDER"> F  </i>
   <i type="logical" name="LDMP1"> F  </i>
   <i type="logical" name="LMP2LT"> F  </i>
   <i type="logical" name="LSMP2LT"> F  </i>
   <i type="logical" name="LGWLF"> F  </i>
   <i name="ENCUTGW">     -2.00000000</i>
   <i name="ENCUTGWSOFT">     -2.00000000</i>
   <i name="ENCUTLF">     -1.00000000</i>
   <i type="logical" name="LESF_SPLINES"> F  </i>
   <i type="int" name="LMAXMP2">    -1</i>
   <i name="SCISSOR">      0.00000000</i>
   <i type="int" name="NOMEGA">     0</i>
   <i type="int" name="NOMEGAR">     0</i>
   <i type="int" name="NBANDSGW">    -1</i>
   <i type="int" name="NBANDSO">    -1</i>
   <i type="int" name="NBANDSV">    -1</i>
   <i type="int" name="NELM">     1</i>
   <i type="int" name="NELMHF">     1</i>
   <i type="int" name="DIM">     3</i>
   <i type="int" name="IESPILON">     4</i>
   <i type="int" name="ANTIRES">     0</i>
   <i name="OMEGAMAX">    -30.00000000</i>
   <i name="OMEGAMIN">    -30.00000000</i>
   <i name="OMEGATL">   -200.00000000</i>
   <i type="int" name="OMEGAGRID">     0</i>
   <i name="CSHIFT">     -0.10000000</i>
   <i type="logical" name="LSELFENERGY"> F  </i>
   <i type="logical" name="LSPECTRAL"> F  </i>
   <i type="logical" name="LSPECTRALGW"> F  </i>
   <i type="logical" name="LSINGLES"> F  </i>
   <i type="logical" name="LFERMIGW"> F  </i>
   <i type="logical" name="ODDONLYGW"> F  </i>
   <i type="logical" name="EVENONLYGW"> F  </i>
   <i type="int" name="NKREDLFX">     1</i>
   <i type="int" name="NKREDLFY">     1</i>
   <i type="int" name="NKREDLFZ">     1</i>
   <i type="int" name="MAXMEM">  2800</i>
   <i type="int" name="TELESCOPE">     0</i>
   <i type="int" name="NTAUPAR">    -1</i>
   <i type="int" name="NOMEGAPAR">    -1</i>
   <i name="LAMBDA">      1.00000000</i>
  </separator>
  <separator name="External order field" >
   <i name="OFIELD_KAPPA">      0.00000000</i>
   <v name="OFIELD_K">      0.00000000      0.00000000      0.00000000</v>
   <i name="OFIELD_Q6_NEAR">      0.00000000</i>
   <i name="OFIELD_Q6_FAR">      0.00000000</i>
   <i name="OFIELD_A">      0.00000000</i>
  </separator>
 </parameters>
 <atominfo>
  <atoms>       5 </atoms>
  <types>       1 </types>
  <array name="atoms" >
   <dimension dim="1">ion</dimension>
   <field type="string">element</field>
   <field type="int">atomtype</field>
   <set>
    <rc><c>Pd</c><c>   1</c></rc>
    <rc><c>Pd</c><c>   1</c></rc>
    <rc><c>Pd</c><c>   1</c></rc>
    <rc><c>Pd</c><c>   1</c></rc>
    <rc><c>Pd</c><c>   1</c></rc>
   </set>
  </array>
  <array name="atomtypes" >
   <dimension dim="1">type</dimension>
   <field type="int">atomspertype</field>
   <field type="string">element</field>
   <field>mass</field>
   <field>valence</field>
   <field type="string">pseudopotential</field>
   <set>
    <rc><c>   5</c><c>Pd</c><c>    106.42000000</c><c>     10.00000000</c><c>  PAW_PBE Pd 04Jan2005                  </c></rc>
   </set>
  </array>
 </atominfo>
 <structure name="initialpos" >
  <crystal>
   <varray name="basis" >
    <v>      24.00467599       0.00000000       0.00000000 </v>
    <v>       0.00000000      19.46824659       0.00000000 </v>
    <v>       0.00000000       0.00000000      22.30656661 </v>
   </varray>
   <i name="volume">  10424.50438431 </i>
   <varray name="rec_basis" >
    <v>       0.04165855       0.00000000       0.00000000 </v>
    <v>       0.00000000       0.05136569       0.00000000 </v>
    <v>       0.00000000       0.00000000       0.04482985 </v>
   </varray>
  </crystal>
  <varray name="positions" >
   <v>       0.43181665       0.51450508       0.48703051 </v>
   <v>       0.41337780       0.53359629       0.59205760 </v>
   <v>       0.60770158       0.46808709       0.41894334 </v>
   <v>       0.51133700       0.51778466       0.55851068 </v>
   <v>       0.60886685       0.50753409       0.51780027 </v>
  </varray>
 </structure>
 <calculation>
  <scstep>
   <time name="dav">    2.24    2.33</time>
   <time name="total">    4.75    4.86</time>
   <energy>
    <i name="alphaZ">      1.56302934 </i>
    <i name="ewald">   2191.79176910 </i>
    <i name="hartreedc">  -6049.04984326 </i>
    <i name="XCdc">   -153.29042044 </i>
    <i name="pawpsdc">   4033.23964144 </i>
    <i name="pawaedc">  -3722.16140761 </i>
    <i name="eentropy">     -0.01782502 </i>
    <i name="bandstr">     44.73629166 </i>
    <i name="atom">   4048.71946290 </i>
    <i name="e_fr_energy">    395.53069811 </i>
    <i name="e_wo_entrp">    395.54852312 </i>
    <i name="e_0_energy">    395.53663978 </i>
   </energy>
  </scstep>
  <scstep>
   <time name="dav">    3.51    3.55</time>
   <time name="total">    3.51    3.55</time>
   <energy>
    <i name="e_fr_energy">    272.26442562 </i>
    <i name="e_wo_entrp">    272.27427019 </i>
    <i name="e_0_energy">    272.26770715 </i>
   </energy>
  </scstep>
  <scstep>
   <time name="dav">    3.73    3.73</time>
   <time name="total">    3.73    3.73</time>
   <energy>
    <i name="e_fr_energy">     73.53049296 </i>
    <i name="e_wo_entrp">     73.52752898 </i>
    <i name="e_0_energy">     73.52950496 </i>
   </energy>
  </scstep>
  <scstep>
   <time name="dav">    3.00    3.00</time>
   <time name="total">    3.00    3.00</time>
   <energy>
    <i name="e_fr_energy">     -3.35600487 </i>
    <i name="e_wo_entrp">     -3.36368543 </i>
    <i name="e_0_energy">     -3.35856505 </i>
   </energy>
  </scstep>
  <scstep>
   <time name="dav">    2.54    2.56</time>
   <time name="total">    3.02    3.10</time>
   <energy>
    <i name="e_fr_energy">    -14.26338230 </i>
    <i name="e_wo_entrp">    -14.23949026 </i>
    <i name="e_0_energy">    -14.25541829 </i>
   </energy>
  </scstep>
  <scstep>
   <time name="dav">    2.36    2.38</time>
   <time name="total">    5.33    5.46</time>
   <energy>
    <i name="e_fr_energy">    -12.38315915 </i>
    <i name="e_wo_entrp">    -12.40707809 </i>
    <i name="e_0_energy">    -12.39113213 </i>
   </energy>
  </scstep>
  <scstep>
   <time name="dav">    2.63    2.73</time>
   <time name="total">    5.64    5.77</time>
   <energy>
    <i name="e_fr_energy">    -12.76737902 </i>
    <i name="e_wo_entrp">    -12.76373396 </i>
    <i name="e_0_energy">    -12.76616400 </i>
   </energy>
  </scstep>
  <scstep>
   <time name="dav">    2.28    2.29</time>
   <time name="total">    5.26    5.30</time>
   <energy>
    <i name="e_fr_energy">    -11.83223467 </i>
    <i name="e_wo_entrp">    -11.83627535 </i>
    <i name="e_0_energy">    -11.83358156 </i>
   </energy>
  </scstep>
  <scstep>
   <time name="dav">    2.50    2.56</time>
   <time name="total">    5.55    5.64</time>
   <energy>
    <i name="e_fr_energy">    -10.68852315 </i>
    <i name="e_wo_entrp">    -10.69537154 </i>
    <i name="e_0_energy">    -10.69080595 </i>
   </energy>
  </scstep>
  <scstep>
   <time name="dav">    2.26    2.26</time>
   <time name="total">    5.34    5.36</time>
   <energy>
    <i name="e_fr_energy">    -10.54952861 </i>
    <i name="e_wo_entrp">    -10.57274862 </i>
    <i name="e_0_energy">    -10.55726861 </i>
   </energy>
  </scstep>
  <scstep>
   <time name="dav">    2.47    2.50</time>
   <time name="total">    5.50    5.55</time>
   <energy>
    <i name="e_fr_energy">    -10.58392459 </i>
    <i name="e_wo_entrp">    -10.62758829 </i>
    <i name="e_0_energy">    -10.59847916 </i>
   </energy>
  </scstep>
  <scstep>
   <time name="dav">    2.50    2.53</time>
   <time name="total">    5.53    5.59</time>
   <energy>
    <i name="e_fr_energy">    -10.78980284 </i>
    <i name="e_wo_entrp">    -10.83053221 </i>
    <i name="e_0_energy">    -10.80337929 </i>
   </energy>
  </scstep>
  <scstep>
   <time name="dav">    2.36    2.38</time>
   <time name="total">    5.40    5.45</time>
   <energy>
    <i name="e_fr_energy">    -11.42663303 </i>
    <i name="e_wo_entrp">    -11.46704582 </i>
    <i name="e_0_energy">    -11.44010396 </i>
   </energy>
  </scstep>
  <scstep>
   <time name="dav">    2.52    2.55</time>
   <time name="total">    5.64    5.69</time>
   <energy>
    <i name="e_fr_energy">    -11.87172330 </i>
    <i name="e_wo_entrp">    -11.91639053 </i>
    <i name="e_0_energy">    -11.88661238 </i>
   </energy>
  </scstep>
  <scstep>
   <time name="dav">    2.36    2.37</time>
   <time name="total">    5.41    5.46</time>
   <energy>
    <i name="e_fr_energy">    -12.04046833 </i>
    <i name="e_wo_entrp">    -12.09846715 </i>
    <i name="e_0_energy">    -12.05980127 </i>
   </energy>
  </scstep>
  <scstep>
   <time name="dav">    2.19    2.21</time>
   <time name="total">    5.25    5.30</time>
   <energy>
    <i name="e_fr_energy">    -12.42464661 </i>
    <i name="e_wo_entrp">    -12.47861756 </i>
    <i name="e_0_energy">    -12.44263693 </i>
   </energy>
  </scstep>
  <scstep>
   <time name="dav">    2.32    2.32</time>
   <time name="total">    5.49    5.59</time>
   <energy>
    <i name="e_fr_energy">    -12.68292335 </i>
    <i name="e_wo_entrp">    -12.73449502 </i>
    <i name="e_0_energy">    -12.70011391 </i>
   </energy>
  </scstep>
  <scstep>
   <time name="dav">    2.30    2.33</time>
   <time name="total">    5.39    5.45</time>
   <energy>
    <i name="e_fr_energy">    -12.90616738 </i>
    <i name="e_wo_entrp">    -12.95957439 </i>
    <i name="e_0_energy">    -12.92396972 </i>
   </energy>
  </scstep>
  <scstep>
   <time name="dav">    2.31    2.34</time>
   <time name="total">    5.43    5.49</time>
   <energy>
    <i name="e_fr_energy">    -13.09822611 </i>
    <i name="e_wo_entrp">    -13.14891194 </i>
    <i name="e_0_energy">    -13.11512139 </i>
   </energy>
  </scstep>
  <scstep>
   <time name="dav">    2.24    2.26</time>
   <time name="total">    5.32    5.37</time>
   <energy>
    <i name="e_fr_energy">    -13.29398136 </i>
    <i name="e_wo_entrp">    -13.34371684 </i>
    <i name="e_0_energy">    -13.31055985 </i>
   </energy>
  </scstep>
  <scstep>
   <time name="dav">    2.47    2.51</time>
   <time name="total">    5.58    5.65</time>
   <energy>
    <i name="e_fr_energy">    -13.44325172 </i>
    <i name="e_wo_entrp">    -13.49216914 </i>
    <i name="e_0_energy">    -13.45955753 </i>
   </energy>
  </scstep>
  <scstep>
   <time name="dav">    2.24    2.25</time>
   <time name="total">    5.36    5.42</time>
   <energy>
    <i name="e_fr_energy">    -13.56067767 </i>
    <i name="e_wo_entrp">    -13.60849748 </i>
    <i name="e_0_energy">    -13.57661760 </i>
   </energy>
  </scstep>
  <scstep>
   <time name="dav">    2.40    2.42</time>
   <time name="total">    5.53    5.58</time>
   <energy>
    <i name="e_fr_energy">    -13.61797569 </i>
    <i name="e_wo_entrp">    -13.66492018 </i>
    <i name="e_0_energy">    -13.63362385 </i>
   </energy>
  </scstep>
  <scstep>
   <time name="dav">    2.29    2.30</time>
   <time name="total">    5.47    5.53</time>
   <energy>
    <i name="e_fr_energy">    -13.65931049 </i>
    <i name="e_wo_entrp">    -13.70578145 </i>
    <i name="e_0_energy">    -13.67480081 </i>
   </energy>
  </scstep>
  <scstep>
   <time name="dav">    2.22    2.24</time>
   <time name="total">    5.35    5.45</time>
   <energy>
    <i name="e_fr_energy">    -13.69290604 </i>
    <i name="e_wo_entrp">    -13.73841396 </i>
    <i name="e_0_energy">    -13.70807535 </i>
   </energy>
  </scstep>
  <scstep>
   <time name="dav">    2.04    2.06</time>
   <time name="total">    5.20    5.26</time>
   <energy>
    <i name="e_fr_energy">    -13.70349907 </i>
    <i name="e_wo_entrp">    -13.74883724 </i>
    <i name="e_0_energy">    -13.71861180 </i>
   </energy>
  </scstep>
  <scstep>
   <time name="dav">    1.87    1.90</time>
   <time name="total">    5.05    5.12</time>
   <energy>
    <i name="e_fr_energy">    -13.71586329 </i>
    <i name="e_wo_entrp">    -13.76098542 </i>
    <i name="e_0_energy">    -13.73090400 </i>
   </energy>
  </scstep>
  <scstep>
   <time name="dav">    1.80    1.80</time>
   <time name="total">    4.98    5.01</time>
   <energy>
    <i name="e_fr_energy">    -13.72100638 </i>
    <i name="e_wo_entrp">    -13.76602959 </i>
    <i name="e_0_energy">    -13.73601412 </i>
   </energy>
  </scstep>
  <scstep>
   <time name="dav">    1.79    1.82</time>
   <time name="total">    5.00    5.05</time>
   <energy>
    <i name="e_fr_energy">    -13.72489224 </i>
    <i name="e_wo_entrp">    -13.76978651 </i>
    <i name="e_0_energy">    -13.73985700 </i>
   </energy>
  </scstep>
  <scstep>
   <time name="dav">    1.85    1.88</time>
   <time name="total">    5.06    5.10</time>
   <energy>
    <i name="e_fr_energy">    -13.72723729 </i>
    <i name="e_wo_entrp">    -13.77207632 </i>
    <i name="e_0_energy">    -13.74218363 </i>
   </energy>
  </scstep>
  <scstep>
   <time name="dav">    1.83    1.86</time>
   <time name="total">    5.05    5.10</time>
   <energy>
    <i name="e_fr_energy">    -13.72844586 </i>
    <i name="e_wo_entrp">    -13.77324446 </i>
    <i name="e_0_energy">    -13.74337873 </i>
   </energy>
  </scstep>
  <scstep>
   <time name="dav">    1.78    1.80</time>
   <time name="total">    5.01    5.08</time>
   <energy>
    <i name="e_fr_energy">    -13.72928203 </i>
    <i name="e_wo_entrp">    -13.77404138 </i>
    <i name="e_0_energy">    -13.74420181 </i>
   </energy>
  </scstep>
  <scstep>
   <time name="dav">    1.85    1.88</time>
   <time name="total">    5.10    5.17</time>
   <energy>
    <i name="e_fr_energy">    -13.72966238 </i>
    <i name="e_wo_entrp">    -13.77442108 </i>
    <i name="e_0_energy">    -13.74458195 </i>
   </energy>
  </scstep>
  <scstep>
   <time name="dav">    1.86    1.89</time>
   <time name="total">    5.11    5.16</time>
   <energy>
    <i name="e_fr_energy">    -13.72990292 </i>
    <i name="e_wo_entrp">    -13.77465171 </i>
    <i name="e_0_energy">    -13.74481918 </i>
   </energy>
  </scstep>
  <scstep>
   <time name="dav">    1.85    1.89</time>
   <time name="total">    5.09    5.16</time>
   <energy>
    <i name="e_fr_energy">    -13.73006774 </i>
    <i name="e_wo_entrp">    -13.77480025 </i>
    <i name="e_0_energy">    -13.74497858 </i>
   </energy>
  </scstep>
  <scstep>
   <time name="dav">    1.66    1.67</time>
   <time name="total">    4.17    4.20</time>
   <energy>
    <i name="alphaZ">      1.56302934 </i>
    <i name="ewald">   2191.79176910 </i>
    <i name="hartreedc">  -6114.72137858 </i>
    <i name="XCdc">   -152.31816434 </i>
    <i name="pawpsdc">   4499.41919211 </i>
    <i name="pawaedc">  -4190.43285421 </i>
    <i name="eentropy">      0.04473424 </i>
    <i name="bandstr">   -297.79594686 </i>
    <i name="atom">   4048.71946290 </i>
    <i name="e_fr_energy">    -13.73015630 </i>
    <i name="e_wo_entrp">    -13.77489054 </i>
    <i name="e_0_energy">    -13.74506771 </i>
   </energy>
  </scstep>
  <structure>
   <crystal>
    <varray name="basis" >
     <v>      24.00467599       0.00000000       0.00000000 </v>
     <v>       0.00000000      19.46824659       0.00000000 </v>
     <v>       0.00000000       0.00000000      22.30656661 </v>
    </varray>
    <i name="volume">  10424.50438431 </i>
    <varray name="rec_basis" >
     <v>       0.04165855       0.00000000       0.00000000 </v>
     <v>       0.00000000       0.05136569       0.00000000 </v>
     <v>       0.00000000       0.00000000       0.04482985 </v>
    </varray>
   </crystal>
   <varray name="positions" >
    <v>       0.43181665       0.51450508       0.48703051 </v>
    <v>       0.41337780       0.53359629       0.59205760 </v>
    <v>       0.60770158       0.46808709       0.41894334 </v>
    <v>       0.51133700       0.51778466       0.55851068 </v>
    <v>       0.60886685       0.50753409       0.51780027 </v>
   </varray>
  </structure>
  <varray name="forces" >
   <v>       0.13388283      -0.12551189      -0.87706592 </v>
   <v>      -0.17639220       0.11745272       0.73067299 </v>
   <v>      -0.16202925      -0.41555576      -1.15326903 </v>
   <v>       0.70795842      -0.08725074      -0.12449880 </v>
   <v>      -0.50341980       0.51086567       1.42416076 </v>
  </varray>
  <energy>
   <i name="e_fr_energy">    -13.73015630 </i>
   <i name="e_wo_entrp">    -13.77489054 </i>
   <i name="e_0_energy">    -13.74506771 </i>
  </energy>
  <time name="totalsc">  188.49  190.76</time>
 </calculation>
 <calculation>
  <scstep>
   <time name="dav">    2.19    2.22</time>
   <time name="total">    5.19    5.24</time>
   <energy>
    <i name="alphaZ">      1.56302934 </i>
    <i name="ewald">   2136.02292768 </i>
    <i name="hartreedc">  -6060.29239231 </i>
    <i name="XCdc">   -152.64045539 </i>
    <i name="pawpsdc">   4499.42292287 </i>
    <i name="pawaedc">  -4190.43660773 </i>
    <i name="eentropy">      0.06873493 </i>
    <i name="bandstr">   -296.24750906 </i>
    <i name="atom">   4048.71946290 </i>
    <i name="e_fr_energy">    -13.81988677 </i>
    <i name="e_wo_entrp">    -13.88862170 </i>
    <i name="e_0_energy">    -13.84279842 </i>
   </energy>
  </scstep>
  <scstep>
   <time name="dav">    2.20    2.24</time>
   <time name="total">    5.21    5.25</time>
   <energy>
    <i name="e_fr_energy">    -14.00137046 </i>
    <i name="e_wo_entrp">    -14.01970255 </i>
    <i name="e_0_energy">    -14.00748116 </i>
   </energy>
  </scstep>
  <scstep>
   <time name="dav">    2.32    2.35</time>
   <time name="total">    5.31    5.37</time>
   <energy>
    <i name="e_fr_energy">    -13.88308403 </i>
    <i name="e_wo_entrp">    -13.92704165 </i>
    <i name="e_0_energy">    -13.89773657 </i>
   </energy>
  </scstep>
  <scstep>
   <time name="dav">    2.27    2.30</time>
   <time name="total">    5.27    5.32</time>
   <energy>
    <i name="e_fr_energy">    -13.90139367 </i>
    <i name="e_wo_entrp">    -13.95961525 </i>
    <i name="e_0_energy">    -13.92080086 </i>
   </energy>
  </scstep>
  <scstep>
   <time name="dav">    2.39    2.43</time>
   <time name="total">    5.38    5.45</time>
   <energy>
    <i name="e_fr_energy">    -13.85023605 </i>
    <i name="e_wo_entrp">    -13.90977310 </i>
    <i name="e_0_energy">    -13.87008173 </i>
   </energy>
  </scstep>
  <scstep>
   <time name="dav">    2.21    2.24</time>
   <time name="total">    5.23    5.29</time>
   <energy>
    <i name="e_fr_energy">    -13.85263694 </i>
    <i name="e_wo_entrp">    -13.90737750 </i>
    <i name="e_0_energy">    -13.87088379 </i>
   </energy>
  </scstep>
  <scstep>
   <time name="dav">    2.17    2.19</time>
   <time name="total">    5.21    5.25</time>
   <energy>
    <i name="e_fr_energy">    -13.85127391 </i>
    <i name="e_wo_entrp">    -13.90857553 </i>
    <i name="e_0_energy">    -13.87037445 </i>
   </energy>
  </scstep>
  <scstep>
   <time name="dav">    2.39    2.41</time>
   <time name="total">    5.42    5.47</time>
   <energy>
    <i name="e_fr_energy">    -13.85296561 </i>
    <i name="e_wo_entrp">    -13.91225175 </i>
    <i name="e_0_energy">    -13.87272765 </i>
   </energy>
  </scstep>
  <scstep>
   <time name="dav">    2.43    2.45</time>
   <time name="total">    5.48    5.54</time>
   <energy>
    <i name="e_fr_energy">    -13.85341180 </i>
    <i name="e_wo_entrp">    -13.91160139 </i>
    <i name="e_0_energy">    -13.87280833 </i>
   </energy>
  </scstep>
  <scstep>
   <time name="dav">    2.21    2.25</time>
   <time name="total">    5.24    5.31</time>
   <energy>
    <i name="e_fr_energy">    -13.85607184 </i>
    <i name="e_wo_entrp">    -13.91431223 </i>
    <i name="e_0_energy">    -13.87548530 </i>
   </energy>
  </scstep>
  <scstep>
   <time name="dav">    1.78    1.81</time>
   <time name="total">    4.87    4.92</time>
   <energy>
    <i name="e_fr_energy">    -13.85814609 </i>
    <i name="e_wo_entrp">    -13.91521355 </i>
    <i name="e_0_energy">    -13.87716858 </i>
   </energy>
  </scstep>
  <scstep>
   <time name="dav">    1.87    1.89</time>
   <time name="total">    4.96    5.00</time>
   <energy>
    <i name="e_fr_energy">    -13.85936919 </i>
    <i name="e_wo_entrp">    -13.91680033 </i>
    <i name="e_0_energy">    -13.87851290 </i>
   </energy>
  </scstep>
  <scstep>
   <time name="dav">    1.72    1.73</time>
   <time name="total">    4.81    4.84</time>
   <energy>
    <i name="e_fr_energy">    -13.86140357 </i>
    <i name="e_wo_entrp">    -13.91906139 </i>
    <i name="e_0_energy">    -13.88062284 </i>
   </energy>
  </scstep>
  <scstep>
   <time name="dav">    1.87    1.89</time>
   <time name="total">    4.94    4.99</time>
   <energy>
    <i name="e_fr_energy">    -13.86307184 </i>
    <i name="e_wo_entrp">    -13.92029361 </i>
    <i name="e_0_energy">    -13.88214577 </i>
   </energy>
  </scstep>
  <scstep>
   <time name="dav">    1.68    1.71</time>
   <time name="total">    4.80    4.87</time>
   <energy>
    <i name="e_fr_energy">    -13.86471806 </i>
    <i name="e_wo_entrp">    -13.92199135 </i>
    <i name="e_0_energy">    -13.88380916 </i>
   </energy>
  </scstep>
  <scstep>
   <time name="dav">    1.90    1.90</time>
   <time name="total">    5.02    5.05</time>
   <energy>
    <i name="e_fr_energy">    -13.86616658 </i>
    <i name="e_wo_entrp">    -13.92342230 </i>
    <i name="e_0_energy">    -13.88525182 </i>
   </energy>
  </scstep>
  <scstep>
   <time name="dav">    1.78    1.80</time>
   <time name="total">    4.93    4.98</time>
   <energy>
    <i name="e_fr_energy">    -13.86757416 </i>
    <i name="e_wo_entrp">    -13.92482110 </i>
    <i name="e_0_energy">    -13.88665647 </i>
   </energy>
  </scstep>
  <scstep>
   <time name="dav">    1.87    1.89</time>
   <time name="total">    5.03    5.07</time>
   <energy>
    <i name="e_fr_energy">    -13.86891887 </i>
    <i name="e_wo_entrp">    -13.92610009 </i>
    <i name="e_0_energy">    -13.88797928 </i>
   </energy>
  </scstep>
  <scstep>
   <time name="dav">    1.86    1.88</time>
   <time name="total">    5.01    5.05</time>
   <energy>
    <i name="e_fr_energy">    -13.86962195 </i>
    <i name="e_wo_entrp">    -13.92679059 </i>
    <i name="e_0_energy">    -13.88867817 </i>
   </energy>
  </scstep>
  <scstep>
   <time name="dav">    1.85    1.87</time>
   <time name="total">    5.01    5.05</time>
   <energy>
    <i name="e_fr_energy">    -13.87035002 </i>
    <i name="e_wo_entrp">    -13.92749909 </i>
    <i name="e_0_energy">    -13.88939971 </i>
   </energy>
  </scstep>
  <scstep>
   <time name="dav">    1.79    1.82</time>
   <time name="total">    4.96    5.01</time>
   <energy>
    <i name="e_fr_energy">    -13.87066835 </i>
    <i name="e_wo_entrp">    -13.92781065 </i>
    <i name="e_0_energy">    -13.88971579 </i>
   </energy>
  </scstep>
  <scstep>
   <time name="dav">    1.82    1.83</time>
   <time name="total">    4.97    5.02</time>
   <energy>
    <i name="e_fr_energy">    -13.87086634 </i>
    <i name="e_wo_entrp">    -13.92801974 </i>
    <i name="e_0_energy">    -13.88991747 </i>
   </energy>
  </scstep>
  <scstep>
   <time name="dav">    1.75    1.76</time>
   <time name="total">    4.97    5.02</time>
   <energy>
    <i name="e_fr_energy">    -13.87100902 </i>
    <i name="e_wo_entrp">    -13.92817329 </i>
    <i name="e_0_energy">    -13.89006378 </i>
   </energy>
  </scstep>
  <scstep>
   <time name="dav">    1.94    1.96</time>
   <time name="total">    5.15    5.19</time>
   <energy>
    <i name="e_fr_energy">    -13.87113599 </i>
    <i name="e_wo_entrp">    -13.92831280 </i>
    <i name="e_0_energy">    -13.89019493 </i>
   </energy>
  </scstep>
  <scstep>
   <time name="dav">    1.86    1.88</time>
   <time name="total">    4.40    4.44</time>
   <energy>
    <i name="alphaZ">      1.56302934 </i>
    <i name="ewald">   2136.02292768 </i>
    <i name="hartreedc">  -6066.89600909 </i>
    <i name="XCdc">   -152.47219242 </i>
    <i name="pawpsdc">   4434.79379359 </i>
    <i name="pawaedc">  -4124.50072096 </i>
    <i name="eentropy">      0.05718558 </i>
    <i name="bandstr">   -291.15870293 </i>
    <i name="atom">   4048.71946290 </i>
    <i name="e_fr_energy">    -13.87122631 </i>
    <i name="e_wo_entrp">    -13.92841189 </i>
    <i name="e_0_energy">    -13.89028817 </i>
   </energy>
  </scstep>
  <structure>
   <crystal>
    <varray name="basis" >
     <v>      24.00467599       0.00000000       0.00000000 </v>
     <v>       0.00000000      19.46824659       0.00000000 </v>
     <v>       0.00000000       0.00000000      22.30656661 </v>
    </varray>
    <i name="volume">  10424.50438431 </i>
    <varray name="rec_basis" >
     <v>       0.04165855       0.00000000       0.00000000 </v>
     <v>       0.00000000       0.05136569       0.00000000 </v>
     <v>       0.00000000       0.00000000       0.04482985 </v>
    </varray>
   </crystal>
   <varray name="positions" >
    <v>       0.43208572       0.51419406       0.48513367 </v>
    <v>       0.41302331       0.53388734       0.59363784 </v>
    <v>       0.60737595       0.46705734       0.41644915 </v>
    <v>       0.51275980       0.51756845       0.55824143 </v>
    <v>       0.60785512       0.50880002       0.52088032 </v>
   </varray>
  </structure>
  <varray name="forces" >
   <v>       0.28883031      -0.03521239      -0.12451048 </v>
   <v>       0.25441005      -0.01195718       0.07171924 </v>
   <v>      -0.15293744      -0.00871704      -0.00517111 </v>
   <v>      -0.30895655      -0.00953981      -0.04091941 </v>
   <v>      -0.08134638       0.06542643       0.09888176 </v>
  </varray>
  <energy>
   <i name="e_fr_energy">    -13.87122631 </i>
   <i name="e_wo_entrp">    -13.92841189 </i>
   <i name="e_0_energy">    -13.89028817 </i>
  </energy>
  <time name="totalsc">  133.47  134.87</time>
 </calculation>
 <calculation>
  <scstep>
   <time name="dav">    2.20    2.24</time>
   <time name="total">    5.21    5.28</time>
   <energy>
    <i name="alphaZ">      1.56302934 </i>
    <i name="ewald">   2133.87452555 </i>
    <i name="hartreedc">  -6064.78543285 </i>
    <i name="XCdc">   -152.48384365 </i>
    <i name="pawpsdc">   4434.79405541 </i>
    <i name="pawaedc">  -4124.50098392 </i>
    <i name="eentropy">      0.05820014 </i>
    <i name="bandstr">   -291.11035402 </i>
    <i name="atom">   4048.71946290 </i>
    <i name="e_fr_energy">    -13.87134110 </i>
    <i name="e_wo_entrp">    -13.92954124 </i>
    <i name="e_0_energy">    -13.89074115 </i>
   </energy>
  </scstep>
  <scstep>
   <time name="dav">    2.32    2.33</time>
   <time name="total">    5.34    5.39</time>
   <energy>
    <i name="e_fr_energy">    -13.87156923 </i>
    <i name="e_wo_entrp">    -13.92907549 </i>
    <i name="e_0_energy">    -13.89073798 </i>
   </energy>
  </scstep>
  <scstep>
   <time name="dav">    2.22    2.23</time>
   <time name="total">    5.26    5.30</time>
   <energy>
    <i name="e_fr_energy">    -13.87125640 </i>
    <i name="e_wo_entrp">    -13.92962979 </i>
    <i name="e_0_energy">    -13.89071420 </i>
   </energy>
  </scstep>
  <scstep>
   <time name="dav">    1.70    1.71</time>
   <time name="total">    4.76    4.80</time>
   <energy>
    <i name="e_fr_energy">    -13.87140347 </i>
    <i name="e_wo_entrp">    -13.92811066 </i>
    <i name="e_0_energy">    -13.89030586 </i>
   </energy>
  </scstep>
  <scstep>
   <time name="dav">    1.72    1.73</time>
   <time name="total">    4.76    4.82</time>
   <energy>
    <i name="e_fr_energy">    -13.87128367 </i>
    <i name="e_wo_entrp">    -13.92914471 </i>
    <i name="e_0_energy">    -13.89057068 </i>
   </energy>
  </scstep>
  <scstep>
   <time name="dav">    1.76    1.77</time>
   <time name="total">    4.27    4.33</time>
   <energy>
    <i name="alphaZ">      1.56302934 </i>
    <i name="ewald">   2133.87452555 </i>
    <i name="hartreedc">  -6064.96497297 </i>
    <i name="XCdc">   -152.47815974 </i>
    <i name="pawpsdc">   4433.31751758 </i>
    <i name="pawaedc">  -4122.98502789 </i>
    <i name="eentropy">      0.05732080 </i>
    <i name="bandstr">   -290.97497221 </i>
    <i name="atom">   4048.71946290 </i>
    <i name="e_fr_energy">    -13.87127662 </i>
    <i name="e_wo_entrp">    -13.92859742 </i>
    <i name="e_0_energy">    -13.89038355 </i>
   </energy>
  </scstep>
  <structure>
   <crystal>
    <varray name="basis" >
     <v>      24.00467599       0.00000000       0.00000000 </v>
     <v>       0.00000000      19.46824659       0.00000000 </v>
     <v>       0.00000000       0.00000000      22.30656661 </v>
    </varray>
    <i name="volume">  10424.50438431 </i>
    <varray name="rec_basis" >
     <v>       0.04165855       0.00000000       0.00000000 </v>
     <v>       0.00000000       0.05136569       0.00000000 </v>
     <v>       0.00000000       0.00000000       0.04482985 </v>
    </varray>
   </crystal>
   <varray name="positions" >
    <v>       0.43209673       0.51418133       0.48505604 </v>
    <v>       0.41300880       0.53389926       0.59370251 </v>
    <v>       0.60736262       0.46701520       0.41634708 </v>
    <v>       0.51281802       0.51755960       0.55823041 </v>
    <v>       0.60781371       0.50885183       0.52100637 </v>
   </varray>
  </structure>
  <varray name="forces" >
   <v>       0.29290888      -0.03202040      -0.09917508 </v>
   <v>       0.27124476      -0.01703264       0.04596716 </v>
   <v>      -0.15336796       0.00454171       0.03256472 </v>
   <v>      -0.35598405      -0.00597688      -0.03253493 </v>
   <v>      -0.05480162       0.05048821       0.05317813 </v>
  </varray>
  <energy>
   <i name="e_fr_energy">    -13.87127662 </i>
   <i name="e_wo_entrp">    -13.92859742 </i>
   <i name="e_0_energy">    -13.89038355 </i>
  </energy>
  <time name="totalsc">   36.27   36.67</time>
 </calculation>
 <calculation>
  <scstep>
   <time name="dav">    2.32    2.44</time>
   <time name="total">    5.39    5.55</time>
   <energy>
    <i name="alphaZ">      1.56302934 </i>
    <i name="ewald">   2140.71354829 </i>
    <i name="hartreedc">  -6071.79124485 </i>
    <i name="XCdc">   -152.46416494 </i>
    <i name="pawpsdc">   4433.06482421 </i>
    <i name="pawaedc">  -4122.72779827 </i>
    <i name="eentropy">      0.06544005 </i>
    <i name="bandstr">   -291.02244531 </i>
    <i name="atom">   4048.71946290 </i>
    <i name="e_fr_energy">    -13.87934858 </i>
    <i name="e_wo_entrp">    -13.94478863 </i>
    <i name="e_0_energy">    -13.90116193 </i>
   </energy>
  </scstep>
  <scstep>
   <time name="dav">    2.36    2.39</time>
   <time name="total">    5.37    5.43</time>
   <energy>
    <i name="e_fr_energy">    -13.88876429 </i>
    <i name="e_wo_entrp">    -13.95537392 </i>
    <i name="e_0_energy">    -13.91096750 </i>
   </energy>
  </scstep>
  <scstep>
   <time name="dav">    2.40    2.40</time>
   <time name="total">    5.40    5.43</time>
   <energy>
    <i name="e_fr_energy">    -13.88439128 </i>
    <i name="e_wo_entrp">    -13.94329336 </i>
    <i name="e_0_energy">    -13.90402531 </i>
   </energy>
  </scstep>
  <scstep>
   <time name="dav">    2.18    2.21</time>
   <time name="total">    5.19    5.26</time>
   <energy>
    <i name="e_fr_energy">    -13.88522231 </i>
    <i name="e_wo_entrp">    -13.95405721 </i>
    <i name="e_0_energy">    -13.90816728 </i>
   </energy>
  </scstep>
  <scstep>
   <time name="dav">    2.44    2.45</time>
   <time name="total">    5.48    5.51</time>
   <energy>
    <i name="e_fr_energy">    -13.88365621 </i>
    <i name="e_wo_entrp">    -13.94690065 </i>
    <i name="e_0_energy">    -13.90473769 </i>
   </energy>
  </scstep>
  <scstep>
   <time name="dav">    2.22    2.25</time>
   <time name="total">    5.23    5.29</time>
   <energy>
    <i name="e_fr_energy">    -13.88403835 </i>
    <i name="e_wo_entrp">    -13.94650891 </i>
    <i name="e_0_energy">    -13.90486187 </i>
   </energy>
  </scstep>
  <scstep>
   <time name="dav">    2.11    2.14</time>
   <time name="total">    4.65    4.70</time>
   <energy>
    <i name="alphaZ">      1.56302934 </i>
    <i name="ewald">   2140.71354829 </i>
    <i name="hartreedc">  -6072.02381684 </i>
    <i name="XCdc">   -152.45837284 </i>
    <i name="pawpsdc">   4434.81849208 </i>
    <i name="pawaedc">  -4124.47929244 </i>
    <i name="eentropy">      0.06335698 </i>
    <i name="bandstr">   -290.80044604 </i>
    <i name="atom">   4048.71946290 </i>
    <i name="e_fr_energy">    -13.88403856 </i>
    <i name="e_wo_entrp">    -13.94739555 </i>
    <i name="e_0_energy">    -13.90515756 </i>
   </energy>
  </scstep>
  <structure>
   <crystal>
    <varray name="basis" >
     <v>      24.00467599       0.00000000       0.00000000 </v>
     <v>       0.00000000      19.46824659       0.00000000 </v>
     <v>       0.00000000       0.00000000      22.30656661 </v>
    </varray>
    <i name="volume">  10424.50438431 </i>
    <varray name="rec_basis" >
     <v>       0.04165855       0.00000000       0.00000000 </v>
     <v>       0.00000000       0.05136569       0.00000000 </v>
     <v>       0.00000000       0.00000000       0.04482985 </v>
    </varray>
   </crystal>
   <varray name="positions" >
    <v>       0.43270621       0.51408285       0.48472706 </v>
    <v>       0.41353732       0.53387400       0.59389666 </v>
    <v>       0.60703252       0.46696534       0.41626984 </v>
    <v>       0.51218131       0.51753182       0.55814347 </v>
    <v>       0.60764254       0.50905321       0.52130539 </v>
   </varray>
  </structure>
  <varray name="forces" >
   <v>       0.21945443      -0.02769395      -0.10718308 </v>
   <v>       0.16968287      -0.00863394       0.04339163 </v>
   <v>      -0.15715790       0.02409515       0.08476062 </v>
   <v>      -0.11469829      -0.02377218      -0.04517676 </v>
   <v>      -0.11728110       0.03600491       0.02420759 </v>
  </varray>
  <energy>
   <i name="e_fr_energy">    -13.88403856 </i>
   <i name="e_wo_entrp">    -13.94739555 </i>
   <i name="e_0_energy">    -13.90515756 </i>
  </energy>
  <time name="totalsc">   43.45   43.97</time>
 </calculation>
 <calculation>
  <scstep>
   <time name="dav">    2.22    2.23</time>
   <time name="total">    5.22    5.24</time>
   <energy>
    <i name="alphaZ">      1.56302934 </i>
    <i name="ewald">   2152.49825392 </i>
    <i name="hartreedc">  -6083.64947745 </i>
    <i name="XCdc">   -152.43174997 </i>
    <i name="pawpsdc">   4434.85818360 </i>
    <i name="pawaedc">  -4124.52004155 </i>
    <i name="eentropy">      0.07540562 </i>
    <i name="bandstr">   -290.99110087 </i>
    <i name="atom">   4048.71946290 </i>
    <i name="e_fr_energy">    -13.87803446 </i>
    <i name="e_wo_entrp">    -13.95344009 </i>
    <i name="e_0_energy">    -13.90316967 </i>
   </energy>
  </scstep>
  <scstep>
   <time name="dav">    2.21    2.24</time>
   <time name="total">    5.18    5.23</time>
   <energy>
    <i name="e_fr_energy">    -13.91141419 </i>
    <i name="e_wo_entrp">    -13.98907611 </i>
    <i name="e_0_energy">    -13.93730150 </i>
   </energy>
  </scstep>
  <scstep>
   <time name="dav">    2.18    2.21</time>
   <time name="total">    5.23    5.28</time>
   <energy>
    <i name="e_fr_energy">    -13.89200699 </i>
    <i name="e_wo_entrp">    -13.95177490 </i>
    <i name="e_0_energy">    -13.91192963 </i>
   </energy>
  </scstep>
  <scstep>
   <time name="dav">    2.20    2.22</time>
   <time name="total">    5.20    5.24</time>
   <energy>
    <i name="e_fr_energy">    -13.89361387 </i>
    <i name="e_wo_entrp">    -13.97367539 </i>
    <i name="e_0_energy">    -13.92030104 </i>
   </energy>
  </scstep>
  <scstep>
   <time name="dav">    2.22    2.24</time>
   <time name="total">    5.23    5.28</time>
   <energy>
    <i name="e_fr_energy">    -13.88927965 </i>
    <i name="e_wo_entrp">    -13.96319480 </i>
    <i name="e_0_energy">    -13.91391803 </i>
   </energy>
  </scstep>
  <scstep>
   <time name="dav">    2.40    2.43</time>
   <time name="total">    5.39    5.46</time>
   <energy>
    <i name="e_fr_energy">    -13.88995407 </i>
    <i name="e_wo_entrp">    -13.96058751 </i>
    <i name="e_0_energy">    -13.91349855 </i>
   </energy>
  </scstep>
  <scstep>
   <time name="dav">    2.18    2.22</time>
   <time name="total">    5.55    5.62</time>
   <energy>
    <i name="e_fr_energy">    -13.88996738 </i>
    <i name="e_wo_entrp">    -13.96012774 </i>
    <i name="e_0_energy">    -13.91335417 </i>
   </energy>
  </scstep>
  <scstep>
   <time name="dav">    2.22    2.25</time>
   <time name="total">    5.28    5.31</time>
   <energy>
    <i name="e_fr_energy">    -13.89027596 </i>
    <i name="e_wo_entrp">    -13.96248487 </i>
    <i name="e_0_energy">    -13.91434560 </i>
   </energy>
  </scstep>
  <scstep>
   <time name="dav">    1.84    1.87</time>
   <time name="total">    4.89    4.94</time>
   <energy>
    <i name="e_fr_energy">    -13.89056435 </i>
    <i name="e_wo_entrp">    -13.96289596 </i>
    <i name="e_0_energy">    -13.91467489 </i>
   </energy>
  </scstep>
  <scstep>
   <time name="dav">    1.66    1.67</time>
   <time name="total">    4.71    4.74</time>
   <energy>
    <i name="e_fr_energy">    -13.89087855 </i>
    <i name="e_wo_entrp">    -13.96275511 </i>
    <i name="e_0_energy">    -13.91483740 </i>
   </energy>
  </scstep>
  <scstep>
   <time name="dav">    1.96    1.98</time>
   <time name="total">    5.00    5.06</time>
   <energy>
    <i name="e_fr_energy">    -13.89108151 </i>
    <i name="e_wo_entrp">    -13.96274317 </i>
    <i name="e_0_energy">    -13.91496873 </i>
   </energy>
  </scstep>
  <scstep>
   <time name="dav">    1.87    1.88</time>
   <time name="total">    5.00    5.03</time>
   <energy>
    <i name="e_fr_energy">    -13.89126306 </i>
    <i name="e_wo_entrp">    -13.96301683 </i>
    <i name="e_0_energy">    -13.91518098 </i>
   </energy>
  </scstep>
  <scstep>
   <time name="dav">    1.89    1.90</time>
   <time name="total">    4.97    4.99</time>
   <energy>
    <i name="e_fr_energy">    -13.89144109 </i>
    <i name="e_wo_entrp">    -13.96324961 </i>
    <i name="e_0_energy">    -13.91537727 </i>
   </energy>
  </scstep>
  <scstep>
   <time name="dav">    1.78    1.80</time>
   <time name="total">    4.86    4.92</time>
   <energy>
    <i name="e_fr_energy">    -13.89157534 </i>
    <i name="e_wo_entrp">    -13.96332996 </i>
    <i name="e_0_energy">    -13.91549355 </i>
   </energy>
  </scstep>
  <scstep>
   <time name="dav">    1.86    1.89</time>
   <time name="total">    4.98    5.04</time>
   <energy>
    <i name="e_fr_energy">    -13.89169869 </i>
    <i name="e_wo_entrp">    -13.96343909 </i>
    <i name="e_0_energy">    -13.91561216 </i>
   </energy>
  </scstep>
  <scstep>
   <time name="dav">    1.76    1.78</time>
   <time name="total">    4.86    4.91</time>
   <energy>
    <i name="e_fr_energy">    -13.89180087 </i>
    <i name="e_wo_entrp">    -13.96354146 </i>
    <i name="e_0_energy">    -13.91571440 </i>
   </energy>
  </scstep>
  <scstep>
   <time name="dav">    1.83    1.90</time>
   <time name="total">    4.35    4.45</time>
   <energy>
    <i name="alphaZ">      1.56302934 </i>
    <i name="ewald">   2152.49825392 </i>
    <i name="hartreedc">  -6083.97004739 </i>
    <i name="XCdc">   -152.42363050 </i>
    <i name="pawpsdc">   4439.89193781 </i>
    <i name="pawaedc">  -4129.56905551 </i>
    <i name="eentropy">      0.07172444 </i>
    <i name="bandstr">   -290.67356894 </i>
    <i name="atom">   4048.71946290 </i>
    <i name="e_fr_energy">    -13.89189393 </i>
    <i name="e_wo_entrp">    -13.96361837 </i>
    <i name="e_0_energy">    -13.91580208 </i>
   </energy>
  </scstep>
  <structure>
   <crystal>
    <varray name="basis" >
     <v>      24.00467599       0.00000000       0.00000000 </v>
     <v>       0.00000000      19.46824659       0.00000000 </v>
     <v>       0.00000000       0.00000000      22.30656661 </v>
    </varray>
    <i name="volume">  10424.50438431 </i>
    <varray name="rec_basis" >
     <v>       0.04165855       0.00000000       0.00000000 </v>
     <v>       0.00000000       0.05136569       0.00000000 </v>
     <v>       0.00000000       0.00000000       0.04482985 </v>
    </varray>
   </crystal>
   <varray name="positions" >
    <v>       0.43372395       0.51391839       0.48417770 </v>
    <v>       0.41441987       0.53383183       0.59422087 </v>
    <v>       0.60648129       0.46688208       0.41614086 </v>
    <v>       0.51111807       0.51748542       0.55799828 </v>
    <v>       0.60735671       0.50938949       0.52180471 </v>
   </varray>
  </structure>
  <varray name="forces" >
   <v>       0.06123996      -0.02498750      -0.17411648 </v>
   <v>      -0.01946254       0.00914990       0.05273714 </v>
   <v>      -0.15898175       0.05982059       0.18422792 </v>
   <v>       0.32448627      -0.05127836      -0.03238968 </v>
   <v>      -0.20728194       0.00729537      -0.03045890 </v>
  </varray>
  <energy>
   <i name="e_fr_energy">    -13.89189393 </i>
   <i name="e_wo_entrp">    -13.96361837 </i>
   <i name="e_0_energy">    -13.91580208 </i>
  </energy>
  <time name="totalsc">   92.52   95.22</time>
 </calculation>
 <calculation>
  <scstep>
   <time name="dav">    2.22    2.26</time>
   <time name="total">    5.22    5.30</time>
   <energy>
    <i name="alphaZ">      1.56302934 </i>
    <i name="ewald">   2161.73255160 </i>
    <i name="hartreedc">  -6093.13547166 </i>
    <i name="XCdc">   -152.41059168 </i>
    <i name="pawpsdc">   4439.88528282 </i>
    <i name="pawaedc">  -4129.56230981 </i>
    <i name="eentropy">      0.08021455 </i>
    <i name="bandstr">   -290.76666085 </i>
    <i name="atom">   4048.71946290 </i>
    <i name="e_fr_energy">    -13.89449278 </i>
    <i name="e_wo_entrp">    -13.97470733 </i>
    <i name="e_0_energy">    -13.92123096 </i>
   </energy>
  </scstep>
  <scstep>
   <time name="dav">    2.29    2.30</time>
   <time name="total">    5.31    5.34</time>
   <energy>
    <i name="e_fr_energy">    -13.93692431 </i>
    <i name="e_wo_entrp">    -13.96591879 </i>
    <i name="e_0_energy">    -13.94658914 </i>
   </energy>
  </scstep>
  <scstep>
   <time name="dav">    2.22    2.23</time>
   <time name="total">    5.21    5.24</time>
   <energy>
    <i name="e_fr_energy">    -13.89820876 </i>
    <i name="e_wo_entrp">    -13.98067015 </i>
    <i name="e_0_energy">    -13.92569589 </i>
   </energy>
  </scstep>
  <scstep>
   <time name="dav">    2.25    2.26</time>
   <time name="total">    5.27    5.36</time>
   <energy>
    <i name="e_fr_energy">    -13.90147398 </i>
    <i name="e_wo_entrp">    -13.98023346 </i>
    <i name="e_0_energy">    -13.92772714 </i>
   </energy>
  </scstep>
  <scstep>
   <time name="dav">    2.22    2.26</time>
   <time name="total">    5.20    5.29</time>
   <energy>
    <i name="e_fr_energy">    -13.89988218 </i>
    <i name="e_wo_entrp">    -13.97718550 </i>
    <i name="e_0_energy">    -13.92564995 </i>
   </energy>
  </scstep>
  <scstep>
   <time name="dav">    2.36    2.39</time>
   <time name="total">    5.46    5.51</time>
   <energy>
    <i name="e_fr_energy">    -13.90040374 </i>
    <i name="e_wo_entrp">    -13.97326300 </i>
    <i name="e_0_energy">    -13.92469016 </i>
   </energy>
  </scstep>
  <scstep>
   <time name="dav">    2.21    2.22</time>
   <time name="total">    5.24    5.29</time>
   <energy>
    <i name="e_fr_energy">    -13.90078716 </i>
    <i name="e_wo_entrp">    -13.97286650 </i>
    <i name="e_0_energy">    -13.92481361 </i>
   </energy>
  </scstep>
  <scstep>
   <time name="dav">    2.07    2.09</time>
   <time name="total">    5.09    5.15</time>
   <energy>
    <i name="e_fr_energy">    -13.90050471 </i>
    <i name="e_wo_entrp">    -13.97312706 </i>
    <i name="e_0_energy">    -13.92471216 </i>
   </energy>
  </scstep>
  <scstep>
   <time name="dav">    1.91    1.93</time>
   <time name="total">    4.45    4.49</time>
   <energy>
    <i name="alphaZ">      1.56302934 </i>
    <i name="ewald">   2161.73255160 </i>
    <i name="hartreedc">  -6093.24438628 </i>
    <i name="XCdc">   -152.40721491 </i>
    <i name="pawpsdc">   4441.42150114 </i>
    <i name="pawaedc">  -4131.09121931 </i>
    <i name="eentropy">      0.07443054 </i>
    <i name="bandstr">   -290.66871032 </i>
    <i name="atom">   4048.71946290 </i>
    <i name="e_fr_energy">    -13.90055528 </i>
    <i name="e_wo_entrp">    -13.97498583 </i>
    <i name="e_0_energy">    -13.92536547 </i>
   </energy>
  </scstep>
  <structure>
   <crystal>
    <varray name="basis" >
     <v>      24.00467599       0.00000000       0.00000000 </v>
     <v>       0.00000000      19.46824659       0.00000000 </v>
     <v>       0.00000000       0.00000000      22.30656661 </v>
    </varray>
    <i name="volume">  10424.50438431 </i>
    <varray name="rec_basis" >
     <v>       0.04165855       0.00000000       0.00000000 </v>
     <v>       0.00000000       0.05136569       0.00000000 </v>
     <v>       0.00000000       0.00000000       0.04482985 </v>
    </varray>
   </crystal>
   <varray name="positions" >
    <v>       0.43436157       0.51377452       0.48353217 </v>
    <v>       0.41483108       0.53383240       0.59449671 </v>
    <v>       0.60589025       0.46698375       0.41646237 </v>
    <v>       0.51121057       0.51733833       0.55785632 </v>
    <v>       0.60680643       0.50957821       0.52199484 </v>
   </varray>
  </structure>
  <varray name="forces" >
   <v>       0.04925419      -0.01219763      -0.09049834 </v>
   <v>      -0.01393502      -0.00231969      -0.02646969 </v>
   <v>      -0.16589924       0.05656788       0.17343036 </v>
   <v>       0.22699480      -0.04669352      -0.00213308 </v>
   <v>      -0.09641473       0.00464296      -0.05432925 </v>
  </varray>
  <energy>
   <i name="e_fr_energy">    -13.90055528 </i>
   <i name="e_wo_entrp">    -13.97498583 </i>
   <i name="e_0_energy">    -13.92536547 </i>
  </energy>
  <time name="totalsc">   52.99   55.80</time>
 </calculation>
 <calculation>
  <scstep>
   <time name="dav">    2.19    2.20</time>
   <time name="total">    5.27    5.29</time>
   <energy>
    <i name="alphaZ">      1.56302934 </i>
    <i name="ewald">   2180.00877647 </i>
    <i name="hartreedc">  -6111.29950575 </i>
    <i name="XCdc">   -152.37908244 </i>
    <i name="pawpsdc">   4441.51429784 </i>
    <i name="pawaedc">  -4131.18552162 </i>
    <i name="eentropy">      0.08690732 </i>
    <i name="bandstr">   -290.91086665 </i>
    <i name="atom">   4048.71946290 </i>
    <i name="e_fr_energy">    -13.88250259 </i>
    <i name="e_wo_entrp">    -13.96940990 </i>
    <i name="e_0_energy">    -13.91147169 </i>
   </energy>
  </scstep>
  <scstep>
   <time name="dav">    2.30    2.34</time>
   <time name="total">    5.28    5.34</time>
   <energy>
    <i name="e_fr_energy">    -13.99114210 </i>
    <i name="e_wo_entrp">    -13.99299164 </i>
    <i name="e_0_energy">    -13.99175861 </i>
   </energy>
  </scstep>
  <scstep>
   <time name="dav">    2.29    2.32</time>
   <time name="total">    5.78    5.84</time>
   <energy>
    <i name="e_fr_energy">    -13.90493414 </i>
    <i name="e_wo_entrp">    -13.99698095 </i>
    <i name="e_0_energy">    -13.93561641 </i>
   </energy>
  </scstep>
  <scstep>
   <time name="dav">    2.43    2.45</time>
   <time name="total">    5.53    5.58</time>
   <energy>
    <i name="e_fr_energy">    -13.90881324 </i>
    <i name="e_wo_entrp">    -13.99863006 </i>
    <i name="e_0_energy">    -13.93875218 </i>
   </energy>
  </scstep>
  <scstep>
   <time name="dav">    2.25    2.27</time>
   <time name="total">    5.33    5.46</time>
   <energy>
    <i name="e_fr_energy">    -13.90447911 </i>
    <i name="e_wo_entrp">    -13.99242265 </i>
    <i name="e_0_energy">    -13.93379362 </i>
   </energy>
  </scstep>
  <scstep>
   <time name="dav">    2.34    2.35</time>
   <time name="total">    5.37    5.43</time>
   <energy>
    <i name="e_fr_energy">    -13.90415660 </i>
    <i name="e_wo_entrp">    -13.98475298 </i>
    <i name="e_0_energy">    -13.93102206 </i>
   </energy>
  </scstep>
  <scstep>
   <time name="dav">    2.39    2.46</time>
   <time name="total">    5.38    5.50</time>
   <energy>
    <i name="e_fr_energy">    -13.90570597 </i>
    <i name="e_wo_entrp">    -13.98309108 </i>
    <i name="e_0_energy">    -13.93150101 </i>
   </energy>
  </scstep>
  <scstep>
   <time name="dav">    2.23    2.25</time>
   <time name="total">    5.30    5.32</time>
   <energy>
    <i name="e_fr_energy">    -13.90590297 </i>
    <i name="e_wo_entrp">    -13.98140744 </i>
    <i name="e_0_energy">    -13.93107113 </i>
   </energy>
  </scstep>
  <scstep>
   <time name="dav">    2.29    2.31</time>
   <time name="total">    5.32    5.37</time>
   <energy>
    <i name="e_fr_energy">    -13.90550457 </i>
    <i name="e_wo_entrp">    -13.98373613 </i>
    <i name="e_0_energy">    -13.93158176 </i>
   </energy>
  </scstep>
  <scstep>
   <time name="dav">    1.84    1.86</time>
   <time name="total">    4.92    4.96</time>
   <energy>
    <i name="e_fr_energy">    -13.90607521 </i>
    <i name="e_wo_entrp">    -13.98552908 </i>
    <i name="e_0_energy">    -13.93255983 </i>
   </energy>
  </scstep>
  <scstep>
   <time name="dav">    1.84    1.86</time>
   <time name="total">    4.93    4.98</time>
   <energy>
    <i name="e_fr_energy">    -13.90673506 </i>
    <i name="e_wo_entrp">    -13.98715155 </i>
    <i name="e_0_energy">    -13.93354056 </i>
   </energy>
  </scstep>
  <scstep>
   <time name="dav">    1.83    1.83</time>
   <time name="total">    4.90    4.91</time>
   <energy>
    <i name="e_fr_energy">    -13.90708666 </i>
    <i name="e_wo_entrp">    -13.98758949 </i>
    <i name="e_0_energy">    -13.93392094 </i>
   </energy>
  </scstep>
  <scstep>
   <time name="dav">    1.78    1.79</time>
   <time name="total">    4.90    4.90</time>
   <energy>
    <i name="e_fr_energy">    -13.90733214 </i>
    <i name="e_wo_entrp">    -13.98789740 </i>
    <i name="e_0_energy">    -13.93418723 </i>
   </energy>
  </scstep>
  <scstep>
   <time name="dav">    1.76    1.77</time>
   <time name="total">    4.84    4.85</time>
   <energy>
    <i name="e_fr_energy">    -13.90751660 </i>
    <i name="e_wo_entrp">    -13.98823705 </i>
    <i name="e_0_energy">    -13.93442342 </i>
   </energy>
  </scstep>
  <scstep>
   <time name="dav">    1.74    1.74</time>
   <time name="total">    4.86    4.87</time>
   <energy>
    <i name="e_fr_energy">    -13.90764264 </i>
    <i name="e_wo_entrp">    -13.98839535 </i>
    <i name="e_0_energy">    -13.93456021 </i>
   </energy>
  </scstep>
  <scstep>
   <time name="dav">    1.81    1.81</time>
   <time name="total">    4.34    4.36</time>
   <energy>
    <i name="alphaZ">      1.56302934 </i>
    <i name="ewald">   2180.00877647 </i>
    <i name="hartreedc">  -6111.44647123 </i>
    <i name="XCdc">   -152.37574685 </i>
    <i name="pawpsdc">   4446.48500019 </i>
    <i name="pawaedc">  -4136.15834913 </i>
    <i name="eentropy">      0.08073509 </i>
    <i name="bandstr">   -290.78417295 </i>
    <i name="atom">   4048.71946290 </i>
    <i name="e_fr_energy">    -13.90773616 </i>
    <i name="e_wo_entrp">    -13.98847125 </i>
    <i name="e_0_energy">    -13.93464786 </i>
   </energy>
  </scstep>
  <structure>
   <crystal>
    <varray name="basis" >
     <v>      24.00467599       0.00000000       0.00000000 </v>
     <v>       0.00000000      19.46824659       0.00000000 </v>
     <v>       0.00000000       0.00000000      22.30656661 </v>
    </varray>
    <i name="volume">  10424.50438431 </i>
    <varray name="rec_basis" >
     <v>       0.04165855       0.00000000       0.00000000 </v>
     <v>       0.00000000       0.05136569       0.00000000 </v>
     <v>       0.00000000       0.00000000       0.04482985 </v>
    </varray>
   </crystal>
   <varray name="positions" >
    <v>       0.43558895       0.51349757       0.48228955 </v>
    <v>       0.41562263       0.53383349       0.59502771 </v>
    <v>       0.60475252       0.46717945       0.41708126 </v>
    <v>       0.51138863       0.51705520       0.55758304 </v>
    <v>       0.60574716       0.50994150       0.52236085 </v>
   </varray>
  </structure>
  <varray name="forces" >
   <v>       0.03007028       0.00638937       0.04172026 </v>
   <v>      -0.00734379      -0.02028969      -0.15320873 </v>
   <v>      -0.17404781       0.05084199       0.15644805 </v>
   <v>       0.00253462      -0.03316659       0.06857121 </v>
   <v>       0.14878670      -0.00377508      -0.11353079 </v>
  </varray>
  <energy>
   <i name="e_fr_energy">    -13.90773616 </i>
   <i name="e_wo_entrp">    -13.98847125 </i>
   <i name="e_0_energy">    -13.93464786 </i>
  </energy>
  <time name="totalsc">   88.89   90.84</time>
 </calculation>
 <calculation>
  <scstep>
   <time name="dav">    2.23    2.24</time>
   <time name="total">    5.30    5.32</time>
   <energy>
    <i name="alphaZ">      1.56302934 </i>
    <i name="ewald">   2192.16412838 </i>
    <i name="hartreedc">  -6123.50058435 </i>
    <i name="XCdc">   -152.34096580 </i>
    <i name="pawpsdc">   4446.47607188 </i>
    <i name="pawaedc">  -4136.14938460 </i>
    <i name="eentropy">      0.08069337 </i>
    <i name="bandstr">   -290.92089364 </i>
    <i name="atom">   4048.71946290 </i>
    <i name="e_fr_energy">    -13.90844250 </i>
    <i name="e_wo_entrp">    -13.98913587 </i>
    <i name="e_0_energy">    -13.93534029 </i>
   </energy>
  </scstep>
  <scstep>
   <time name="dav">    2.21    2.25</time>
   <time name="total">    5.32    5.38</time>
   <energy>
    <i name="e_fr_energy">    -13.92288668 </i>
    <i name="e_wo_entrp">    -13.98898349 </i>
    <i name="e_0_energy">    -13.94491895 </i>
   </energy>
  </scstep>
  <scstep>
   <time name="dav">    2.21    2.24</time>
   <time name="total">    5.17    5.24</time>
   <energy>
    <i name="e_fr_energy">    -13.91509395 </i>
    <i name="e_wo_entrp">    -13.99809923 </i>
    <i name="e_0_energy">    -13.94276238 </i>
   </energy>
  </scstep>
  <scstep>
   <time name="dav">    2.21    2.25</time>
   <time name="total">    5.25    5.30</time>
   <energy>
    <i name="e_fr_energy">    -13.91475362 </i>
    <i name="e_wo_entrp">    -13.99328295 </i>
    <i name="e_0_energy">    -13.94093006 </i>
   </energy>
  </scstep>
  <scstep>
   <time name="dav">    2.20    2.23</time>
   <time name="total">    4.71    4.78</time>
   <energy>
    <i name="alphaZ">      1.56302934 </i>
    <i name="ewald">   2192.16412838 </i>
    <i name="hartreedc">  -6123.13872346 </i>
    <i name="XCdc">   -152.35621412 </i>
    <i name="pawpsdc">   4449.85650938 </i>
    <i name="pawaedc">  -4139.61577919 </i>
    <i name="eentropy">      0.08077542 </i>
    <i name="bandstr">   -291.18784288 </i>
    <i name="atom">   4048.71946290 </i>
    <i name="e_fr_energy">    -13.91465422 </i>
    <i name="e_wo_entrp">    -13.99542964 </i>
    <i name="e_0_energy">    -13.94157936 </i>
   </energy>
  </scstep>
  <structure>
   <crystal>
    <varray name="basis" >
     <v>      24.00467599       0.00000000       0.00000000 </v>
     <v>       0.00000000      19.46824659       0.00000000 </v>
     <v>       0.00000000       0.00000000      22.30656661 </v>
    </varray>
    <i name="volume">  10424.50438431 </i>
    <varray name="rec_basis" >
     <v>       0.04165855       0.00000000       0.00000000 </v>
     <v>       0.00000000       0.05136569       0.00000000 </v>
     <v>       0.00000000       0.00000000       0.04482985 </v>
    </varray>
   </crystal>
   <varray name="positions" >
    <v>       0.43603970       0.51343552       0.48203698 </v>
    <v>       0.41584101       0.53376616       0.59474160 </v>
    <v>       0.60393933       0.46740791       0.41772289 </v>
    <v>       0.51144908       0.51685937       0.55770037 </v>
    <v>       0.60583077       0.51003826       0.52214057 </v>
   </varray>
  </structure>
  <varray name="forces" >
   <v>       0.02488420       0.00620171       0.03132119 </v>
   <v>      -0.04934248      -0.01276337      -0.13609599 </v>
   <v>      -0.17978832       0.00826121       0.03810825 </v>
   <v>       0.07695705      -0.04613092       0.05163663 </v>
   <v>       0.12728955       0.04443136       0.01502992 </v>
  </varray>
  <energy>
   <i name="e_fr_energy">    -13.91465422 </i>
   <i name="e_wo_entrp">    -13.99542964 </i>
   <i name="e_0_energy">    -13.94157936 </i>
  </energy>
  <time name="totalsc">   32.30   32.68</time>
 </calculation>
 <calculation>
  <scstep>
   <time name="dav">    2.23    2.24</time>
   <time name="total">    5.22    5.29</time>
   <energy>
    <i name="alphaZ">      1.56302934 </i>
    <i name="ewald">   2218.31136098 </i>
    <i name="hartreedc">  -6148.98406995 </i>
    <i name="XCdc">   -152.27979652 </i>
    <i name="pawpsdc">   4450.60602652 </i>
    <i name="pawaedc">  -4140.37740547 </i>
    <i name="eentropy">      0.07923331 </i>
    <i name="bandstr">   -291.52993432 </i>
    <i name="atom">   4048.71946290 </i>
    <i name="e_fr_energy">    -13.89209321 </i>
    <i name="e_wo_entrp">    -13.97132652 </i>
    <i name="e_0_energy">    -13.91850431 </i>
   </energy>
  </scstep>
  <scstep>
   <time name="dav">    2.32    2.36</time>
   <time name="total">    5.25    5.37</time>
   <energy>
    <i name="e_fr_energy">    -13.95539206 </i>
    <i name="e_wo_entrp">    -13.99866927 </i>
    <i name="e_0_energy">    -13.96981780 </i>
   </energy>
  </scstep>
  <scstep>
   <time name="dav">    2.22    2.32</time>
   <time name="total">    5.15    5.34</time>
   <energy>
    <i name="e_fr_energy">    -13.92534077 </i>
    <i name="e_wo_entrp">    -14.00528840 </i>
    <i name="e_0_energy">    -13.95198998 </i>
   </energy>
  </scstep>
  <scstep>
   <time name="dav">    2.18    2.21</time>
   <time name="total">    5.14    5.23</time>
   <energy>
    <i name="e_fr_energy">    -13.92076417 </i>
    <i name="e_wo_entrp">    -13.99867183 </i>
    <i name="e_0_energy">    -13.94673339 </i>
   </energy>
  </scstep>
  <scstep>
   <time name="dav">    2.35    2.37</time>
   <time name="total">    5.39    5.44</time>
   <energy>
    <i name="e_fr_energy">    -13.91979571 </i>
    <i name="e_wo_entrp">    -14.00116025 </i>
    <i name="e_0_energy">    -13.94691722 </i>
   </energy>
  </scstep>
  <scstep>
   <time name="dav">    2.45    2.47</time>
   <time name="total">    5.51    5.55</time>
   <energy>
    <i name="e_fr_energy">    -13.92027811 </i>
    <i name="e_wo_entrp">    -13.99797877 </i>
    <i name="e_0_energy">    -13.94617833 </i>
   </energy>
  </scstep>
  <scstep>
   <time name="dav">    2.46    2.47</time>
   <time name="total">    5.48    5.52</time>
   <energy>
    <i name="e_fr_energy">    -13.92044191 </i>
    <i name="e_wo_entrp">    -13.99847665 </i>
    <i name="e_0_energy">    -13.94645349 </i>
   </energy>
  </scstep>
  <scstep>
   <time name="dav">    2.27    2.28</time>
   <time name="total">    5.43    5.47</time>
   <energy>
    <i name="e_fr_energy">    -13.92025949 </i>
    <i name="e_wo_entrp">    -14.00076350 </i>
    <i name="e_0_energy">    -13.94709416 </i>
   </energy>
  </scstep>
  <scstep>
   <time name="dav">    1.62    1.72</time>
   <time name="total">    4.69    4.81</time>
   <energy>
    <i name="e_fr_energy">    -13.92051748 </i>
    <i name="e_wo_entrp">    -14.00117270 </i>
    <i name="e_0_energy">    -13.94740255 </i>
   </energy>
  </scstep>
  <scstep>
   <time name="dav">    1.66    1.67</time>
   <time name="total">    4.17    4.22</time>
   <energy>
    <i name="alphaZ">      1.56302934 </i>
    <i name="ewald">   2218.31136098 </i>
    <i name="hartreedc">  -6147.85686469 </i>
    <i name="XCdc">   -152.31600043 </i>
    <i name="pawpsdc">   4463.17779106 </i>
    <i name="pawaedc">  -4153.20623658 </i>
    <i name="eentropy">      0.08065225 </i>
    <i name="bandstr">   -292.39378838 </i>
    <i name="atom">   4048.71946290 </i>
    <i name="e_fr_energy">    -13.92059354 </i>
    <i name="e_wo_entrp">    -14.00124579 </i>
    <i name="e_0_energy">    -13.94747762 </i>
   </energy>
  </scstep>
  <structure>
   <crystal>
    <varray name="basis" >
     <v>      24.00467599       0.00000000       0.00000000 </v>
     <v>       0.00000000      19.46824659       0.00000000 </v>
     <v>       0.00000000       0.00000000      22.30656661 </v>
    </varray>
    <i name="volume">  10424.50438431 </i>
    <varray name="rec_basis" >
     <v>       0.04165855       0.00000000       0.00000000 </v>
     <v>       0.00000000       0.05136569       0.00000000 </v>
     <v>       0.00000000       0.00000000       0.04482985 </v>
    </varray>
   </crystal>
   <varray name="positions" >
    <v>       0.43699966       0.51330338       0.48149907 </v>
    <v>       0.41630609       0.53362275       0.59413227 </v>
    <v>       0.60220750       0.46789446       0.41908938 </v>
    <v>       0.51157782       0.51644231       0.55795026 </v>
    <v>       0.60600882       0.51024431       0.52167144 </v>
   </varray>
  </structure>
  <varray name="forces" >
   <v>       0.01960123       0.00151050       0.00691259 </v>
   <v>      -0.13625027       0.00042871      -0.10738792 </v>
   <v>      -0.21226261      -0.08684676      -0.22832828 </v>
   <v>       0.23251574      -0.06202434       0.02004734 </v>
   <v>       0.09639591       0.14693188       0.30875627 </v>
  </varray>
  <energy>
   <i name="e_fr_energy">    -13.92059354 </i>
   <i name="e_wo_entrp">    -14.00124579 </i>
   <i name="e_0_energy">    -13.94747762 </i>
  </energy>
  <time name="totalsc">   57.96   58.90</time>
 </calculation>
 <calculation>
  <scstep>
   <time name="dav">    2.17    2.19</time>
   <time name="total">    5.08    5.23</time>
   <energy>
    <i name="alphaZ">      1.56302934 </i>
    <i name="ewald">   2221.74629502 </i>
    <i name="hartreedc">  -6151.27088263 </i>
    <i name="XCdc">   -152.31209798 </i>
    <i name="pawpsdc">   4463.29326228 </i>
    <i name="pawaedc">  -4153.32260851 </i>
    <i name="eentropy">      0.07970534 </i>
    <i name="bandstr">   -292.41878388 </i>
    <i name="atom">   4048.71946290 </i>
    <i name="e_fr_energy">    -13.92261812 </i>
    <i name="e_wo_entrp">    -14.00232346 </i>
    <i name="e_0_energy">    -13.94918657 </i>
   </energy>
  </scstep>
  <scstep>
   <time name="dav">    2.35    2.35</time>
   <time name="total">    5.34    5.38</time>
   <energy>
    <i name="e_fr_energy">    -13.92453818 </i>
    <i name="e_wo_entrp">    -14.00656409 </i>
    <i name="e_0_energy">    -13.95188015 </i>
   </energy>
  </scstep>
  <scstep>
   <time name="dav">    2.20    2.24</time>
   <time name="total">    5.22    5.26</time>
   <energy>
    <i name="e_fr_energy">    -13.92445103 </i>
    <i name="e_wo_entrp">    -14.00331772 </i>
    <i name="e_0_energy">    -13.95073993 </i>
   </energy>
  </scstep>
  <scstep>
   <time name="dav">    2.06    2.07</time>
   <time name="total">    5.07    5.12</time>
   <energy>
    <i name="e_fr_energy">    -13.92455890 </i>
    <i name="e_wo_entrp">    -14.00572863 </i>
    <i name="e_0_energy">    -13.95161548 </i>
   </energy>
  </scstep>
  <scstep>
   <time name="dav">    1.66    1.67</time>
   <time name="total">    4.67    4.70</time>
   <energy>
    <i name="e_fr_energy">    -13.92445250 </i>
    <i name="e_wo_entrp">    -14.00489849 </i>
    <i name="e_0_energy">    -13.95126783 </i>
   </energy>
  </scstep>
  <scstep>
   <time name="dav">    1.77    1.79</time>
   <time name="total">    4.29    4.35</time>
   <energy>
    <i name="alphaZ">      1.56302934 </i>
    <i name="ewald">   2221.74629502 </i>
    <i name="hartreedc">  -6151.26377157 </i>
    <i name="XCdc">   -152.31399567 </i>
    <i name="pawpsdc">   4463.73601469 </i>
    <i name="pawaedc">  -4153.76782700 </i>
    <i name="eentropy">      0.08038691 </i>
    <i name="bandstr">   -292.42414177 </i>
    <i name="atom">   4048.71946290 </i>
    <i name="e_fr_energy">    -13.92454714 </i>
    <i name="e_wo_entrp">    -14.00493406 </i>
    <i name="e_0_energy">    -13.95134278 </i>
   </energy>
  </scstep>
  <structure>
   <crystal>
    <varray name="basis" >
     <v>      24.00467599       0.00000000       0.00000000 </v>
     <v>       0.00000000      19.46824659       0.00000000 </v>
     <v>       0.00000000       0.00000000      22.30656661 </v>
    </varray>
    <i name="volume">  10424.50438431 </i>
    <varray name="rec_basis" >
     <v>       0.04165855       0.00000000       0.00000000 </v>
     <v>       0.00000000       0.05136569       0.00000000 </v>
     <v>       0.00000000       0.00000000       0.04482985 </v>
    </varray>
   </crystal>
   <varray name="positions" >
    <v>       0.43720948       0.51327663       0.48139010 </v>
    <v>       0.41633969       0.53359302       0.59395093 </v>
    <v>       0.60174637       0.46794616       0.41926029 </v>
    <v>       0.51171330       0.51631942       0.55801256 </v>
    <v>       0.60609105       0.51037198       0.52172852 </v>
   </varray>
  </structure>
  <varray name="forces" >
   <v>       0.03109600       0.00216131       0.01392395 </v>
   <v>      -0.14209600       0.00231264      -0.10438843 </v>
   <v>      -0.22067793      -0.09011357      -0.23787597 </v>
   <v>       0.21476255      -0.06600855       0.01912947 </v>
   <v>       0.11691538       0.15164818       0.30921098 </v>
  </varray>
  <energy>
   <i name="e_fr_energy">    -13.92454714 </i>
   <i name="e_wo_entrp">    -14.00493406 </i>
   <i name="e_0_energy">    -13.95134278 </i>
  </energy>
  <time name="totalsc">   36.13   36.64</time>
 </calculation>
 <calculation>
  <scstep>
   <time name="dav">    2.20    2.24</time>
   <time name="total">    5.18    5.25</time>
   <energy>
    <i name="alphaZ">      1.56302934 </i>
    <i name="ewald">   2231.99045304 </i>
    <i name="hartreedc">  -6161.50309623 </i>
    <i name="XCdc">   -152.30133597 </i>
    <i name="pawpsdc">   4463.76725222 </i>
    <i name="pawaedc">  -4153.79896149 </i>
    <i name="eentropy">      0.07796580 </i>
    <i name="bandstr">   -292.43531725 </i>
    <i name="atom">   4048.71946290 </i>
    <i name="e_fr_energy">    -13.92054763 </i>
    <i name="e_wo_entrp">    -13.99851344 </i>
    <i name="e_0_energy">    -13.94653623 </i>
   </energy>
  </scstep>
  <scstep>
   <time name="dav">    2.26    2.27</time>
[...]
       <r>    -1.5893     0.1826    30.0252 </r>
       <r>    -1.5503    -0.2712    30.0146 </r>
       <r>    -1.5113    -0.4420    29.9974 </r>
       <r>    -1.4723    -0.3331    29.9844 </r>
       <r>    -1.4332     0.0598    29.9867 </r>
       <r>    -1.3942     0.7326    30.0153 </r>
       <r>    -1.3552     1.6309    30.0789 </r>
       <r>    -1.3162     2.6162    30.1810 </r>
       <r>    -1.2772     3.4742    30.3165 </r>
       <r>    -1.2382     3.9770    30.4716 </r>
       <r>    -1.1992     3.9791    30.6269 </r>
       <r>    -1.1602     3.4949    30.7632 </r>
       <r>    -1.1212     2.7141    30.8691 </r>
       <r>    -1.0822     1.9391    30.9447 </r>
       <r>    -1.0432     1.4705    31.0021 </r>
       <r>    -1.0041     1.4903    31.0602 </r>
       <r>    -0.9651     1.9906    31.1379 </r>
       <r>    -0.9261     2.7770    31.2462 </r>
       <r>    -0.8871     3.5438    31.3844 </r>
       <r>    -0.8481     3.9929    31.5402 </r>
       <r>    -0.8091     3.9454    31.6941 </r>
       <r>    -0.7701     3.3995    31.8267 </r>
       <r>    -0.7311     2.5104    31.9246 </r>
       <r>    -0.6921     1.5118    31.9836 </r>
       <r>    -0.6531     0.6255    32.0080 </r>
       <r>    -0.6141     0.0035    32.0082 </r>
       <r>    -0.5750    -0.2776    31.9973 </r>
       <r>    -0.5360    -0.1928    31.9898 </r>
       <r>    -0.4970     0.2521    31.9996 </r>
       <r>    -0.4580     1.0148    32.0392 </r>
       <r>    -0.4190     1.9897    32.1168 </r>
       <r>    -0.3800     2.9940    32.2336 </r>
       <r>    -0.3410     3.7951    32.3817 </r>
       <r>    -0.3020     4.1821    32.5448 </r>
       <r>    -0.2630     4.0493    32.7028 </r>
       <r>    -0.2240     3.4431    32.8371 </r>
       <r>    -0.1849     2.5423    32.9363 </r>
       <r>    -0.1459     1.5821    32.9980 </r>
       <r>    -0.1069     0.7640    33.0278 </r>
       <r>    -0.0679     0.1967    33.0355 </r>
       <r>    -0.0289    -0.1118    33.0311 </r>
       <r>     0.0101    -0.2213    33.0225 </r>
       <r>     0.0491    -0.2138    33.0141 </r>
       <r>     0.0881    -0.1592    33.0079 </r>
       <r>     0.1271    -0.1003    33.0040 </r>
       <r>     0.1661    -0.0554    33.0018 </r>
       <r>     0.2051    -0.0274    33.0008 </r>
       <r>     0.2442    -0.0122    33.0003 </r>
       <r>     0.2832    -0.0049    33.0001 </r>
       <r>     0.3222    -0.0018    33.0000 </r>
       <r>     0.3612    -0.0006    33.0000 </r>
       <r>     0.4002    -0.0002    33.0000 </r>
       <r>     0.4392    -0.0001    33.0000 </r>
       <r>     0.4782    -0.0000    33.0000 </r>
       <r>     0.5172    -0.0000    33.0000 </r>
       <r>     0.5562    -0.0000    33.0000 </r>
       <r>     0.5952    -0.0000    33.0000 </r>
       <r>     0.6342    -0.0000    33.0000 </r>
       <r>     0.6733    -0.0000    33.0000 </r>
       <r>     0.7123    -0.0000    33.0000 </r>
       <r>     0.7513    -0.0000    33.0000 </r>
       <r>     0.7903    -0.0000    33.0000 </r>
       <r>     0.8293    -0.0000    33.0000 </r>
       <r>     0.8683    -0.0000    33.0000 </r>
       <r>     0.9073    -0.0000    33.0000 </r>
       <r>     0.9463    -0.0000    33.0000 </r>
       <r>     0.9853     0.0000    33.0000 </r>
       <r>     1.0243     0.0000    33.0000 </r>
       <r>     1.0633     0.0000    33.0000 </r>
       <r>     1.1024     0.0000    33.0000 </r>
       <r>     1.1414     0.0000    33.0000 </r>
       <r>     1.1804     0.0000    33.0000 </r>
       <r>     1.2194     0.0000    33.0000 </r>
       <r>     1.2584     0.0000    33.0000 </r>
       <r>     1.2974     0.0000    33.0000 </r>
       <r>     1.3364     0.0000    33.0000 </r>
       <r>     1.3754     0.0000    33.0000 </r>
       <r>     1.4144     0.0000    33.0000 </r>
       <r>     1.4534     0.0000    33.0000 </r>
       <r>     1.4924     0.0000    33.0000 </r>
       <r>     1.5315     0.0000    33.0000 </r>
       <r>     1.5705     0.0000    33.0000 </r>
       <r>     1.6095     0.0000    33.0000 </r>
       <r>     1.6485     0.0000    33.0000 </r>
       <r>     1.6875     0.0000    33.0000 </r>
      </set>
      <set comment="spin 2">
       <r>   -10.0153     0.0000     0.0000 </r>
       <r>    -9.9763     0.0000     0.0000 </r>
       <r>    -9.9372     0.0000     0.0000 </r>
       <r>    -9.8982     0.0000     0.0000 </r>
       <r>    -9.8592     0.0000     0.0000 </r>
       <r>    -9.8202     0.0000     0.0000 </r>
       <r>    -9.7812     0.0000     0.0000 </r>
       <r>    -9.7422     0.0000     0.0000 </r>
       <r>    -9.7032     0.0000     0.0000 </r>
       <r>    -9.6642     0.0000     0.0000 </r>
       <r>    -9.6252    -0.0000    -0.0000 </r>
       <r>    -9.5862    -0.0000    -0.0000 </r>
       <r>    -9.5472    -0.0000    -0.0000 </r>
       <r>    -9.5081    -0.0000    -0.0000 </r>
       <r>    -9.4691    -0.0000    -0.0000 </r>
       <r>    -9.4301    -0.0000    -0.0000 </r>
       <r>    -9.3911    -0.0000    -0.0000 </r>
       <r>    -9.3521    -0.0000    -0.0000 </r>
       <r>    -9.3131    -0.0000    -0.0000 </r>
       <r>    -9.2741    -0.0000    -0.0000 </r>
       <r>    -9.2351    -0.0000    -0.0000 </r>
       <r>    -9.1961    -0.0000    -0.0000 </r>
       <r>    -9.1571    -0.0000    -0.0000 </r>
       <r>    -9.1181    -0.0000    -0.0000 </r>
       <r>    -9.0790    -0.0000    -0.0000 </r>
       <r>    -9.0400    -0.0000    -0.0000 </r>
       <r>    -9.0010    -0.0000    -0.0000 </r>
       <r>    -8.9620    -0.0000    -0.0000 </r>
       <r>    -8.9230    -0.0000    -0.0000 </r>
       <r>    -8.8840    -0.0000    -0.0000 </r>
       <r>    -8.8450    -0.0000    -0.0000 </r>
       <r>    -8.8060    -0.0000    -0.0000 </r>
       <r>    -8.7670    -0.0000    -0.0000 </r>
       <r>    -8.7280    -0.0001    -0.0000 </r>
       <r>    -8.6890    -0.0002    -0.0000 </r>
       <r>    -8.6499    -0.0006    -0.0000 </r>
       <r>    -8.6109    -0.0018    -0.0001 </r>
       <r>    -8.5719    -0.0049    -0.0003 </r>
       <r>    -8.5329    -0.0122    -0.0008 </r>
       <r>    -8.4939    -0.0274    -0.0018 </r>
       <r>    -8.4549    -0.0554    -0.0040 </r>
       <r>    -8.4159    -0.1003    -0.0079 </r>
       <r>    -8.3769    -0.1592    -0.0141 </r>
       <r>    -8.3379    -0.2138    -0.0225 </r>
       <r>    -8.2989    -0.2213    -0.0311 </r>
       <r>    -8.2599    -0.1119    -0.0355 </r>
       <r>    -8.2208     0.1962    -0.0278 </r>
       <r>    -8.1818     0.7627     0.0019 </r>
       <r>    -8.1428     1.5785     0.0635 </r>
       <r>    -8.1038     2.5334     0.1623 </r>
       <r>    -8.0648     3.4229     0.2959 </r>
       <r>    -8.0258     4.0084     0.4522 </r>
       <r>    -7.9868     4.1088     0.6125 </r>
       <r>    -7.9478     3.6818     0.7561 </r>
       <r>    -7.9088     2.8512     0.8674 </r>
       <r>    -7.8698     1.8669     0.9402 </r>
       <r>    -7.8308     1.0211     0.9800 </r>
       <r>    -7.7917     0.5575     1.0018 </r>
       <r>    -7.7527     0.6060     1.0254 </r>
       <r>    -7.7137     1.1511     1.0703 </r>
       <r>    -7.6747     2.0349     1.1497 </r>
       <r>    -7.6357     2.9939     1.2665 </r>
       <r>    -7.5967     3.7317     1.4120 </r>
       <r>    -7.5577     4.0136     1.5686 </r>
       <r>    -7.5187     3.7527     1.7150 </r>
       <r>    -7.4797     3.0462     1.8338 </r>
       <r>    -7.4407     2.1442     1.9175 </r>
       <r>    -7.4017     1.3598     1.9705 </r>
       <r>    -7.3626     0.9591     2.0079 </r>
       <r>    -7.3236     1.0713     2.0497 </r>
       <r>    -7.2846     1.6462     2.1139 </r>
       <r>    -7.2456     2.4729     2.2104 </r>
       <r>    -7.2066     3.2563     2.3374 </r>
       <r>    -7.1676     3.7301     2.4829 </r>
       <r>    -7.1286     3.7666     2.6299 </r>
       <r>    -7.0896     3.4328     2.7638 </r>
       <r>    -7.0506     2.9606     2.8793 </r>
       <r>    -7.0116     2.6409     2.9823 </r>
       <r>    -6.9725     2.6964     3.0875 </r>
       <r>    -6.9335     3.1972     3.2122 </r>
       <r>    -6.8945     4.0590     3.3705 </r>
       <r>    -6.8555     5.1081     3.5698 </r>
       <r>    -6.8165     6.1611     3.8101 </r>
       <r>    -6.7775     7.0713     4.0860 </r>
       <r>    -6.7385     7.7278     4.3874 </r>
       <r>    -6.6995     8.0382     4.7010 </r>
       <r>    -6.6605     7.9332     5.0105 </r>
       <r>    -6.6215     7.4045     5.2993 </r>
       <r>    -6.5825     6.5479     5.5547 </r>
       <r>    -6.5434     5.5635     5.7718 </r>
       <r>    -6.5044     4.6926     5.9548 </r>
       <r>    -6.4654     4.1165     6.1154 </r>
       <r>    -6.4264     3.8788     6.2667 </r>
       <r>    -6.3874     3.8855     6.4183 </r>
       <r>    -6.3484     3.9814     6.5736 </r>
       <r>    -6.3094     4.0497     6.7316 </r>
       <r>    -6.2704     4.0643     6.8901 </r>
       <r>    -6.2314     4.0646     7.0487 </r>
       <r>    -6.1924     4.0860     7.2081 </r>
       <r>    -6.1534     4.1127     7.3685 </r>
       <r>    -6.1143     4.0932     7.5282 </r>
       <r>    -6.0753     4.0037     7.6844 </r>
       <r>    -6.0363     3.8977     7.8364 </r>
       <r>    -5.9973     3.8954     7.9884 </r>
       <r>    -5.9583     4.1170     8.1490 </r>
       <r>    -5.9193     4.6097     8.3288 </r>
       <r>    -5.8803     5.3204     8.5363 </r>
       <r>    -5.8413     6.1259     8.7753 </r>
       <r>    -5.8023     6.8918     9.0441 </r>
       <r>    -5.7633     7.5176     9.3374 </r>
       <r>    -5.7243     7.9492     9.6475 </r>
       <r>    -5.6852     8.1667     9.9661 </r>
       <r>    -5.6462     8.1686    10.2847 </r>
       <r>    -5.6072     7.9682    10.5955 </r>
       <r>    -5.5682     7.6041    10.8922 </r>
       <r>    -5.5292     7.1541    11.1712 </r>
       <r>    -5.4902     6.7421    11.4343 </r>
       <r>    -5.4512     6.5214    11.6887 </r>
       <r>    -5.4122     6.6298    11.9473 </r>
       <r>    -5.3732     7.1255    12.2252 </r>
       <r>    -5.3342     7.9341    12.5347 </r>
       <r>    -5.2952     8.8437    12.8797 </r>
       <r>    -5.2561     9.5661    13.2529 </r>
       <r>    -5.2171     9.8472    13.6370 </r>
       <r>    -5.1781     9.5771    14.0106 </r>
       <r>    -5.1391     8.8419    14.3555 </r>
       <r>    -5.1001     7.8917    14.6634 </r>
       <r>    -5.0611     7.0397    14.9380 </r>
       <r>    -5.0221     6.5519    15.1936 </r>
       <r>    -4.9831     6.5875    15.4506 </r>
       <r>    -4.9441     7.2124    15.7319 </r>
       <r>    -4.9051     8.4509    16.0616 </r>
       <r>    -4.8661    10.3108    16.4638 </r>
       <r>    -4.8270    12.7387    16.9607 </r>
       <r>    -4.7880    15.5357    17.5667 </r>
       <r>    -4.7490    18.3141    18.2812 </r>
       <r>    -4.7100    20.5653    19.0834 </r>
       <r>    -4.6710    21.8312    19.9350 </r>
       <r>    -4.6320    21.8851    20.7887 </r>
       <r>    -4.5930    20.8091    21.6005 </r>
       <r>    -4.5540    18.9202    22.3385 </r>
       <r>    -4.5150    16.6006    22.9861 </r>
       <r>    -4.4760    14.1433    23.5378 </r>
       <r>    -4.4370    11.7018    23.9943 </r>
       <r>    -4.3979     9.3492    24.3590 </r>
       <r>    -4.3589     7.1785    24.6391 </r>
       <r>    -4.3199     5.3565    24.8480 </r>
       <r>    -4.2809     4.0903    25.0076 </r>
       <r>    -4.2419     3.5311    25.1453 </r>
       <r>    -4.2029     3.6806    25.2889 </r>
       <r>    -4.1639     4.3612    25.4590 </r>
       <r>    -4.1249     5.2642    25.6644 </r>
       <r>    -4.0859     6.0482    25.9003 </r>
       <r>    -4.0469     6.4377    26.1514 </r>
       <r>    -4.0079     6.2881    26.3967 </r>
       <r>    -3.9688     5.6046    26.6154 </r>
       <r>    -3.9298     4.5206    26.7917 </r>
       <r>    -3.8908     3.2479    26.9184 </r>
       <r>    -3.8518     2.0123    26.9969 </r>
       <r>    -3.8128     0.9912    27.0356 </r>
       <r>    -3.7738     0.2742    27.0463 </r>
       <r>    -3.7348    -0.1421    27.0407 </r>
       <r>    -3.6958    -0.3283    27.0279 </r>
       <r>    -3.6568    -0.3798    27.0131 </r>
       <r>    -3.6178    -0.3767    26.9984 </r>
       <r>    -3.5787    -0.3576    26.9845 </r>
       <r>    -3.5397    -0.3082    26.9724 </r>
       <r>    -3.5007    -0.1673    26.9659 </r>
       <r>    -3.4617     0.1503    26.9718 </r>
       <r>    -3.4227     0.7130    26.9996 </r>
       <r>    -3.3837     1.5234    27.0590 </r>
       <r>    -3.3447     2.4826    27.1558 </r>
       <r>    -3.3057     3.3958    27.2883 </r>
       <r>    -3.2667     4.0295    27.4455 </r>
       <r>    -3.2277     4.2016    27.6094 </r>
       <r>    -3.1887     3.8601    27.7600 </r>
       <r>    -3.1496     3.1073    27.8812 </r>
       <r>    -3.1106     2.1538    27.9652 </r>
       <r>    -3.0716     1.2302    28.0132 </r>
       <r>    -3.0326     0.5051    28.0329 </r>
       <r>    -2.9936     0.0449    28.0347 </r>
       <r>    -2.9546    -0.1748    28.0278 </r>
       <r>    -2.9156    -0.2279    28.0189 </r>
       <r>    -2.8766    -0.1946    28.0114 </r>
       <r>    -2.8376    -0.1347    28.0061 </r>
       <r>    -2.7986    -0.0803    28.0030 </r>
       <r>    -2.7596    -0.0424    28.0013 </r>
       <r>    -2.7205    -0.0201    28.0005 </r>
       <r>    -2.6815    -0.0087    28.0002 </r>
       <r>    -2.6425    -0.0037    28.0000 </r>
       <r>    -2.6035    -0.0024    28.0000 </r>
       <r>    -2.5645    -0.0037    27.9998 </r>
       <r>    -2.5255    -0.0085    27.9995 </r>
       <r>    -2.4865    -0.0197    27.9987 </r>
       <r>    -2.4475    -0.0418    27.9971 </r>
       <r>    -2.4085    -0.0798    27.9940 </r>
       <r>    -2.3695    -0.1353    27.9887 </r>
       <r>    -2.3305    -0.1993    27.9809 </r>
       <r>    -2.2914    -0.2427    27.9714 </r>
       <r>    -2.2524    -0.2108    27.9632 </r>
       <r>    -2.2134    -0.0286    27.9621 </r>
       <r>    -2.1744     0.3755    27.9768 </r>
       <r>    -2.1354     1.0334    28.0171 </r>
       <r>    -2.0964     1.9049    28.0914 </r>
       <r>    -2.0574     2.8737    28.2035 </r>
       <r>    -2.0184     3.7845    28.3511 </r>
       <r>    -1.9794     4.5055    28.5269 </r>
       <r>    -1.9404     4.9787    28.7211 </r>
       <r>    -1.9014     5.2215    28.9248 </r>
       <r>    -1.8623     5.2805    29.1308 </r>
       <r>    -1.8233     5.1734    29.3326 </r>
       <r>    -1.7843     4.8685    29.5225 </r>
       <r>    -1.7453     4.3179    29.6909 </r>
       <r>    -1.7063     3.5173    29.8281 </r>
       <r>    -1.6673     2.5421    29.9273 </r>
       <r>    -1.6283     1.5344    29.9871 </r>
       <r>    -1.5893     0.6514    30.0126 </r>
       <r>    -1.5503     0.0167    30.0132 </r>
       <r>    -1.5113    -0.2986    30.0016 </r>
       <r>    -1.4723    -0.2645    29.9912 </r>
       <r>    -1.4332     0.1219    29.9960 </r>
       <r>    -1.3942     0.8301    30.0284 </r>
       <r>    -1.3552     1.7698    30.0974 </r>
       <r>    -1.3162     2.7706    30.2055 </r>
       <r>    -1.2772     3.6011    30.3460 </r>
       <r>    -1.2382     4.0362    30.5034 </r>
       <r>    -1.1992     3.9483    30.6574 </r>
       <r>    -1.1602     3.3746    30.7891 </r>
       <r>    -1.1212     2.5197    30.8874 </r>
       <r>    -1.0822     1.6882    30.9532 </r>
       <r>    -1.0432     1.1757    30.9991 </r>
       <r>    -1.0041     1.1641    31.0445 </r>
       <r>    -0.9651     1.6573    31.1091 </r>
       <r>    -0.9261     2.4803    31.2059 </r>
       <r>    -0.8871     3.3400    31.3362 </r>
       <r>    -0.8481     3.9292    31.4895 </r>
       <r>    -0.8091     4.0366    31.6469 </r>
       <r>    -0.7701     3.6168    31.7880 </r>
       <r>    -0.7311     2.7916    31.8969 </r>
       <r>    -0.6921     1.7873    31.9666 </r>
       <r>    -0.6531     0.8453    31.9996 </r>
       <r>    -0.6141     0.1529    32.0056 </r>
       <r>    -0.5750    -0.1797    31.9986 </r>
       <r>    -0.5360    -0.1091    31.9943 </r>
       <r>    -0.4970     0.3570    32.0082 </r>
       <r>    -0.4580     1.1564    32.0533 </r>
       <r>    -0.4190     2.1556    32.1374 </r>
       <r>    -0.3800     3.1482    32.2602 </r>
       <r>    -0.3410     3.8933    32.4121 </r>
       <r>    -0.3020     4.1918    32.5756 </r>
       <r>    -0.2630     3.9651    32.7303 </r>
       <r>    -0.2240     3.2886    32.8586 </r>
       <r>    -0.1849     2.3593    32.9506 </r>
       <r>    -0.1459     1.4129    33.0057 </r>
       <r>    -0.1069     0.6369    33.0306 </r>
       <r>    -0.0679     0.1202    33.0353 </r>
       <r>    -0.0289    -0.1451    33.0296 </r>
       <r>     0.0101    -0.2264    33.0208 </r>
       <r>     0.0491    -0.2055    33.0128 </r>
       <r>     0.0881    -0.1476    33.0070 </r>
       <r>     0.1271    -0.0905    33.0035 </r>
       <r>     0.1661    -0.0490    33.0016 </r>
       <r>     0.2051    -0.0237    33.0007 </r>
       <r>     0.2442    -0.0104    33.0002 </r>
       <r>     0.2832    -0.0041    33.0001 </r>
       <r>     0.3222    -0.0015    33.0000 </r>
       <r>     0.3612    -0.0005    33.0000 </r>
       <r>     0.4002    -0.0002    33.0000 </r>
       <r>     0.4392    -0.0000    33.0000 </r>
       <r>     0.4782    -0.0000    33.0000 </r>
       <r>     0.5172    -0.0000    33.0000 </r>
       <r>     0.5562    -0.0000    33.0000 </r>
       <r>     0.5952    -0.0000    33.0000 </r>
       <r>     0.6342    -0.0000    33.0000 </r>
       <r>     0.6733    -0.0000    33.0000 </r>
       <r>     0.7123    -0.0000    33.0000 </r>
       <r>     0.7513    -0.0000    33.0000 </r>
       <r>     0.7903    -0.0000    33.0000 </r>
       <r>     0.8293    -0.0000    33.0000 </r>
       <r>     0.8683    -0.0000    33.0000 </r>
       <r>     0.9073    -0.0000    33.0000 </r>
       <r>     0.9463     0.0000    33.0000 </r>
       <r>     0.9853     0.0000    33.0000 </r>
       <r>     1.0243     0.0000    33.0000 </r>
       <r>     1.0633     0.0000    33.0000 </r>
       <r>     1.1024     0.0000    33.0000 </r>
       <r>     1.1414     0.0000    33.0000 </r>
       <r>     1.1804     0.0000    33.0000 </r>
       <r>     1.2194     0.0000    33.0000 </r>
       <r>     1.2584     0.0000    33.0000 </r>
       <r>     1.2974     0.0000    33.0000 </r>
       <r>     1.3364     0.0000    33.0000 </r>
       <r>     1.3754     0.0000    33.0000 </r>
       <r>     1.4144     0.0000    33.0000 </r>
       <r>     1.4534     0.0000    33.0000 </r>
       <r>     1.4924     0.0000    33.0000 </r>
       <r>     1.5315     0.0000    33.0000 </r>
       <r>     1.5705     0.0000    33.0000 </r>
       <r>     1.6095     0.0000    33.0000 </r>
       <r>     1.6485     0.0000    33.0000 </r>
       <r>     1.6875     0.0000    33.0000 </r>
      </set>
     </set>
    </array>
   </total>
  </dos>
 </calculation>
 <structure name="finalpos" >
  <crystal>
   <varray name="basis" >
    <v>      24.00467599       0.00000000       0.00000000 </v>
    <v>       0.00000000      19.46824659       0.00000000 </v>
    <v>       0.00000000       0.00000000      22.30656661 </v>
   </varray>
   <i name="volume">  10424.50438431 </i>
   <varray name="rec_basis" >
    <v>       0.04165855       0.00000000       0.00000000 </v>
    <v>       0.00000000       0.05136569       0.00000000 </v>
    <v>       0.00000000       0.00000000       0.04482985 </v>
   </varray>
  </crystal>
  <varray name="positions" >
   <v>       0.45683324       0.51077448       0.47119863 </v>
   <v>       0.41948208       0.53081246       0.57699148 </v>
   <v>       0.55861838       0.47278194       0.43524533 </v>
   <v>       0.52438441       0.50482596       0.56384003 </v>
   <v>       0.61378178       0.52231238       0.52706694 </v>
  </varray>
 </structure>
</modeling>
