unknown system                          
            1
    24.004676    0.000000    0.000000
     0.000000   19.468247    0.000000
     0.000000    0.000000   22.306567
   Pd
     5
Direct configuration=     1
   0.43181665  0.51450508  0.48703051
   0.41337780  0.53359629  0.59205760
   0.60770158  0.46808709  0.41894334
   0.51133700  0.51778466  0.55851068
   0.60886685  0.50753409  0.51780027
Direct configuration=     2
   0.43208572  0.51419406  0.48513367
   0.41302331  0.53388734  0.59363784
   0.60737595  0.46705734  0.41644915
   0.51275980  0.51756845  0.55824143
   0.60785512  0.50880002  0.52088032
Direct configuration=     3
   0.43209673  0.51418133  0.48505604
   0.41300880  0.53389926  0.59370251
   0.60736262  0.46701520  0.41634708
   0.51281802  0.51755960  0.55823041
   0.60781371  0.50885183  0.52100637
Direct configuration=     4
   0.43270621  0.51408285  0.48472706
   0.41353732  0.53387400  0.59389666
   0.60703252  0.46696534  0.41626984
   0.51218131  0.51753182  0.55814347
   0.60764254  0.50905321  0.52130539
Direct configuration=     5
   0.43372395  0.51391839  0.48417770
   0.41441987  0.53383183  0.59422087
   0.60648129  0.46688208  0.41614086
   0.51111807  0.51748542  0.55799828
   0.60735671  0.50938949  0.52180471
Direct configuration=     6
   0.43436157  0.51377452  0.48353217
   0.41483108  0.53383240  0.59449671
   0.60589025  0.46698375  0.41646237
   0.51121057  0.51733833  0.55785632
   0.60680643  0.50957821  0.52199484
Direct configuration=     7
   0.43558895  0.51349757  0.48228955
   0.41562263  0.53383349  0.59502771
   0.60475252  0.46717945  0.41708126
   0.51138863  0.51705520  0.55758304
   0.60574716  0.50994150  0.52236085
Direct configuration=     8
   0.43603970  0.51343552  0.48203698
   0.41584101  0.53376616  0.59474160
   0.60393933  0.46740791  0.41772289
   0.51144908  0.51685937  0.55770037
   0.60583077  0.51003826  0.52214057
Direct configuration=     9
   0.43699966  0.51330338  0.48149907
   0.41630609  0.53362275  0.59413227
   0.60220750  0.46789446  0.41908938
   0.51157782  0.51644231  0.55795026
   0.60600882  0.51024431  0.52167144
Direct configuration=    10
   0.43720948  0.51327663  0.48139010
   0.41633969  0.53359302  0.59395093
   0.60174637  0.46794616  0.41926029
   0.51171330  0.51631942  0.55801256
   0.60609105  0.51037198  0.52172852
Direct configuration=    11
   0.43783895  0.51319637  0.48106320
   0.41644049  0.53350383  0.59340693
   0.60036297  0.46810128  0.41977304
   0.51211974  0.51595075  0.55819949
   0.60633774  0.51075499  0.52189976
Direct configuration=    12
   0.43909787  0.51303584  0.48040938
   0.41664208  0.53332545  0.59231893
   0.59759617  0.46841151  0.42079853
   0.51293263  0.51521341  0.55857334
   0.60683112  0.51152100  0.52224223
Direct configuration=    13
   0.44161572  0.51271480  0.47910175
   0.41704527  0.53296868  0.59014292
   0.59206258  0.46903197  0.42284951
   0.51455842  0.51373873  0.55932104
   0.60781789  0.51305303  0.52292719
Direct configuration=    14
   0.44665143  0.51207272  0.47648649
   0.41785164  0.53225516  0.58579092
   0.58099540  0.47027289  0.42695147
   0.51780998  0.51078936  0.56081644
   0.60979143  0.51611709  0.52429709
Direct configuration=    15
   0.45672283  0.51078855  0.47125597
   0.41946440  0.53082810  0.57708690
   0.55886104  0.47275473  0.43515540
   0.52431311  0.50489062  0.56380724
   0.61373851  0.52224520  0.52703691
Direct configuration=    16
   0.47686565  0.50822022  0.46079493
   0.42268990  0.52797400  0.55967886
   0.51459231  0.47771842  0.45156325
   0.53731938  0.49309315  0.56978884
   0.62163266  0.53450142  0.53251653
Direct configuration=    17
   0.45683324  0.51077448  0.47119863
   0.41948208  0.53081246  0.57699148
   0.55861838  0.47278194  0.43524533
   0.52438441  0.50482596  0.56384003
   0.61378178  0.52231238  0.52706694
