  13  13   0   0
  0.9433240E+03  0.2264002E-08  0.2271756E-08  0.2384327E-08  0.5000000E-15
   1.0000000000000000E-004
  CAR 
 unknown system                          
      2.36192735    -12.52788431  301     -4.04324142      1.00000000
    -12.528  0.0000E+00  0.0000E+00  0.0000E+00  0.0000E+00
    -12.478  0.0000E+00  0.0000E+00  0.0000E+00  0.0000E+00
    -12.429  0.0000E+00  0.0000E+00  0.0000E+00  0.0000E+00
    -12.379  0.0000E+00  0.0000E+00  0.0000E+00  0.0000E+00
    -12.329  0.0000E+00  0.0000E+00  0.0000E+00  0.0000E+00
    -12.280  0.0000E+00  0.0000E+00  0.0000E+00  0.0000E+00
    -12.230  0.0000E+00  0.0000E+00  0.0000E+00  0.0000E+00
    -12.180  0.0000E+00  0.0000E+00  0.0000E+00  0.0000E+00
    -12.131 -0.5774E-29 -0.5488E-29 -0.2866E-30 -0.2724E-30
    -12.081 -0.2752E-27 -0.2620E-27 -0.1395E-28 -0.1328E-28
    -12.032 -0.1179E-25 -0.1125E-25 -0.5993E-27 -0.5715E-27
    -11.982 -0.4463E-24 -0.4262E-24 -0.2275E-25 -0.2173E-25
    -11.932 -0.1490E-22 -0.1426E-22 -0.7625E-24 -0.7294E-24
    -11.883 -0.4393E-21 -0.4209E-21 -0.2257E-22 -0.2162E-22
    -11.833 -0.1143E-19 -0.1097E-19 -0.5897E-21 -0.5659E-21
    -11.783 -0.2622E-18 -0.2521E-18 -0.1360E-19 -0.1308E-19
    -11.734 -0.5308E-17 -0.5111E-17 -0.2771E-18 -0.2667E-18
    -11.684 -0.9139E-16 -0.8802E-16 -0.4813E-17 -0.4635E-17
    -11.634 -0.1443E-14 -0.1394E-14 -0.7643E-16 -0.7385E-16
    -11.585 -0.1995E-13 -0.1930E-13 -0.1067E-14 -0.1032E-14
    -11.535 -0.2429E-12 -0.2354E-12 -0.1312E-13 -0.1271E-13
    -11.486 -0.2602E-11 -0.2526E-11 -0.1423E-12 -0.1381E-12
    -11.436 -0.2452E-10 -0.2384E-10 -0.1359E-11 -0.1321E-11
    -11.386 -0.2031E-09 -0.1978E-09 -0.1144E-10 -0.1114E-10
    -11.337 -0.1476E-08 -0.1440E-08 -0.8471E-10 -0.8262E-10
    -11.287 -0.9411E-08 -0.9197E-08 -0.5518E-09 -0.5391E-09
    -11.237 -0.5252E-07 -0.5141E-07 -0.3158E-08 -0.3091E-08
    -11.188 -0.2561E-06 -0.2511E-06 -0.1587E-07 -0.1555E-07
    -11.138 -0.1088E-05 -0.1069E-05 -0.6986E-07 -0.6859E-07
    -11.089 -0.4010E-05 -0.3947E-05 -0.2689E-06 -0.2645E-06
    -11.039 -0.1276E-04 -0.1258E-04 -0.9021E-06 -0.8890E-06
    -10.989 -0.3473E-04 -0.3432E-04 -0.2626E-05 -0.2592E-05
    -10.940 -0.7970E-04 -0.7895E-04 -0.6582E-05 -0.6511E-05
    -10.890 -0.1500E-03 -0.1490E-03 -0.1403E-04 -0.1391E-04
    -10.840 -0.2171E-03 -0.2166E-03 -0.2480E-04 -0.2466E-04
    -10.791 -0.1927E-03 -0.1942E-03 -0.3437E-04 -0.3429E-04
    -10.741  0.7394E-04  0.6827E-04 -0.3070E-04 -0.3090E-04
    -10.691  0.7293E-03  0.7182E-03  0.5502E-05  0.4740E-05
    -10.642  0.1783E-02  0.1768E-02  0.9400E-04  0.9248E-04
    -10.592  0.2998E-02  0.2983E-02  0.2428E-03  0.2405E-03
    -10.543  0.3933E-02  0.3925E-02  0.4380E-03  0.4353E-03
    -10.493  0.4178E-02  0.4180E-02  0.6454E-03  0.6428E-03
    -10.443  0.3616E-02  0.3628E-02  0.8248E-03  0.8229E-03
    -10.394  0.2509E-02  0.2524E-02  0.9494E-03  0.9481E-03
    -10.344  0.1314E-02  0.1328E-02  0.1015E-02  0.1014E-02
    -10.294  0.4096E-03  0.4185E-03  0.1035E-02  0.1035E-02
    -10.245 -0.7493E-04 -0.7116E-04  0.1031E-02  0.1031E-02
    -10.195 -0.2223E-03 -0.2219E-03  0.1020E-02  0.1020E-02
    -10.146 -0.1942E-03 -0.1951E-03  0.1011E-02  0.1011E-02
    -10.096 -0.1190E-03 -0.1200E-03  0.1005E-02  0.1005E-02
    -10.046 -0.5810E-04 -0.5871E-04  0.1002E-02  0.1002E-02
     -9.997 -0.2377E-04 -0.2407E-04  0.1001E-02  0.1001E-02
     -9.947 -0.9099E-05 -0.9199E-05  0.1000E-02  0.1000E-02
     -9.897 -0.6102E-05 -0.6075E-05  0.9998E-03  0.9998E-03
     -9.848 -0.1252E-04 -0.1234E-04  0.9992E-03  0.9992E-03
     -9.798 -0.3288E-04 -0.3243E-04  0.9975E-03  0.9976E-03
     -9.748 -0.7603E-04 -0.7520E-04  0.9938E-03  0.9938E-03
     -9.699 -0.1451E-03 -0.1439E-03  0.9866E-03  0.9867E-03
     -9.649 -0.2143E-03 -0.2136E-03  0.9759E-03  0.9761E-03
     -9.600 -0.1997E-03 -0.2011E-03  0.9660E-03  0.9661E-03
     -9.550  0.4649E-04  0.4040E-04  0.9683E-03  0.9681E-03
     -9.500  0.6746E-03  0.6623E-03  0.1002E-02  0.1001E-02
     -9.451  0.1707E-02  0.1690E-02  0.1087E-02  0.1085E-02
     -9.401  0.2924E-02  0.2906E-02  0.1232E-02  0.1229E-02
     -9.351  0.3891E-02  0.3881E-02  0.1425E-02  0.1422E-02
     -9.302  0.4187E-02  0.4189E-02  0.1633E-02  0.1630E-02
     -9.252  0.3672E-02  0.3685E-02  0.1815E-02  0.1813E-02
     -9.202  0.2587E-02  0.2605E-02  0.1943E-02  0.1942E-02
     -9.153  0.1385E-02  0.1401E-02  0.2012E-02  0.2011E-02
     -9.103  0.4548E-03  0.4654E-03  0.2035E-02  0.2034E-02
     -9.054 -0.5569E-04 -0.5106E-04  0.2032E-02  0.2032E-02
     -9.004 -0.2199E-03 -0.2193E-03  0.2021E-02  0.2021E-02
     -8.954 -0.1987E-03 -0.1996E-03  0.2011E-02  0.2011E-02
     -8.905 -0.1249E-03 -0.1260E-03  0.2005E-02  0.2005E-02
     -8.855 -0.6572E-04 -0.6640E-04  0.2002E-02  0.2002E-02
     -8.805 -0.4024E-04 -0.4048E-04  0.2000E-02  0.2000E-02
     -8.756 -0.5196E-04 -0.5180E-04  0.1997E-02  0.1997E-02
     -8.706 -0.1077E-03 -0.1071E-03  0.1992E-02  0.1992E-02
     -8.657 -0.2140E-03 -0.2129E-03  0.1981E-02  0.1981E-02
     -8.607 -0.3473E-03 -0.3461E-03  0.1964E-02  0.1964E-02
     -8.557 -0.4030E-03 -0.4029E-03  0.1944E-02  0.1944E-02
     -8.508 -0.1610E-03 -0.1642E-03  0.1936E-02  0.1936E-02
     -8.458  0.6635E-03  0.6546E-03  0.1969E-02  0.1968E-02
     -8.408  0.2240E-02  0.2225E-02  0.2080E-02  0.2079E-02
     -8.359  0.4387E-02  0.4368E-02  0.2298E-02  0.2295E-02
     -8.309  0.6487E-02  0.6470E-02  0.2620E-02  0.2617E-02
     -8.259  0.7727E-02  0.7720E-02  0.3003E-02  0.3000E-02
     -8.210  0.7592E-02  0.7596E-02  0.3380E-02  0.3377E-02
     -8.160  0.6249E-02  0.6261E-02  0.3690E-02  0.3688E-02
     -8.111  0.4483E-02  0.4492E-02  0.3913E-02  0.3911E-02
     -8.061  0.3191E-02  0.3193E-02  0.4071E-02  0.4069E-02
     -8.011  0.2843E-02  0.2836E-02  0.4212E-02  0.4210E-02
     -7.962  0.3306E-02  0.3296E-02  0.4376E-02  0.4373E-02
     -7.912  0.4128E-02  0.4121E-02  0.4581E-02  0.4578E-02
     -7.862  0.4960E-02  0.4958E-02  0.4827E-02  0.4824E-02
     -7.813  0.5774E-02  0.5773E-02  0.5114E-02  0.5111E-02
     -7.763  0.6752E-02  0.6747E-02  0.5449E-02  0.5445E-02
     -7.714  0.8034E-02  0.8022E-02  0.5848E-02  0.5844E-02
     -7.664  0.9512E-02  0.9498E-02  0.6320E-02  0.6315E-02
     -7.614  0.1079E-01  0.1078E-01  0.6855E-02  0.6850E-02
     -7.565  0.1130E-01  0.1130E-01  0.7416E-02  0.7411E-02
     -7.515  0.1063E-01  0.1065E-01  0.7944E-02  0.7939E-02
     -7.465  0.8929E-02  0.8949E-02  0.8387E-02  0.8384E-02
     -7.416  0.7008E-02  0.7022E-02  0.8735E-02  0.8732E-02
     -7.366  0.5996E-02  0.5994E-02  0.9032E-02  0.9030E-02
     -7.316  0.6594E-02  0.6575E-02  0.9360E-02  0.9356E-02
     -7.267  0.8564E-02  0.8537E-02  0.9785E-02  0.9780E-02
     -7.217  0.1093E-01  0.1090E-01  0.1033E-01  0.1032E-01
     -7.168  0.1274E-01  0.1272E-01  0.1096E-01  0.1095E-01
     -7.118  0.1381E-01  0.1380E-01  0.1164E-01  0.1164E-01
     -7.068  0.1471E-01  0.1470E-01  0.1237E-01  0.1237E-01
     -7.019  0.1624E-01  0.1623E-01  0.1318E-01  0.1317E-01
     -6.969  0.1875E-01  0.1873E-01  0.1411E-01  0.1410E-01
     -6.919  0.2187E-01  0.2185E-01  0.1520E-01  0.1519E-01
     -6.870  0.2479E-01  0.2477E-01  0.1643E-01  0.1642E-01
     -6.820  0.2670E-01  0.2668E-01  0.1775E-01  0.1774E-01
     -6.770  0.2722E-01  0.2721E-01  0.1910E-01  0.1909E-01
     -6.721  0.2654E-01  0.2654E-01  0.2042E-01  0.2041E-01
     -6.671  0.2518E-01  0.2519E-01  0.2167E-01  0.2166E-01
     -6.622  0.2355E-01  0.2356E-01  0.2284E-01  0.2283E-01
     -6.572  0.2168E-01  0.2170E-01  0.2391E-01  0.2390E-01
     -6.522  0.1932E-01  0.1935E-01  0.2487E-01  0.2486E-01
     -6.473  0.1635E-01  0.1638E-01  0.2568E-01  0.2568E-01
     -6.423  0.1314E-01  0.1318E-01  0.2634E-01  0.2633E-01
     -6.373  0.1057E-01  0.1060E-01  0.2686E-01  0.2686E-01
     -6.324  0.9574E-02  0.9579E-02  0.2734E-01  0.2733E-01
     -6.274  0.1056E-01  0.1055E-01  0.2786E-01  0.2786E-01
     -6.225  0.1323E-01  0.1320E-01  0.2852E-01  0.2851E-01
     -6.175  0.1674E-01  0.1671E-01  0.2935E-01  0.2934E-01
     -6.125  0.2010E-01  0.2007E-01  0.3035E-01  0.3034E-01
     -6.076  0.2261E-01  0.2259E-01  0.3147E-01  0.3146E-01
     -6.026  0.2416E-01  0.2415E-01  0.3267E-01  0.3266E-01
     -5.976  0.2535E-01  0.2534E-01  0.3393E-01  0.3391E-01
     -5.927  0.2725E-01  0.2723E-01  0.3528E-01  0.3527E-01
     -5.877  0.3064E-01  0.3061E-01  0.3680E-01  0.3679E-01
     -5.827  0.3532E-01  0.3529E-01  0.3855E-01  0.3854E-01
     -5.778  0.4005E-01  0.4002E-01  0.4054E-01  0.4052E-01
     -5.728  0.4332E-01  0.4331E-01  0.4269E-01  0.4267E-01
     -5.679  0.4441E-01  0.4440E-01  0.4489E-01  0.4488E-01
     -5.629  0.4370E-01  0.4371E-01  0.4706E-01  0.4705E-01
     -5.579  0.4229E-01  0.4229E-01  0.4916E-01  0.4914E-01
     -5.530  0.4118E-01  0.4117E-01  0.5121E-01  0.5119E-01
     -5.480  0.4095E-01  0.4093E-01  0.5324E-01  0.5322E-01
     -5.430  0.4169E-01  0.4167E-01  0.5531E-01  0.5529E-01
     -5.381  0.4305E-01  0.4303E-01  0.5744E-01  0.5742E-01
     -5.331  0.4418E-01  0.4418E-01  0.5964E-01  0.5962E-01
     -5.282  0.4388E-01  0.4389E-01  0.6181E-01  0.6179E-01
     -5.232  0.4105E-01  0.4109E-01  0.6385E-01  0.6383E-01
     -5.182  0.3540E-01  0.3546E-01  0.6561E-01  0.6559E-01
     -5.133  0.2771E-01  0.2777E-01  0.6698E-01  0.6697E-01
     -5.083  0.1946E-01  0.1952E-01  0.6795E-01  0.6794E-01
     -5.033  0.1219E-01  0.1224E-01  0.6856E-01  0.6855E-01
     -4.984  0.6904E-02  0.6941E-02  0.6890E-01  0.6889E-01
     -4.934  0.3868E-02  0.3894E-02  0.6909E-01  0.6909E-01
     -4.884  0.2759E-02  0.2773E-02  0.6923E-01  0.6922E-01
     -4.835  0.2864E-02  0.2869E-02  0.6937E-01  0.6937E-01
     -4.785  0.3321E-02  0.3324E-02  0.6953E-01  0.6953E-01
     -4.736  0.3419E-02  0.3428E-02  0.6970E-01  0.6970E-01
     -4.686  0.2867E-02  0.2882E-02  0.6985E-01  0.6984E-01
     -4.636  0.1876E-02  0.1894E-02  0.6994E-01  0.6994E-01
     -4.587  0.9729E-03  0.9838E-03  0.6999E-01  0.6999E-01
     -4.537  0.6582E-03  0.6568E-03  0.7002E-01  0.7002E-01
     -4.487  0.1127E-02  0.1114E-02  0.7008E-01  0.7008E-01
     -4.438  0.2162E-02  0.2145E-02  0.7018E-01  0.7018E-01
     -4.388  0.3244E-02  0.3232E-02  0.7034E-01  0.7034E-01
     -4.338  0.3839E-02  0.3836E-02  0.7054E-01  0.7053E-01
     -4.289  0.3736E-02  0.3734E-02  0.7072E-01  0.7072E-01
     -4.239  0.3197E-02  0.3179E-02  0.7088E-01  0.7088E-01
     -4.190  0.2763E-02  0.2717E-02  0.7102E-01  0.7101E-01
     -4.140  0.2839E-02  0.2769E-02  0.7116E-01  0.7115E-01
     -4.090  0.3367E-02  0.3300E-02  0.7132E-01  0.7131E-01
     -4.041  0.3884E-02  0.3853E-02  0.7152E-01  0.7150E-01
     -3.991  0.3886E-02  0.3911E-02  0.7171E-01  0.7170E-01
     -3.941  0.3210E-02  0.3280E-02  0.7187E-01  0.7186E-01
     -3.892  0.2100E-02  0.2185E-02  0.7197E-01  0.7197E-01
     -3.842  0.9843E-03  0.1055E-02  0.7202E-01  0.7202E-01
     -3.793  0.1754E-03  0.2178E-03  0.7203E-01  0.7203E-01
     -3.743 -0.2620E-03 -0.2453E-03  0.7202E-01  0.7202E-01
     -3.693 -0.4343E-03 -0.4327E-03  0.7200E-01  0.7200E-01
     -3.644 -0.4528E-03 -0.4580E-03  0.7197E-01  0.7198E-01
     -3.594 -0.3138E-03 -0.3235E-03  0.7196E-01  0.7196E-01
     -3.544  0.1078E-03  0.9149E-04  0.7196E-01  0.7196E-01
     -3.495  0.9585E-03  0.9343E-03  0.7201E-01  0.7201E-01
     -3.445  0.2263E-02  0.2234E-02  0.7212E-01  0.7212E-01
     -3.395  0.3837E-02  0.3812E-02  0.7231E-01  0.7231E-01
     -3.346  0.5321E-02  0.5308E-02  0.7258E-01  0.7257E-01
     -3.296  0.6322E-02  0.6326E-02  0.7289E-01  0.7289E-01
     -3.247  0.6557E-02  0.6576E-02  0.7322E-01  0.7321E-01
     -3.197  0.5947E-02  0.5974E-02  0.7351E-01  0.7351E-01
     -3.147  0.4649E-02  0.4674E-02  0.7374E-01  0.7374E-01
     -3.098  0.3042E-02  0.3060E-02  0.7389E-01  0.7389E-01
     -3.048  0.1644E-02  0.1648E-02  0.7398E-01  0.7398E-01
     -2.998  0.9230E-03  0.9095E-03  0.7402E-01  0.7402E-01
     -2.949  0.1089E-02  0.1059E-02  0.7408E-01  0.7407E-01
     -2.899  0.1958E-02  0.1921E-02  0.7417E-01  0.7417E-01
     -2.850  0.3017E-02  0.2988E-02  0.7432E-01  0.7432E-01
     -2.800  0.3692E-02  0.3684E-02  0.7451E-01  0.7450E-01
     -2.750  0.3709E-02  0.3724E-02  0.7469E-01  0.7469E-01
     -2.701  0.3274E-02  0.3300E-02  0.7485E-01  0.7485E-01
     -2.651  0.2930E-02  0.2947E-02  0.7500E-01  0.7500E-01
     -2.601  0.3156E-02  0.3147E-02  0.7515E-01  0.7515E-01
     -2.552  0.4035E-02  0.3997E-02  0.7536E-01  0.7535E-01
     -2.502  0.5219E-02  0.5162E-02  0.7561E-01  0.7561E-01
     -2.452  0.6166E-02  0.6110E-02  0.7592E-01  0.7591E-01
     -2.403  0.6428E-02  0.6398E-02  0.7624E-01  0.7623E-01
     -2.353  0.5835E-02  0.5846E-02  0.7653E-01  0.7652E-01
     -2.304  0.4532E-02  0.4582E-02  0.7675E-01  0.7674E-01
     -2.254  0.2930E-02  0.2998E-02  0.7690E-01  0.7689E-01
     -2.204  0.1575E-02  0.1629E-02  0.7698E-01  0.7697E-01
     -2.155  0.9311E-03  0.9475E-03  0.7702E-01  0.7702E-01
     -2.105  0.1182E-02  0.1157E-02  0.7708E-01  0.7708E-01
     -2.055  0.2142E-02  0.2092E-02  0.7719E-01  0.7718E-01
     -2.006  0.3363E-02  0.3318E-02  0.7736E-01  0.7735E-01
     -1.956  0.4398E-02  0.4379E-02  0.7757E-01  0.7756E-01
     -1.906  0.5008E-02  0.5022E-02  0.7782E-01  0.7781E-01
     -1.857  0.5193E-02  0.5229E-02  0.7808E-01  0.7807E-01
     -1.807  0.5042E-02  0.5082E-02  0.7833E-01  0.7833E-01
     -1.758  0.4629E-02  0.4656E-02  0.7856E-01  0.7856E-01
     -1.708  0.4063E-02  0.4065E-02  0.7876E-01  0.7876E-01
     -1.658  0.3561E-02  0.3533E-02  0.7894E-01  0.7893E-01
     -1.609  0.3356E-02  0.3306E-02  0.7911E-01  0.7910E-01
     -1.559  0.3475E-02  0.3426E-02  0.7928E-01  0.7927E-01
     -1.509  0.3666E-02  0.3642E-02  0.7946E-01  0.7945E-01
     -1.460  0.3634E-02  0.3641E-02  0.7964E-01  0.7963E-01
     -1.410  0.3377E-02  0.3395E-02  0.7981E-01  0.7980E-01
     -1.361  0.3267E-02  0.3255E-02  0.7997E-01  0.7996E-01
     -1.311  0.3733E-02  0.3664E-02  0.8016E-01  0.8014E-01
     -1.261  0.4836E-02  0.4719E-02  0.8040E-01  0.8038E-01
     -1.212  0.6111E-02  0.5993E-02  0.8070E-01  0.8067E-01
     -1.162  0.6859E-02  0.6801E-02  0.8104E-01  0.8101E-01
     -1.112  0.6675E-02  0.6713E-02  0.8137E-01  0.8134E-01
     -1.063  0.5797E-02  0.5922E-02  0.8166E-01  0.8164E-01
     -1.013  0.4992E-02  0.5158E-02  0.8191E-01  0.8189E-01
     -0.963  0.5015E-02  0.5163E-02  0.8215E-01  0.8215E-01
     -0.914  0.6005E-02  0.6097E-02  0.8245E-01  0.8245E-01
     -0.864  0.7311E-02  0.7343E-02  0.8282E-01  0.8282E-01
     -0.815  0.7921E-02  0.7913E-02  0.8321E-01  0.8321E-01
     -0.765  0.7171E-02  0.7154E-02  0.8356E-01  0.8356E-01
     -0.715  0.5196E-02  0.5190E-02  0.8382E-01  0.8382E-01
     -0.666  0.2787E-02  0.2796E-02  0.8396E-01  0.8396E-01
     -0.616  0.8864E-03  0.9001E-03  0.8400E-01  0.8401E-01
     -0.566  0.1427E-03  0.1396E-03  0.8401E-01  0.8401E-01
     -0.517  0.7452E-03  0.7016E-03  0.8405E-01  0.8405E-01
     -0.467  0.2452E-02  0.2354E-02  0.8417E-01  0.8416E-01
     -0.418  0.4666E-02  0.4522E-02  0.8440E-01  0.8439E-01
     -0.368  0.6591E-02  0.6437E-02  0.8473E-01  0.8471E-01
     -0.318  0.7550E-02  0.7428E-02  0.8510E-01  0.8508E-01
     -0.269  0.7347E-02  0.7282E-02  0.8547E-01  0.8544E-01
     -0.219  0.6395E-02  0.6376E-02  0.8579E-01  0.8575E-01
     -0.169  0.5425E-02  0.5432E-02  0.8606E-01  0.8602E-01
     -0.120  0.4988E-02  0.5023E-02  0.8630E-01  0.8627E-01
     -0.070  0.5149E-02  0.5240E-02  0.8656E-01  0.8653E-01
     -0.020  0.5608E-02  0.5770E-02  0.8684E-01  0.8682E-01
      0.029  0.6109E-02  0.6297E-02  0.8714E-01  0.8713E-01
      0.079  0.6764E-02  0.6869E-02  0.8748E-01  0.8747E-01
      0.128  0.7986E-02  0.7885E-02  0.8787E-01  0.8786E-01
      0.178  0.1005E-01  0.9701E-02  0.8837E-01  0.8835E-01
      0.228  0.1264E-01  0.1213E-01  0.8900E-01  0.8895E-01
      0.277  0.1475E-01  0.1430E-01  0.8973E-01  0.8966E-01
      0.327  0.1523E-01  0.1506E-01  0.9049E-01  0.9041E-01
      0.377  0.1354E-01  0.1372E-01  0.9116E-01  0.9109E-01
      0.426  0.1010E-01  0.1053E-01  0.9166E-01  0.9161E-01
      0.476  0.6067E-02  0.6549E-02  0.9196E-01  0.9193E-01
      0.526  0.2635E-02  0.3001E-02  0.9209E-01  0.9208E-01
      0.575  0.4448E-03  0.6362E-03  0.9211E-01  0.9212E-01
      0.625 -0.5284E-03 -0.4749E-03  0.9209E-01  0.9209E-01
      0.674 -0.7004E-03 -0.7162E-03  0.9205E-01  0.9206E-01
      0.724 -0.5269E-03 -0.5589E-03  0.9203E-01  0.9203E-01
      0.774 -0.3022E-03 -0.3266E-03  0.9201E-01  0.9201E-01
      0.823 -0.1423E-03 -0.1555E-03  0.9200E-01  0.9200E-01
      0.873 -0.5672E-04 -0.6236E-04  0.9200E-01  0.9200E-01
      0.923 -0.1942E-04 -0.2140E-04  0.9200E-01  0.9200E-01
      0.972 -0.5765E-05 -0.6346E-05  0.9200E-01  0.9200E-01
      1.022 -0.1491E-05 -0.1636E-05  0.9200E-01  0.9200E-01
      1.071 -0.3370E-06 -0.3678E-06  0.9200E-01  0.9200E-01
      1.121 -0.6676E-07 -0.7235E-07  0.9200E-01  0.9200E-01
      1.171 -0.1161E-07 -0.1248E-07  0.9200E-01  0.9200E-01
      1.220 -0.1775E-08 -0.1888E-08  0.9200E-01  0.9200E-01
      1.270 -0.2388E-09 -0.2512E-09  0.9200E-01  0.9200E-01
      1.320 -0.2829E-10 -0.2940E-10  0.9200E-01  0.9200E-01
      1.369 -0.2951E-11 -0.3029E-11  0.9200E-01  0.9200E-01
      1.419 -0.2714E-12 -0.2748E-12  0.9200E-01  0.9200E-01
      1.469 -0.2201E-13 -0.2198E-13  0.9200E-01  0.9200E-01
      1.518 -0.1575E-14 -0.1543E-14  0.9200E-01  0.9200E-01
      1.568 -0.9842E-16 -0.9842E-16  0.9200E-01  0.9200E-01
      1.617 -0.4474E-17 -0.4474E-17  0.9200E-01  0.9200E-01
      1.667  0.0000E+00  0.0000E+00  0.9200E-01  0.9200E-01
      1.717  0.0000E+00  0.0000E+00  0.9200E-01  0.9200E-01
      1.766  0.0000E+00  0.0000E+00  0.9200E-01  0.9200E-01
      1.816  0.0000E+00  0.0000E+00  0.9200E-01  0.9200E-01
      1.866  0.0000E+00  0.0000E+00  0.9200E-01  0.9200E-01
      1.915  0.0000E+00  0.0000E+00  0.9200E-01  0.9200E-01
      1.965  0.0000E+00  0.0000E+00  0.9200E-01  0.9200E-01
      2.014  0.0000E+00  0.0000E+00  0.9200E-01  0.9200E-01
      2.064  0.0000E+00  0.0000E+00  0.9200E-01  0.9200E-01
      2.114  0.0000E+00  0.0000E+00  0.9200E-01  0.9200E-01
      2.163  0.0000E+00  0.0000E+00  0.9200E-01  0.9200E-01
      2.213  0.0000E+00  0.0000E+00  0.9200E-01  0.9200E-01
      2.263  0.0000E+00  0.0000E+00  0.9200E-01  0.9200E-01
      2.312  0.0000E+00  0.0000E+00  0.9200E-01  0.9200E-01
      2.362  0.0000E+00  0.0000E+00  0.9200E-01  0.9200E-01
