   13   13 1000    2
  0.9433240E+03  0.2264002E-08  0.2271756E-08  0.2384327E-08  0.5000000E-15
   1.0000000000000000E-004
  CAR 
 unknown system                          
    143      1     92
 
  0.1262379E-14  0.1262379E-14  0.1262379E-14  0.1000000E+01
    1      -10.527884    -10.527246   1.000000   1.000000
    2       -9.333534     -9.332805   1.000000   1.000000
    3       -8.292377     -8.292080   1.000000   1.000000
    4       -8.232904     -8.232336   1.000000   1.000000
    5       -7.933584     -7.932817   1.000000   1.000000
    6       -7.750765     -7.750407   1.000000   1.000000
    7       -7.637558     -7.636944   1.000000   1.000000
    8       -7.528308     -7.527856   1.000000   1.000000
    9       -7.515493     -7.515128   1.000000   1.000000
   10       -7.231445     -7.230978   1.000000   1.000000
   11       -7.225555     -7.225002   1.000000   1.000000
   12       -7.168656     -7.168128   1.000000   1.000000
   13       -7.039402     -7.038873   1.000000   1.000000
   14       -7.005469     -7.004945   1.000000   1.000000
   15       -6.940655     -6.940224   1.000000   1.000000
   16       -6.879856     -6.879566   1.000000   1.000000
   17       -6.863361     -6.862861   1.000000   1.000000
   18       -6.837555     -6.836991   1.000000   1.000000
   19       -6.806690     -6.806189   1.000000   1.000000
   20       -6.745997     -6.745580   1.000000   1.000000
   21       -6.742856     -6.742231   1.000000   1.000000
   22       -6.663884     -6.663480   1.000000   1.000000
   23       -6.648086     -6.647497   1.000000   1.000000
   24       -6.582036     -6.581478   1.000000   1.000000
   25       -6.522333     -6.521902   1.000000   1.000000
   26       -6.516243     -6.515525   1.000000   1.000000
   27       -6.442229     -6.441830   1.000000   1.000000
   28       -6.282342     -6.281896   1.000000   1.000000
   29       -6.199211     -6.198796   1.000000   1.000000
   30       -6.186556     -6.186113   1.000000   1.000000
   31       -6.085087     -6.084589   1.000000   1.000000
   32       -6.083182     -6.082746   1.000000   1.000000
   33       -6.048628     -6.048161   1.000000   1.000000
   34       -6.000111     -5.999607   1.000000   1.000000
   35       -5.984958     -5.984497   1.000000   1.000000
   36       -5.926840     -5.926484   1.000000   1.000000
   37       -5.850001     -5.849583   1.000000   1.000000
   38       -5.836373     -5.835988   1.000000   1.000000
   39       -5.810269     -5.809736   1.000000   1.000000
   40       -5.789126     -5.788775   1.000000   1.000000
   41       -5.764428     -5.764013   1.000000   1.000000
   42       -5.756252     -5.755799   1.000000   1.000000
   43       -5.750730     -5.750284   1.000000   1.000000
   44       -5.732610     -5.732182   1.000000   1.000000
   45       -5.698168     -5.697849   1.000000   1.000000
   46       -5.668671     -5.668305   1.000000   1.000000
   47       -5.663001     -5.662646   1.000000   1.000000
   48       -5.613704     -5.613298   1.000000   1.000000
   49       -5.592752     -5.592399   1.000000   1.000000
   50       -5.562055     -5.561566   1.000000   1.000000
   51       -5.544339     -5.543785   1.000000   1.000000
   52       -5.515215     -5.514693   1.000000   1.000000
   53       -5.509547     -5.509114   1.000000   1.000000
   54       -5.480020     -5.479631   1.000000   1.000000
   55       -5.466610     -5.466192   1.000000   1.000000
   56       -5.400950     -5.400451   1.000000   1.000000
   57       -5.384537     -5.384075   1.000000   1.000000
   58       -5.383137     -5.382661   1.000000   1.000000
   59       -5.334342     -5.333761   1.000000   1.000000
   60       -5.329436     -5.329110   1.000000   1.000000
   61       -5.316791     -5.316084   1.000000   1.000000
   62       -5.279812     -5.279380   1.000000   1.000000
   63       -5.260833     -5.260330   1.000000   1.000000
   64       -5.241112     -5.240691   1.000000   1.000000
   65       -5.219587     -5.219006   1.000000   1.000000
   66       -5.217161     -5.216785   1.000000   1.000000
   67       -5.160984     -5.160637   1.000000   1.000000
   68       -5.147604     -5.147211   1.000000   1.000000
   69       -5.026720     -5.025417   1.000000   1.000000
   70       -4.776019     -4.775196   1.000001   1.000001
   71       -4.352455     -4.351579   1.025560   1.025761
   72       -4.038906     -4.035443   0.481659   0.467030
   73       -3.355351     -3.354278  -0.000006  -0.000006
   74       -3.205098     -3.204762  -0.000000  -0.000000
   75       -2.807772     -2.806226  -0.000000  -0.000000
   76       -2.512473     -2.511533  -0.000000  -0.000000
   77       -2.364621     -2.361939  -0.000000  -0.000000
   78       -1.976052     -1.973786  -0.000000  -0.000000
   79       -1.772611     -1.771769  -0.000000  -0.000000
   80       -1.500540     -1.497505  -0.000000  -0.000000
   81       -1.220450     -1.217420  -0.000000  -0.000000
   82       -1.120195     -1.115586  -0.000000  -0.000000
   83       -0.850366     -0.852222  -0.000000  -0.000000
   84       -0.821877     -0.819974  -0.000000  -0.000000
   85       -0.375609     -0.375390  -0.000000  -0.000000
   86       -0.298401     -0.292028  -0.000000  -0.000000
   87       -0.071474     -0.064913  -0.000000  -0.000000
   88        0.064787      0.063906  -0.000000  -0.000000
   89        0.232965      0.228421  -0.000000  -0.000000
   90        0.280724      0.286845  -0.000000  -0.000000
   91        0.316245      0.336437  -0.000000  -0.000000
   92        0.361927      0.358076  -0.000000  -0.000000
