<?xml version="1.0" encoding="ISO-8859-1"?>
<modeling>
 <generator>
  <i name="program" type="string">vasp </i>
  <i name="version" type="string">6.1.2  </i>
  <i name="subversion" type="string">22Jul20 (build Aug  2 2021 21:04:21) gamma-only                       parallel </i>
  <i name="platform" type="string">LinuxPGI </i>
  <i name="date" type="string">2021 12 25 </i>
  <i name="time" type="string">15:01:38 </i>
 </generator>
 <incar>
  <i type="int" name="ISPIN">     2</i>
  <i type="int" name="IBRION">     2</i>
  <i type="int" name="NSW">  1000</i>
  <i type="int" name="ISIF">     0</i>
  <i type="int" name="ISYM">     0</i>
  <i name="ENCUT">    400.00000000</i>
  <i type="logical" name="LREAL"> F  </i>
  <i type="int" name="ISMEAR">     1</i>
  <i name="SIGMA">      0.20000000</i>
  <i type="logical" name="LWAVE"> F  </i>
  <i type="logical" name="LCHARG"> F  </i>
  <i type="int" name="KPAR">     1</i>
  <i type="int" name="NCORE">     8</i>
  <i type="string" name="GGA"> PE</i>
  <i type="int" name="ISPIN">     2</i>
 </incar>
 <structure name="primitive_cell" >
  <crystal>
   <varray name="basis" >
    <v>      22.64001728       0.00000000       0.00000000 </v>
    <v>       0.00000000      22.71756026       0.00000000 </v>
    <v>       0.00000000       0.00000000      23.84326928 </v>
   </varray>
   <i name="volume">  12263.21228937 </i>
   <varray name="rec_basis" >
    <v>       0.04416958       0.00000000       0.00000000 </v>
    <v>       0.00000000       0.04401881       0.00000000 </v>
    <v>       0.00000000       0.00000000       0.04194056 </v>
   </varray>
  </crystal>
  <varray name="positions" >
   <v>       0.42516483       0.54700097       0.57255198 </v>
   <v>       0.51950235       0.56143615       0.61504906 </v>
   <v>       0.51543758       0.47972938       0.54803727 </v>
   <v>       0.46440791       0.47134268       0.63552686 </v>
   <v>       0.50793260       0.58181488       0.51471691 </v>
   <v>       0.41604745       0.44195029       0.54968794 </v>
   <v>       0.43099878       0.51703085       0.47491527 </v>
   <v>       0.48082012       0.42041943       0.46793746 </v>
   <v>       0.49006763       0.58040378       0.41149717 </v>
   <v>       0.54875399       0.50375776       0.45403805 </v>
   <v>       0.46258698       0.48022296       0.38381923 </v>
   <v>       0.54932602       0.42073066       0.38833289 </v>
   <v>       0.55783669       0.52242103       0.35577281 </v>
  </varray>
 </structure>
 <varray name="primitive_index" >
  <v type="int" >        1 </v>
  <v type="int" >        2 </v>
  <v type="int" >        3 </v>
  <v type="int" >        4 </v>
  <v type="int" >        5 </v>
  <v type="int" >        6 </v>
  <v type="int" >        7 </v>
  <v type="int" >        8 </v>
  <v type="int" >        9 </v>
  <v type="int" >       10 </v>
  <v type="int" >       11 </v>
  <v type="int" >       12 </v>
  <v type="int" >       13 </v>
 </varray>
 <kpoints>
  <generation param="Gamma">
   <v type="int" name="divisions">       1        1        1 </v>
   <v name="usershift">      0.00000000       0.00000000       0.00000000 </v>
   <v name="genvec1">      1.00000000       0.00000000       0.00000000 </v>
   <v name="genvec2">      0.00000000       1.00000000       0.00000000 </v>
   <v name="genvec3">      0.00000000       0.00000000       1.00000000 </v>
   <v name="shift">      0.00000000       0.00000000       0.00000000 </v>
  </generation>
  <varray name="kpointlist" >
   <v>       0.00000000       0.00000000       0.00000000 </v>
  </varray>
  <varray name="weights" >
   <v>       1.00000000 </v>
  </varray>
 </kpoints>
 <parameters>
  <separator name="general" >
   <i type="string" name="SYSTEM">unknown system</i>
   <i type="logical" name="LCOMPAT"> F  </i>
  </separator>
  <separator name="electronic" >
   <i type="string" name="PREC">normal</i>
   <i name="ENMAX">    400.00000000</i>
   <i name="ENAUG">    586.98000000</i>
   <i name="EDIFF">      0.00010000</i>
   <i type="int" name="IALGO">    38</i>
   <i type="int" name="IWAVPR">    11</i>
   <i type="int" name="NBANDS">    92</i>
   <i type="int" name="NBANDSLOW">    -1</i>
   <i type="int" name="NBANDSHIGH">    -1</i>
   <i name="NELECT">    143.00000000</i>
   <i type="int" name="TURBO">     0</i>
   <i type="int" name="IRESTART">     0</i>
   <i type="int" name="NREBOOT">     0</i>
   <i type="int" name="NMIN">     0</i>
   <i name="EREF">      0.00000000</i>
   <separator name="electronic smearing" >
    <i type="int" name="ISMEAR">     1</i>
    <i name="SIGMA">      0.20000000</i>
    <i name="KSPACING">      0.50000000</i>
    <i type="logical" name="KGAMMA"> T  </i>
    <i type="logical" name="KBLOWUP"> T  </i>
   </separator>
   <separator name="electronic projectors" >
    <i type="logical" name="LREAL"> F  </i>
    <v name="ROPT">      0.00000000</v>
    <i type="int" name="LMAXPAW">  -100</i>
    <i type="int" name="LMAXMIX">     2</i>
    <i type="logical" name="NLSPLINE"> F  </i>
   </separator>
   <separator name="electronic startup" >
    <i type="int" name="ISTART">     0</i>
    <i type="int" name="ICHARG">     2</i>
    <i type="int" name="INIWAV">     1</i>
   </separator>
   <separator name="electronic spin" >
    <i type="int" name="ISPIN">     2</i>
    <i type="logical" name="LNONCOLLINEAR"> F  </i>
    <v name="MAGMOM">      1.00000000      1.00000000      1.00000000      1.00000000      1.00000000      1.00000000      1.00000000      1.00000000      1.00000000      1.00000000      1.00000000      1.00000000      1.00000000</v>
    <i name="NUPDOWN">     -1.00000000</i>
    <i type="logical" name="LSORBIT"> F  </i>
    <v name="SAXIS">      0.00000000      0.00000000      1.00000000</v>
    <i type="logical" name="LSPIRAL"> F  </i>
    <v name="QSPIRAL">      0.00000000      0.00000000      0.00000000</v>
    <i type="logical" name="LZEROZ"> F  </i>
   </separator>
   <separator name="electronic exchange-correlation" >
    <i type="logical" name="LASPH"> F  </i>
    <i type="logical" name="LMETAGGA"> F  </i>
   </separator>
   <separator name="electronic convergence" >
    <i type="int" name="NELM">    60</i>
    <i type="int" name="NELMDL">     0</i>
    <i type="int" name="NELMIN">     2</i>
    <i name="ENINI">    400.00000000</i>
    <separator name="electronic convergence detail" >
     <i type="logical" name="LDIAG"> T  </i>
     <i type="logical" name="LSUBROT"> F  </i>
     <i name="WEIMIN">      0.00100000</i>
     <i name="EBREAK">      0.00000027</i>
     <i name="DEPER">      0.30000000</i>
     <i type="int" name="NRMM">     4</i>
     <i name="TIME">      0.40000000</i>
    </separator>
   </separator>
   <separator name="electronic mixer" >
    <i name="AMIX">      0.40000000</i>
    <i name="BMIX">      1.00000000</i>
    <i name="AMIN">      0.10000000</i>
    <i name="AMIX_MAG">      1.60000000</i>
    <i name="BMIX_MAG">      1.00000000</i>
    <separator name="electronic mixer details" >
     <i type="int" name="IMIX">     4</i>
     <i type="logical" name="MIXFIRST"> F  </i>
     <i type="int" name="MAXMIX">   -45</i>
     <i name="WC">    100.00000000</i>
     <i type="int" name="INIMIX">     1</i>
     <i type="int" name="MIXPRE">     1</i>
     <i type="int" name="MREMOVE">     5</i>
    </separator>
   </separator>
   <separator name="electronic dipolcorrection" >
    <i type="logical" name="LDIPOL"> F  </i>
    <i type="logical" name="LMONO"> F  </i>
    <i type="int" name="IDIPOL">     0</i>
    <i name="EPSILON">      1.00000000</i>
    <v name="DIPOL">   -100.00000000   -100.00000000   -100.00000000</v>
    <i name="EFIELD">      0.00000000</i>
   </separator>
  </separator>
  <separator name="grids" >
   <i type="int" name="NGX">   112</i>
   <i type="int" name="NGY">   112</i>
   <i type="int" name="NGZ">   120</i>
   <i type="int" name="NGXF">   224</i>
   <i type="int" name="NGYF">   224</i>
   <i type="int" name="NGZF">   240</i>
   <i type="logical" name="ADDGRID"> F  </i>
  </separator>
  <separator name="ionic" >
   <i type="int" name="NSW">  1000</i>
   <i type="int" name="IBRION">     2</i>
   <i type="int" name="MDALGO">     0</i>
   <i type="int" name="ISIF">     0</i>
   <i name="PSTRESS">      0.00000000</i>
   <i name="EDIFFG">      0.00100000</i>
   <i type="int" name="NFREE">     1</i>
   <i name="POTIM">      0.50000000</i>
   <i name="SMASS">     -3.00000000</i>
   <i name="SCALEE">      1.00000000</i>
  </separator>
  <separator name="ionic md" >
   <i name="TEBEG">      0.00010000</i>
   <i name="TEEND">      0.00010000</i>
   <i type="int" name="NBLOCK">     1</i>
   <i type="int" name="KBLOCK">  1000</i>
   <i type="int" name="NPACO">   256</i>
   <i name="APACO">     16.00000000</i>
  </separator>
  <separator name="symmetry" >
   <i type="int" name="ISYM">     0</i>
   <i name="SYMPREC">      0.00001000</i>
  </separator>
  <separator name="dos" >
   <i type="int" name="LORBIT">     0</i>
   <v name="RWIGS">     -1.00000000</v>
   <i type="int" name="NEDOS">   301</i>
   <i name="EMIN">     10.00000000</i>
   <i name="EMAX">    -10.00000000</i>
   <i name="EFERMI">      0.00000000</i>
  </separator>
  <separator name="writing" >
   <i type="int" name="NWRITE">     2</i>
   <i type="logical" name="LWAVE"> F  </i>
   <i type="logical" name="LDOWNSAMPLE"> F  </i>
   <i type="logical" name="LCHARG"> F  </i>
   <i type="logical" name="LPARD"> F  </i>
   <i type="logical" name="LVTOT"> F  </i>
   <i type="logical" name="LVHAR"> F  </i>
   <i type="logical" name="LELF"> F  </i>
   <i type="logical" name="LOPTICS"> F  </i>
   <v name="STM">      0.00000000      0.00000000      0.00000000      0.00000000      0.00000000      0.00000000      0.00000000</v>
  </separator>
  <separator name="performance" >
   <i type="int" name="NPAR">     2</i>
   <i type="int" name="NSIM">     4</i>
   <i type="int" name="NBLK">    -1</i>
   <i type="logical" name="LPLANE"> T  </i>
   <i type="logical" name="LSCALAPACK"> T  </i>
   <i type="logical" name="LSCAAWARE"> F  </i>
   <i type="logical" name="LSCALU"> F  </i>
   <i type="logical" name="LASYNC"> F  </i>
   <i type="logical" name="LORBITALREAL"> F  </i>
  </separator>
  <separator name="miscellaneous" >
   <i type="int" name="IDIOT">     3</i>
   <i type="int" name="PHON_NSTRUCT">    -1</i>
   <i type="logical" name="LMUSIC"> F  </i>
   <v name="POMASS">     63.54600000</v>
   <v name="DARWINR">      0.00000000</v>
   <v name="DARWINV">      1.00000000</v>
   <i type="logical" name="LCORR"> T  </i>
  </separator>
  <i type="logical" name="GGA_COMPAT"> T  </i>
  <i type="logical" name="LBERRY"> F  </i>
  <i type="int" name="ICORELEVEL">     0</i>
  <i type="logical" name="LDAU"> F  </i>
  <i type="int" name="I_CONSTRAINED_M">     0</i>
  <separator name="electronic exchange-correlation" >
   <i type="string" name="GGA">PE</i>
   <i type="int" name="VOSKOWN">     0</i>
   <i type="logical" name="LHFCALC"> F  </i>
   <i type="string" name="PRECFOCK"></i>
   <i type="logical" name="LSYMGRAD"> F  </i>
   <i type="logical" name="LHFONE"> F  </i>
   <i type="logical" name="LRHFCALC"> F  </i>
   <i type="logical" name="LTHOMAS"> F  </i>
   <i type="logical" name="LMODELHF"> F  </i>
   <i type="logical" name="LFOCKACE"> F  </i>
   <i name="ENCUT4O">     -1.00000000</i>
   <i type="int" name="EXXOEP">     0</i>
   <i type="int" name="FOURORBIT">     0</i>
   <i name="AEXX">      0.00000000</i>
   <i name="HFALPHA">      0.00000000</i>
   <i name="MCALPHA">      0.00000000</i>
   <i name="ALDAX">      1.00000000</i>
   <i name="AGGAX">      1.00000000</i>
   <i name="ALDAC">      1.00000000</i>
   <i name="AGGAC">      1.00000000</i>
   <i type="int" name="NKREDX">     1</i>
   <i type="int" name="NKREDY">     1</i>
   <i type="int" name="NKREDZ">     1</i>
   <i type="logical" name="SHIFTRED"> F  </i>
   <i type="logical" name="ODDONLY"> F  </i>
   <i type="logical" name="EVENONLY"> F  </i>
   <i type="int" name="LMAXFOCK">     0</i>
   <i type="int" name="NMAXFOCKAE">     0</i>
   <i type="logical" name="LFOCKAEDFT"> F  </i>
   <i name="HFSCREEN">      0.00000000</i>
   <i name="HFSCREENC">      0.00000000</i>
   <i type="int" name="NBANDSGWLOW">     0</i>
  </separator>
  <separator name="vdW DFT" >
   <i type="logical" name="LUSE_VDW"> F  </i>
   <i name="Zab_VDW">     -0.84910000</i>
   <i name="PARAM1">      0.12340000</i>
   <i name="PARAM2">      1.00000000</i>
   <i name="PARAM3">      0.00000000</i>
  </separator>
  <separator name="model GW" >
   <i type="int" name="MODEL_GW">     0</i>
   <i name="MODEL_EPS0">    565.99441336</i>
   <i name="MODEL_ALPHA">      1.00000000</i>
  </separator>
  <separator name="linear response parameters" >
   <i type="logical" name="LEPSILON"> F  </i>
   <i type="logical" name="LRPA"> F  </i>
   <i type="logical" name="LNABLA"> F  </i>
   <i type="logical" name="LVEL"> F  </i>
   <i type="int" name="KINTER">     0</i>
   <i name="CSHIFT">      0.10000000</i>
   <i name="OMEGAMAX">     -1.00000000</i>
   <i name="DEG_THRESHOLD">      0.00200000</i>
   <i name="RTIME">     -0.10000000</i>
   <i name="WPLASMAI">      0.00000000</i>
   <v name="DFIELD">      0.00000000      0.00000000      0.00000000</v>
   <v name="WPLASMA">      0.00000000      0.00000000      0.00000000      0.00000000      0.00000000      0.00000000      0.00000000      0.00000000      0.00000000</v>
  </separator>
  <separator name="orbital magnetization" >
   <i type="logical" name="NUCIND"> F  </i>
   <v name="MAGPOS">      0.00000000      0.00000000      0.00000000</v>
   <i type="logical" name="LNICSALL"> T  </i>
   <i type="logical" name="ORBITALMAG"> F  </i>
   <i type="logical" name="LMAGBLOCH"> F  </i>
   <i type="logical" name="LCHIMAG"> F  </i>
   <i type="logical" name="LGAUGE"> T  </i>
   <i type="int" name="MAGATOM">     0</i>
   <v name="MAGDIPOL">      0.00000000      0.00000000      0.00000000</v>
   <v name="AVECCONST">      0.00000000      0.00000000      0.00000000</v>
  </separator>
  <separator name="response functions" >
   <i type="logical" name="LFINITE_TEMPERATURE"> F  </i>
   <i type="logical" name="LADDER"> F  </i>
   <i type="logical" name="LRPAFORCE"> F  </i>
   <i type="logical" name="LFXC"> F  </i>
   <i type="logical" name="LHARTREE"> T  </i>
   <i type="int" name="IBSE">     0</i>
   <v type="int" name="KPOINT">    -1     0     0     0</v>
   <i type="logical" name="LTCTC"> F  </i>
   <i type="logical" name="LTCTE"> F  </i>
   <i type="logical" name="LTETE"> F  </i>
   <i type="logical" name="LTRIPLET"> F  </i>
   <i type="logical" name="LFXCEPS"> F  </i>
   <i type="logical" name="LFXHEG"> F  </i>
   <i type="int" name="NATURALO">     2</i>
   <i type="logical" name="LHOLEGF"> F  </i>
   <i type="logical" name="L2ORDER"> F  </i>
   <i type="logical" name="LDMP1"> F  </i>
   <i type="logical" name="LMP2LT"> F  </i>
   <i type="logical" name="LSMP2LT"> F  </i>
   <i type="logical" name="LGWLF"> F  </i>
   <i name="ENCUTGW">     -2.00000000</i>
   <i name="ENCUTGWSOFT">     -2.00000000</i>
   <i name="ENCUTLF">     -1.00000000</i>
   <i type="logical" name="LESF_SPLINES"> F  </i>
   <i type="int" name="LMAXMP2">    -1</i>
   <i name="SCISSOR">      0.00000000</i>
   <i type="int" name="NOMEGA">     0</i>
   <i type="int" name="NOMEGAR">     0</i>
   <i type="int" name="NBANDSGW">    -1</i>
   <i type="int" name="NBANDSO">    -1</i>
   <i type="int" name="NBANDSV">    -1</i>
   <i type="int" name="NELM">     1</i>
   <i type="int" name="NELMHF">     1</i>
   <i type="int" name="DIM">     3</i>
   <i type="int" name="IESPILON">     4</i>
   <i type="int" name="ANTIRES">     0</i>
   <i name="OMEGAMAX">    -30.00000000</i>
   <i name="OMEGAMIN">    -30.00000000</i>
   <i name="OMEGATL">   -200.00000000</i>
   <i type="int" name="OMEGAGRID">     0</i>
   <i name="CSHIFT">     -0.10000000</i>
   <i type="logical" name="LSELFENERGY"> F  </i>
   <i type="logical" name="LSPECTRAL"> F  </i>
   <i type="logical" name="LSPECTRALGW"> F  </i>
   <i type="logical" name="LSINGLES"> F  </i>
   <i type="logical" name="LFERMIGW"> F  </i>
   <i type="logical" name="ODDONLYGW"> F  </i>
   <i type="logical" name="EVENONLYGW"> F  </i>
   <i type="int" name="NKREDLFX">     1</i>
   <i type="int" name="NKREDLFY">     1</i>
   <i type="int" name="NKREDLFZ">     1</i>
   <i type="int" name="MAXMEM">  2800</i>
   <i type="int" name="TELESCOPE">     0</i>
   <i type="int" name="NTAUPAR">    -1</i>
   <i type="int" name="NOMEGAPAR">    -1</i>
   <i name="LAMBDA">      1.00000000</i>
  </separator>
  <separator name="External order field" >
   <i name="OFIELD_KAPPA">      0.00000000</i>
   <v name="OFIELD_K">      0.00000000      0.00000000      0.00000000</v>
   <i name="OFIELD_Q6_NEAR">      0.00000000</i>
   <i name="OFIELD_Q6_FAR">      0.00000000</i>
   <i name="OFIELD_A">      0.00000000</i>
  </separator>
 </parameters>
 <atominfo>
  <atoms>      13 </atoms>
  <types>       1 </types>
  <array name="atoms" >
   <dimension dim="1">ion</dimension>
   <field type="string">element</field>
   <field type="int">atomtype</field>
   <set>
    <rc><c>Cu</c><c>   1</c></rc>
    <rc><c>Cu</c><c>   1</c></rc>
    <rc><c>Cu</c><c>   1</c></rc>
    <rc><c>Cu</c><c>   1</c></rc>
    <rc><c>Cu</c><c>   1</c></rc>
    <rc><c>Cu</c><c>   1</c></rc>
    <rc><c>Cu</c><c>   1</c></rc>
    <rc><c>Cu</c><c>   1</c></rc>
    <rc><c>Cu</c><c>   1</c></rc>
    <rc><c>Cu</c><c>   1</c></rc>
    <rc><c>Cu</c><c>   1</c></rc>
    <rc><c>Cu</c><c>   1</c></rc>
    <rc><c>Cu</c><c>   1</c></rc>
   </set>
  </array>
  <array name="atomtypes" >
   <dimension dim="1">type</dimension>
   <field type="int">atomspertype</field>
   <field type="string">element</field>
   <field>mass</field>
   <field>valence</field>
   <field type="string">pseudopotential</field>
   <set>
    <rc><c>  13</c><c>Cu</c><c>     63.54600000</c><c>     11.00000000</c><c>  PAW_PBE Cu 22Jun2005                  </c></rc>
   </set>
  </array>
 </atominfo>
 <structure name="initialpos" >
  <crystal>
   <varray name="basis" >
    <v>      22.64001728       0.00000000       0.00000000 </v>
    <v>       0.00000000      22.71756026       0.00000000 </v>
    <v>       0.00000000       0.00000000      23.84326928 </v>
   </varray>
   <i name="volume">  12263.21228937 </i>
   <varray name="rec_basis" >
    <v>       0.04416958       0.00000000       0.00000000 </v>
    <v>       0.00000000       0.04401881       0.00000000 </v>
    <v>       0.00000000       0.00000000       0.04194056 </v>
   </varray>
  </crystal>
  <varray name="positions" >
   <v>       0.42516483       0.54700097       0.57255198 </v>
   <v>       0.51950235       0.56143615       0.61504906 </v>
   <v>       0.51543758       0.47972938       0.54803727 </v>
   <v>       0.46440791       0.47134268       0.63552686 </v>
   <v>       0.50793260       0.58181488       0.51471691 </v>
   <v>       0.41604745       0.44195029       0.54968794 </v>
   <v>       0.43099878       0.51703085       0.47491527 </v>
   <v>       0.48082012       0.42041943       0.46793746 </v>
   <v>       0.49006763       0.58040378       0.41149717 </v>
   <v>       0.54875399       0.50375776       0.45403805 </v>
   <v>       0.46258698       0.48022296       0.38381923 </v>
   <v>       0.54932602       0.42073066       0.38833289 </v>
   <v>       0.55783669       0.52242103       0.35577281 </v>
  </varray>
 </structure>
 <calculation>
  <scstep>
   <time name="dav">   20.65   22.06</time>
   <time name="total">   22.59   24.01</time>
   <energy>
    <i name="alphaZ">     10.07847172 </i>
    <i name="ewald">  24019.45884964 </i>
    <i name="hartreedc"> -40477.92045497 </i>
    <i name="XCdc">    584.87615386 </i>
    <i name="pawpsdc">  15965.26744864 </i>
    <i name="pawaedc"> -17340.97210982 </i>
    <i name="eentropy">     -0.02984357 </i>
    <i name="bandstr">    136.94144039 </i>
    <i name="atom">  18082.44932260 </i>
    <i name="e_fr_energy">    980.14927848 </i>
    <i name="e_wo_entrp">    980.17912205 </i>
    <i name="e_0_energy">    980.15922634 </i>
   </energy>
  </scstep>
  <scstep>
   <time name="dav">   13.07   13.52</time>
   <time name="total">   13.08   13.53</time>
   <energy>
    <i name="e_fr_energy">    232.82425507 </i>
    <i name="e_wo_entrp">    232.78340791 </i>
    <i name="e_0_energy">    232.81063935 </i>
   </energy>
  </scstep>
  <scstep>
   <time name="dav">    9.89    9.91</time>
   <time name="total">    9.90    9.91</time>
   <energy>
    <i name="e_fr_energy">      5.44778206 </i>
    <i name="e_wo_entrp">      5.42894825 </i>
    <i name="e_0_energy">      5.44150413 </i>
   </energy>
  </scstep>
  <scstep>
   <time name="dav">   12.86   13.01</time>
   <time name="total">   12.87   13.02</time>
   <energy>
    <i name="e_fr_energy">    -35.36651725 </i>
    <i name="e_wo_entrp">    -35.39850124 </i>
    <i name="e_0_energy">    -35.37717858 </i>
   </energy>
  </scstep>
  <scstep>
   <time name="dav">   10.71   10.72</time>
   <time name="total">   13.10   13.12</time>
   <energy>
    <i name="e_fr_energy">    -37.20945109 </i>
    <i name="e_wo_entrp">    -37.25323984 </i>
    <i name="e_0_energy">    -37.22404734 </i>
   </energy>
  </scstep>
  <scstep>
   <time name="dav">   11.45   11.46</time>
   <time name="total">   17.03   17.25</time>
   <energy>
    <i name="e_fr_energy">    -14.31462447 </i>
    <i name="e_wo_entrp">    -14.31372643 </i>
    <i name="e_0_energy">    -14.31432513 </i>
   </energy>
  </scstep>
  <scstep>
   <time name="dav">   15.18   17.85</time>
   <time name="total">   19.31   22.29</time>
   <energy>
    <i name="e_fr_energy">    -11.02041344 </i>
    <i name="e_wo_entrp">    -10.99813818 </i>
    <i name="e_0_energy">    -11.01298835 </i>
   </energy>
  </scstep>
  <scstep>
   <time name="dav">   14.15   14.17</time>
   <time name="total">   21.30   22.36</time>
   <energy>
    <i name="e_fr_energy">    -10.59454157 </i>
    <i name="e_wo_entrp">    -10.57056598 </i>
    <i name="e_0_energy">    -10.58654971 </i>
   </energy>
  </scstep>
  <scstep>
   <time name="dav">   10.43   10.44</time>
   <time name="total">   13.84   14.00</time>
   <energy>
    <i name="e_fr_energy">    -11.75583704 </i>
    <i name="e_wo_entrp">    -11.72991876 </i>
    <i name="e_0_energy">    -11.74719761 </i>
   </energy>
  </scstep>
  <scstep>
   <time name="dav">   10.78   10.94</time>
   <time name="total">   13.42   13.59</time>
   <energy>
    <i name="e_fr_energy">    -18.09608398 </i>
    <i name="e_wo_entrp">    -18.04742063 </i>
    <i name="e_0_energy">    -18.07986286 </i>
   </energy>
  </scstep>
  <scstep>
   <time name="dav">   10.87   10.89</time>
   <time name="total">   13.44   13.47</time>
   <energy>
    <i name="e_fr_energy">    -18.85762691 </i>
    <i name="e_wo_entrp">    -18.83157753 </i>
    <i name="e_0_energy">    -18.84894378 </i>
   </energy>
  </scstep>
  <scstep>
   <time name="dav">   10.41   10.44</time>
   <time name="total">   13.09   13.12</time>
   <energy>
    <i name="e_fr_energy">    -19.15744340 </i>
    <i name="e_wo_entrp">    -19.14126679 </i>
    <i name="e_0_energy">    -19.15205120 </i>
   </energy>
  </scstep>
  <scstep>
   <time name="dav">   16.06   16.08</time>
   <time name="total">   18.75   18.78</time>
   <energy>
    <i name="e_fr_energy">    -23.03854036 </i>
    <i name="e_wo_entrp">    -23.07134205 </i>
    <i name="e_0_energy">    -23.04947426 </i>
   </energy>
  </scstep>
  <scstep>
   <time name="dav">   17.50   17.67</time>
   <time name="total">   20.08   20.27</time>
   <energy>
    <i name="e_fr_energy">    -26.26180444 </i>
    <i name="e_wo_entrp">    -26.29229739 </i>
    <i name="e_0_energy">    -26.27196875 </i>
   </energy>
  </scstep>
  <scstep>
   <time name="dav">   10.55   10.57</time>
   <time name="total">   13.31   13.33</time>
   <energy>
    <i name="e_fr_energy">    -28.47980373 </i>
    <i name="e_wo_entrp">    -28.51199525 </i>
    <i name="e_0_energy">    -28.49053424 </i>
   </energy>
  </scstep>
  <scstep>
   <time name="dav">   29.55   33.63</time>
   <time name="total">   34.07   38.28</time>
   <energy>
    <i name="e_fr_energy">    -29.95085789 </i>
    <i name="e_wo_entrp">    -29.98183871 </i>
    <i name="e_0_energy">    -29.96118483 </i>
   </energy>
  </scstep>
  <scstep>
   <time name="dav">   13.11   13.60</time>
   <time name="total">   18.64   19.71</time>
   <energy>
    <i name="e_fr_energy">    -31.18563433 </i>
    <i name="e_wo_entrp">    -31.20276347 </i>
    <i name="e_0_energy">    -31.19134405 </i>
   </energy>
  </scstep>
  <scstep>
   <time name="dav">   11.14   11.15</time>
   <time name="total">   13.75   13.78</time>
   <energy>
    <i name="e_fr_energy">    -31.80642579 </i>
    <i name="e_wo_entrp">    -31.80742714 </i>
    <i name="e_0_energy">    -31.80675958 </i>
   </energy>
  </scstep>
  <scstep>
   <time name="dav">   11.26   11.27</time>
   <time name="total">   13.91   13.93</time>
   <energy>
    <i name="e_fr_energy">    -32.08812045 </i>
    <i name="e_wo_entrp">    -32.07999090 </i>
    <i name="e_0_energy">    -32.08541060 </i>
   </energy>
  </scstep>
  <scstep>
   <time name="dav">   12.11   12.12</time>
   <time name="total">   14.86   14.89</time>
   <energy>
    <i name="e_fr_energy">    -32.49707282 </i>
    <i name="e_wo_entrp">    -32.47738886 </i>
    <i name="e_0_energy">    -32.49051150 </i>
   </energy>
  </scstep>
  <scstep>
   <time name="dav">   11.98   12.00</time>
   <time name="total">   14.76   14.79</time>
   <energy>
    <i name="e_fr_energy">    -32.75844127 </i>
    <i name="e_wo_entrp">    -32.73239968 </i>
    <i name="e_0_energy">    -32.74976074 </i>
   </energy>
  </scstep>
  <scstep>
   <time name="dav">   24.81   27.02</time>
   <time name="total">   28.95   31.65</time>
   <energy>
    <i name="e_fr_energy">    -32.87513253 </i>
    <i name="e_wo_entrp">    -32.84542144 </i>
    <i name="e_0_energy">    -32.86522883 </i>
   </energy>
  </scstep>
  <scstep>
   <time name="dav">   10.97   11.12</time>
   <time name="total">   17.78   20.81</time>
   <energy>
    <i name="e_fr_energy">    -32.91792857 </i>
    <i name="e_wo_entrp">    -32.88624390 </i>
    <i name="e_0_energy">    -32.90736701 </i>
   </energy>
  </scstep>
  <scstep>
   <time name="dav">    9.91    9.93</time>
   <time name="total">   13.87   13.90</time>
   <energy>
    <i name="e_fr_energy">    -32.94746010 </i>
    <i name="e_wo_entrp">    -32.91380939 </i>
    <i name="e_0_energy">    -32.93624320 </i>
   </energy>
  </scstep>
  <scstep>
   <time name="dav">   12.90   14.85</time>
   <time name="total">   15.69   17.65</time>
   <energy>
    <i name="e_fr_energy">    -32.95723491 </i>
    <i name="e_wo_entrp">    -32.92260156 </i>
    <i name="e_0_energy">    -32.94569046 </i>
   </energy>
  </scstep>
  <scstep>
   <time name="dav">    7.19    7.20</time>
   <time name="total">    9.84    9.85</time>
   <energy>
    <i name="e_fr_energy">    -32.96259106 </i>
    <i name="e_wo_entrp">    -32.92737999 </i>
    <i name="e_0_energy">    -32.95085404 </i>
   </energy>
  </scstep>
  <scstep>
   <time name="dav">    7.36    7.37</time>
   <time name="total">   10.49   11.08</time>
   <energy>
    <i name="e_fr_energy">    -32.96688893 </i>
    <i name="e_wo_entrp">    -32.93110536 </i>
    <i name="e_0_energy">    -32.95496107 </i>
   </energy>
  </scstep>
  <scstep>
   <time name="dav">   12.69   13.67</time>
   <time name="total">   15.38   16.37</time>
   <energy>
    <i name="e_fr_energy">    -32.96855130 </i>
    <i name="e_wo_entrp">    -32.93249081 </i>
    <i name="e_0_energy">    -32.95653113 </i>
   </energy>
  </scstep>
  <scstep>
   <time name="dav">    6.13    6.14</time>
   <time name="total">    8.84    8.85</time>
   <energy>
    <i name="e_fr_energy">    -32.97008332 </i>
    <i name="e_wo_entrp">    -32.93382870 </i>
    <i name="e_0_energy">    -32.95799845 </i>
   </energy>
  </scstep>
  <scstep>
   <time name="dav">    7.35    7.36</time>
   <time name="total">   11.64   11.65</time>
   <energy>
    <i name="e_fr_energy">    -32.97170367 </i>
    <i name="e_wo_entrp">    -32.93533511 </i>
    <i name="e_0_energy">    -32.95958082 </i>
   </energy>
  </scstep>
  <scstep>
   <time name="dav">    6.61    6.62</time>
   <time name="total">    9.34    9.36</time>
   <energy>
    <i name="e_fr_energy">    -32.97277025 </i>
    <i name="e_wo_entrp">    -32.93637021 </i>
    <i name="e_0_energy">    -32.96063690 </i>
   </energy>
  </scstep>
  <scstep>
   <time name="dav">    6.37    6.38</time>
   <time name="total">    9.11    9.13</time>
   <energy>
    <i name="e_fr_energy">    -32.97349193 </i>
    <i name="e_wo_entrp">    -32.93706741 </i>
    <i name="e_0_energy">    -32.96135042 </i>
   </energy>
  </scstep>
  <scstep>
   <time name="dav">    9.01    9.02</time>
   <time name="total">   11.87   11.88</time>
   <energy>
    <i name="e_fr_energy">    -32.97379130 </i>
    <i name="e_wo_entrp">    -32.93734834 </i>
    <i name="e_0_energy">    -32.96164364 </i>
   </energy>
  </scstep>
  <scstep>
   <time name="dav">    6.14    6.15</time>
   <time name="total">    9.02    9.03</time>
   <energy>
    <i name="e_fr_energy">    -32.97393993 </i>
    <i name="e_wo_entrp">    -32.93748194 </i>
    <i name="e_0_energy">    -32.96178727 </i>
   </energy>
  </scstep>
  <scstep>
   <time name="dav">    6.43    6.44</time>
   <time name="total">    9.30    9.31</time>
   <energy>
    <i name="e_fr_energy">    -32.97407427 </i>
    <i name="e_wo_entrp">    -32.93760339 </i>
    <i name="e_0_energy">    -32.96191731 </i>
   </energy>
  </scstep>
  <scstep>
   <time name="dav">   10.82   11.11</time>
   <time name="total">   13.37   13.83</time>
   <energy>
    <i name="alphaZ">     10.07847172 </i>
    <i name="ewald">  24019.45884964 </i>
    <i name="hartreedc"> -40434.93483914 </i>
    <i name="XCdc">    574.78862450 </i>
    <i name="pawpsdc">  16761.59207110 </i>
    <i name="pawaedc"> -18156.43899316 </i>
    <i name="eentropy">     -0.03647801 </i>
    <i name="bandstr">   -889.93118742 </i>
    <i name="atom">  18082.44932260 </i>
    <i name="e_fr_energy">    -32.97415817 </i>
    <i name="e_wo_entrp">    -32.93768016 </i>
    <i name="e_0_energy">    -32.96199883 </i>
   </energy>
  </scstep>
  <structure>
   <crystal>
    <varray name="basis" >
     <v>      22.64001728       0.00000000       0.00000000 </v>
     <v>       0.00000000      22.71756026       0.00000000 </v>
     <v>       0.00000000       0.00000000      23.84326928 </v>
    </varray>
    <i name="volume">  12263.21228937 </i>
    <varray name="rec_basis" >
     <v>       0.04416958       0.00000000       0.00000000 </v>
     <v>       0.00000000       0.04401881       0.00000000 </v>
     <v>       0.00000000       0.00000000       0.04194056 </v>
    </varray>
   </crystal>
   <varray name="positions" >
    <v>       0.42516483       0.54700097       0.57255198 </v>
    <v>       0.51950235       0.56143615       0.61504906 </v>
    <v>       0.51543758       0.47972938       0.54803727 </v>
    <v>       0.46440791       0.47134268       0.63552686 </v>
    <v>       0.50793260       0.58181488       0.51471691 </v>
    <v>       0.41604745       0.44195029       0.54968794 </v>
    <v>       0.43099878       0.51703085       0.47491527 </v>
    <v>       0.48082012       0.42041943       0.46793746 </v>
    <v>       0.49006763       0.58040378       0.41149717 </v>
    <v>       0.54875399       0.50375776       0.45403805 </v>
    <v>       0.46258698       0.48022296       0.38381923 </v>
    <v>       0.54932602       0.42073066       0.38833289 </v>
    <v>       0.55783669       0.52242103       0.35577281 </v>
   </varray>
  </structure>
  <varray name="forces" >
   <v>      -0.01330415      -0.00634800      -0.00984419 </v>
   <v>      -0.01180668       0.01809899       0.01831082 </v>
   <v>       0.00616530      -0.00010694       0.01864767 </v>
   <v>      -0.00055813       0.00269298       0.01297863 </v>
   <v>       0.01948017       0.00362997      -0.02562071 </v>
   <v>      -0.03221951      -0.00475677      -0.00968542 </v>
   <v>       0.00362787      -0.01636053      -0.00304500 </v>
   <v>       0.01283318      -0.01349612       0.00088649 </v>
   <v>       0.03552929       0.01934515       0.01944399 </v>
   <v>      -0.00563593       0.01398591      -0.00811606 </v>
   <v>       0.00096241       0.00590445       0.02330962 </v>
   <v>      -0.00879001      -0.02477605      -0.02491218 </v>
   <v>      -0.00628381       0.00218698      -0.01235366 </v>
  </varray>
  <energy>
   <i name="e_fr_energy">    -32.97415817 </i>
   <i name="e_wo_entrp">    -32.93768016 </i>
   <i name="e_0_energy">    -32.96199883 </i>
  </energy>
  <time name="totalsc">  548.15  570.37</time>
 </calculation>
 <calculation>
  <scstep>
   <time name="dav">    8.30    8.32</time>
   <time name="total">   10.93   10.96</time>
   <energy>
    <i name="alphaZ">     10.07847172 </i>
    <i name="ewald">  24013.74584389 </i>
    <i name="hartreedc"> -40429.27923492 </i>
    <i name="XCdc">    574.77912504 </i>
    <i name="pawpsdc">  16761.62090930 </i>
    <i name="pawaedc"> -18156.46892471 </i>
    <i name="eentropy">     -0.03653989 </i>
    <i name="bandstr">   -889.86342235 </i>
    <i name="atom">  18082.44932260 </i>
    <i name="e_fr_energy">    -32.97444932 </i>
    <i name="e_wo_entrp">    -32.93790943 </i>
    <i name="e_0_energy">    -32.96226936 </i>
   </energy>
  </scstep>
  <scstep>
   <time name="dav">   10.75   10.78</time>
   <time name="total">   13.88   14.34</time>
   <energy>
    <i name="e_fr_energy">    -32.97469388 </i>
    <i name="e_wo_entrp">    -32.93814619 </i>
    <i name="e_0_energy">    -32.96251131 </i>
   </energy>
  </scstep>
  <scstep>
   <time name="dav">    7.11    8.00</time>
   <time name="total">    9.81   11.11</time>
   <energy>
    <i name="alphaZ">     10.07847172 </i>
    <i name="ewald">  24013.74584389 </i>
    <i name="hartreedc"> -40429.32301625 </i>
    <i name="XCdc">    574.78107843 </i>
    <i name="pawpsdc">  16761.04414631 </i>
    <i name="pawaedc"> -18155.87659142 </i>
    <i name="eentropy">     -0.03655895 </i>
    <i name="bandstr">   -889.83740294 </i>
    <i name="atom">  18082.44932260 </i>
    <i name="e_fr_energy">    -32.97470660 </i>
    <i name="e_wo_entrp">    -32.93814765 </i>
    <i name="e_0_energy">    -32.96252028 </i>
   </energy>
  </scstep>
  <structure>
   <crystal>
    <varray name="basis" >
     <v>      22.64001728       0.00000000       0.00000000 </v>
     <v>       0.00000000      22.71756026       0.00000000 </v>
     <v>       0.00000000       0.00000000      23.84326928 </v>
    </varray>
    <i name="volume">  12263.21228937 </i>
    <varray name="rec_basis" >
     <v>       0.04416958       0.00000000       0.00000000 </v>
     <v>       0.00000000       0.04401881       0.00000000 </v>
     <v>       0.00000000       0.00000000       0.04194056 </v>
    </varray>
   </crystal>
   <varray name="positions" >
    <v>       0.42513648       0.54698749       0.57253206 </v>
    <v>       0.51947719       0.56147459       0.61508611 </v>
    <v>       0.51545072       0.47972915       0.54807500 </v>
    <v>       0.46440672       0.47134840       0.63555312 </v>
    <v>       0.50797411       0.58182259       0.51466507 </v>
    <v>       0.41597880       0.44194019       0.54966834 </v>
    <v>       0.43100651       0.51699611       0.47490910 </v>
    <v>       0.48084746       0.42039077       0.46793925 </v>
    <v>       0.49014334       0.58044486       0.41153651 </v>
    <v>       0.54874198       0.50378746       0.45402163 </v>
    <v>       0.46258903       0.48023550       0.38386639 </v>
    <v>       0.54930729       0.42067805       0.38828249 </v>
    <v>       0.55782330       0.52242568       0.35574781 </v>
   </varray>
  </structure>
  <varray name="forces" >
   <v>      -0.00224726      -0.00534540      -0.00862827 </v>
   <v>      -0.01472189       0.01226208       0.00697299 </v>
   <v>      -0.00219456       0.00176345       0.00980695 </v>
   <v>      -0.00318807       0.00299736       0.00362034 </v>
   <v>       0.01044855      -0.00018844      -0.00486858 </v>
   <v>      -0.01465049      -0.00015911      -0.00365121 </v>
   <v>       0.00486497      -0.00854249       0.00042767 </v>
   <v>       0.01199292      -0.00728647       0.00460641 </v>
   <v>       0.02128083       0.01521635       0.00875189 </v>
   <v>      -0.00118244      -0.00256959      -0.00582817 </v>
   <v>       0.00331372       0.00581454       0.01396364 </v>
   <v>      -0.00783907      -0.01156623      -0.01687129 </v>
   <v>      -0.00587720      -0.00239605      -0.00830239 </v>
  </varray>
  <energy>
   <i name="e_fr_energy">    -32.97470660 </i>
   <i name="e_wo_entrp">    -32.93814765 </i>
   <i name="e_0_energy">    -32.96252028 </i>
  </energy>
  <time name="totalsc">   42.86   44.69</time>
 </calculation>
 <calculation>
  <scstep>
   <time name="dav">    9.21    9.22</time>
   <time name="total">   11.76   11.78</time>
   <energy>
    <i name="alphaZ">     10.07847172 </i>
    <i name="ewald">  24007.49512663 </i>
    <i name="hartreedc"> -40423.15068817 </i>
    <i name="XCdc">    574.77146227 </i>
    <i name="pawpsdc">  16760.96416298 </i>
    <i name="pawaedc"> -18155.79881592 </i>
    <i name="eentropy">     -0.03661778 </i>
    <i name="bandstr">   -889.74719684 </i>
    <i name="atom">  18082.44932260 </i>
    <i name="e_fr_energy">    -32.97477252 </i>
    <i name="e_wo_entrp">    -32.93815474 </i>
    <i name="e_0_energy">    -32.96256659 </i>
   </energy>
  </scstep>
  <scstep>
   <time name="dav">   10.72   10.73</time>
   <time name="total">   13.66   13.79</time>
   <energy>
    <i name="e_fr_energy">    -32.97504230 </i>
    <i name="e_wo_entrp">    -32.93841290 </i>
    <i name="e_0_energy">    -32.96283250 </i>
   </energy>
  </scstep>
  <scstep>
   <time name="dav">    6.44    6.45</time>
   <time name="total">    8.29    8.30</time>
   <energy>
    <i name="alphaZ">     10.07847172 </i>
    <i name="ewald">  24007.49512663 </i>
    <i name="hartreedc"> -40423.20671513 </i>
    <i name="XCdc">    574.77407920 </i>
    <i name="pawpsdc">  16760.08431304 </i>
    <i name="pawaedc"> -18154.90065616 </i>
    <i name="eentropy">     -0.03663882 </i>
    <i name="bandstr">   -889.71234656 </i>
    <i name="atom">  18082.44932260 </i>
    <i name="e_fr_energy">    -32.97504350 </i>
    <i name="e_wo_entrp">    -32.93840467 </i>
    <i name="e_0_energy">    -32.96283055 </i>
   </energy>
  </scstep>
  <structure>
   <crystal>
    <varray name="basis" >
     <v>      22.64001728       0.00000000       0.00000000 </v>
     <v>       0.00000000      22.71756026       0.00000000 </v>
     <v>       0.00000000       0.00000000      23.84326928 </v>
    </varray>
    <i name="volume">  12263.21228937 </i>
    <varray name="rec_basis" >
     <v>       0.04416958       0.00000000       0.00000000 </v>
     <v>       0.00000000       0.04401881       0.00000000 </v>
     <v>       0.00000000       0.00000000       0.04194056 </v>
    </varray>
   </crystal>
   <varray name="positions" >
    <v>       0.42510546       0.54697274       0.57251027 </v>
    <v>       0.51944966       0.56151664       0.61512665 </v>
    <v>       0.51546509       0.47972891       0.54811628 </v>
    <v>       0.46440542       0.47135466       0.63558185 </v>
    <v>       0.50801953       0.58183103       0.51460835 </v>
    <v>       0.41590368       0.44192914       0.54964690 </v>
    <v>       0.43101497       0.51695810       0.47490236 </v>
    <v>       0.48087739       0.42035941       0.46794121 </v>
    <v>       0.49022618       0.58048981       0.41157956 </v>
    <v>       0.54872884       0.50381995       0.45400366 </v>
    <v>       0.46259127       0.48024922       0.38391800 </v>
    <v>       0.54928680       0.42062048       0.38822733 </v>
    <v>       0.55780865       0.52243076       0.35572046 </v>
   </varray>
  </structure>
  <varray name="forces" >
   <v>       0.00635922      -0.00561258      -0.00911029 </v>
   <v>      -0.02015623       0.00964212      -0.00108626 </v>
   <v>      -0.00911852       0.00328132       0.00432630 </v>
   <v>      -0.00582282       0.00408114      -0.00358328 </v>
   <v>       0.00506812      -0.00415575       0.01069308 </v>
   <v>      -0.00238638       0.00434655       0.00065037 </v>
   <v>       0.00625790      -0.00403473       0.00385787 </v>
   <v>       0.01342128      -0.00340710       0.00867020 </v>
   <v>       0.01421438       0.01385436       0.00245873 </v>
   <v>       0.00222513      -0.01623689      -0.00468491 </v>
   <v>       0.00589974       0.00685360       0.00837602 </v>
   <v>      -0.00945027      -0.00246406      -0.01357445 </v>
   <v>      -0.00651154      -0.00614799      -0.00699339 </v>
  </varray>
  <energy>
   <i name="e_fr_energy">    -32.97504350 </i>
   <i name="e_wo_entrp">    -32.93840467 </i>
   <i name="e_0_energy">    -32.96283055 </i>
  </energy>
  <time name="totalsc">   42.53   43.31</time>
  <eigenvalues>
   <array>
    <dimension dim="1">band</dimension>
    <dimension dim="2">kpoint</dimension>
    <dimension dim="3">spin</dimension>
    <field>eigene</field>
    <field>occ</field>
    <set>
     <set comment="spin 1">
      <set comment="kpoint 1">
       <r>  -10.5279    1.0000 </r>
       <r>   -9.3335    1.0000 </r>
       <r>   -8.2924    1.0000 </r>
       <r>   -8.2329    1.0000 </r>
       <r>   -7.9336    1.0000 </r>
       <r>   -7.7508    1.0000 </r>
       <r>   -7.6376    1.0000 </r>
       <r>   -7.5283    1.0000 </r>
       <r>   -7.5155    1.0000 </r>
       <r>   -7.2314    1.0000 </r>
       <r>   -7.2256    1.0000 </r>
       <r>   -7.1687    1.0000 </r>
       <r>   -7.0394    1.0000 </r>
       <r>   -7.0055    1.0000 </r>
       <r>   -6.9407    1.0000 </r>
       <r>   -6.8799    1.0000 </r>
       <r>   -6.8634    1.0000 </r>
       <r>   -6.8376    1.0000 </r>
       <r>   -6.8067    1.0000 </r>
       <r>   -6.7460    1.0000 </r>
       <r>   -6.7429    1.0000 </r>
       <r>   -6.6639    1.0000 </r>
       <r>   -6.6481    1.0000 </r>
       <r>   -6.5820    1.0000 </r>
       <r>   -6.5223    1.0000 </r>
       <r>   -6.5162    1.0000 </r>
       <r>   -6.4422    1.0000 </r>
       <r>   -6.2823    1.0000 </r>
       <r>   -6.1992    1.0000 </r>
       <r>   -6.1866    1.0000 </r>
       <r>   -6.0851    1.0000 </r>
       <r>   -6.0832    1.0000 </r>
       <r>   -6.0486    1.0000 </r>
       <r>   -6.0001    1.0000 </r>
       <r>   -5.9850    1.0000 </r>
       <r>   -5.9268    1.0000 </r>
       <r>   -5.8500    1.0000 </r>
       <r>   -5.8364    1.0000 </r>
       <r>   -5.8103    1.0000 </r>
       <r>   -5.7891    1.0000 </r>
       <r>   -5.7644    1.0000 </r>
       <r>   -5.7563    1.0000 </r>
       <r>   -5.7507    1.0000 </r>
       <r>   -5.7326    1.0000 </r>
       <r>   -5.6982    1.0000 </r>
       <r>   -5.6687    1.0000 </r>
       <r>   -5.6630    1.0000 </r>
       <r>   -5.6137    1.0000 </r>
       <r>   -5.5928    1.0000 </r>
       <r>   -5.5621    1.0000 </r>
       <r>   -5.5443    1.0000 </r>
       <r>   -5.5152    1.0000 </r>
       <r>   -5.5095    1.0000 </r>
       <r>   -5.4800    1.0000 </r>
       <r>   -5.4666    1.0000 </r>
       <r>   -5.4010    1.0000 </r>
       <r>   -5.3845    1.0000 </r>
       <r>   -5.3831    1.0000 </r>
       <r>   -5.3343    1.0000 </r>
       <r>   -5.3294    1.0000 </r>
       <r>   -5.3168    1.0000 </r>
       <r>   -5.2798    1.0000 </r>
       <r>   -5.2608    1.0000 </r>
       <r>   -5.2411    1.0000 </r>
       <r>   -5.2196    1.0000 </r>
       <r>   -5.2172    1.0000 </r>
       <r>   -5.1610    1.0000 </r>
       <r>   -5.1476    1.0000 </r>
       <r>   -5.0267    1.0000 </r>
       <r>   -4.7760    1.0000 </r>
       <r>   -4.3525    1.0256 </r>
       <r>   -4.0389    0.4817 </r>
       <r>   -3.3554   -0.0000 </r>
       <r>   -3.2051   -0.0000 </r>
       <r>   -2.8078   -0.0000 </r>
       <r>   -2.5125   -0.0000 </r>
       <r>   -2.3646   -0.0000 </r>
       <r>   -1.9761   -0.0000 </r>
       <r>   -1.7726   -0.0000 </r>
       <r>   -1.5005   -0.0000 </r>
       <r>   -1.2204   -0.0000 </r>
       <r>   -1.1202   -0.0000 </r>
       <r>   -0.8504   -0.0000 </r>
       <r>   -0.8219   -0.0000 </r>
       <r>   -0.3756   -0.0000 </r>
       <r>   -0.2984   -0.0000 </r>
       <r>   -0.0715   -0.0000 </r>
       <r>    0.0648   -0.0000 </r>
       <r>    0.2330   -0.0000 </r>
       <r>    0.2807   -0.0000 </r>
       <r>    0.3162   -0.0000 </r>
       <r>    0.3619   -0.0000 </r>
      </set>
     </set>
     <set comment="spin 2">
      <set comment="kpoint 1">
       <r>  -10.5272    1.0000 </r>
       <r>   -9.3328    1.0000 </r>
       <r>   -8.2921    1.0000 </r>
       <r>   -8.2323    1.0000 </r>
       <r>   -7.9328    1.0000 </r>
       <r>   -7.7504    1.0000 </r>
       <r>   -7.6369    1.0000 </r>
       <r>   -7.5279    1.0000 </r>
       <r>   -7.5151    1.0000 </r>
       <r>   -7.2310    1.0000 </r>
       <r>   -7.2250    1.0000 </r>
       <r>   -7.1681    1.0000 </r>
       <r>   -7.0389    1.0000 </r>
       <r>   -7.0049    1.0000 </r>
       <r>   -6.9402    1.0000 </r>
       <r>   -6.8796    1.0000 </r>
       <r>   -6.8629    1.0000 </r>
       <r>   -6.8370    1.0000 </r>
       <r>   -6.8062    1.0000 </r>
       <r>   -6.7456    1.0000 </r>
       <r>   -6.7422    1.0000 </r>
       <r>   -6.6635    1.0000 </r>
       <r>   -6.6475    1.0000 </r>
       <r>   -6.5815    1.0000 </r>
       <r>   -6.5219    1.0000 </r>
       <r>   -6.5155    1.0000 </r>
       <r>   -6.4418    1.0000 </r>
       <r>   -6.2819    1.0000 </r>
       <r>   -6.1988    1.0000 </r>
       <r>   -6.1861    1.0000 </r>
       <r>   -6.0846    1.0000 </r>
       <r>   -6.0827    1.0000 </r>
       <r>   -6.0482    1.0000 </r>
       <r>   -5.9996    1.0000 </r>
       <r>   -5.9845    1.0000 </r>
       <r>   -5.9265    1.0000 </r>
       <r>   -5.8496    1.0000 </r>
       <r>   -5.8360    1.0000 </r>
       <r>   -5.8097    1.0000 </r>
       <r>   -5.7888    1.0000 </r>
       <r>   -5.7640    1.0000 </r>
       <r>   -5.7558    1.0000 </r>
       <r>   -5.7503    1.0000 </r>
       <r>   -5.7322    1.0000 </r>
       <r>   -5.6978    1.0000 </r>
       <r>   -5.6683    1.0000 </r>
       <r>   -5.6626    1.0000 </r>
       <r>   -5.6133    1.0000 </r>
       <r>   -5.5924    1.0000 </r>
       <r>   -5.5616    1.0000 </r>
       <r>   -5.5438    1.0000 </r>
       <r>   -5.5147    1.0000 </r>
       <r>   -5.5091    1.0000 </r>
       <r>   -5.4796    1.0000 </r>
       <r>   -5.4662    1.0000 </r>
       <r>   -5.4005    1.0000 </r>
       <r>   -5.3841    1.0000 </r>
       <r>   -5.3827    1.0000 </r>
       <r>   -5.3338    1.0000 </r>
       <r>   -5.3291    1.0000 </r>
       <r>   -5.3161    1.0000 </r>
       <r>   -5.2794    1.0000 </r>
       <r>   -5.2603    1.0000 </r>
       <r>   -5.2407    1.0000 </r>
       <r>   -5.2190    1.0000 </r>
       <r>   -5.2168    1.0000 </r>
       <r>   -5.1606    1.0000 </r>
       <r>   -5.1472    1.0000 </r>
       <r>   -5.0254    1.0000 </r>
       <r>   -4.7752    1.0000 </r>
       <r>   -4.3516    1.0258 </r>
       <r>   -4.0354    0.4670 </r>
       <r>   -3.3543   -0.0000 </r>
       <r>   -3.2048   -0.0000 </r>
       <r>   -2.8062   -0.0000 </r>
       <r>   -2.5115   -0.0000 </r>
       <r>   -2.3619   -0.0000 </r>
       <r>   -1.9738   -0.0000 </r>
       <r>   -1.7718   -0.0000 </r>
       <r>   -1.4975   -0.0000 </r>
       <r>   -1.2174   -0.0000 </r>
       <r>   -1.1156   -0.0000 </r>
       <r>   -0.8522   -0.0000 </r>
       <r>   -0.8200   -0.0000 </r>
       <r>   -0.3754   -0.0000 </r>
       <r>   -0.2920   -0.0000 </r>
       <r>   -0.0649   -0.0000 </r>
       <r>    0.0639   -0.0000 </r>
       <r>    0.2284   -0.0000 </r>
       <r>    0.2868   -0.0000 </r>
       <r>    0.3364   -0.0000 </r>
       <r>    0.3581   -0.0000 </r>
      </set>
     </set>
    </set>
   </array>
  </eigenvalues>
  <separator name="orbital magnetization" >
   <v name="MAGDIPOLOUT">      0.00000000      0.00000000      0.00000000</v>
  </separator>
  <dos>
   <i name="efermi">     -4.04324142 </i>
   <total>
    <array>
     <dimension dim="1">gridpoints</dimension>
     <dimension dim="2">spin</dimension>
     <field>energy</field>
     <field>total</field>
     <field>integrated</field>
     <set>
      <set comment="spin 1">
       <r>   -12.5279     0.0000     0.0000 </r>
       <r>   -12.4783     0.0000     0.0000 </r>
       <r>   -12.4286     0.0000     0.0000 </r>
       <r>   -12.3790     0.0000     0.0000 </r>
       <r>   -12.3294     0.0000     0.0000 </r>
       <r>   -12.2797     0.0000     0.0000 </r>
       <r>   -12.2301     0.0000     0.0000 </r>
       <r>   -12.1805     0.0000     0.0000 </r>
       <r>   -12.1308    -0.0000    -0.0000 </r>
       <r>   -12.0812    -0.0000    -0.0000 </r>
       <r>   -12.0316    -0.0000    -0.0000 </r>
       <r>   -11.9819    -0.0000    -0.0000 </r>
       <r>   -11.9323    -0.0000    -0.0000 </r>
       <r>   -11.8827    -0.0000    -0.0000 </r>
       <r>   -11.8330    -0.0000    -0.0000 </r>
       <r>   -11.7834    -0.0000    -0.0000 </r>
       <r>   -11.7338    -0.0000    -0.0000 </r>
       <r>   -11.6841    -0.0000    -0.0000 </r>
       <r>   -11.6345    -0.0000    -0.0000 </r>
       <r>   -11.5849    -0.0000    -0.0000 </r>
       <r>   -11.5352    -0.0000    -0.0000 </r>
       <r>   -11.4856    -0.0000    -0.0000 </r>
       <r>   -11.4360    -0.0000    -0.0000 </r>
       <r>   -11.3863    -0.0000    -0.0000 </r>
       <r>   -11.3367    -0.0000    -0.0000 </r>
       <r>   -11.2871    -0.0000    -0.0000 </r>
       <r>   -11.2374    -0.0001    -0.0000 </r>
       <r>   -11.1878    -0.0003    -0.0000 </r>
       <r>   -11.1382    -0.0011    -0.0001 </r>
       <r>   -11.0885    -0.0040    -0.0003 </r>
       <r>   -11.0389    -0.0128    -0.0009 </r>
       <r>   -10.9893    -0.0347    -0.0026 </r>
       <r>   -10.9396    -0.0797    -0.0066 </r>
       <r>   -10.8900    -0.1500    -0.0140 </r>
       <r>   -10.8404    -0.2171    -0.0248 </r>
       <r>   -10.7907    -0.1927    -0.0344 </r>
       <r>   -10.7411     0.0739    -0.0307 </r>
       <r>   -10.6915     0.7293     0.0055 </r>
       <r>   -10.6418     1.7832     0.0940 </r>
       <r>   -10.5922     2.9979     0.2428 </r>
       <r>   -10.5426     3.9333     0.4380 </r>
       <r>   -10.4929     4.1778     0.6454 </r>
       <r>   -10.4433     3.6160     0.8248 </r>
       <r>   -10.3937     2.5085     0.9494 </r>
       <r>   -10.3440     1.3143     1.0146 </r>
       <r>   -10.2944     0.4096     1.0349 </r>
       <r>   -10.2448    -0.0749     1.0312 </r>
       <r>   -10.1951    -0.2223     1.0202 </r>
       <r>   -10.1455    -0.1942     1.0105 </r>
       <r>   -10.0959    -0.1190     1.0046 </r>
       <r>   -10.0462    -0.0581     1.0017 </r>
       <r>    -9.9966    -0.0238     1.0005 </r>
       <r>    -9.9470    -0.0091     1.0001 </r>
       <r>    -9.8974    -0.0061     0.9998 </r>
       <r>    -9.8477    -0.0125     0.9992 </r>
       <r>    -9.7981    -0.0329     0.9975 </r>
       <r>    -9.7485    -0.0760     0.9938 </r>
       <r>    -9.6988    -0.1451     0.9866 </r>
       <r>    -9.6492    -0.2143     0.9759 </r>
       <r>    -9.5996    -0.1997     0.9660 </r>
       <r>    -9.5499     0.0465     0.9683 </r>
       <r>    -9.5003     0.6746     1.0018 </r>
       <r>    -9.4507     1.7073     1.0865 </r>
       <r>    -9.4010     2.9236     1.2317 </r>
       <r>    -9.3514     3.8910     1.4248 </r>
       <r>    -9.3018     4.1871     1.6326 </r>
       <r>    -9.2521     3.6725     1.8149 </r>
       <r>    -9.2025     2.5868     1.9433 </r>
       <r>    -9.1529     1.3847     2.0120 </r>
       <r>    -9.1032     0.4548     2.0345 </r>
       <r>    -9.0536    -0.0557     2.0318 </r>
       <r>    -9.0040    -0.2199     2.0209 </r>
       <r>    -8.9543    -0.1987     2.0110 </r>
       <r>    -8.9047    -0.1249     2.0048 </r>
       <r>    -8.8551    -0.0657     2.0015 </r>
       <r>    -8.8054    -0.0402     1.9995 </r>
       <r>    -8.7558    -0.0520     1.9970 </r>
       <r>    -8.7062    -0.1077     1.9916 </r>
       <r>    -8.6565    -0.2140     1.9810 </r>
       <r>    -8.6069    -0.3473     1.9638 </r>
       <r>    -8.5573    -0.4030     1.9438 </r>
       <r>    -8.5076    -0.1610     1.9358 </r>
       <r>    -8.4580     0.6635     1.9687 </r>
       <r>    -8.4084     2.2401     2.0799 </r>
       <r>    -8.3587     4.3873     2.2976 </r>
       <r>    -8.3091     6.4871     2.6196 </r>
       <r>    -8.2595     7.7270     3.0031 </r>
       <r>    -8.2098     7.5920     3.3799 </r>
       <r>    -8.1602     6.2493     3.6901 </r>
       <r>    -8.1106     4.4828     3.9126 </r>
       <r>    -8.0609     3.1914     4.0710 </r>
       <r>    -8.0113     2.8433     4.2121 </r>
       <r>    -7.9617     3.3065     4.3762 </r>
       <r>    -7.9120     4.1278     4.5811 </r>
       <r>    -7.8624     4.9599     4.8273 </r>
       <r>    -7.8128     5.7738     5.1139 </r>
       <r>    -7.7631     6.7523     5.4490 </r>
       <r>    -7.7135     8.0335     5.8477 </r>
       <r>    -7.6639     9.5119     6.3198 </r>
       <r>    -7.6142    10.7879     6.8552 </r>
       <r>    -7.5646    11.2977     7.4160 </r>
       <r>    -7.5150    10.6328     7.9437 </r>
       <r>    -7.4653     8.9294     8.3869 </r>
       <r>    -7.4157     7.0078     8.7347 </r>
       <r>    -7.3661     5.9957     9.0323 </r>
       <r>    -7.3165     6.5938     9.3596 </r>
       <r>    -7.2668     8.5640     9.7846 </r>
       <r>    -7.2172    10.9258    10.3269 </r>
       <r>    -7.1676    12.7390    10.9592 </r>
       <r>    -7.1179    13.8053    11.6444 </r>
       <r>    -7.0683    14.7093    12.3744 </r>
       <r>    -7.0187    16.2430    13.1806 </r>
       <r>    -6.9690    18.7500    14.1112 </r>
       <r>    -6.9194    21.8739    15.1969 </r>
       <r>    -6.8698    24.7917    16.4274 </r>
       <r>    -6.8201    26.6961    17.7524 </r>
       <r>    -6.7705    27.2157    19.1032 </r>
       <r>    -6.7209    26.5384    20.4203 </r>
       <r>    -6.6712    25.1767    21.6699 </r>
       <r>    -6.6216    23.5457    22.8386 </r>
       <r>    -6.5720    21.6785    23.9145 </r>
       <r>    -6.5223    19.3210    24.8735 </r>
       <r>    -6.4727    16.3467    25.6848 </r>
       <r>    -6.4231    13.1382    26.3369 </r>
       <r>    -6.3734    10.5731    26.8617 </r>
       <r>    -6.3238     9.5735    27.3368 </r>
       <r>    -6.2742    10.5627    27.8611 </r>
       <r>    -6.2245    13.2341    28.5179 </r>
       <r>    -6.1749    16.7406    29.3488 </r>
       <r>    -6.1253    20.1024    30.3465 </r>
       <r>    -6.0756    22.6129    31.4689 </r>
       <r>    -6.0260    24.1587    32.6679 </r>
       <r>    -5.9764    25.3503    33.9261 </r>
       <r>    -5.9267    27.2478    35.2785 </r>
       <r>    -5.8771    30.6405    36.7993 </r>
       <r>    -5.8275    35.3246    38.5526 </r>
       <r>    -5.7778    40.0513    40.5404 </r>
       <r>    -5.7282    43.3235    42.6907 </r>
       <r>    -5.6786    44.4065    44.8947 </r>
       <r>    -5.6289    43.7017    47.0637 </r>
       <r>    -5.5793    42.2857    49.1625 </r>
       <r>    -5.5297    41.1777    51.2062 </r>
       <r>    -5.4800    40.9458    53.2385 </r>
       <r>    -5.4304    41.6873    55.3075 </r>
       <r>    -5.3808    43.0505    57.4442 </r>
       <r>    -5.3311    44.1849    59.6373 </r>
       <r>    -5.2815    43.8752    61.8149 </r>
       <r>    -5.2319    41.0467    63.8522 </r>
       <r>    -5.1822    35.4040    65.6094 </r>
       <r>    -5.1326    27.7107    66.9847 </r>
       <r>    -5.0830    19.4622    67.9507 </r>
       <r>    -5.0333    12.1941    68.5559 </r>
       <r>    -4.9837     6.9044    68.8986 </r>
       <r>    -4.9341     3.8685    69.0906 </r>
       <r>    -4.8844     2.7595    69.2275 </r>
       <r>    -4.8348     2.8635    69.3697 </r>
       <r>    -4.7852     3.3208    69.5345 </r>
       <r>    -4.7355     3.4188    69.7042 </r>
       <r>    -4.6859     2.8667    69.8465 </r>
       <r>    -4.6363     1.8764    69.9396 </r>
       <r>    -4.5867     0.9729    69.9879 </r>
       <r>    -4.5370     0.6582    70.0205 </r>
       <r>    -4.4874     1.1271    70.0765 </r>
       <r>    -4.4378     2.1625    70.1838 </r>
       <r>    -4.3881     3.2441    70.3448 </r>
       <r>    -4.3385     3.8389    70.5354 </r>
       <r>    -4.2889     3.7360    70.7208 </r>
       <r>    -4.2392     3.1966    70.8794 </r>
       <r>    -4.1896     2.7634    71.0166 </r>
       <r>    -4.1400     2.8391    71.1575 </r>
       <r>    -4.0903     3.3674    71.3247 </r>
       <r>    -4.0407     3.8837    71.5174 </r>
       <r>    -3.9911     3.8865    71.7103 </r>
       <r>    -3.9414     3.2099    71.8696 </r>
       <r>    -3.8918     2.0998    71.9738 </r>
       <r>    -3.8422     0.9843    72.0227 </r>
       <r>    -3.7925     0.1754    72.0314 </r>
       <r>    -3.7429    -0.2620    72.0184 </r>
       <r>    -3.6933    -0.4343    71.9968 </r>
       <r>    -3.6436    -0.4528    71.9744 </r>
       <r>    -3.5940    -0.3138    71.9588 </r>
       <r>    -3.5444     0.1078    71.9642 </r>
       <r>    -3.4947     0.9585    72.0117 </r>
       <r>    -3.4451     2.2633    72.1241 </r>
       <r>    -3.3955     3.8370    72.3145 </r>
       <r>    -3.3458     5.3211    72.5786 </r>
       <r>    -3.2962     6.3219    72.8924 </r>
       <r>    -3.2466     6.5573    73.2178 </r>
       <r>    -3.1969     5.9473    73.5130 </r>
       <r>    -3.1473     4.6486    73.7437 </r>
       <r>    -3.0977     3.0422    73.8947 </r>
       <r>    -3.0480     1.6437    73.9763 </r>
       <r>    -2.9984     0.9230    74.0221 </r>
       <r>    -2.9488     1.0890    74.0762 </r>
       <r>    -2.8991     1.9584    74.1734 </r>
       <r>    -2.8495     3.0168    74.3231 </r>
       <r>    -2.7999     3.6922    74.5064 </r>
       <r>    -2.7502     3.7088    74.6904 </r>
       <r>    -2.7006     3.2742    74.8529 </r>
       <r>    -2.6510     2.9299    74.9984 </r>
       <r>    -2.6013     3.1557    75.1550 </r>
       <r>    -2.5517     4.0350    75.3553 </r>
       <r>    -2.5021     5.2193    75.6143 </r>
       <r>    -2.4524     6.1656    75.9203 </r>
       <r>    -2.4028     6.4280    76.2394 </r>
       <r>    -2.3532     5.8347    76.5289 </r>
       <r>    -2.3035     4.5315    76.7539 </r>
       <r>    -2.2539     2.9304    76.8993 </r>
       <r>    -2.2043     1.5748    76.9775 </r>
       <r>    -2.1546     0.9311    77.0237 </r>
       <r>    -2.1050     1.1823    77.0824 </r>
       <r>    -2.0554     2.1416    77.1887 </r>
       <r>    -2.0058     3.3635    77.3556 </r>
       <r>    -1.9561     4.3978    77.5739 </r>
       <r>    -1.9065     5.0083    77.8224 </r>
       <r>    -1.8569     5.1934    78.0802 </r>
       <r>    -1.8072     5.0424    78.3305 </r>
       <r>    -1.7576     4.6293    78.5602 </r>
       <r>    -1.7080     4.0628    78.7619 </r>
       <r>    -1.6583     3.5608    78.9386 </r>
       <r>    -1.6087     3.3560    79.1052 </r>
       <r>    -1.5591     3.4750    79.2777 </r>
       <r>    -1.5094     3.6661    79.4596 </r>
       <r>    -1.4598     3.6338    79.6400 </r>
       <r>    -1.4102     3.3773    79.8076 </r>
       <r>    -1.3605     3.2668    79.9697 </r>
       <r>    -1.3109     3.7332    80.1550 </r>
       <r>    -1.2613     4.8360    80.3950 </r>
       <r>    -1.2116     6.1106    80.6983 </r>
       <r>    -1.1620     6.8592    81.0388 </r>
       <r>    -1.1124     6.6753    81.3701 </r>
       <r>    -1.0627     5.7969    81.6578 </r>
       <r>    -1.0131     4.9924    81.9056 </r>
       <r>    -0.9635     5.0151    82.1545 </r>
       <r>    -0.9138     6.0048    82.4525 </r>
       <r>    -0.8642     7.3113    82.8154 </r>
       <r>    -0.8146     7.9206    83.2085 </r>
       <r>    -0.7649     7.1711    83.5645 </r>
       <r>    -0.7153     5.1957    83.8223 </r>
       <r>    -0.6657     2.7865    83.9606 </r>
       <r>    -0.6160     0.8864    84.0046 </r>
       <r>    -0.5664     0.1427    84.0117 </r>
       <r>    -0.5168     0.7452    84.0487 </r>
       <r>    -0.4671     2.4520    84.1704 </r>
       <r>    -0.4175     4.6659    84.4020 </r>
       <r>    -0.3679     6.5911    84.7291 </r>
       <r>    -0.3182     7.5498    85.1038 </r>
       <r>    -0.2686     7.3474    85.4685 </r>
       <r>    -0.2190     6.3951    85.7859 </r>
       <r>    -0.1693     5.4245    86.0551 </r>
       <r>    -0.1197     4.9878    86.3027 </r>
       <r>    -0.0701     5.1492    86.5583 </r>
       <r>    -0.0204     5.6077    86.8366 </r>
       <r>     0.0292     6.1087    87.1398 </r>
       <r>     0.0788     6.7640    87.4755 </r>
       <r>     0.1285     7.9863    87.8719 </r>
       <r>     0.1781    10.0525    88.3708 </r>
       <r>     0.2277    12.6362    88.9980 </r>
       <r>     0.2774    14.7464    89.7299 </r>
       <r>     0.3270    15.2344    90.4860 </r>
       <r>     0.3766    13.5412    91.1581 </r>
       <r>     0.4263    10.0994    91.6593 </r>
       <r>     0.4759     6.0674    91.9605 </r>
       <r>     0.5255     2.6354    92.0913 </r>
       <r>     0.5751     0.4448    92.1134 </r>
       <r>     0.6248    -0.5284    92.0871 </r>
       <r>     0.6744    -0.7004    92.0524 </r>
       <r>     0.7240    -0.5269    92.0262 </r>
       <r>     0.7737    -0.3022    92.0112 </r>
       <r>     0.8233    -0.1423    92.0042 </r>
       <r>     0.8729    -0.0567    92.0013 </r>
       <r>     0.9226    -0.0194    92.0004 </r>
       <r>     0.9722    -0.0058    92.0001 </r>
       <r>     1.0218    -0.0015    92.0000 </r>
       <r>     1.0715    -0.0003    92.0000 </r>
       <r>     1.1211    -0.0001    92.0000 </r>
       <r>     1.1707    -0.0000    92.0000 </r>
       <r>     1.2204    -0.0000    92.0000 </r>
       <r>     1.2700    -0.0000    92.0000 </r>
       <r>     1.3196    -0.0000    92.0000 </r>
       <r>     1.3693    -0.0000    92.0000 </r>
       <r>     1.4189    -0.0000    92.0000 </r>
       <r>     1.4685    -0.0000    92.0000 </r>
       <r>     1.5182    -0.0000    92.0000 </r>
       <r>     1.5678    -0.0000    92.0000 </r>
       <r>     1.6174    -0.0000    92.0000 </r>
       <r>     1.6671     0.0000    92.0000 </r>
       <r>     1.7167     0.0000    92.0000 </r>
       <r>     1.7663     0.0000    92.0000 </r>
       <r>     1.8160     0.0000    92.0000 </r>
       <r>     1.8656     0.0000    92.0000 </r>
       <r>     1.9152     0.0000    92.0000 </r>
       <r>     1.9649     0.0000    92.0000 </r>
       <r>     2.0145     0.0000    92.0000 </r>
       <r>     2.0641     0.0000    92.0000 </r>
       <r>     2.1138     0.0000    92.0000 </r>
       <r>     2.1634     0.0000    92.0000 </r>
       <r>     2.2130     0.0000    92.0000 </r>
       <r>     2.2627     0.0000    92.0000 </r>
       <r>     2.3123     0.0000    92.0000 </r>
       <r>     2.3619     0.0000    92.0000 </r>
      </set>
      <set comment="spin 2">
       <r>   -12.5279     0.0000     0.0000 </r>
       <r>   -12.4783     0.0000     0.0000 </r>
       <r>   -12.4286     0.0000     0.0000 </r>
       <r>   -12.3790     0.0000     0.0000 </r>
       <r>   -12.3294     0.0000     0.0000 </r>
       <r>   -12.2797     0.0000     0.0000 </r>
       <r>   -12.2301     0.0000     0.0000 </r>
       <r>   -12.1805     0.0000     0.0000 </r>
       <r>   -12.1308    -0.0000    -0.0000 </r>
       <r>   -12.0812    -0.0000    -0.0000 </r>
       <r>   -12.0316    -0.0000    -0.0000 </r>
       <r>   -11.9819    -0.0000    -0.0000 </r>
       <r>   -11.9323    -0.0000    -0.0000 </r>
       <r>   -11.8827    -0.0000    -0.0000 </r>
       <r>   -11.8330    -0.0000    -0.0000 </r>
       <r>   -11.7834    -0.0000    -0.0000 </r>
       <r>   -11.7338    -0.0000    -0.0000 </r>
       <r>   -11.6841    -0.0000    -0.0000 </r>
       <r>   -11.6345    -0.0000    -0.0000 </r>
       <r>   -11.5849    -0.0000    -0.0000 </r>
       <r>   -11.5352    -0.0000    -0.0000 </r>
       <r>   -11.4856    -0.0000    -0.0000 </r>
       <r>   -11.4360    -0.0000    -0.0000 </r>
       <r>   -11.3863    -0.0000    -0.0000 </r>
       <r>   -11.3367    -0.0000    -0.0000 </r>
       <r>   -11.2871    -0.0000    -0.0000 </r>
       <r>   -11.2374    -0.0001    -0.0000 </r>
       <r>   -11.1878    -0.0003    -0.0000 </r>
       <r>   -11.1382    -0.0011    -0.0001 </r>
       <r>   -11.0885    -0.0039    -0.0003 </r>
       <r>   -11.0389    -0.0126    -0.0009 </r>
       <r>   -10.9893    -0.0343    -0.0026 </r>
       <r>   -10.9396    -0.0789    -0.0065 </r>
       <r>   -10.8900    -0.1490    -0.0139 </r>
       <r>   -10.8404    -0.2166    -0.0247 </r>
       <r>   -10.7907    -0.1942    -0.0343 </r>
       <r>   -10.7411     0.0683    -0.0309 </r>
       <r>   -10.6915     0.7182     0.0047 </r>
       <r>   -10.6418     1.7678     0.0925 </r>
       <r>   -10.5922     2.9830     0.2405 </r>
       <r>   -10.5426     3.9250     0.4353 </r>
       <r>   -10.4929     4.1800     0.6428 </r>
       <r>   -10.4433     3.6275     0.8229 </r>
       <r>   -10.3937     2.5243     0.9481 </r>
       <r>   -10.3440     1.3284     1.0141 </r>
       <r>   -10.2944     0.4185     1.0348 </r>
       <r>   -10.2448    -0.0712     1.0313 </r>
       <r>   -10.1951    -0.2219     1.0203 </r>
       <r>   -10.1455    -0.1951     1.0106 </r>
       <r>   -10.0959    -0.1200     1.0047 </r>
       <r>   -10.0462    -0.0587     1.0017 </r>
       <r>    -9.9966    -0.0241     1.0006 </r>
       <r>    -9.9470    -0.0092     1.0001 </r>
       <r>    -9.8974    -0.0061     0.9998 </r>
       <r>    -9.8477    -0.0123     0.9992 </r>
       <r>    -9.7981    -0.0324     0.9976 </r>
       <r>    -9.7485    -0.0752     0.9938 </r>
       <r>    -9.6988    -0.1439     0.9867 </r>
       <r>    -9.6492    -0.2136     0.9761 </r>
       <r>    -9.5996    -0.2011     0.9661 </r>
       <r>    -9.5499     0.0404     0.9681 </r>
       <r>    -9.5003     0.6623     1.0010 </r>
       <r>    -9.4507     1.6899     1.0849 </r>
       <r>    -9.4010     2.9064     1.2291 </r>
       <r>    -9.3514     3.8808     1.4217 </r>
       <r>    -9.3018     4.1888     1.6296 </r>
       <r>    -9.2521     3.6851     1.8125 </r>
       <r>    -9.2025     2.6047     1.9418 </r>
       <r>    -9.1529     1.4010     2.0113 </r>
       <r>    -9.1032     0.4654     2.0344 </r>
       <r>    -9.0536    -0.0511     2.0319 </r>
       <r>    -9.0040    -0.2193     2.0210 </r>
       <r>    -8.9543    -0.1996     2.0111 </r>
       <r>    -8.9047    -0.1260     2.0049 </r>
       <r>    -8.8551    -0.0664     2.0016 </r>
       <r>    -8.8054    -0.0405     1.9996 </r>
       <r>    -8.7558    -0.0518     1.9970 </r>
       <r>    -8.7062    -0.1071     1.9917 </r>
       <r>    -8.6565    -0.2129     1.9811 </r>
       <r>    -8.6069    -0.3461     1.9639 </r>
       <r>    -8.5573    -0.4029     1.9439 </r>
       <r>    -8.5076    -0.1642     1.9358 </r>
       <r>    -8.4580     0.6546     1.9683 </r>
       <r>    -8.4084     2.2246     2.0787 </r>
       <r>    -8.3587     4.3680     2.2955 </r>
       <r>    -8.3091     6.4704     2.6166 </r>
       <r>    -8.2595     7.7197     2.9998 </r>
       <r>    -8.2098     7.5962     3.3768 </r>
       <r>    -8.1602     6.2606     3.6875 </r>
       <r>    -8.1106     4.4924     3.9105 </r>
       <r>    -8.0609     3.1926     4.0690 </r>
       <r>    -8.0113     2.8359     4.2097 </r>
       <r>    -7.9617     3.2964     4.3733 </r>
       <r>    -7.9120     4.1213     4.5779 </r>
       <r>    -7.8624     4.9584     4.8240 </r>
       <r>    -7.8128     5.7731     5.1105 </r>
       <r>    -7.7631     6.7472     5.4454 </r>
       <r>    -7.7135     8.0224     5.8436 </r>
       <r>    -7.6639     9.4985     6.3150 </r>
       <r>    -7.6142    10.7794     6.8500 </r>
       <r>    -7.5646    11.3003     7.4109 </r>
       <r>    -7.5150    10.6473     7.9393 </r>
       <r>    -7.4653     8.9493     8.3835 </r>
       <r>    -7.4157     7.0217     8.7320 </r>
       <r>    -7.3661     5.9940     9.0295 </r>
       <r>    -7.3165     6.5752     9.3559 </r>
       <r>    -7.2668     8.5367     9.7796 </r>
       <r>    -7.2172    10.9013    10.3206 </r>
       <r>    -7.1676    12.7244    10.9522 </r>
       <r>    -7.1179    13.7985    11.6370 </r>
       <r>    -7.0683    14.7025    12.3668 </r>
       <r>    -7.0187    16.2289    13.1722 </r>
       <r>    -6.9690    18.7268    14.1017 </r>
       <r>    -6.9194    21.8458    15.1860 </r>
       <r>    -6.8698    24.7660    16.4152 </r>
       <r>    -6.8201    26.6794    17.7393 </r>
       <r>    -6.7705    27.2103    19.0899 </r>
       <r>    -6.7209    26.5422    20.4072 </r>
       <r>    -6.6712    25.1859    21.6573 </r>
       <r>    -6.6216    23.5588    22.8265 </r>
       <r>    -6.5720    21.6981    23.9035 </r>
       <r>    -6.5223    19.3503    24.8639 </r>
       <r>    -6.4727    16.3842    25.6771 </r>
       <r>    -6.4231    13.1758    26.3310 </r>
       <r>    -6.3734    10.5991    26.8571 </r>
       <r>    -6.3238     9.5794    27.3325 </r>
       <r>    -6.2742    10.5473    27.8560 </r>
       <r>    -6.2245    13.2036    28.5114 </r>
       <r>    -6.1749    16.7051    29.3405 </r>
       <r>    -6.1253    20.0718    30.3367 </r>
       <r>    -6.0756    22.5931    31.4581 </r>
       <r>    -6.0260    24.1489    32.6566 </r>
       <r>    -5.9764    25.3426    33.9145 </r>
       <r>    -5.9267    27.2319    35.2661 </r>
       <r>    -5.8771    30.6120    36.7854 </r>
       <r>    -5.8275    35.2892    38.5369 </r>
       <r>    -5.7778    40.0213    40.5233 </r>
       <r>    -5.7282    43.3080    42.6728 </r>
       <r>    -5.6786    44.4047    44.8767 </r>
       <r>    -5.6289    43.7054    47.0459 </r>
       <r>    -5.5793    42.2859    49.1447 </r>
       <r>    -5.5297    41.1699    51.1881 </r>
       <r>    -5.4800    40.9298    53.2195 </r>
       <r>    -5.4304    41.6665    55.2875 </r>
       <r>    -5.3808    43.0318    57.4233 </r>
       <r>    -5.3311    44.1788    59.6160 </r>
       <r>    -5.2815    43.8914    61.7945 </r>
       <r>    -5.2319    41.0874    63.8338 </r>
       <r>    -5.1822    35.4619    65.5938 </r>
       <r>    -5.1326    27.7730    66.9723 </r>
       <r>    -5.0830    19.5187    67.9410 </r>
       <r>    -5.0333    12.2407    68.5486 </r>
       <r>    -4.9837     6.9405    68.8931 </r>
       <r>    -4.9341     3.8937    69.0863 </r>
       <r>    -4.8844     2.7733    69.2240 </r>
       <r>    -4.8348     2.8688    69.3663 </r>
       <r>    -4.7852     3.3244    69.5313 </r>
       <r>    -4.7355     3.4277    69.7015 </r>
       <r>    -4.6859     2.8824    69.8445 </r>
       <r>    -4.6363     1.8938    69.9385 </r>
       <r>    -4.5867     0.9838    69.9874 </r>
       <r>    -4.5370     0.6568    70.0200 </r>
       <r>    -4.4874     1.1142    70.0753 </r>
       <r>    -4.4378     2.1453    70.1817 </r>
       <r>    -4.3881     3.2320    70.3422 </r>
       <r>    -4.3385     3.8356    70.5325 </r>
       <r>    -4.2889     3.7340    70.7179 </r>
       <r>    -4.2392     3.1792    70.8756 </r>
       <r>    -4.1896     2.7172    71.0105 </r>
       <r>    -4.1400     2.7691    71.1479 </r>
       <r>    -4.0903     3.3001    71.3117 </r>
       <r>    -4.0407     3.8529    71.5030 </r>
       <r>    -3.9911     3.9108    71.6971 </r>
       <r>    -3.9414     3.2797    71.8599 </r>
       <r>    -3.8918     2.1851    71.9683 </r>
       <r>    -3.8422     1.0551    72.0207 </r>
       <r>    -3.7925     0.2178    72.0315 </r>
       <r>    -3.7429    -0.2453    72.0193 </r>
       <r>    -3.6933    -0.4327    71.9978 </r>
       <r>    -3.6436    -0.4580    71.9751 </r>
       <r>    -3.5940    -0.3235    71.9590 </r>
       <r>    -3.5444     0.0915    71.9636 </r>
       <r>    -3.4947     0.9343    72.0100 </r>
       <r>    -3.4451     2.2344    72.1209 </r>
       <r>    -3.3955     3.8117    72.3100 </r>
       <r>    -3.3458     5.3084    72.5735 </r>
       <r>    -3.2962     6.3262    72.8875 </r>
       <r>    -3.2466     6.5762    73.2139 </r>
       <r>    -3.1969     5.9737    73.5104 </r>
       <r>    -3.1473     4.6744    73.7424 </r>
       <r>    -3.0977     3.0601    73.8943 </r>
       <r>    -3.0480     1.6478    73.9761 </r>
       <r>    -2.9984     0.9095    74.0212 </r>
       <r>    -2.9488     1.0592    74.0738 </r>
       <r>    -2.8991     1.9214    74.1691 </r>
       <r>    -2.8495     2.9877    74.3174 </r>
       <r>    -2.7999     3.6841    74.5003 </r>
       <r>    -2.7502     3.7237    74.6851 </r>
       <r>    -2.7006     3.2999    74.8489 </r>
       <r>    -2.6510     2.9467    74.9951 </r>
       <r>    -2.6013     3.1474    75.1513 </r>
       <r>    -2.5517     3.9974    75.3497 </r>
       <r>    -2.5021     5.1623    75.6060 </r>
       <r>    -2.4524     6.1100    75.9092 </r>
       <r>    -2.4028     6.3976    76.2268 </r>
       <r>    -2.3532     5.8456    76.5169 </r>
       <r>    -2.3035     4.5817    76.7443 </r>
       <r>    -2.2539     2.9982    76.8931 </r>
       <r>    -2.2043     1.6289    76.9739 </r>
       <r>    -2.1546     0.9475    77.0210 </r>
       <r>    -2.1050     1.1570    77.0784 </r>
       <r>    -2.0554     2.0921    77.1822 </r>
       <r>    -2.0058     3.3179    77.3469 </r>
       <r>    -1.9561     4.3789    77.5643 </r>
       <r>    -1.9065     5.0220    77.8135 </r>
       <r>    -1.8569     5.2292    78.0730 </r>
       <r>    -1.8072     5.0823    78.3253 </r>
       <r>    -1.7576     4.6564    78.5564 </r>
       <r>    -1.7080     4.0645    78.7581 </r>
       <r>    -1.6583     3.5327    78.9335 </r>
       <r>    -1.6087     3.3063    79.0976 </r>
       <r>    -1.5591     3.4255    79.2676 </r>
       <r>    -1.5094     3.6416    79.4483 </r>
       <r>    -1.4598     3.6415    79.6291 </r>
       <r>    -1.4102     3.3952    79.7976 </r>
       <r>    -1.3605     3.2553    79.9592 </r>
       <r>    -1.3109     3.6644    80.1410 </r>
       <r>    -1.2613     4.7192    80.3753 </r>
       <r>    -1.2116     5.9933    80.6727 </r>
       <r>    -1.1620     6.8011    81.0103 </r>
       <r>    -1.1124     6.7128    81.3434 </r>
       <r>    -1.0627     5.9217    81.6374 </r>
       <r>    -1.0131     5.1577    81.8933 </r>
       <r>    -0.9635     5.1632    82.1496 </r>
       <r>    -0.9138     6.0974    82.4522 </r>
       <r>    -0.8642     7.3432    82.8167 </r>
       <r>    -0.8146     7.9133    83.2095 </r>
       <r>    -0.7649     7.1542    83.5645 </r>
       <r>    -0.7153     5.1899    83.8221 </r>
       <r>    -0.6657     2.7960    83.9609 </r>
       <r>    -0.6160     0.9001    84.0056 </r>
       <r>    -0.5664     0.1396    84.0125 </r>
       <r>    -0.5168     0.7016    84.0473 </r>
       <r>    -0.4671     2.3538    84.1642 </r>
       <r>    -0.4175     4.5220    84.3886 </r>
       <r>    -0.3679     6.4367    84.7081 </r>
       <r>    -0.3182     7.4285    85.0768 </r>
       <r>    -0.2686     7.2820    85.4382 </r>
       <r>    -0.2190     6.3761    85.7546 </r>
       <r>    -0.1693     5.4317    86.0242 </r>
       <r>    -0.1197     5.0231    86.2735 </r>
       <r>    -0.0701     5.2403    86.5336 </r>
       <r>    -0.0204     5.7698    86.8200 </r>
       <r>     0.0292     6.2974    87.1326 </r>
       <r>     0.0788     6.8690    87.4735 </r>
       <r>     0.1285     7.8853    87.8649 </r>
       <r>     0.1781     9.7009    88.3463 </r>
       <r>     0.2277    12.1311    88.9484 </r>
       <r>     0.2774    14.3024    89.6583 </r>
       <r>     0.3270    15.0646    90.4060 </r>
       <r>     0.3766    13.7230    91.0871 </r>
       <r>     0.4263    10.5309    91.6098 </r>
       <r>     0.4759     6.5492    91.9348 </r>
       <r>     0.5255     3.0009    92.0838 </r>
       <r>     0.5751     0.6362    92.1154 </r>
       <r>     0.6248    -0.4749    92.0918 </r>
       <r>     0.6744    -0.7162    92.0562 </r>
       <r>     0.7240    -0.5589    92.0285 </r>
       <r>     0.7737    -0.3266    92.0123 </r>
       <r>     0.8233    -0.1555    92.0046 </r>
       <r>     0.8729    -0.0624    92.0015 </r>
       <r>     0.9226    -0.0214    92.0004 </r>
       <r>     0.9722    -0.0063    92.0001 </r>
       <r>     1.0218    -0.0016    92.0000 </r>
       <r>     1.0715    -0.0004    92.0000 </r>
       <r>     1.1211    -0.0001    92.0000 </r>
       <r>     1.1707    -0.0000    92.0000 </r>
       <r>     1.2204    -0.0000    92.0000 </r>
       <r>     1.2700    -0.0000    92.0000 </r>
       <r>     1.3196    -0.0000    92.0000 </r>
       <r>     1.3693    -0.0000    92.0000 </r>
       <r>     1.4189    -0.0000    92.0000 </r>
       <r>     1.4685    -0.0000    92.0000 </r>
       <r>     1.5182    -0.0000    92.0000 </r>
       <r>     1.5678    -0.0000    92.0000 </r>
       <r>     1.6174    -0.0000    92.0000 </r>
       <r>     1.6671     0.0000    92.0000 </r>
       <r>     1.7167     0.0000    92.0000 </r>
       <r>     1.7663     0.0000    92.0000 </r>
       <r>     1.8160     0.0000    92.0000 </r>
       <r>     1.8656     0.0000    92.0000 </r>
       <r>     1.9152     0.0000    92.0000 </r>
       <r>     1.9649     0.0000    92.0000 </r>
       <r>     2.0145     0.0000    92.0000 </r>
       <r>     2.0641     0.0000    92.0000 </r>
       <r>     2.1138     0.0000    92.0000 </r>
       <r>     2.1634     0.0000    92.0000 </r>
       <r>     2.2130     0.0000    92.0000 </r>
       <r>     2.2627     0.0000    92.0000 </r>
       <r>     2.3123     0.0000    92.0000 </r>
       <r>     2.3619     0.0000    92.0000 </r>
      </set>
     </set>
    </array>
   </total>
  </dos>
 </calculation>
 <structure name="finalpos" >
  <crystal>
   <varray name="basis" >
    <v>      22.64001728       0.00000000       0.00000000 </v>
    <v>       0.00000000      22.71756026       0.00000000 </v>
    <v>       0.00000000       0.00000000      23.84326928 </v>
   </varray>
   <i name="volume">  12263.21228937 </i>
   <varray name="rec_basis" >
    <v>       0.04416958       0.00000000       0.00000000 </v>
    <v>       0.00000000       0.04401881       0.00000000 </v>
    <v>       0.00000000       0.00000000       0.04194056 </v>
   </varray>
  </crystal>
  <varray name="positions" >
   <v>       0.42510546       0.54697274       0.57251027 </v>
   <v>       0.51944966       0.56151664       0.61512665 </v>
   <v>       0.51546509       0.47972891       0.54811628 </v>
   <v>       0.46440542       0.47135466       0.63558185 </v>
   <v>       0.50801953       0.58183103       0.51460835 </v>
   <v>       0.41590368       0.44192914       0.54964690 </v>
   <v>       0.43101497       0.51695810       0.47490236 </v>
   <v>       0.48087739       0.42035941       0.46794121 </v>
   <v>       0.49022618       0.58048981       0.41157956 </v>
   <v>       0.54872884       0.50381995       0.45400366 </v>
   <v>       0.46259127       0.48024922       0.38391800 </v>
   <v>       0.54928680       0.42062048       0.38822733 </v>
   <v>       0.55780865       0.52243076       0.35572046 </v>
  </varray>
 </structure>
</modeling>
