unknown system                          
            1
    22.640017    0.000000    0.000000
     0.000000   22.717560    0.000000
     0.000000    0.000000   23.843269
   Cu
    13
Direct configuration=     1
   0.42516483  0.54700097  0.57255198
   0.51950235  0.56143615  0.61504906
   0.51543758  0.47972938  0.54803727
   0.46440791  0.47134268  0.63552686
   0.50793260  0.58181488  0.51471691
   0.41604745  0.44195029  0.54968794
   0.43099878  0.51703085  0.47491527
   0.48082012  0.42041943  0.46793746
   0.49006763  0.58040378  0.41149717
   0.54875399  0.50375776  0.45403805
   0.46258698  0.48022296  0.38381923
   0.54932602  0.42073066  0.38833289
   0.55783669  0.52242103  0.35577281
Direct configuration=     2
   0.42513648  0.54698749  0.57253206
   0.51947719  0.56147459  0.61508611
   0.51545072  0.47972915  0.54807500
   0.46440672  0.47134840  0.63555312
   0.50797411  0.58182259  0.51466507
   0.41597880  0.44194019  0.54966834
   0.43100651  0.51699611  0.47490910
   0.48084746  0.42039077  0.46793925
   0.49014334  0.58044486  0.41153651
   0.54874198  0.50378746  0.45402163
   0.46258903  0.48023550  0.38386639
   0.54930729  0.42067805  0.38828249
   0.55782330  0.52242568  0.35574781
Direct configuration=     3
   0.42510546  0.54697274  0.57251027
   0.51944966  0.56151664  0.61512665
   0.51546509  0.47972891  0.54811628
   0.46440542  0.47135466  0.63558185
   0.50801953  0.58183103  0.51460835
   0.41590368  0.44192914  0.54964690
   0.43101497  0.51695810  0.47490236
   0.48087739  0.42035941  0.46794121
   0.49022618  0.58048981  0.41157956
   0.54872884  0.50381995  0.45400366
   0.46259127  0.48024922  0.38391800
   0.54928680  0.42062048  0.38822733
   0.55780865  0.52243076  0.35572046
