   8   8   0   0
  0.1429823E+04  0.2196965E-08  0.2255172E-08  0.2308711E-08  0.5000000E-15
   1.0000000000000000E-004
  CAR 
 unknown system                          
      1.90639975    -12.88824301  301     -4.98081616      1.00000000
    -12.888  0.0000E+00  0.0000E+00  0.0000E+00  0.0000E+00
    -12.839  0.0000E+00  0.0000E+00  0.0000E+00  0.0000E+00
    -12.790  0.0000E+00  0.0000E+00  0.0000E+00  0.0000E+00
    -12.740  0.0000E+00  0.0000E+00  0.0000E+00  0.0000E+00
    -12.691  0.0000E+00  0.0000E+00  0.0000E+00  0.0000E+00
    -12.642  0.0000E+00  0.0000E+00  0.0000E+00  0.0000E+00
    -12.592  0.0000E+00  0.0000E+00  0.0000E+00  0.0000E+00
    -12.543  0.0000E+00  0.0000E+00  0.0000E+00  0.0000E+00
    -12.494 -0.4748E-29 -0.4748E-29 -0.2342E-30 -0.2342E-30
    -12.444 -0.2222E-27 -0.2222E-27 -0.1119E-28 -0.1119E-28
    -12.395 -0.9365E-26 -0.9365E-26 -0.4730E-27 -0.4730E-27
    -12.346 -0.3491E-24 -0.3491E-24 -0.1769E-25 -0.1769E-25
    -12.296 -0.1150E-22 -0.1150E-22 -0.5850E-24 -0.5850E-24
    -12.247 -0.3351E-21 -0.3351E-21 -0.1711E-22 -0.1711E-22
    -12.198 -0.8628E-20 -0.8628E-20 -0.4426E-21 -0.4426E-21
    -12.149 -0.1963E-18 -0.1963E-18 -0.1012E-19 -0.1012E-19
    -12.099 -0.3946E-17 -0.3946E-17 -0.2047E-18 -0.2047E-18
    -12.050 -0.6782E-16 -0.6782E-16 -0.3549E-17 -0.3549E-17
    -12.001 -0.1064E-14 -0.1064E-14 -0.5601E-16 -0.5601E-16
    -11.951 -0.1467E-13 -0.1467E-13 -0.7797E-15 -0.7797E-15
    -11.902 -0.1786E-12 -0.1786E-12 -0.9587E-14 -0.9587E-14
    -11.853 -0.1916E-11 -0.1916E-11 -0.1041E-12 -0.1041E-12
    -11.803 -0.1811E-10 -0.1811E-10 -0.9973E-12 -0.9973E-12
    -11.754 -0.1507E-09 -0.1507E-09 -0.8430E-11 -0.8430E-11
    -11.705 -0.1103E-08 -0.1103E-08 -0.6283E-10 -0.6283E-10
    -11.655 -0.7092E-08 -0.7092E-08 -0.4126E-09 -0.4126E-09
    -11.606 -0.3999E-07 -0.3999E-07 -0.2385E-08 -0.2385E-08
    -11.557 -0.1975E-06 -0.1975E-06 -0.1212E-07 -0.1212E-07
    -11.507 -0.8513E-06 -0.8513E-06 -0.5411E-07 -0.5411E-07
    -11.458 -0.3194E-05 -0.3194E-05 -0.2116E-06 -0.2116E-06
    -11.409 -0.1037E-04 -0.1037E-04 -0.7231E-06 -0.7231E-06
    -11.359 -0.2893E-04 -0.2893E-04 -0.2150E-05 -0.2150E-05
    -11.310 -0.6841E-04 -0.6841E-04 -0.5523E-05 -0.5523E-05
    -11.261 -0.1340E-03 -0.1340E-03 -0.1213E-04 -0.1213E-04
    -11.212 -0.2064E-03 -0.2064E-03 -0.2231E-04 -0.2231E-04
    -11.162 -0.2131E-03 -0.2131E-03 -0.3282E-04 -0.3282E-04
    -11.113 -0.1670E-04 -0.1670E-04 -0.3364E-04 -0.3364E-04
    -11.064  0.5374E-03  0.5374E-03 -0.7140E-05 -0.7140E-05
    -11.014  0.1502E-02  0.1502E-02  0.6695E-04  0.6695E-04
    -10.965  0.2706E-02  0.2706E-02  0.2004E-03  0.2004E-03
    -10.916  0.3750E-02  0.3750E-02  0.3853E-03  0.3853E-03
    -10.866  0.4195E-02  0.4195E-02  0.5922E-03  0.5922E-03
    -10.817  0.3835E-02  0.3835E-02  0.7813E-03  0.7813E-03
    -10.768  0.2838E-02  0.2838E-02  0.9213E-03  0.9213E-03
    -10.718  0.1629E-02  0.1629E-02  0.1002E-02  0.1002E-02
    -10.669  0.6242E-03  0.6242E-03  0.1032E-02  0.1032E-02
    -10.620  0.2261E-04  0.2261E-04  0.1034E-02  0.1034E-02
    -10.570 -0.2115E-03 -0.2115E-03  0.1023E-02  0.1023E-02
    -10.521 -0.2351E-03 -0.2351E-03  0.1011E-02  0.1011E-02
    -10.472 -0.2048E-03 -0.2048E-03  0.1001E-02  0.1001E-02
    -10.422 -0.2192E-03 -0.2192E-03  0.9906E-03  0.9906E-03
    -10.373 -0.3097E-03 -0.3097E-03  0.9753E-03  0.9753E-03
    -10.324 -0.4277E-03 -0.4277E-03  0.9542E-03  0.9542E-03
    -10.275 -0.4099E-03 -0.4099E-03  0.9340E-03  0.9340E-03
    -10.225  0.2900E-04  0.2900E-04  0.9354E-03  0.9354E-03
    -10.176  0.1190E-02  0.1190E-02  0.9941E-03  0.9941E-03
    -10.127  0.3152E-02  0.3152E-02  0.1150E-02  0.1150E-02
    -10.077  0.5536E-02  0.5536E-02  0.1423E-02  0.1423E-02
    -10.028  0.7528E-02  0.7528E-02  0.1794E-02  0.1794E-02
     -9.979  0.8272E-02  0.8272E-02  0.2202E-02  0.2202E-02
     -9.929  0.7401E-02  0.7401E-02  0.2567E-02  0.2567E-02
     -9.880  0.5309E-02  0.5309E-02  0.2829E-02  0.2829E-02
     -9.831  0.2929E-02  0.2929E-02  0.2973E-02  0.2973E-02
     -9.781  0.1208E-02  0.1208E-02  0.3033E-02  0.3033E-02
     -9.732  0.6621E-03  0.6621E-03  0.3065E-02  0.3065E-02
     -9.683  0.1235E-02  0.1235E-02  0.3126E-02  0.3126E-02
     -9.633  0.2410E-02  0.2410E-02  0.3245E-02  0.3245E-02
     -9.584  0.3480E-02  0.3480E-02  0.3417E-02  0.3417E-02
     -9.535  0.3859E-02  0.3859E-02  0.3607E-02  0.3607E-02
     -9.485  0.3365E-02  0.3365E-02  0.3773E-02  0.3773E-02
     -9.436  0.2293E-02  0.2293E-02  0.3886E-02  0.3886E-02
     -9.387  0.1260E-02  0.1260E-02  0.3948E-02  0.3948E-02
     -9.338  0.8817E-03  0.8817E-03  0.3992E-02  0.3992E-02
     -9.288  0.1508E-02  0.1508E-02  0.4066E-02  0.4066E-02
     -9.239  0.3113E-02  0.3113E-02  0.4219E-02  0.4219E-02
     -9.190  0.5336E-02  0.5336E-02  0.4483E-02  0.4483E-02
     -9.140  0.7599E-02  0.7599E-02  0.4857E-02  0.4857E-02
     -9.091  0.9262E-02  0.9262E-02  0.5314E-02  0.5314E-02
     -9.042  0.9845E-02  0.9845E-02  0.5800E-02  0.5800E-02
     -8.992  0.9278E-02  0.9278E-02  0.6257E-02  0.6257E-02
     -8.943  0.8028E-02  0.8028E-02  0.6653E-02  0.6653E-02
     -8.894  0.6923E-02  0.6923E-02  0.6994E-02  0.6994E-02
     -8.844  0.6685E-02  0.6685E-02  0.7324E-02  0.7324E-02
     -8.795  0.7504E-02  0.7504E-02  0.7694E-02  0.7694E-02
     -8.746  0.8959E-02  0.8959E-02  0.8136E-02  0.8136E-02
     -8.696  0.1035E-01  0.1035E-01  0.8646E-02  0.8646E-02
     -8.647  0.1115E-01  0.1115E-01  0.9196E-02  0.9196E-02
     -8.598  0.1131E-01  0.1131E-01  0.9754E-02  0.9754E-02
     -8.548  0.1122E-01  0.1122E-01  0.1031E-01  0.1031E-01
     -8.499  0.1142E-01  0.1142E-01  0.1087E-01  0.1087E-01
     -8.450  0.1224E-01  0.1224E-01  0.1147E-01  0.1147E-01
     -8.401  0.1352E-01  0.1352E-01  0.1214E-01  0.1214E-01
     -8.351  0.1453E-01  0.1453E-01  0.1286E-01  0.1286E-01
     -8.302  0.1438E-01  0.1438E-01  0.1357E-01  0.1357E-01
     -8.253  0.1254E-01  0.1254E-01  0.1418E-01  0.1418E-01
     -8.203  0.9235E-02  0.9235E-02  0.1464E-01  0.1464E-01
     -8.154  0.5397E-02  0.5397E-02  0.1491E-01  0.1491E-01
     -8.105  0.2195E-02  0.2195E-02  0.1501E-01  0.1501E-01
     -8.055  0.5053E-03  0.5053E-03  0.1504E-01  0.1504E-01
     -8.006  0.6246E-03  0.6246E-03  0.1507E-01  0.1507E-01
     -7.957  0.2271E-02  0.2271E-02  0.1518E-01  0.1518E-01
     -7.907  0.4739E-02  0.4739E-02  0.1542E-01  0.1542E-01
     -7.858  0.7171E-02  0.7171E-02  0.1577E-01  0.1577E-01
     -7.809  0.8911E-02  0.8911E-02  0.1621E-01  0.1621E-01
     -7.759  0.9807E-02  0.9807E-02  0.1669E-01  0.1669E-01
     -7.710  0.1022E-01  0.1022E-01  0.1720E-01  0.1720E-01
     -7.661  0.1072E-01  0.1072E-01  0.1773E-01  0.1773E-01
     -7.611  0.1160E-01  0.1160E-01  0.1830E-01  0.1830E-01
     -7.562  0.1279E-01  0.1279E-01  0.1893E-01  0.1893E-01
     -7.513  0.1395E-01  0.1395E-01  0.1962E-01  0.1962E-01
     -7.464  0.1477E-01  0.1477E-01  0.2034E-01  0.2034E-01
     -7.414  0.1509E-01  0.1509E-01  0.2109E-01  0.2109E-01
     -7.365  0.1479E-01  0.1479E-01  0.2182E-01  0.2182E-01
     -7.316  0.1367E-01  0.1367E-01  0.2249E-01  0.2249E-01
     -7.266  0.1171E-01  0.1171E-01  0.2307E-01  0.2307E-01
     -7.217  0.9316E-02  0.9316E-02  0.2353E-01  0.2353E-01
     -7.168  0.7336E-02  0.7336E-02  0.2389E-01  0.2389E-01
     -7.118  0.6637E-02  0.6637E-02  0.2422E-01  0.2422E-01
     -7.069  0.7560E-02  0.7560E-02  0.2459E-01  0.2459E-01
     -7.020  0.9744E-02  0.9744E-02  0.2507E-01  0.2507E-01
     -6.970  0.1246E-01  0.1246E-01  0.2569E-01  0.2569E-01
     -6.921  0.1507E-01  0.1507E-01  0.2643E-01  0.2643E-01
     -6.872  0.1729E-01  0.1729E-01  0.2728E-01  0.2728E-01
     -6.822  0.1899E-01  0.1899E-01  0.2822E-01  0.2822E-01
     -6.773  0.2001E-01  0.2001E-01  0.2921E-01  0.2921E-01
     -6.724  0.2014E-01  0.2014E-01  0.3020E-01  0.3020E-01
     -6.674  0.1935E-01  0.1935E-01  0.3115E-01  0.3115E-01
     -6.625  0.1790E-01  0.1790E-01  0.3204E-01  0.3204E-01
     -6.576  0.1627E-01  0.1627E-01  0.3284E-01  0.3284E-01
     -6.527  0.1491E-01  0.1491E-01  0.3357E-01  0.3357E-01
     -6.477  0.1406E-01  0.1406E-01  0.3427E-01  0.3427E-01
     -6.428  0.1368E-01  0.1368E-01  0.3494E-01  0.3494E-01
     -6.379  0.1362E-01  0.1362E-01  0.3561E-01  0.3561E-01
     -6.329  0.1373E-01  0.1373E-01  0.3629E-01  0.3629E-01
     -6.280  0.1395E-01  0.1395E-01  0.3698E-01  0.3698E-01
     -6.231  0.1413E-01  0.1413E-01  0.3768E-01  0.3768E-01
     -6.181  0.1403E-01  0.1403E-01  0.3837E-01  0.3837E-01
     -6.132  0.1344E-01  0.1344E-01  0.3903E-01  0.3903E-01
     -6.083  0.1239E-01  0.1239E-01  0.3964E-01  0.3964E-01
     -6.033  0.1119E-01  0.1119E-01  0.4019E-01  0.4019E-01
     -5.984  0.1005E-01  0.1005E-01  0.4069E-01  0.4069E-01
     -5.935  0.8919E-02  0.8919E-02  0.4113E-01  0.4113E-01
     -5.885  0.7590E-02  0.7590E-02  0.4150E-01  0.4150E-01
     -5.836  0.6096E-02  0.6096E-02  0.4180E-01  0.4180E-01
     -5.787  0.4793E-02  0.4793E-02  0.4204E-01  0.4204E-01
     -5.737  0.4049E-02  0.4049E-02  0.4224E-01  0.4224E-01
     -5.688  0.3859E-02  0.3859E-02  0.4243E-01  0.4243E-01
     -5.639  0.3810E-02  0.3810E-02  0.4262E-01  0.4262E-01
     -5.590  0.3428E-02  0.3428E-02  0.4279E-01  0.4279E-01
     -5.540  0.2555E-02  0.2555E-02  0.4291E-01  0.4291E-01
     -5.491  0.1418E-02  0.1418E-02  0.4298E-01  0.4298E-01
     -5.442  0.4258E-03  0.4258E-03  0.4300E-01  0.4300E-01
     -5.392 -0.7707E-04 -0.7707E-04  0.4300E-01  0.4300E-01
     -5.343  0.7915E-04  0.7915E-04  0.4300E-01  0.4300E-01
     -5.294  0.8760E-03  0.8760E-03  0.4305E-01  0.4305E-01
     -5.244  0.2095E-02  0.2095E-02  0.4315E-01  0.4315E-01
     -5.195  0.3325E-02  0.3325E-02  0.4331E-01  0.4331E-01
     -5.146  0.4083E-02  0.4083E-02  0.4352E-01  0.4352E-01
     -5.096  0.4048E-02  0.4048E-02  0.4372E-01  0.4372E-01
     -5.047  0.3257E-02  0.3257E-02  0.4388E-01  0.4388E-01
     -4.998  0.2076E-02  0.2076E-02  0.4398E-01  0.4398E-01
     -4.948  0.9581E-03  0.9581E-03  0.4403E-01  0.4403E-01
     -4.899  0.1998E-03  0.1998E-03  0.4404E-01  0.4404E-01
     -4.850 -0.1535E-03 -0.1535E-03  0.4403E-01  0.4403E-01
     -4.801 -0.2250E-03 -0.2250E-03  0.4402E-01  0.4402E-01
     -4.751 -0.1712E-03 -0.1712E-03  0.4401E-01  0.4401E-01
     -4.702 -0.9726E-04 -0.9726E-04  0.4400E-01  0.4400E-01
     -4.653 -0.4494E-04 -0.4494E-04  0.4400E-01  0.4400E-01
     -4.603 -0.1769E-04 -0.1769E-04  0.4400E-01  0.4400E-01
     -4.554 -0.7000E-05 -0.7000E-05  0.4400E-01  0.4400E-01
     -4.505 -0.6124E-05 -0.6124E-05  0.4400E-01  0.4400E-01
     -4.455 -0.1437E-04 -0.1437E-04  0.4400E-01  0.4400E-01
     -4.406 -0.3739E-04 -0.3739E-04  0.4400E-01  0.4400E-01
     -4.357 -0.8413E-04 -0.8413E-04  0.4399E-01  0.4399E-01
     -4.307 -0.1557E-03 -0.1557E-03  0.4399E-01  0.4399E-01
     -4.258 -0.2221E-03 -0.2221E-03  0.4397E-01  0.4397E-01
     -4.209 -0.1952E-03 -0.1952E-03  0.4396E-01  0.4396E-01
     -4.159  0.6828E-04  0.6828E-04  0.4397E-01  0.4397E-01
     -4.110  0.6973E-03  0.6973E-03  0.4400E-01  0.4400E-01
     -4.061  0.1680E-02  0.1680E-02  0.4409E-01  0.4409E-01
     -4.011  0.2775E-02  0.2775E-02  0.4422E-01  0.4422E-01
     -3.962  0.3598E-02  0.3598E-02  0.4440E-01  0.4440E-01
     -3.913  0.3883E-02  0.3883E-02  0.4459E-01  0.4459E-01
     -3.864  0.3737E-02  0.3737E-02  0.4478E-01  0.4478E-01
     -3.814  0.3623E-02  0.3623E-02  0.4495E-01  0.4495E-01
     -3.765  0.4030E-02  0.4030E-02  0.4515E-01  0.4515E-01
     -3.716  0.5079E-02  0.5079E-02  0.4540E-01  0.4540E-01
     -3.666  0.6408E-02  0.6408E-02  0.4572E-01  0.4572E-01
     -3.617  0.7443E-02  0.7443E-02  0.4609E-01  0.4609E-01
     -3.568  0.7808E-02  0.7808E-02  0.4647E-01  0.4647E-01
     -3.518  0.7508E-02  0.7508E-02  0.4684E-01  0.4684E-01
     -3.469  0.6789E-02  0.6789E-02  0.4718E-01  0.4718E-01
     -3.420  0.5857E-02  0.5857E-02  0.4747E-01  0.4747E-01
     -3.370  0.4759E-02  0.4759E-02  0.4770E-01  0.4770E-01
     -3.321  0.3499E-02  0.3499E-02  0.4787E-01  0.4787E-01
     -3.272  0.2184E-02  0.2184E-02  0.4798E-01  0.4798E-01
     -3.222  0.1032E-02  0.1032E-02  0.4803E-01  0.4803E-01
     -3.173  0.2353E-03  0.2353E-03  0.4804E-01  0.4804E-01
     -3.124 -0.1636E-03 -0.1636E-03  0.4803E-01  0.4803E-01
     -3.074 -0.2631E-03 -0.2631E-03  0.4802E-01  0.4802E-01
     -3.025 -0.2128E-03 -0.2128E-03  0.4801E-01  0.4801E-01
     -2.976 -0.1279E-03 -0.1279E-03  0.4800E-01  0.4800E-01
     -2.927 -0.6229E-04 -0.6229E-04  0.4800E-01  0.4800E-01
     -2.877 -0.2545E-04 -0.2545E-04  0.4800E-01  0.4800E-01
     -2.828 -0.8873E-05 -0.8873E-05  0.4800E-01  0.4800E-01
     -2.779 -0.2666E-05 -0.2666E-05  0.4800E-01  0.4800E-01
     -2.729 -0.6951E-06 -0.6951E-06  0.4800E-01  0.4800E-01
     -2.680 -0.1580E-06 -0.1580E-06  0.4800E-01  0.4800E-01
     -2.631 -0.3247E-07 -0.3247E-07  0.4800E-01  0.4800E-01
     -2.581 -0.1294E-07 -0.1294E-07  0.4800E-01  0.4800E-01
     -2.532 -0.4393E-07 -0.4393E-07  0.4800E-01  0.4800E-01
     -2.483 -0.2177E-06 -0.2177E-06  0.4800E-01  0.4800E-01
     -2.433 -0.9624E-06 -0.9624E-06  0.4800E-01  0.4800E-01
     -2.384 -0.3719E-05 -0.3719E-05  0.4800E-01  0.4800E-01
     -2.335 -0.1250E-04 -0.1250E-04  0.4800E-01  0.4800E-01
     -2.285 -0.3635E-04 -0.3635E-04  0.4800E-01  0.4800E-01
     -2.236 -0.9050E-04 -0.9050E-04  0.4799E-01  0.4799E-01
     -2.187 -0.1896E-03 -0.1896E-03  0.4798E-01  0.4798E-01
     -2.137 -0.3227E-03 -0.3227E-03  0.4797E-01  0.4797E-01
     -2.088 -0.4073E-03 -0.4073E-03  0.4795E-01  0.4795E-01
     -2.039 -0.2490E-03 -0.2490E-03  0.4794E-01  0.4794E-01
     -1.990  0.4324E-03  0.4324E-03  0.4796E-01  0.4796E-01
     -1.940  0.1853E-02  0.1853E-02  0.4805E-01  0.4805E-01
     -1.891  0.3935E-02  0.3935E-02  0.4824E-01  0.4824E-01
     -1.842  0.6166E-02  0.6166E-02  0.4855E-01  0.4855E-01
     -1.792  0.7741E-02  0.7741E-02  0.4893E-01  0.4893E-01
     -1.743  0.7988E-02  0.7988E-02  0.4932E-01  0.4932E-01
     -1.694  0.6776E-02  0.6776E-02  0.4966E-01  0.4966E-01
     -1.644  0.4609E-02  0.4609E-02  0.4988E-01  0.4988E-01
     -1.595  0.2315E-02  0.2315E-02  0.5000E-01  0.5000E-01
     -1.546  0.6102E-03  0.6102E-03  0.5003E-01  0.5003E-01
     -1.496 -0.1461E-03 -0.1461E-03  0.5002E-01  0.5002E-01
     -1.447  0.5432E-04  0.5431E-04  0.5002E-01  0.5002E-01
     -1.398  0.9923E-03  0.9923E-03  0.5007E-01  0.5007E-01
     -1.348  0.2319E-02  0.2319E-02  0.5019E-01  0.5019E-01
     -1.299  0.3643E-02  0.3643E-02  0.5037E-01  0.5037E-01
     -1.250  0.4655E-02  0.4655E-02  0.5060E-01  0.5060E-01
     -1.200  0.5234E-02  0.5234E-02  0.5085E-01  0.5085E-01
     -1.151  0.5412E-02  0.5412E-02  0.5112E-01  0.5112E-01
     -1.102  0.5226E-02  0.5226E-02  0.5138E-01  0.5138E-01
     -1.053  0.4632E-02  0.4632E-02  0.5161E-01  0.5161E-01
     -1.003  0.3600E-02  0.3600E-02  0.5178E-01  0.5178E-01
     -0.954  0.2291E-02  0.2291E-02  0.5190E-01  0.5190E-01
     -0.905  0.1117E-02  0.1117E-02  0.5195E-01  0.5195E-01
     -0.855  0.6035E-03  0.6035E-03  0.5198E-01  0.5198E-01
     -0.806  0.1135E-02  0.1135E-02  0.5204E-01  0.5204E-01
     -0.757  0.2722E-02  0.2722E-02  0.5217E-01  0.5217E-01
     -0.707  0.4895E-02  0.4895E-02  0.5241E-01  0.5241E-01
     -0.658  0.6826E-02  0.6825E-02  0.5275E-01  0.5275E-01
     -0.609  0.7694E-02  0.7694E-02  0.5313E-01  0.5313E-01
     -0.559  0.7147E-02  0.7147E-02  0.5348E-01  0.5348E-01
     -0.510  0.5530E-02  0.5530E-02  0.5375E-01  0.5375E-01
     -0.461  0.3701E-02  0.3701E-02  0.5394E-01  0.5394E-01
     -0.411  0.2530E-02  0.2530E-02  0.5406E-01  0.5406E-01
     -0.362  0.2430E-02  0.2430E-02  0.5418E-01  0.5418E-01
     -0.313  0.3223E-02  0.3223E-02  0.5434E-01  0.5434E-01
     -0.263  0.4376E-02  0.4376E-02  0.5456E-01  0.5456E-01
     -0.214  0.5360E-02  0.5360E-02  0.5482E-01  0.5482E-01
     -0.165  0.5854E-02  0.5854E-02  0.5511E-01  0.5511E-01
     -0.116  0.5748E-02  0.5748E-02  0.5539E-01  0.5539E-01
     -0.066  0.5055E-02  0.5055E-02  0.5564E-01  0.5564E-01
     -0.017  0.3902E-02  0.3902E-02  0.5583E-01  0.5583E-01
      0.032  0.2537E-02  0.2537E-02  0.5596E-01  0.5596E-01
      0.082  0.1278E-02  0.1278E-02  0.5602E-01  0.5602E-01
      0.131  0.3713E-03  0.3713E-03  0.5604E-01  0.5604E-01
      0.180 -0.1095E-03 -0.1095E-03  0.5604E-01  0.5604E-01
      0.230 -0.2553E-03 -0.2553E-03  0.5602E-01  0.5602E-01
      0.279 -0.2226E-03 -0.2226E-03  0.5601E-01  0.5601E-01
      0.328 -0.1393E-03 -0.1393E-03  0.5601E-01  0.5601E-01
      0.378 -0.6991E-04 -0.6991E-04  0.5600E-01  0.5600E-01
      0.427 -0.2929E-04 -0.2929E-04  0.5600E-01  0.5600E-01
      0.476 -0.1045E-04 -0.1045E-04  0.5600E-01  0.5600E-01
      0.526 -0.3208E-05 -0.3208E-05  0.5600E-01  0.5600E-01
      0.575 -0.8537E-06 -0.8538E-06  0.5600E-01  0.5600E-01
      0.624 -0.1978E-06 -0.1978E-06  0.5600E-01  0.5600E-01
      0.674 -0.4004E-07 -0.4004E-07  0.5600E-01  0.5600E-01
      0.723 -0.7096E-08 -0.7097E-08  0.5600E-01  0.5600E-01
      0.772 -0.1103E-08 -0.1104E-08  0.5600E-01  0.5600E-01
      0.821 -0.1507E-09 -0.1508E-09  0.5600E-01  0.5600E-01
      0.871 -0.1811E-10 -0.1811E-10  0.5600E-01  0.5600E-01
      0.920 -0.1916E-11 -0.1916E-11  0.5600E-01  0.5600E-01
      0.969 -0.1786E-12 -0.1786E-12  0.5600E-01  0.5600E-01
      1.019 -0.1467E-13 -0.1467E-13  0.5600E-01  0.5600E-01
      1.068 -0.1063E-14 -0.1063E-14  0.5600E-01  0.5600E-01
      1.117 -0.6754E-16 -0.6754E-16  0.5600E-01  0.5600E-01
      1.167 -0.4503E-17 -0.4503E-17  0.5600E-01  0.5600E-01
      1.216  0.0000E+00  0.0000E+00  0.5600E-01  0.5600E-01
      1.265  0.0000E+00  0.0000E+00  0.5600E-01  0.5600E-01
      1.315  0.0000E+00  0.0000E+00  0.5600E-01  0.5600E-01
      1.364  0.0000E+00  0.0000E+00  0.5600E-01  0.5600E-01
      1.413  0.0000E+00  0.0000E+00  0.5600E-01  0.5600E-01
      1.463  0.0000E+00  0.0000E+00  0.5600E-01  0.5600E-01
      1.512  0.0000E+00  0.0000E+00  0.5600E-01  0.5600E-01
      1.561  0.0000E+00  0.0000E+00  0.5600E-01  0.5600E-01
      1.611  0.0000E+00  0.0000E+00  0.5600E-01  0.5600E-01
      1.660  0.0000E+00  0.0000E+00  0.5600E-01  0.5600E-01
      1.709  0.0000E+00  0.0000E+00  0.5600E-01  0.5600E-01
      1.758  0.0000E+00  0.0000E+00  0.5600E-01  0.5600E-01
      1.808  0.0000E+00  0.0000E+00  0.5600E-01  0.5600E-01
      1.857  0.0000E+00  0.0000E+00  0.5600E-01  0.5600E-01
      1.906  0.0000E+00  0.0000E+00  0.5600E-01  0.5600E-01
