    8    8 1000    2
  0.1429823E+04  0.2196965E-08  0.2255172E-08  0.2308711E-08  0.5000000E-15
   1.0000000000000000E-004
  CAR 
 unknown system                          
     88      1     56
 
  0.1262379E-14  0.1262379E-14  0.1262379E-14  0.1000000E+01
    1      -10.888243    -10.888243   1.000000   1.000000
    2      -10.014834    -10.014834   1.000000   1.000000
    3       -9.992262     -9.992262   1.000000   1.000000
    4       -9.563375     -9.563375   1.000000   1.000000
    5       -9.177614     -9.177614   1.000000   1.000000
    6       -9.051043     -9.051043   1.000000   1.000000
    7       -9.010381     -9.010381   1.000000   1.000000
    8       -8.795791     -8.795791   1.000000   1.000000
    9       -8.704876     -8.704876   1.000000   1.000000
   10       -8.635780     -8.635780   1.000000   1.000000
   11       -8.535753     -8.535753   1.000000   1.000000
   12       -8.437130     -8.437130   1.000000   1.000000
   13       -8.337030     -8.337030   1.000000   1.000000
   14       -8.312525     -8.312525   1.000000   1.000000
   15       -8.269764     -8.269764   1.000000   1.000000
   16       -7.863316     -7.863317   1.000000   1.000000
   17       -7.810764     -7.810764   1.000000   1.000000
   18       -7.682490     -7.682490   1.000000   1.000000
   19       -7.553344     -7.553344   1.000000   1.000000
   20       -7.551786     -7.551786   1.000000   1.000000
   21       -7.452957     -7.452957   1.000000   1.000000
   22       -7.379704     -7.379704   1.000000   1.000000
   23       -7.296552     -7.296552   1.000000   1.000000
   24       -7.277874     -7.277874   1.000000   1.000000
   25       -7.036007     -7.036007   1.000000   1.000000
   26       -7.001187     -7.001187   1.000000   1.000000
   27       -6.910506     -6.910506   1.000000   1.000000
   28       -6.855727     -6.855727   1.000000   1.000000
   29       -6.805901     -6.805901   1.000000   1.000000
   30       -6.744117     -6.744117   1.000000   1.000000
   31       -6.711074     -6.711074   1.000000   1.000000
   32       -6.692424     -6.692424   1.000000   1.000000
   33       -6.568721     -6.568721   1.000000   1.000000
   34       -6.559808     -6.559808   1.000000   1.000000
   35       -6.449718     -6.449718   1.000000   1.000000
   36       -6.364711     -6.364711   1.000000   1.000000
   37       -6.348342     -6.348342   1.000000   1.000000
   38       -6.201137     -6.201137   1.000000   1.000000
   39       -6.175649     -6.175649   1.000000   1.000000
   40       -6.133971     -6.133971   1.000000   1.000000
   41       -5.964118     -5.964118   1.000000   1.000000
   42       -5.918473     -5.918473   1.000000   1.000000
   43       -5.653909     -5.653909   1.000010   1.000010
   44       -5.149183     -5.149183   0.999990   0.999990
   45       -3.948303     -3.948303  -0.000000  -0.000000
   46       -3.677835     -3.677835  -0.000000  -0.000000
   47       -3.581153     -3.581152  -0.000000  -0.000000
   48       -3.404967     -3.404967  -0.000000  -0.000000
   49       -1.812933     -1.812933  -0.000000  -0.000000
   50       -1.754093     -1.754092  -0.000000  -0.000000
   51       -1.274324     -1.274323  -0.000000  -0.000000
   52       -1.072844     -1.072843  -0.000000  -0.000000
   53       -0.661851     -0.661850  -0.000000  -0.000000
   54       -0.592212     -0.592210  -0.000000  -0.000000
   55       -0.270373     -0.270371  -0.000000  -0.000000
   56       -0.093602     -0.093600  -0.000000  -0.000000
