 vasp.6.1.2 22Jul20 (build Aug  2 2021 21:04:21) gamma-only                      
 executed on             LinuxPGI date 2021.12.30  12:19:10
 running on    8 total cores
 distrk:  each k-point on    8 cores,    1 groups
 distr:  one band on NCORE=   8 cores,    1 groups


--------------------------------------------------------------------------------------------------------


 INCAR:
 POTCAR:    PAW_PBE Au 04Oct2007                  
 -----------------------------------------------------------------------------
|                                                                             |
|           W    W    AA    RRRRR   N    N  II  N    N   GGGG   !!!           |
|           W    W   A  A   R    R  NN   N  II  NN   N  G    G  !!!           |
|           W    W  A    A  R    R  N N  N  II  N N  N  G       !!!           |
|           W WW W  AAAAAA  RRRRR   N  N N  II  N  N N  G  GGG   !            |
|           WW  WW  A    A  R   R   N   NN  II  N   NN  G    G                |
|           W    W  A    A  R    R  N    N  II  N    N   GGGG   !!!           |
|                                                                             |
|     You use a magnetic or noncollinear calculation, but did not specify     |
|     the initial magnetic moment with the MAGMOM tag. Note that a            |
|     default of 1 will be used for all atoms. This ferromagnetic setup       |
|     may break the symmetry of the crystal, in particular it may rule        |
|     out finding an antiferromagnetic solution. Thence, we recommend         |
|     setting the initial magnetic moment manually or verifying carefully     |
|     that this magnetic setup is desired.                                    |
|                                                                             |
 -----------------------------------------------------------------------------

 -----------------------------------------------------------------------------
|                                                                             |
|           W    W    AA    RRRRR   N    N  II  N    N   GGGG   !!!           |
|           W    W   A  A   R    R  NN   N  II  NN   N  G    G  !!!           |
|           W    W  A    A  R    R  N N  N  II  N N  N  G       !!!           |
|           W WW W  AAAAAA  RRRRR   N  N N  II  N  N N  G  GGG   !            |
|           WW  WW  A    A  R   R   N   NN  II  N   NN  G    G                |
|           W    W  A    A  R    R  N    N  II  N    N   GGGG   !!!           |
|                                                                             |
|     For optimal performance we recommend to set                             |
|       NCORE = 4 - approx SQRT(number of cores).                             |
|     NCORE specifies how many cores store one orbital (NPAR=cpu/NCORE).      |
|     This setting can greatly improve the performance of VASP for DFT.       |
|     The default, NCORE=1 might be grossly inefficient on modern             |
|     multi-core architectures or massively parallel machines. Do your        |
|     own testing!!!!                                                         |
|     Unfortunately you need to use the default for GW and RPA                |
|     calculations (for HF NCORE is supported but not extensively tested      |
|     yet).                                                                   |
|                                                                             |
 -----------------------------------------------------------------------------

 POTCAR:    PAW_PBE Au 04Oct2007                  
   SHA256 =  d0044ae04e2bdce24051b198fc5c053d722a5bc6fe3c3b100514a13fc5d2db88 Au/POTCAR             
   COPYR  = (c) Copyright 04Oct2007 Georg Kresse                                                    
   COPYR  = This file is part of the software VASP. Any use, copying, and all other rights are regul
   COPYR  = If you do not have a valid VASP license, you may not use, copy or distribute this file. 
   VRHFIN =Au: s1d10                                                                                
   LEXCH  = PE                                                                                      
   EATOM  =   926.0867 eV,   68.0654 Ry                                                             
                                                                                                    
   TITEL  = PAW_PBE Au 04Oct2007                                                                    
   LULTRA =        F    use ultrasoft PP ?                                                          
   IUNSCR =        1    unscreen: 0-lin 1-nonlin 2-no                                               
   RPACOR =    2.330    partial core radius                                                         
   POMASS =  196.966; ZVAL   =   11.000    mass and valenz                                          
   RCORE  =    2.500    outmost cutoff radius                                                       
   RWIGS  =    2.840; RWIGS  =    1.503    wigner-seitz radius (au A)                               
   ENMAX  =  229.943; ENMIN  =  172.457 eV                                                          
   ICORE  =        3    local potential                                                             
   LCOR   =        T    correct aug charges                                                         
   LPAW   =        T    paw PP                                                                      
   EAUG   =  356.670                                                                                
   DEXC   =    0.000                                                                                
   RMAX   =    2.562    core radius for proj-oper                                                   
   RAUG   =    1.300    factor for augmentation sphere                                              
   RDEP   =    2.598    radius for radial grids                                                     
   RDEPT  =    2.193    core radius for aug-charge                                                  
                                                                                                    
   Atomic configuration                                                                             
   16 entries                                                                                       
     n  l   j            E        occ.                                                              
     1  0  0.50    -80748.5001   2.0000                                                             
     2  0  0.50    -14244.7466   2.0000                                                             
     2  1  1.50    -12310.9591   6.0000                                                             
     3  0  0.50     -3362.1768   2.0000                                                             
     3  1  1.50     -2801.5463   6.0000                                                             
     3  2  2.50     -2203.8206  10.0000                                                             
     4  0  0.50      -729.8168   2.0000                                                             
     4  1  1.50      -546.0527   6.0000                                                             
     4  2  2.50      -325.7302  10.0000                                                             
     4  3  3.50       -81.1472  14.0000                                                             
     5  0  0.50      -108.3201   2.0000                                                             
     5  1  1.50       -59.7479   6.0000                                                             
     5  2  2.50        -6.8783  10.0000                                                             
     6  0  0.50        -5.7602   1.0000                                                             
     6  1  1.50        -6.8029   0.0000                                                             
     5  3  2.50        -1.3606   0.0000                                                             
   Description                                                                                      
     l       E           TYP  RCUT    TYP  RCUT                                                     
     2     -6.8782861     23  2.500                                                                 
     2     -8.2388687     23  2.500                                                                 
     0     -5.7601759     23  2.500                                                                 
     0     -0.8493231     23  2.500                                                                 
     1     -2.7211652     23  2.500                                                                 
     1     27.2116520     23  2.500                                                                 
     3     -1.3605826     23  2.500                                                                 
  local pseudopotential read in
  partial core-charges read in
  partial kinetic energy density read in
  atomic valenz-charges read in
  non local Contribution for L=            2  read in
    real space projection operators read in
  non local Contribution for L=            2  read in
    real space projection operators read in
  non local Contribution for L=            0  read in
    real space projection operators read in
  non local Contribution for L=            0  read in
    real space projection operators read in
  non local Contribution for L=            1  read in
    real space projection operators read in
  non local Contribution for L=            1  read in
    real space projection operators read in
    PAW grid and wavefunctions read in
 
   number of l-projection  operators is LMAX  =            6
   number of lm-projection operators is LMMAX =           18
 
  PAW_PBE Au 04Oct2007                  :
 energy of atom  1       EATOM= -926.0867
 kinetic energy error for atom=    0.0062 (will be added to EATOM!!)
 
 
 POSCAR: Au
  positions in cartesian coordinates
  No initial velocities read in
 exchange correlation table for  LEXCH =        8
   RHO(1)=    0.500       N(1)  =     2000
   RHO(2)=  100.500       N(2)  =     4000
 


--------------------------------------------------------------------------------------------------------


 ion  position               nearest neighbor table
   1  0.420  0.516  0.473-   4 2.54   7 2.68   3 2.69   8 2.71
   2  0.531  0.591  0.612-   5 2.59   7 2.61   3 2.62
   3  0.517  0.584  0.500-   2 2.62   4 2.63   1 2.69   5 2.74   8 2.78   7 2.79
   4  0.496  0.544  0.395-   1 2.54   3 2.63   8 2.63
   5  0.598  0.514  0.559-   6 2.58   2 2.59   3 2.74   8 2.75   7 2.77
   6  0.553  0.409  0.569-   5 2.58   7 2.61   8 2.62
   7  0.475  0.496  0.575-   6 2.61   2 2.61   1 2.68   5 2.77   8 2.78   3 2.79
   8  0.531  0.465  0.471-   6 2.62   4 2.63   1 2.71   5 2.75   3 2.78   7 2.78
 

IMPORTANT INFORMATION: All symmetrisations will be switched off!
NOSYMM: (Re-)initialisation of all symmetry stuff for point group C_1.


----------------------------------------------------------------------------------------

                                     Primitive cell                                     

  volume of cell :   11438.5855

  direct lattice vectors                    reciprocal lattice vectors
    21.969645825  0.000000000  0.000000000     0.045517347  0.000000000  0.000000000
     0.000000000 22.551716949  0.000000000     0.000000000  0.044342522  0.000000000
     0.000000000  0.000000000 23.087114478     0.000000000  0.000000000  0.043314205

  length of vectors
    21.969645825 22.551716949 23.087114478     0.045517347  0.044342522  0.043314205

  position of ions in fractional coordinates (direct lattice)
     0.420050192  0.516472600  0.473389852
     0.531009517  0.590540214  0.612370572
     0.517379903  0.583572110  0.499840404
     0.495966056  0.543782886  0.394896103
     0.598492519  0.513950853  0.559163521
     0.553091972  0.408715727  0.568860103
     0.474877793  0.495761277  0.574907252
     0.531037061  0.464555704  0.471382868

  ion indices of the primitive-cell ions
   primitive index   ion index
                 1           1
                 2           2
                 3           3
                 4           4
                 5           5
                 6           6
                 7           7
                 8           8

----------------------------------------------------------------------------------------

 
 
 KPOINTS: KPOINTS created by Atomic Simulation Env

Automatic generation of k-mesh.
Space group operators:
 irot       det(A)        alpha          n_x          n_y          n_z        tau_x        tau_y        tau_z
    1     1.000000     0.000000     1.000000     0.000000     0.000000     0.000000     0.000000     0.000000
 
 Subroutine IBZKPT returns following result:
 ===========================================
 
 Found      1 irreducible k-points:
 
 Following reciprocal coordinates:
            Coordinates               Weight
  0.000000  0.000000  0.000000      1.000000
 
 Following cartesian coordinates:
            Coordinates               Weight
  0.000000  0.000000  0.000000      1.000000
 


--------------------------------------------------------------------------------------------------------




 Dimension of arrays:
   k-points           NKPTS =      1   k-points in BZ     NKDIM =      1   number of bands    NBANDS=     56
   number of dos      NEDOS =    301   number of ions     NIONS =      8
   non local maximal  LDIM  =      6   non local SUM 2l+1 LMDIM =     18
   total plane-waves  NPLWV = ******
   max r-space proj   IRMAX =      1   max aug-charges    IRDMAX=   7959
   dimension x,y,z NGX =   108 NGY =  112 NGZ =  120
   dimension x,y,z NGXF=   216 NGYF=  224 NGZF=  240
   support grid    NGXF=   216 NGYF=  224 NGZF=  240
   ions per type =               8
   NGX,Y,Z   is equivalent  to a cutoff of   8.17,  8.26,  8.64 a.u.
   NGXF,Y,Z  is equivalent  to a cutoff of  16.34, 16.51, 17.28 a.u.

 SYSTEM =  unknown system                          
 POSCAR =  Au                                      

 Startparameter for this run:
   NWRITE =      2    write-flag & timer
   PREC   = normal    normal or accurate (medium, high low for compatibility)
   ISTART =      0    job   : 0-new  1-cont  2-samecut
   ICHARG =      2    charge: 1-file 2-atom 10-const
   ISPIN  =      2    spin polarized calculation?
   LNONCOLLINEAR =      F non collinear calculations
   LSORBIT =      F    spin-orbit coupling
   INIWAV =      1    electr: 0-lowe 1-rand  2-diag
   LASPH  =      F    aspherical Exc in radial PAW
   METAGGA=      F    non-selfconsistent MetaGGA calc.

 Electronic Relaxation 1
   ENCUT  =  400.0 eV  29.40 Ry    5.42 a.u.  35.83 36.78 37.65*2*pi/ulx,y,z
   ENINI  =  400.0     initial cutoff
   ENAUG  =  356.7 eV  augmentation charge cutoff
   NELM   =     60;   NELMIN=  2; NELMDL=  0     # of ELM steps 
   EDIFF  = 0.1E-03   stopping-criterion for ELM
   LREAL  =      F    real-space projection
   NLSPLINE    = F    spline interpolate recip. space projectors
   LCOMPAT=      F    compatible to vasp.4.4
   GGA_COMPAT  = T    GGA compatible to vasp.4.4-vasp.4.6
   LMAXPAW     = -100 max onsite density
   LMAXMIX     =    2 max onsite mixed and CHGCAR
   VOSKOWN=      0    Vosko Wilk Nusair interpolation
   ROPT   =    0.00000
 Ionic relaxation
   EDIFFG = 0.1E-02   stopping-criterion for IOM
   NSW    =   1000    number of steps for IOM
   NBLOCK =      1;   KBLOCK =   1000    inner block; outer block 
   IBRION =      2    ionic relax: 0-MD 1-quasi-New 2-CG
   NFREE  =      1    steps in history (QN), initial steepest desc. (CG)
   ISIF   =      0    stress and relaxation
   IWAVPR =     11    prediction:  0-non 1-charg 2-wave 3-comb
   ISYM   =      0    0-nonsym 1-usesym 2-fastsym
   LCORR  =      T    Harris-Foulkes like correction to forces

   POTIM  = 0.5000    time-step for ionic-motion
   TEIN   =    0.0    initial temperature
   TEBEG  =    0.0;   TEEND  =   0.0 temperature during run
   SMASS  =  -3.00    Nose mass-parameter (am)
   estimated Nose-frequenzy (Omega)   =  0.10E-29 period in steps = 0.13E+47 mass=  -0.110E-25a.u.
   SCALEE = 1.0000    scale energy and forces
   NPACO  =    256;   APACO  = 16.0  distance and # of slots for P.C.
   PSTRESS=    0.0 pullay stress

  Mass of Ions in am
   POMASS = 196.97
  Ionic Valenz
   ZVAL   =  11.00
  Atomic Wigner-Seitz radii
   RWIGS  =  -1.00
  virtual crystal weights 
   VCA    =   1.00
   NELECT =      88.0000    total number of electrons
   NUPDOWN=      -1.0000    fix difference up-down

 DOS related values:
   EMIN   =  10.00;   EMAX   =-10.00  energy-range for DOS
   EFERMI =   0.00
   ISMEAR =     1;   SIGMA  =   0.20  broadening in eV -4-tet -1-fermi 0-gaus

 Electronic relaxation 2 (details)
   IALGO  =     38    algorithm
   LDIAG  =      T    sub-space diagonalisation (order eigenvalues)
   LSUBROT=      F    optimize rotation matrix (better conditioning)
   TURBO    =      0    0=normal 1=particle mesh
   IRESTART =      0    0=no restart 2=restart with 2 vectors
   NREBOOT  =      0    no. of reboots
   NMIN     =      0    reboot dimension
   EREF     =   0.00    reference energy to select bands
   IMIX   =      4    mixing-type and parameters
     AMIX     =   0.40;   BMIX     =  1.00
     AMIX_MAG =   1.60;   BMIX_MAG =  1.00
     AMIN     =   0.10
     WC   =   100.;   INIMIX=   1;  MIXPRE=   1;  MAXMIX= -45

 Intra band minimization:
   WEIMIN = 0.0010     energy-eigenvalue tresh-hold
   EBREAK =  0.45E-06  absolut break condition
   DEPER  =   0.30     relativ break condition  

   TIME   =   0.40     timestep for ELM

  volume/ion in A,a.u.               =    1429.82      9648.92
  Fermi-wavevector in a.u.,A,eV,Ry     =   0.323180  0.610722  1.421068  0.104446
  Thomas-Fermi vector in A             =   1.212206
 
 Write flags
   LWAVE        =      F    write WAVECAR
   LDOWNSAMPLE  =      F    k-point downsampling of WAVECAR
   LCHARG       =      F    write CHGCAR
   LVTOT        =      F    write LOCPOT, total local potential
   LVHAR        =      F    write LOCPOT, Hartree potential only
   LELF         =      F    write electronic localiz. function (ELF)
   LORBIT       =      0    0 simple, 1 ext, 2 COOP (PROOUT), +10 PAW based schemes


 Dipole corrections
   LMONO  =      F    monopole corrections only (constant potential shift)
   LDIPOL =      F    correct potential (dipole corrections)
   IDIPOL =      0    1-x, 2-y, 3-z, 4-all directions 
   EPSILON=  1.0000000 bulk dielectric constant

 Exchange correlation treatment:
   GGA     =    PE    GGA type
   LEXCH   =     8    internal setting for exchange type
   VOSKOWN=      0    Vosko Wilk Nusair interpolation
   LHFCALC =     F    Hartree Fock is set to
   LHFONE  =     F    Hartree Fock one center treatment
   AEXX    =    0.0000 exact exchange contribution

 Linear response parameters
   LEPSILON=     F    determine dielectric tensor
   LRPA    =     F    only Hartree local field effects (RPA)
   LNABLA  =     F    use nabla operator in PAW spheres
   LVEL    =     F    velocity operator in full k-point grid
   LINTERFAST=   F  fast interpolation
   KINTER  =     0    interpolate to denser k-point grid
   CSHIFT  =0.1000    complex shift for real part using Kramers Kronig
   OMEGAMAX=  -1.0    maximum frequency
   DEG_THRESHOLD= 0.2000000E-02 threshold for treating states as degnerate
   RTIME   =   -0.100 relaxation time in fs
  (WPLASMAI=    0.000 imaginary part of plasma frequency in eV, 0.658/RTIME)
   DFIELD  = 0.0000000 0.0000000 0.0000000 field for delta impulse in time
 
 Orbital magnetization related:
   ORBITALMAG=     F  switch on orbital magnetization
   LCHIMAG   =     F  perturbation theory with respect to B field
   DQ        =  0.001000  dq finite difference perturbation B field
   LLRAUG    =     F  two centre corrections for induced B field



--------------------------------------------------------------------------------------------------------


 conjugate gradient relaxation of ions
 charge density and potential will be updated during run
 spin polarized calculation
 Variant of blocked Davidson
 Davidson routine will perform the subspace rotation
 perform sub-space diagonalisation
    after iterative eigenvector-optimisation
 modified Broyden-mixing scheme, WC =      100.0
 initial mixing is a Kerker type mixing with AMIX =  0.4000 and BMIX =      1.0000
 Hartree-type preconditioning will be used
 using additional bands            12
 reciprocal scheme for non local part
 use partial core corrections
 calculate Harris-corrections to forces 
   (improved forces if not selfconsistent)
 use gradient corrections 
 use of overlap-Matrix (Vanderbilt PP)
 Methfessel and Paxton  Order N= 1 SIGMA  =   0.20


--------------------------------------------------------------------------------------------------------


  energy-cutoff  :      400.00
  volume of cell :    11438.59
      direct lattice vectors                 reciprocal lattice vectors
    21.969645825  0.000000000  0.000000000     0.045517347  0.000000000  0.000000000
     0.000000000 22.551716949  0.000000000     0.000000000  0.044342522  0.000000000
     0.000000000  0.000000000 23.087114478     0.000000000  0.000000000  0.043314205

  length of vectors
    21.969645825 22.551716949 23.087114478     0.045517347  0.044342522  0.043314205


 
 k-points in units of 2pi/SCALE and weight: KPOINTS created by Atomic Simulation Env
   0.00000000  0.00000000  0.00000000       1.000
 
 k-points in reciprocal lattice and weights: KPOINTS created by Atomic Simulation Env
   0.00000000  0.00000000  0.00000000       1.000
 
 position of ions in fractional coordinates (direct lattice) 
   0.42005019  0.51647260  0.47338985
   0.53100952  0.59054021  0.61237057
   0.51737990  0.58357211  0.49984040
   0.49596606  0.54378289  0.39489610
   0.59849252  0.51395085  0.55916352
   0.55309197  0.40871573  0.56886010
   0.47487779  0.49576128  0.57490725
   0.53103706  0.46455570  0.47138287
 
 position of ions in cartesian coordinates  (Angst):
   9.22835394 11.64734388 10.92920570
  11.66609101 13.31769574 14.13786949
  11.36665323 13.16055304 11.53987262
  10.89619859 12.26323773  9.11701155
  13.14866866 11.59047416 12.90947222
  12.15123474  9.21724140 13.13333831
  10.43289693 11.18026799 13.27294953
  11.66669614 10.47652875 10.88287023
 


--------------------------------------------------------------------------------------------------------


 use parallel FFT for orbitals z direction half grid
 k-point   1 :   0.0000 0.0000 0.0000  plane waves:  103907

 maximum and minimum number of plane-waves per node :     12998    12981

 maximum number of plane-waves:    103907
 maximum index in each direction: 
   IXMAX=   35   IYMAX=   36   IZMAX=   37
   IXMIN=  -35   IYMIN=  -36   IZMIN=    0


 parallel 3D FFT for wavefunctions:
    minimum data exchange during FFTs selected (reduces bandwidth)
 parallel 3D FFT for charge:
    minimum data exchange during FFTs selected (reduces bandwidth)


 total amount of memory used by VASP MPI-rank0   230258. kBytes
=======================================================================

   base      :      30000. kBytes
   nonl-proj :       3532. kBytes
   fftplans  :      53134. kBytes
   grid      :     120289. kBytes
   one-center:         15. kBytes
   wavefun   :      23288. kBytes
 
     INWAV:  cpu time    0.0000: real time    0.0000
 Broyden mixing: mesh for mixing (old mesh)
   NGX = 71   NGY = 73   NGZ = 75
  (NGX  =216   NGY  =224   NGZ  =240)
  gives a total of 388725 points

 initial charge density was supplied:
 charge density of overlapping atoms calculated
 number of electron      88.0000000 magnetization       8.0000000
 keeping initial charge density in first step


--------------------------------------------------------------------------------------------------------


 Maximum index for augmentation-charges           996 (set IRDMAX)


--------------------------------------------------------------------------------------------------------


 First call to EWALD:  gamma=   0.079
 Maximum number of real-space cells 3x 3x 3
 Maximum number of reciprocal cells 3x 3x 3

    FEWALD:  cpu time    0.0011: real time    0.0011


--------------------------------------- Iteration      1(   1)  ---------------------------------------


    POTLOK:  cpu time    3.9141: real time    3.9224
    SETDIJ:  cpu time    0.0234: real time    0.0259
     EDDAV:  cpu time    6.0597: real time    6.0675
       DOS:  cpu time    0.0071: real time    0.0071
    --------------------------------------------
      LOOP:  cpu time   10.0043: real time   10.0228

 eigenvalue-minimisations  :   224
 total energy-change (2. order) : 0.7564109E+03  (-0.1316723E+04)
 number of electron      88.0000000 magnetization       8.0000000
 augmentation part       88.0000000 magnetization       8.0000000

 Free energy of the ion-electron system (eV)
  ---------------------------------------------------
  alpha Z        PSCENC =         6.51714733
  Ewald energy   TEWEN  =      8703.85755893
  -Hartree energ DENC   =    -15779.71970882
  -exchange      EXHF   =         0.00000000
  -V(xc)+E(xc)   XCENC  =       119.15274386
  PAW double counting   =      6992.17180065    -6807.49900724
  entropy T*S    EENTRO =        -0.04506477
  eigenvalues    EBANDS =       113.33128207
  atomic energy  EATOM  =      7408.64415014
  Solvation  Ediel_sol  =         0.00000000
  ---------------------------------------------------
  free energy    TOTEN  =       756.41090214 eV

  energy without entropy =      756.45596691  energy(sigma->0) =      756.42592373


--------------------------------------------------------------------------------------------------------




--------------------------------------- Iteration      1(   2)  ---------------------------------------


     EDDAV:  cpu time    9.7791: real time    9.7904
       DOS:  cpu time    0.0047: real time    0.0047
    --------------------------------------------
      LOOP:  cpu time    9.7838: real time    9.7951

 eigenvalue-minimisations  :   424
 total energy-change (2. order) :-0.3003289E+03  (-0.2818015E+03)
 number of electron      88.0000000 magnetization       8.0000000
 augmentation part       88.0000000 magnetization       8.0000000

 Free energy of the ion-electron system (eV)
  ---------------------------------------------------
  alpha Z        PSCENC =         6.51714733
  Ewald energy   TEWEN  =      8703.85755893
  -Hartree energ DENC   =    -15779.71970882
  -exchange      EXHF   =         0.00000000
  -V(xc)+E(xc)   XCENC  =       119.15274386
  PAW double counting   =      6992.17180065    -6807.49900724
  entropy T*S    EENTRO =        -0.06742819
  eigenvalues    EBANDS =      -186.97529793
  atomic energy  EATOM  =      7408.64415014
  Solvation  Ediel_sol  =         0.00000000
  ---------------------------------------------------
  free energy    TOTEN  =       456.08195872 eV

  energy without entropy =      456.14938692  energy(sigma->0) =      456.10443479


--------------------------------------------------------------------------------------------------------




--------------------------------------- Iteration      1(   3)  ---------------------------------------


     EDDAV:  cpu time    9.2716: real time    9.2842
       DOS:  cpu time    0.0070: real time    0.0070
    --------------------------------------------
      LOOP:  cpu time    9.2786: real time    9.2912

 eigenvalue-minimisations  :   400
 total energy-change (2. order) :-0.3203293E+03  (-0.3002071E+03)
 number of electron      88.0000000 magnetization       8.0000000
 augmentation part       88.0000000 magnetization       8.0000000

 Free energy of the ion-electron system (eV)
  ---------------------------------------------------
  alpha Z        PSCENC =         6.51714733
  Ewald energy   TEWEN  =      8703.85755893
  -Hartree energ DENC   =    -15779.71970882
  -exchange      EXHF   =         0.00000000
  -V(xc)+E(xc)   XCENC  =       119.15274386
  PAW double counting   =      6992.17180065    -6807.49900724
  entropy T*S    EENTRO =         0.03995120
  eigenvalues    EBANDS =      -507.41201705
  atomic energy  EATOM  =      7408.64415014
  Solvation  Ediel_sol  =         0.00000000
  ---------------------------------------------------
  free energy    TOTEN  =       135.75261899 eV

  energy without entropy =      135.71266780  energy(sigma->0) =      135.73930193


--------------------------------------------------------------------------------------------------------




--------------------------------------- Iteration      1(   4)  ---------------------------------------


     EDDAV:  cpu time    7.9097: real time    7.9185
       DOS:  cpu time    0.0072: real time    0.0072
    --------------------------------------------
      LOOP:  cpu time    7.9169: real time    7.9258

 eigenvalue-minimisations  :   328
 total energy-change (2. order) :-0.1284760E+03  (-0.1216207E+03)
 number of electron      88.0000000 magnetization       8.0000000
 augmentation part       88.0000000 magnetization       8.0000000

 Free energy of the ion-electron system (eV)
  ---------------------------------------------------
  alpha Z        PSCENC =         6.51714733
  Ewald energy   TEWEN  =      8703.85755893
  -Hartree energ DENC   =    -15779.71970882
  -exchange      EXHF   =         0.00000000
  -V(xc)+E(xc)   XCENC  =       119.15274386
  PAW double counting   =      6992.17180065    -6807.49900724
  entropy T*S    EENTRO =        -0.03207320
  eigenvalues    EBANDS =      -635.81601901
  atomic energy  EATOM  =      7408.64415014
  Solvation  Ediel_sol  =         0.00000000
  ---------------------------------------------------
  free energy    TOTEN  =         7.27659264 eV

  energy without entropy =        7.30866584  energy(sigma->0) =        7.28728370


--------------------------------------------------------------------------------------------------------




--------------------------------------- Iteration      1(   5)  ---------------------------------------


     EDDAV:  cpu time    7.4201: real time    7.4277
       DOS:  cpu time    0.0071: real time    0.0071
    CHARGE:  cpu time    0.7859: real time    0.7866
    MIXING:  cpu time    0.0619: real time    0.0620
    --------------------------------------------
      LOOP:  cpu time    8.2750: real time    8.2834

 eigenvalue-minimisations  :   304
 total energy-change (2. order) :-0.2271356E+02  (-0.2027902E+02)
 number of electron      88.0000017 magnetization       7.1173749
 augmentation part       31.4128931 magnetization       7.2274553

 Broyden mixing:
  rms(total) = 0.23213E+01    rms(broyden)= 0.23212E+01
  rms(prec ) = 0.23386E+01
  weight for this iteration     100.00

 Free energy of the ion-electron system (eV)
  ---------------------------------------------------
  alpha Z        PSCENC =         6.51714733
  Ewald energy   TEWEN  =      8703.85755893
  -Hartree energ DENC   =    -15779.71970882
  -exchange      EXHF   =         0.00000000
  -V(xc)+E(xc)   XCENC  =       119.15274386
  PAW double counting   =      6992.17180065    -6807.49900724
  entropy T*S    EENTRO =         0.00598158
  eigenvalues    EBANDS =      -658.56763076
  atomic energy  EATOM  =      7408.64415014
  Solvation  Ediel_sol  =         0.00000000
  ---------------------------------------------------
  free energy    TOTEN  =       -15.43696433 eV

  energy without entropy =      -15.44294592  energy(sigma->0) =      -15.43895819


--------------------------------------------------------------------------------------------------------




--------------------------------------- Iteration      1(   6)  ---------------------------------------


    POTLOK:  cpu time    3.9234: real time    3.9324
    SETDIJ:  cpu time    0.0259: real time    0.0260
     EDDAV:  cpu time    6.3738: real time    6.3818
       DOS:  cpu time    0.0077: real time    0.0077
    CHARGE:  cpu time    0.7570: real time    0.7578
    MIXING:  cpu time    0.0669: real time    0.0670
    --------------------------------------------
      LOOP:  cpu time   11.1548: real time   11.1727

 eigenvalue-minimisations  :   248
 total energy-change (2. order) : 0.1270757E+02  (-0.4575685E+01)
 number of electron      88.0000017 magnetization       6.2723998
 augmentation part       32.3741581 magnetization       4.4573529

 Broyden mixing:
  rms(total) = 0.14846E+01    rms(broyden)= 0.14846E+01
  rms(prec ) = 0.14879E+01
  weight for this iteration     100.00

 eigenvalues of (default mixing * dielectric matrix)
  average eigenvalue GAMMA=   1.0473
  1.0473

 Free energy of the ion-electron system (eV)
  ---------------------------------------------------
  alpha Z        PSCENC =         6.51714733
  Ewald energy   TEWEN  =      8703.85755893
  -Hartree energ DENC   =    -15734.52356117
  -exchange      EXHF   =         0.00000000
  -V(xc)+E(xc)   XCENC  =       126.35116402
  PAW double counting   =      7448.94906959    -7271.89861385
  entropy T*S    EENTRO =        -0.03170622
  eigenvalues    EBANDS =      -690.59460290
  atomic energy  EATOM  =      7408.64415014
  Solvation  Ediel_sol  =         0.00000000
  ---------------------------------------------------
  free energy    TOTEN  =        -2.72939413 eV

  energy without entropy =       -2.69768791  energy(sigma->0) =       -2.71882539


--------------------------------------------------------------------------------------------------------




--------------------------------------- Iteration      1(   7)  ---------------------------------------


    POTLOK:  cpu time    3.8934: real time    3.9043
    SETDIJ:  cpu time    0.0286: real time    0.0286
     EDDAV:  cpu time    6.3733: real time    6.3811
       DOS:  cpu time    0.0084: real time    0.0085
    CHARGE:  cpu time    0.7621: real time    0.7634
    MIXING:  cpu time    0.0703: real time    0.0704
    --------------------------------------------
      LOOP:  cpu time   11.1362: real time   11.1562

 eigenvalue-minimisations  :   248
 total energy-change (2. order) :-0.1785588E+01  (-0.2762218E+00)
 number of electron      88.0000017 magnetization       5.2057021
 augmentation part       32.2782734 magnetization       4.5141636

 Broyden mixing:
  rms(total) = 0.66841E+00    rms(broyden)= 0.66841E+00
  rms(prec ) = 0.67240E+00
  weight for this iteration     100.00

 eigenvalues of (default mixing * dielectric matrix)
  average eigenvalue GAMMA=   1.3276
  0.7586  1.8966

 Free energy of the ion-electron system (eV)
  ---------------------------------------------------
  alpha Z        PSCENC =         6.51714733
  Ewald energy   TEWEN  =      8703.85755893
  -Hartree energ DENC   =    -15749.28107437
  -exchange      EXHF   =         0.00000000
  -V(xc)+E(xc)   XCENC  =       125.36921078
  PAW double counting   =      7881.49258915    -7709.22044827
  entropy T*S    EENTRO =        -0.02011197
  eigenvalues    EBANDS =      -671.87400386
  atomic energy  EATOM  =      7408.64415014
  Solvation  Ediel_sol  =         0.00000000
  ---------------------------------------------------
  free energy    TOTEN  =        -4.51498214 eV

  energy without entropy =       -4.49487017  energy(sigma->0) =       -4.50827815


--------------------------------------------------------------------------------------------------------




--------------------------------------- Iteration      1(   8)  ---------------------------------------


    POTLOK:  cpu time    3.8745: real time    3.8818
    SETDIJ:  cpu time    0.0263: real time    0.0263
     EDDAV:  cpu time    6.3826: real time    6.3912
       DOS:  cpu time    0.0067: real time    0.0067
    CHARGE:  cpu time    0.7707: real time    0.7715
    MIXING:  cpu time    0.0759: real time    0.0760
    --------------------------------------------
      LOOP:  cpu time   11.1367: real time   11.1536

 eigenvalue-minimisations  :   248
 total energy-change (2. order) :-0.1734551E+01  (-0.1149440E+00)
 number of electron      88.0000017 magnetization       4.7028400
 augmentation part       32.2529456 magnetization       4.2633880

 Broyden mixing:
  rms(total) = 0.22850E+00    rms(broyden)= 0.22850E+00
  rms(prec ) = 0.23157E+00
  weight for this iteration     100.00

 eigenvalues of (default mixing * dielectric matrix)
  average eigenvalue GAMMA=   1.2474
  2.1742  0.9121  0.6558

 Free energy of the ion-electron system (eV)
  ---------------------------------------------------
  alpha Z        PSCENC =         6.51714733
  Ewald energy   TEWEN  =      8703.85755893
  -Hartree energ DENC   =    -15759.06863557
  -exchange      EXHF   =         0.00000000
  -V(xc)+E(xc)   XCENC  =       124.18700577
  PAW double counting   =      8189.98610019    -8021.15598216
  entropy T*S    EENTRO =        -0.00500290
  eigenvalues    EBANDS =      -659.21187455
  atomic energy  EATOM  =      7408.64415014
  Solvation  Ediel_sol  =         0.00000000
  ---------------------------------------------------
  free energy    TOTEN  =        -6.24953282 eV

  energy without entropy =       -6.24452992  energy(sigma->0) =       -6.24786518


--------------------------------------------------------------------------------------------------------




--------------------------------------- Iteration      1(   9)  ---------------------------------------


    POTLOK:  cpu time    3.8960: real time    3.9006
    SETDIJ:  cpu time    0.0261: real time    0.0261
     EDDAV:  cpu time    6.5199: real time    6.5272
       DOS:  cpu time    0.0085: real time    0.0085
    CHARGE:  cpu time    0.7628: real time    0.7637
    MIXING:  cpu time    0.0785: real time    0.0786
    --------------------------------------------
      LOOP:  cpu time   11.2919: real time   11.3047

 eigenvalue-minimisations  :   256
 total energy-change (2. order) :-0.2422574E+01  (-0.6037984E-01)
 number of electron      88.0000017 magnetization       4.0734222
 augmentation part       32.2500491 magnetization       3.8667688

 Broyden mixing:
  rms(total) = 0.15409E+00    rms(broyden)= 0.15409E+00
  rms(prec ) = 0.15732E+00
  weight for this iteration     100.00

 eigenvalues of (default mixing * dielectric matrix)
  average eigenvalue GAMMA=   1.2080
  2.2530  1.1589  0.7819  0.6383

 Free energy of the ion-electron system (eV)
  ---------------------------------------------------
  alpha Z        PSCENC =         6.51714733
  Ewald energy   TEWEN  =      8703.85755893
  -Hartree energ DENC   =    -15758.91334955
  -exchange      EXHF   =         0.00000000
  -V(xc)+E(xc)   XCENC  =       122.33946793
  PAW double counting   =      8206.76383010    -8038.26393389
  entropy T*S    EENTRO =         0.02284840
  eigenvalues    EBANDS =      -659.63982666
  atomic energy  EATOM  =      7408.64415014
  Solvation  Ediel_sol  =         0.00000000
  ---------------------------------------------------
  free energy    TOTEN  =        -8.67210729 eV

  energy without entropy =       -8.69495568  energy(sigma->0) =       -8.67972342


--------------------------------------------------------------------------------------------------------




--------------------------------------- Iteration      1(  10)  ---------------------------------------


    POTLOK:  cpu time    3.8613: real time    3.8677
    SETDIJ:  cpu time    0.0253: real time    0.0253
     EDDAV:  cpu time    6.2352: real time    6.2422
       DOS:  cpu time    0.0080: real time    0.0080
    CHARGE:  cpu time    0.7588: real time    0.7596
    MIXING:  cpu time    0.0856: real time    0.0857
    --------------------------------------------
      LOOP:  cpu time   10.9741: real time   10.9886

 eigenvalue-minimisations  :   240
 total energy-change (2. order) :-0.1990634E+01  (-0.5388995E-01)
 number of electron      88.0000017 magnetization       3.0992222
 augmentation part       32.2591443 magnetization       2.9295309

 Broyden mixing:
  rms(total) = 0.12330E+00    rms(broyden)= 0.12330E+00
  rms(prec ) = 0.12486E+00
  weight for this iteration     100.00

 eigenvalues of (default mixing * dielectric matrix)
  average eigenvalue GAMMA=   1.2402
  2.3417  1.8122  0.8174  0.6721  0.5577

 Free energy of the ion-electron system (eV)
  ---------------------------------------------------
  alpha Z        PSCENC =         6.51714733
  Ewald energy   TEWEN  =      8703.85755893
  -Hartree energ DENC   =    -15757.66163772
  -exchange      EXHF   =         0.00000000
  -V(xc)+E(xc)   XCENC  =       120.81990520
  PAW double counting   =      8203.09465253    -8034.76252622
  entropy T*S    EENTRO =         0.01247725
  eigenvalues    EBANDS =      -661.18446895
  atomic energy  EATOM  =      7408.64415014
  Solvation  Ediel_sol  =         0.00000000
  ---------------------------------------------------
  free energy    TOTEN  =       -10.66274151 eV

  energy without entropy =      -10.67521876  energy(sigma->0) =      -10.66690060


--------------------------------------------------------------------------------------------------------




--------------------------------------- Iteration      1(  11)  ---------------------------------------


    POTLOK:  cpu time    3.8799: real time    3.8919
    SETDIJ:  cpu time    0.0266: real time    0.0266
     EDDAV:  cpu time    6.2398: real time    6.2467
       DOS:  cpu time    0.0081: real time    0.0081
    CHARGE:  cpu time    0.7725: real time    0.7733
    MIXING:  cpu time    0.0984: real time    0.0985
    --------------------------------------------
      LOOP:  cpu time   11.0254: real time   11.0452

 eigenvalue-minimisations  :   240
 total energy-change (2. order) :-0.2377004E+01  (-0.9377757E-01)
 number of electron      88.0000017 magnetization       2.6013089
 augmentation part       32.2818883 magnetization       2.4708964

 Broyden mixing:
  rms(total) = 0.82907E-01    rms(broyden)= 0.82906E-01
  rms(prec ) = 0.84147E-01
  weight for this iteration     100.00

 eigenvalues of (default mixing * dielectric matrix)
  average eigenvalue GAMMA=   1.2885
  2.7400  1.8204  0.9581  0.9581  0.6274  0.6274

 Free energy of the ion-electron system (eV)
  ---------------------------------------------------
  alpha Z        PSCENC =         6.51714733
  Ewald energy   TEWEN  =      8703.85755893
  -Hartree energ DENC   =    -15754.77648333
  -exchange      EXHF   =         0.00000000
  -V(xc)+E(xc)   XCENC  =       118.92737168
  PAW double counting   =      8184.57440428    -8016.32096438
  entropy T*S    EENTRO =         0.00924988
  eigenvalues    EBANDS =      -664.47218048
  atomic energy  EATOM  =      7408.64415014
  Solvation  Ediel_sol  =         0.00000000
  ---------------------------------------------------
  free energy    TOTEN  =       -13.03974595 eV

  energy without entropy =      -13.04899583  energy(sigma->0) =      -13.04282924


--------------------------------------------------------------------------------------------------------




--------------------------------------- Iteration      1(  12)  ---------------------------------------


    POTLOK:  cpu time    3.8754: real time    3.8841
    SETDIJ:  cpu time    0.0260: real time    0.0260
     EDDAV:  cpu time    6.3435: real time    6.3510
       DOS:  cpu time    0.0079: real time    0.0080
    CHARGE:  cpu time    0.7609: real time    0.7616
    MIXING:  cpu time    0.0976: real time    0.0977
    --------------------------------------------
      LOOP:  cpu time   11.1114: real time   11.1284

 eigenvalue-minimisations  :   248
 total energy-change (2. order) :-0.8173613E+00  (-0.2113407E-01)
 number of electron      88.0000017 magnetization       1.5450900
 augmentation part       32.2805283 magnetization       1.4185378

 Broyden mixing:
  rms(total) = 0.64633E-01    rms(broyden)= 0.64633E-01
  rms(prec ) = 0.66173E-01
  weight for this iteration     100.00

 eigenvalues of (default mixing * dielectric matrix)
  average eigenvalue GAMMA=   1.4947
  3.4270  2.5300  1.3999  1.0795  0.8106  0.6330  0.5831

 Free energy of the ion-electron system (eV)
  ---------------------------------------------------
  alpha Z        PSCENC =         6.51714733
  Ewald energy   TEWEN  =      8703.85755893
  -Hartree energ DENC   =    -15752.86638484
  -exchange      EXHF   =         0.00000000
  -V(xc)+E(xc)   XCENC  =       118.24754450
  PAW double counting   =      8174.16733642    -8005.85626739
  entropy T*S    EENTRO =         0.01176959
  eigenvalues    EBANDS =      -666.57996195
  atomic energy  EATOM  =      7408.64415014
  Solvation  Ediel_sol  =         0.00000000
  ---------------------------------------------------
  free energy    TOTEN  =       -13.85710727 eV

  energy without entropy =      -13.86887686  energy(sigma->0) =      -13.86103047


--------------------------------------------------------------------------------------------------------




--------------------------------------- Iteration      1(  13)  ---------------------------------------


    POTLOK:  cpu time    3.8895: real time    3.8937
    SETDIJ:  cpu time    0.0261: real time    0.0261
     EDDAV:  cpu time    6.5198: real time    6.5277
       DOS:  cpu time    0.0085: real time    0.0085
    CHARGE:  cpu time    0.7547: real time    0.7555
    MIXING:  cpu time    0.1096: real time    0.1097
    --------------------------------------------
      LOOP:  cpu time   11.3081: real time   11.3212

 eigenvalue-minimisations  :   256
 total energy-change (2. order) :-0.1079456E+01  (-0.4622865E-01)
 number of electron      88.0000017 magnetization       1.1011171
 augmentation part       32.3098075 magnetization       1.0043398

 Broyden mixing:
  rms(total) = 0.45142E-01    rms(broyden)= 0.45141E-01
  rms(prec ) = 0.46028E-01
  weight for this iteration     100.00

 eigenvalues of (default mixing * dielectric matrix)
  average eigenvalue GAMMA=   1.5154
  4.3591  2.2529  1.6171  1.1297  0.8868  0.6652  0.6652  0.5472

 Free energy of the ion-electron system (eV)
  ---------------------------------------------------
  alpha Z        PSCENC =         6.51714733
  Ewald energy   TEWEN  =      8703.85755893
  -Hartree energ DENC   =    -15745.43646945
  -exchange      EXHF   =         0.00000000
  -V(xc)+E(xc)   XCENC  =       117.20790603
  PAW double counting   =      8133.66623649    -7964.98875358
  entropy T*S    EENTRO =         0.01270281
  eigenvalues    EBANDS =      -674.41704177
  atomic energy  EATOM  =      7408.64415014
  Solvation  Ediel_sol  =         0.00000000
  ---------------------------------------------------
  free energy    TOTEN  =       -14.93656307 eV

  energy without entropy =      -14.94926588  energy(sigma->0) =      -14.94079734


--------------------------------------------------------------------------------------------------------




--------------------------------------- Iteration      1(  14)  ---------------------------------------


    POTLOK:  cpu time    3.8904: real time    3.8949
    SETDIJ:  cpu time    0.0260: real time    0.0260
     EDDAV:  cpu time    6.8356: real time    6.8422
       DOS:  cpu time    0.0070: real time    0.0070
    CHARGE:  cpu time    0.7693: real time    0.7708
    MIXING:  cpu time    0.1127: real time    0.1128
    --------------------------------------------
      LOOP:  cpu time   11.6408: real time   11.6536

 eigenvalue-minimisations  :   272
 total energy-change (2. order) :-0.2810305E+00  (-0.4657709E-02)
 number of electron      88.0000017 magnetization       0.6516297
 augmentation part       32.3065731 magnetization       0.5934328

 Broyden mixing:
  rms(total) = 0.25839E-01    rms(broyden)= 0.25839E-01
  rms(prec ) = 0.26912E-01
  weight for this iteration     100.00

 eigenvalues of (default mixing * dielectric matrix)
  average eigenvalue GAMMA=   1.6330
  5.3955  2.1045  2.1045  1.3259  1.0643  0.8419  0.6603  0.6603  0.5400

 Free energy of the ion-electron system (eV)
  ---------------------------------------------------
  alpha Z        PSCENC =         6.51714733
  Ewald energy   TEWEN  =      8703.85755893
  -Hartree energ DENC   =    -15743.53025226
  -exchange      EXHF   =         0.00000000
  -V(xc)+E(xc)   XCENC  =       116.92195711
  PAW double counting   =      8137.75428088    -7969.09909488
  entropy T*S    EENTRO =         0.01205978
  eigenvalues    EBANDS =      -676.29540063
  atomic energy  EATOM  =      7408.64415014
  Solvation  Ediel_sol  =         0.00000000
  ---------------------------------------------------
  free energy    TOTEN  =       -15.21759360 eV

  energy without entropy =      -15.22965338  energy(sigma->0) =      -15.22161352


--------------------------------------------------------------------------------------------------------




--------------------------------------- Iteration      1(  15)  ---------------------------------------


    POTLOK:  cpu time    3.8608: real time    3.8656
    SETDIJ:  cpu time    0.0261: real time    0.0261
     EDDAV:  cpu time    6.0337: real time    6.0435
       DOS:  cpu time    0.0092: real time    0.0092
    CHARGE:  cpu time    0.7673: real time    0.7680
    MIXING:  cpu time    0.1192: real time    0.1201
    --------------------------------------------
      LOOP:  cpu time   10.8162: real time   10.8325

 eigenvalue-minimisations  :   232
 total energy-change (2. order) :-0.3675120E+00  (-0.2468631E-02)
 number of electron      88.0000017 magnetization       0.4376405
 augmentation part       32.3049559 magnetization       0.4109077

 Broyden mixing:
  rms(total) = 0.17908E-01    rms(broyden)= 0.17908E-01
  rms(prec ) = 0.18680E-01
  weight for this iteration     100.00

 eigenvalues of (default mixing * dielectric matrix)
  average eigenvalue GAMMA=   1.6614
  6.0088  2.5741  1.7017  1.7017  1.1005  0.9354  0.7098  0.7098  0.6288  0.5432

 Free energy of the ion-electron system (eV)
  ---------------------------------------------------
  alpha Z        PSCENC =         6.51714733
  Ewald energy   TEWEN  =      8703.85755893
  -Hartree energ DENC   =    -15740.86662178
  -exchange      EXHF   =         0.00000000
  -V(xc)+E(xc)   XCENC  =       116.53153076
  PAW double counting   =      8141.73390924    -7973.02071111
  entropy T*S    EENTRO =         0.01169475
  eigenvalues    EBANDS =      -678.99376383
  atomic energy  EATOM  =      7408.64415014
  Solvation  Ediel_sol  =         0.00000000
  ---------------------------------------------------
  free energy    TOTEN  =       -15.58510557 eV

  energy without entropy =      -15.59680032  energy(sigma->0) =      -15.58900382


--------------------------------------------------------------------------------------------------------




--------------------------------------- Iteration      1(  16)  ---------------------------------------


    POTLOK:  cpu time    3.8895: real time    3.8947
    SETDIJ:  cpu time    0.0270: real time    0.0270
     EDDAV:  cpu time    6.3600: real time    6.3666
       DOS:  cpu time    0.0074: real time    0.0074
    CHARGE:  cpu time    0.7499: real time    0.7508
    MIXING:  cpu time    0.1360: real time    0.1361
    --------------------------------------------
      LOOP:  cpu time   11.1698: real time   11.1825

 eigenvalue-minimisations  :   248
 total energy-change (2. order) :-0.1959606E+00  (-0.6248060E-03)
 number of electron      88.0000017 magnetization       0.1798363
 augmentation part       32.3057852 magnetization       0.1636753

 Broyden mixing:
  rms(total) = 0.11267E-01    rms(broyden)= 0.11267E-01
  rms(prec ) = 0.11969E-01
  weight for this iteration     100.00

 eigenvalues of (default mixing * dielectric matrix)
  average eigenvalue GAMMA=   1.7915
  7.1081  2.7913  2.0594  2.0594  1.0581  1.0365  1.0365  0.7303  0.6599  0.6217
  0.5450

 Free energy of the ion-electron system (eV)
  ---------------------------------------------------
  alpha Z        PSCENC =         6.51714733
  Ewald energy   TEWEN  =      8703.85755893
  -Hartree energ DENC   =    -15739.21491076
  -exchange      EXHF   =         0.00000000
  -V(xc)+E(xc)   XCENC  =       116.31898718
  PAW double counting   =      8143.24712327    -7974.49585440
  entropy T*S    EENTRO =         0.01163092
  eigenvalues    EBANDS =      -680.66689880
  atomic energy  EATOM  =      7408.64415014
  Solvation  Ediel_sol  =         0.00000000
  ---------------------------------------------------
  free energy    TOTEN  =       -15.78106620 eV

  energy without entropy =      -15.79269712  energy(sigma->0) =      -15.78494317


--------------------------------------------------------------------------------------------------------




--------------------------------------- Iteration      1(  17)  ---------------------------------------


    POTLOK:  cpu time    3.8635: real time    3.8711
    SETDIJ:  cpu time    0.0257: real time    0.0257
     EDDAV:  cpu time    6.3854: real time    6.3925
       DOS:  cpu time    0.0088: real time    0.0088
    CHARGE:  cpu time    0.7765: real time    0.7773
    MIXING:  cpu time    0.1434: real time    0.1435
    --------------------------------------------
      LOOP:  cpu time   11.2033: real time   11.2189

 eigenvalue-minimisations  :   248
 total energy-change (2. order) :-0.1661536E+00  (-0.5948545E-03)
 number of electron      88.0000017 magnetization       0.0888656
 augmentation part       32.3087423 magnetization       0.0869988

 Broyden mixing:
  rms(total) = 0.52185E-02    rms(broyden)= 0.52166E-02
  rms(prec ) = 0.58461E-02
  weight for this iteration     100.00

 eigenvalues of (default mixing * dielectric matrix)
  average eigenvalue GAMMA=   1.8633
  8.0801  3.2482  2.4252  1.7910  1.4583  0.9920  0.9920  0.7864  0.7864  0.5448
  0.6277  0.6277

 Free energy of the ion-electron system (eV)
  ---------------------------------------------------
  alpha Z        PSCENC =         6.51714733
  Ewald energy   TEWEN  =      8703.85755893
  -Hartree energ DENC   =    -15737.24620087
  -exchange      EXHF   =         0.00000000
  -V(xc)+E(xc)   XCENC  =       116.13106934
  PAW double counting   =      8148.93918462    -7980.20732177
  entropy T*S    EENTRO =         0.01159656
  eigenvalues    EBANDS =      -682.59440406
  atomic energy  EATOM  =      7408.64415014
  Solvation  Ediel_sol  =         0.00000000
  ---------------------------------------------------
  free energy    TOTEN  =       -15.94721978 eV

  energy without entropy =      -15.95881634  energy(sigma->0) =      -15.95108530


--------------------------------------------------------------------------------------------------------




--------------------------------------- Iteration      1(  18)  ---------------------------------------


    POTLOK:  cpu time    3.8648: real time    3.8684
    SETDIJ:  cpu time    0.0262: real time    0.0262
     EDDAV:  cpu time    5.3037: real time    5.3105
       DOS:  cpu time    0.0070: real time    0.0070
    CHARGE:  cpu time    0.7443: real time    0.7451
    MIXING:  cpu time    0.1489: real time    0.1491
    --------------------------------------------
      LOOP:  cpu time   10.0951: real time   10.1064

 eigenvalue-minimisations  :   192
 total energy-change (2. order) :-0.5596712E-01  (-0.7498751E-04)
 number of electron      88.0000017 magnetization       0.0494725
 augmentation part       32.3078562 magnetization       0.0490227

 Broyden mixing:
  rms(total) = 0.30414E-02    rms(broyden)= 0.30409E-02
  rms(prec ) = 0.35838E-02
  weight for this iteration     100.00

 eigenvalues of (default mixing * dielectric matrix)
  average eigenvalue GAMMA=   1.8851
  8.4936  3.6727  2.3542  1.8029  1.8029  1.1248  0.9949  0.9949  0.7354  0.7354
  0.5426  0.6259  0.6259

 Free energy of the ion-electron system (eV)
  ---------------------------------------------------
  alpha Z        PSCENC =         6.51714733
  Ewald energy   TEWEN  =      8703.85755893
  -Hartree energ DENC   =    -15736.51279880
  -exchange      EXHF   =         0.00000000
  -V(xc)+E(xc)   XCENC  =       116.07126646
  PAW double counting   =      8151.60520227    -7982.88781790
  entropy T*S    EENTRO =         0.01159604
  eigenvalues    EBANDS =      -683.30949137
  atomic energy  EATOM  =      7408.64415014
  Solvation  Ediel_sol  =         0.00000000
  ---------------------------------------------------
  free energy    TOTEN  =       -16.00318690 eV

  energy without entropy =      -16.01478294  energy(sigma->0) =      -16.00705225


--------------------------------------------------------------------------------------------------------




--------------------------------------- Iteration      1(  19)  ---------------------------------------


    POTLOK:  cpu time    3.8266: real time    3.8313
    SETDIJ:  cpu time    0.0266: real time    0.0266
     EDDAV:  cpu time    5.1665: real time    5.1730
       DOS:  cpu time    0.0089: real time    0.0089
    CHARGE:  cpu time    0.7571: real time    0.7578
    MIXING:  cpu time    0.1548: real time    0.1549
    --------------------------------------------
      LOOP:  cpu time    9.9404: real time    9.9525

 eigenvalue-minimisations  :   184
 total energy-change (2. order) :-0.1863502E-01  (-0.3525771E-04)
 number of electron      88.0000017 magnetization       0.0287766
 augmentation part       32.3080980 magnetization       0.0279611

 Broyden mixing:
  rms(total) = 0.16631E-02    rms(broyden)= 0.16630E-02
  rms(prec ) = 0.21264E-02
  weight for this iteration     100.00

 eigenvalues of (default mixing * dielectric matrix)
  average eigenvalue GAMMA=   1.8900
  8.7096  3.9339  2.4802  1.9479  1.9479  1.4254  0.9545  0.9545  0.8590  0.8078
  0.5426  0.6419  0.6419  0.6125

 Free energy of the ion-electron system (eV)
  ---------------------------------------------------
  alpha Z        PSCENC =         6.51714733
  Ewald energy   TEWEN  =      8703.85755893
  -Hartree energ DENC   =    -15735.97249382
  -exchange      EXHF   =         0.00000000
  -V(xc)+E(xc)   XCENC  =       116.05125331
  PAW double counting   =      8150.93201748    -7982.21429479
  entropy T*S    EENTRO =         0.01159611
  eigenvalues    EBANDS =      -683.84875662
  atomic energy  EATOM  =      7408.64415014
  Solvation  Ediel_sol  =         0.00000000
  ---------------------------------------------------
  free energy    TOTEN  =       -16.02182192 eV

  energy without entropy =      -16.03341803  energy(sigma->0) =      -16.02568729


--------------------------------------------------------------------------------------------------------




--------------------------------------- Iteration      1(  20)  ---------------------------------------


    POTLOK:  cpu time    3.8279: real time    3.8364
    SETDIJ:  cpu time    0.0261: real time    0.0261
     EDDAV:  cpu time    4.7624: real time    4.7682
       DOS:  cpu time    0.0080: real time    0.0080
    CHARGE:  cpu time    0.7492: real time    0.7499
    MIXING:  cpu time    0.1765: real time    0.1782
    --------------------------------------------
      LOOP:  cpu time    9.5501: real time    9.5668

 eigenvalue-minimisations  :   160
 total energy-change (2. order) :-0.6235323E-02  (-0.1258299E-04)
 number of electron      88.0000017 magnetization       0.0178345
 augmentation part       32.3086567 magnetization       0.0176211

 Broyden mixing:
  rms(total) = 0.98779E-03    rms(broyden)= 0.98776E-03
  rms(prec ) = 0.13728E-02
  weight for this iteration     100.00

 eigenvalues of (default mixing * dielectric matrix)
  average eigenvalue GAMMA=   1.9030
  8.8452  4.3013  2.6268  2.1563  2.1563  1.4282  1.1418  0.9141  0.9141  0.8160
  0.8160  0.5431  0.6352  0.6352  0.6155

 Free energy of the ion-electron system (eV)
  ---------------------------------------------------
  alpha Z        PSCENC =         6.51714733
  Ewald energy   TEWEN  =      8703.85755893
  -Hartree energ DENC   =    -15735.60218370
  -exchange      EXHF   =         0.00000000
  -V(xc)+E(xc)   XCENC  =       116.04317452
  PAW double counting   =      8150.15033751    -7981.43239917
  entropy T*S    EENTRO =         0.01159603
  eigenvalues    EBANDS =      -684.21743883
  atomic energy  EATOM  =      7408.64415014
  Solvation  Ediel_sol  =         0.00000000
  ---------------------------------------------------
  free energy    TOTEN  =       -16.02805724 eV

  energy without entropy =      -16.03965328  energy(sigma->0) =      -16.03192259


--------------------------------------------------------------------------------------------------------




--------------------------------------- Iteration      1(  21)  ---------------------------------------


    POTLOK:  cpu time    3.8044: real time    3.8084
    SETDIJ:  cpu time    0.0257: real time    0.0257
     EDDAV:  cpu time    4.7448: real time    4.7503
       DOS:  cpu time    0.0091: real time    0.0091
    CHARGE:  cpu time    0.7730: real time    0.7738
    MIXING:  cpu time    0.1845: real time    0.1847
    --------------------------------------------
      LOOP:  cpu time    9.5415: real time    9.5519

 eigenvalue-minimisations  :   160
 total energy-change (2. order) :-0.3259499E-02  (-0.4766660E-05)
 number of electron      88.0000017 magnetization       0.0120319
 augmentation part       32.3086498 magnetization       0.0114913

 Broyden mixing:
  rms(total) = 0.58816E-03    rms(broyden)= 0.58814E-03
  rms(prec ) = 0.88083E-03
  weight for this iteration     100.00

 eigenvalues of (default mixing * dielectric matrix)
  average eigenvalue GAMMA=   1.8891
  8.8852  4.5283  2.7827  2.2149  2.2149  1.4255  1.4255  0.9700  0.9228  0.9228
  0.7526  0.7526  0.5429  0.6318  0.6318  0.6208

 Free energy of the ion-electron system (eV)
  ---------------------------------------------------
  alpha Z        PSCENC =         6.51714733
  Ewald energy   TEWEN  =      8703.85755893
  -Hartree energ DENC   =    -15735.30865346
  -exchange      EXHF   =         0.00000000
  -V(xc)+E(xc)   XCENC  =       116.03853491
  PAW double counting   =      8149.82987674    -7981.10999902
  entropy T*S    EENTRO =         0.01159607
  eigenvalues    EBANDS =      -684.51152837
  atomic energy  EATOM  =      7408.64415014
  Solvation  Ediel_sol  =         0.00000000
  ---------------------------------------------------
  free energy    TOTEN  =       -16.03131674 eV

  energy without entropy =      -16.04291281  energy(sigma->0) =      -16.03518210


--------------------------------------------------------------------------------------------------------




--------------------------------------- Iteration      1(  22)  ---------------------------------------


    POTLOK:  cpu time    3.8296: real time    3.8379
    SETDIJ:  cpu time    0.0257: real time    0.0257
     EDDAV:  cpu time    5.0436: real time    5.0508
       DOS:  cpu time    0.0071: real time    0.0072
    CHARGE:  cpu time    0.7647: real time    0.7672
    MIXING:  cpu time    0.1942: real time    0.1951
    --------------------------------------------
      LOOP:  cpu time    9.8648: real time    9.8839

 eigenvalue-minimisations  :   176
 total energy-change (2. order) :-0.2101859E-02  (-0.2048062E-05)
 number of electron      88.0000017 magnetization       0.0056841
 augmentation part       32.3087512 magnetization       0.0050991

 Broyden mixing:
  rms(total) = 0.42521E-03    rms(broyden)= 0.42520E-03
  rms(prec ) = 0.61879E-03
  weight for this iteration     100.00

 eigenvalues of (default mixing * dielectric matrix)
  average eigenvalue GAMMA=   1.8891
  8.9149  4.6995  3.0924  2.1270  2.1270  2.0908  1.2611  1.2133  0.9177  0.9177
  0.8446  0.7847  0.5430  0.7031  0.6320  0.6320  0.6135

 Free energy of the ion-electron system (eV)
  ---------------------------------------------------
  alpha Z        PSCENC =         6.51714733
  Ewald energy   TEWEN  =      8703.85755893
  -Hartree energ DENC   =    -15735.09438184
  -exchange      EXHF   =         0.00000000
  -V(xc)+E(xc)   XCENC  =       116.03491005
  PAW double counting   =      8149.84724650    -7981.12617505
  entropy T*S    EENTRO =         0.01159607
  eigenvalues    EBANDS =      -684.72547073
  atomic energy  EATOM  =      7408.64415014
  Solvation  Ediel_sol  =         0.00000000
  ---------------------------------------------------
  free energy    TOTEN  =       -16.03341860 eV

  energy without entropy =      -16.04501467  energy(sigma->0) =      -16.03728396


--------------------------------------------------------------------------------------------------------




--------------------------------------- Iteration      1(  23)  ---------------------------------------


    POTLOK:  cpu time    3.8116: real time    3.8165
    SETDIJ:  cpu time    0.0253: real time    0.0253
     EDDAV:  cpu time    4.7159: real time    4.7223
       DOS:  cpu time    0.0089: real time    0.0089
    CHARGE:  cpu time    0.7469: real time    0.7475
    MIXING:  cpu time    0.1996: real time    0.1998
    --------------------------------------------
      LOOP:  cpu time    9.5081: real time    9.5203

 eigenvalue-minimisations  :   160
 total energy-change (2. order) :-0.1698766E-02  (-0.1874759E-05)
 number of electron      88.0000017 magnetization       0.0023672
 augmentation part       32.3089083 magnetization       0.0021389

 Broyden mixing:
  rms(total) = 0.27301E-03    rms(broyden)= 0.27299E-03
  rms(prec ) = 0.36761E-03
  weight for this iteration     100.00

 eigenvalues of (default mixing * dielectric matrix)
  average eigenvalue GAMMA=   1.9288
  8.9385  5.0961  3.6001  2.3061  2.2798  2.2798  1.3753  1.3753  0.9659  0.9202
  0.9202  0.7835  0.7835  0.5429  0.6776  0.6463  0.6139  0.6139

 Free energy of the ion-electron system (eV)
  ---------------------------------------------------
  alpha Z        PSCENC =         6.51714733
  Ewald energy   TEWEN  =      8703.85755893
  -Hartree energ DENC   =    -15734.86418270
  -exchange      EXHF   =         0.00000000
  -V(xc)+E(xc)   XCENC  =       116.03123875
  PAW double counting   =      8149.96084084    -7981.23893908
  entropy T*S    EENTRO =         0.01159603
  eigenvalues    EBANDS =      -684.95452761
  atomic energy  EATOM  =      7408.64415014
  Solvation  Ediel_sol  =         0.00000000
  ---------------------------------------------------
  free energy    TOTEN  =       -16.03511737 eV

  energy without entropy =      -16.04671340  energy(sigma->0) =      -16.03898271


--------------------------------------------------------------------------------------------------------




--------------------------------------- Iteration      1(  24)  ---------------------------------------


    POTLOK:  cpu time    3.8010: real time    3.8080
    SETDIJ:  cpu time    0.0251: real time    0.0251
     EDDAV:  cpu time    5.0267: real time    5.0318
       DOS:  cpu time    0.0085: real time    0.0085
    CHARGE:  cpu time    0.7599: real time    0.7607
    MIXING:  cpu time    0.2126: real time    0.2128
    --------------------------------------------
      LOOP:  cpu time    9.8337: real time    9.8468

 eigenvalue-minimisations  :   176
 total energy-change (2. order) :-0.1059576E-02  (-0.9138398E-06)
 number of electron      88.0000017 magnetization       0.0012212
 augmentation part       32.3089088 magnetization       0.0011193

 Broyden mixing:
  rms(total) = 0.17287E-03    rms(broyden)= 0.17285E-03
  rms(prec ) = 0.21641E-03
  weight for this iteration     100.00

 eigenvalues of (default mixing * dielectric matrix)
  average eigenvalue GAMMA=   1.9821
  8.9510  5.9989  4.0534  2.6661  2.2757  2.2757  1.5847  1.4063  1.0641  0.9543
  0.9543  0.8313  0.8313  0.7316  0.5429  0.6648  0.6469  0.6130  0.6130

 Free energy of the ion-electron system (eV)
  ---------------------------------------------------
  alpha Z        PSCENC =         6.51714733
  Ewald energy   TEWEN  =      8703.85755893
  -Hartree energ DENC   =    -15734.72878042
  -exchange      EXHF   =         0.00000000
  -V(xc)+E(xc)   XCENC  =       116.02920736
  PAW double counting   =      8150.11407402    -7981.39208851
  entropy T*S    EENTRO =         0.01159603
  eigenvalues    EBANDS =      -685.08904182
  atomic energy  EATOM  =      7408.64415014
  Solvation  Ediel_sol  =         0.00000000
  ---------------------------------------------------
  free energy    TOTEN  =       -16.03617694 eV

  energy without entropy =      -16.04777297  energy(sigma->0) =      -16.04004229


--------------------------------------------------------------------------------------------------------




--------------------------------------- Iteration      1(  25)  ---------------------------------------


    POTLOK:  cpu time    3.7809: real time    3.7845
    SETDIJ:  cpu time    0.0258: real time    0.0258
     EDDAV:  cpu time    4.7644: real time    4.7705
       DOS:  cpu time    0.0082: real time    0.0082
    CHARGE:  cpu time    0.7551: real time    0.7559
    MIXING:  cpu time    0.2413: real time    0.2416
    --------------------------------------------
      LOOP:  cpu time    9.5757: real time    9.5865

 eigenvalue-minimisations  :   160
 total energy-change (2. order) :-0.5135516E-03  (-0.2546022E-06)
 number of electron      88.0000017 magnetization       0.0005500
 augmentation part       32.3089016 magnetization       0.0004753

 Broyden mixing:
  rms(total) = 0.89293E-04    rms(broyden)= 0.89279E-04
  rms(prec ) = 0.11923E-03
  weight for this iteration     100.00

 eigenvalues of (default mixing * dielectric matrix)
  average eigenvalue GAMMA=   2.0250
  9.0028  6.9958  4.3213  2.7328  2.4267  2.2641  1.8410  1.4536  1.1202  1.1202
  0.9150  0.9150  0.8154  0.8154  0.7112  0.5430  0.6418  0.6418  0.6118  0.6118

 Free energy of the ion-electron system (eV)
  ---------------------------------------------------
  alpha Z        PSCENC =         6.51714733
  Ewald energy   TEWEN  =      8703.85755893
  -Hartree energ DENC   =    -15734.67226194
  -exchange      EXHF   =         0.00000000
  -V(xc)+E(xc)   XCENC  =       116.02841428
  PAW double counting   =      8150.19021401    -7981.46856009
  entropy T*S    EENTRO =         0.01159603
  eigenvalues    EBANDS =      -685.14494917
  atomic energy  EATOM  =      7408.64415014
  Solvation  Ediel_sol  =         0.00000000
  ---------------------------------------------------
  free energy    TOTEN  =       -16.03669050 eV

  energy without entropy =      -16.04828652  energy(sigma->0) =      -16.04055584


--------------------------------------------------------------------------------------------------------




--------------------------------------- Iteration      1(  26)  ---------------------------------------


    POTLOK:  cpu time    3.7517: real time    3.7597
    SETDIJ:  cpu time    0.0254: real time    0.0254
     EDDAV:  cpu time    4.7459: real time    4.7530
       DOS:  cpu time    0.0105: real time    0.0105
    CHARGE:  cpu time    0.7450: real time    0.7457
    MIXING:  cpu time    0.2394: real time    0.2396
    --------------------------------------------
      LOOP:  cpu time    9.5178: real time    9.5339

 eigenvalue-minimisations  :   160
 total energy-change (2. order) :-0.1631476E-03  (-0.1485617E-06)
 number of electron      88.0000017 magnetization       0.0003346
 augmentation part       32.3088938 magnetization       0.0003165

 Broyden mixing:
  rms(total) = 0.47772E-04    rms(broyden)= 0.47760E-04
  rms(prec ) = 0.70511E-04
  weight for this iteration     100.00

 eigenvalues of (default mixing * dielectric matrix)
  average eigenvalue GAMMA=   2.0499
  9.0831  7.8061  4.4852  2.8867  2.6268  2.1132  2.1132  1.5214  1.2860  1.0327
  0.9527  0.8970  0.8970  0.8088  0.8088  0.5429  0.6920  0.6411  0.6342  0.6097
  0.6097

 Free energy of the ion-electron system (eV)
  ---------------------------------------------------
  alpha Z        PSCENC =         6.51714733
  Ewald energy   TEWEN  =      8703.85755893
  -Hartree energ DENC   =    -15734.64591220
  -exchange      EXHF   =         0.00000000
  -V(xc)+E(xc)   XCENC  =       116.02815123
  PAW double counting   =      8150.21773574    -7981.49635963
  entropy T*S    EENTRO =         0.01159603
  eigenvalues    EBANDS =      -685.17092121
  atomic energy  EATOM  =      7408.64415014
  Solvation  Ediel_sol  =         0.00000000
  ---------------------------------------------------
  free energy    TOTEN  =       -16.03685364 eV

  energy without entropy =      -16.04844967  energy(sigma->0) =      -16.04071898


--------------------------------------------------------------------------------------------------------




--------------------------------------- Iteration      1(  27)  ---------------------------------------


    POTLOK:  cpu time    3.7950: real time    3.8004
    SETDIJ:  cpu time    0.0256: real time    0.0256
     EDDAV:  cpu time    4.7782: real time    4.7858
       DOS:  cpu time    0.0088: real time    0.0088
    --------------------------------------------
      LOOP:  cpu time    8.6075: real time    8.6207

 eigenvalue-minimisations  :   160
 total energy-change (2. order) :-0.3377027E-04  (-0.5652030E-07)
 number of electron      88.0000017 magnetization       0.0003346
 augmentation part       32.3088938 magnetization       0.0003165

 Free energy of the ion-electron system (eV)
  ---------------------------------------------------
  alpha Z        PSCENC =         6.51714733
  Ewald energy   TEWEN  =      8703.85755893
  -Hartree energ DENC   =    -15734.63635753
  -exchange      EXHF   =         0.00000000
  -V(xc)+E(xc)   XCENC  =       116.02810268
  PAW double counting   =      8150.20506113    -7981.48369682
  entropy T*S    EENTRO =         0.01159603
  eigenvalues    EBANDS =      -685.18044930
  atomic energy  EATOM  =      7408.64415014
  Solvation  Ediel_sol  =         0.00000000
  ---------------------------------------------------
  free energy    TOTEN  =       -16.03688741 eV

  energy without entropy =      -16.04848344  energy(sigma->0) =      -16.04075275


--------------------------------------------------------------------------------------------------------




 average (electrostatic) potential at core
  the test charge radii are     1.2098
  (the norm of the test charge is              1.0000)
       1 -77.0254       2 -77.1717       3 -77.3923       4 -77.3776       5 -77.1724
       6 -77.1801       7 -77.1618       8 -77.3880
 
 
 
 E-fermi :  -4.7898     XC(G=0):  -0.3465     alpha+bet : -0.1661


 spin component 1

 k-point     1 :       0.0000    0.0000    0.0000
  band No.  band energies     occupation 
      1     -11.6358      1.00000
      2     -10.8229      1.00000
      3     -10.6032      1.00000
      4     -10.1184      1.00000
      5      -9.6785      1.00000
      6      -9.6307      1.00000
      7      -9.6043      1.00000
      8      -9.3259      1.00000
      9      -9.2137      1.00000
     10      -9.1994      1.00000
     11      -8.9822      1.00000
     12      -8.9725      1.00000
     13      -8.8007      1.00000
     14      -8.7474      1.00000
     15      -8.7316      1.00000
     16      -8.4269      1.00000
     17      -8.0238      1.00000
     18      -7.9377      1.00000
     19      -7.8033      1.00000
     20      -7.7732      1.00000
     21      -7.5830      1.00000
     22      -7.4704      1.00000
     23      -7.4672      1.00000
     24      -7.4555      1.00000
     25      -7.2324      1.00000
     26      -7.1369      1.00000
     27      -7.0160      1.00000
     28      -7.0044      1.00000
     29      -6.8862      1.00000
     30      -6.8825      1.00000
     31      -6.8681      1.00000
     32      -6.7533      1.00000
     33      -6.5682      1.00000
     34      -6.4880      1.00000
     35      -6.4513      1.00000
     36      -6.3402      1.00000
     37      -6.2655      1.00000
     38      -6.1748      1.00000
     39      -6.0714      1.00000
     40      -6.0230      1.00000
     41      -5.9426      1.00000
     42      -5.9160      1.00000
     43      -5.6031      1.00000
     44      -4.9582      1.00000
     45      -3.9718     -0.00000
     46      -3.6447     -0.00000
     47      -3.4756     -0.00000
     48      -3.1603     -0.00000
     49      -1.7654     -0.00000
     50      -1.6286     -0.00000
     51      -1.2945     -0.00000
     52      -1.0435     -0.00000
     53      -0.5840     -0.00000
     54      -0.4973     -0.00000
     55      -0.1761     -0.00000
     56      -0.0082     -0.00000

 spin component 2

 k-point     1 :       0.0000    0.0000    0.0000
  band No.  band energies     occupation 
      1     -11.6358      1.00000
      2     -10.8229      1.00000
      3     -10.6032      1.00000
      4     -10.1184      1.00000
      5      -9.6785      1.00000
      6      -9.6307      1.00000
      7      -9.6043      1.00000
      8      -9.3259      1.00000
      9      -9.2137      1.00000
     10      -9.1994      1.00000
     11      -8.9822      1.00000
     12      -8.9725      1.00000
     13      -8.8007      1.00000
     14      -8.7474      1.00000
     15      -8.7316      1.00000
     16      -8.4269      1.00000
     17      -8.0238      1.00000
     18      -7.9377      1.00000
     19      -7.8033      1.00000
     20      -7.7732      1.00000
     21      -7.5830      1.00000
     22      -7.4704      1.00000
     23      -7.4672      1.00000
     24      -7.4555      1.00000
     25      -7.2324      1.00000
     26      -7.1369      1.00000
     27      -7.0160      1.00000
     28      -7.0044      1.00000
     29      -6.8862      1.00000
     30      -6.8825      1.00000
     31      -6.8681      1.00000
     32      -6.7533      1.00000
     33      -6.5682      1.00000
     34      -6.4880      1.00000
     35      -6.4514      1.00000
     36      -6.3402      1.00000
     37      -6.2655      1.00000
     38      -6.1748      1.00000
     39      -6.0714      1.00000
     40      -6.0230      1.00000
     41      -5.9426      1.00000
     42      -5.9160      1.00000
     43      -5.6031      1.00000
     44      -4.9582      1.00000
     45      -3.9718     -0.00000
     46      -3.6447     -0.00000
     47      -3.4756     -0.00000
     48      -3.1603     -0.00000
     49      -1.7653     -0.00000
     50      -1.6286     -0.00000
     51      -1.2946     -0.00000
     52      -1.0433     -0.00000
     53      -0.5839     -0.00000
     54      -0.4971     -0.00000
     55      -0.1752     -0.00000
     56      -0.0075     -0.00000


--------------------------------------------------------------------------------------------------------


 soft charge-density along one line, spin component            1
         0         1         2         3         4         5         6         7         8         9
 total charge-density along one line
 
 soft charge-density along one line, spin component            2
         0         1         2         3         4         5         6         7         8         9
 total charge-density along one line
 
 pseudopotential strength for first ion, spin component:            1
 -9.340   0.007   0.006   0.005   0.003  -9.459   0.007   0.006
  0.007  -9.319   0.011  -0.007  -0.006   0.007  -9.438   0.011
  0.006   0.011  -9.347   0.005   0.016   0.006   0.011  -9.466
  0.005  -0.007   0.005  -9.355   0.006   0.004  -0.006   0.005
  0.003  -0.006   0.016   0.006  -9.326   0.003  -0.006   0.016
 -9.459   0.007   0.006   0.004   0.003  -9.562   0.007   0.006
  0.007  -9.438   0.011  -0.006  -0.006   0.007  -9.541   0.011
  0.006   0.011  -9.466   0.005   0.016   0.006   0.011  -9.569
  0.004  -0.006   0.005  -9.474   0.006   0.004  -0.006   0.005
  0.003  -0.006   0.016   0.006  -9.446   0.003  -0.006   0.016
  0.004  -0.007   0.007  -0.005   0.011   0.004  -0.007   0.007
  0.006  -0.010   0.010  -0.007   0.016   0.006  -0.010   0.010
[...]
  -Hartree energ DENC   =    -15168.21818924
  -exchange      EXHF   =         0.00000000
  -V(xc)+E(xc)   XCENC  =       114.42606939
  PAW double counting   =      7791.01670553    -7619.08807114
  entropy T*S    EENTRO =         0.01160688
  eigenvalues    EBANDS =      -663.68480577
  atomic energy  EATOM  =      7408.64415014
  Solvation  Ediel_sol  =         0.00000000
  ---------------------------------------------------
  free energy    TOTEN  =       -16.79598411 eV

  energy without entropy =      -16.80759098  energy(sigma->0) =      -16.79985307


--------------------------------------------------------------------------------------------------------




--------------------------------------- Iteration     14(   2)  ---------------------------------------


    POTLOK:  cpu time    3.7099: real time    3.7171
    SETDIJ:  cpu time    0.0254: real time    0.0255
     EDDAV:  cpu time    6.5166: real time    6.5247
       DOS:  cpu time    0.0042: real time    0.0042
    --------------------------------------------
      LOOP:  cpu time   10.2561: real time   10.2715

 eigenvalue-minimisations  :   256
 total energy-change (2. order) :-0.8407257E-04  (-0.8471606E-04)
 number of electron      87.9999975 magnetization       0.0000002
 augmentation part       32.4386871 magnetization       0.0000002

 Free energy of the ion-electron system (eV)
  ---------------------------------------------------
  alpha Z        PSCENC =         6.51714733
  Ewald energy   TEWEN  =      8113.57940279
  -Hartree energ DENC   =    -15168.22317843
  -exchange      EXHF   =         0.00000000
  -V(xc)+E(xc)   XCENC  =       114.42614629
  PAW double counting   =      7790.99891807    -7619.07050870
  entropy T*S    EENTRO =         0.01160701
  eigenvalues    EBANDS =      -663.67975267
  atomic energy  EATOM  =      7408.64415014
  Solvation  Ediel_sol  =         0.00000000
  ---------------------------------------------------
  free energy    TOTEN  =       -16.79606818 eV

  energy without entropy =      -16.80767519  energy(sigma->0) =      -16.79993718


--------------------------------------------------------------------------------------------------------




 average (electrostatic) potential at core
  the test charge radii are     1.2098
  (the norm of the test charge is              1.0000)
       1 -76.7681       2 -77.0384       3 -77.2477       4 -77.1731       5 -76.9782
       6 -77.0420       7 -76.8696       8 -77.2500
 
 
 
 E-fermi :  -4.9808     XC(G=0):  -0.3538     alpha+bet : -0.1661


 spin component 1

 k-point     1 :       0.0000    0.0000    0.0000
  band No.  band energies     occupation 
      1     -10.8882      1.00000
      2     -10.0148      1.00000
      3      -9.9923      1.00000
      4      -9.5634      1.00000
      5      -9.1776      1.00000
      6      -9.0510      1.00000
      7      -9.0104      1.00000
      8      -8.7958      1.00000
      9      -8.7049      1.00000
     10      -8.6358      1.00000
     11      -8.5358      1.00000
     12      -8.4371      1.00000
     13      -8.3370      1.00000
     14      -8.3125      1.00000
     15      -8.2698      1.00000
     16      -7.8633      1.00000
     17      -7.8108      1.00000
     18      -7.6825      1.00000
     19      -7.5533      1.00000
     20      -7.5518      1.00000
     21      -7.4530      1.00000
     22      -7.3797      1.00000
     23      -7.2966      1.00000
     24      -7.2779      1.00000
     25      -7.0360      1.00000
     26      -7.0012      1.00000
     27      -6.9105      1.00000
     28      -6.8557      1.00000
     29      -6.8059      1.00000
     30      -6.7441      1.00000
     31      -6.7111      1.00000
     32      -6.6924      1.00000
     33      -6.5687      1.00000
     34      -6.5598      1.00000
     35      -6.4497      1.00000
     36      -6.3647      1.00000
     37      -6.3483      1.00000
     38      -6.2011      1.00000
     39      -6.1756      1.00000
     40      -6.1340      1.00000
     41      -5.9641      1.00000
     42      -5.9185      1.00000
     43      -5.6539      1.00001
     44      -5.1492      0.99999
     45      -3.9483     -0.00000
     46      -3.6778     -0.00000
     47      -3.5812     -0.00000
     48      -3.4050     -0.00000
     49      -1.8129     -0.00000
     50      -1.7541     -0.00000
     51      -1.2743     -0.00000
     52      -1.0728     -0.00000
     53      -0.6619     -0.00000
     54      -0.5922     -0.00000
     55      -0.2704     -0.00000
     56      -0.0936     -0.00000

 spin component 2

 k-point     1 :       0.0000    0.0000    0.0000
  band No.  band energies     occupation 
      1     -10.8882      1.00000
      2     -10.0148      1.00000
      3      -9.9923      1.00000
      4      -9.5634      1.00000
      5      -9.1776      1.00000
      6      -9.0510      1.00000
      7      -9.0104      1.00000
      8      -8.7958      1.00000
      9      -8.7049      1.00000
     10      -8.6358      1.00000
     11      -8.5358      1.00000
     12      -8.4371      1.00000
     13      -8.3370      1.00000
     14      -8.3125      1.00000
     15      -8.2698      1.00000
     16      -7.8633      1.00000
     17      -7.8108      1.00000
     18      -7.6825      1.00000
     19      -7.5533      1.00000
     20      -7.5518      1.00000
     21      -7.4530      1.00000
     22      -7.3797      1.00000
     23      -7.2966      1.00000
     24      -7.2779      1.00000
     25      -7.0360      1.00000
     26      -7.0012      1.00000
     27      -6.9105      1.00000
     28      -6.8557      1.00000
     29      -6.8059      1.00000
     30      -6.7441      1.00000
     31      -6.7111      1.00000
     32      -6.6924      1.00000
     33      -6.5687      1.00000
     34      -6.5598      1.00000
     35      -6.4497      1.00000
     36      -6.3647      1.00000
     37      -6.3483      1.00000
     38      -6.2011      1.00000
     39      -6.1756      1.00000
     40      -6.1340      1.00000
     41      -5.9641      1.00000
     42      -5.9185      1.00000
     43      -5.6539      1.00001
     44      -5.1492      0.99999
     45      -3.9483     -0.00000
     46      -3.6778     -0.00000
     47      -3.5812     -0.00000
     48      -3.4050     -0.00000
     49      -1.8129     -0.00000
     50      -1.7541     -0.00000
     51      -1.2743     -0.00000
     52      -1.0728     -0.00000
     53      -0.6618     -0.00000
     54      -0.5922     -0.00000
     55      -0.2704     -0.00000
     56      -0.0936     -0.00000


--------------------------------------------------------------------------------------------------------


 soft charge-density along one line, spin component            1
         0         1         2         3         4         5         6         7         8         9
 total charge-density along one line
 
 soft charge-density along one line, spin component            2
         0         1         2         3         4         5         6         7         8         9
 total charge-density along one line
 
 pseudopotential strength for first ion, spin component:            1
 -9.233  -0.001   0.003   0.003   0.004  -9.354  -0.001   0.003
 -0.001  -9.225   0.009   0.000  -0.006  -0.001  -9.347   0.009
  0.003   0.009  -9.250  -0.004   0.010   0.003   0.009  -9.371
  0.003   0.000  -0.004  -9.247  -0.003   0.003   0.000  -0.004
  0.004  -0.006   0.010  -0.003  -9.222   0.004  -0.006   0.010
 -9.354  -0.001   0.003   0.003   0.004  -9.460  -0.001   0.003
 -0.001  -9.347   0.009   0.000  -0.006  -0.001  -9.452   0.009
  0.003   0.009  -9.371  -0.004   0.010   0.003   0.009  -9.476
  0.003   0.000  -0.004  -9.368  -0.003   0.003   0.000  -0.004
  0.004  -0.006   0.010  -0.003  -9.344   0.004  -0.006   0.010
  0.001  -0.006   0.008   0.002   0.008   0.001  -0.006   0.009
  0.002  -0.009   0.012   0.003   0.012   0.002  -0.009   0.012
 -0.020  -0.016  -0.001  -0.000  -0.002  -0.019  -0.016  -0.001
 -0.000   0.002  -0.019  -0.019   0.000  -0.000   0.002  -0.018
  0.002  -0.000   0.011  -0.016  -0.018   0.002  -0.000   0.011
 -0.023  -0.019  -0.001  -0.000  -0.002  -0.022  -0.019  -0.001
 -0.000   0.003  -0.022  -0.021   0.000  -0.000   0.003  -0.022
  0.003  -0.000   0.012  -0.019  -0.020   0.003  -0.000   0.012
 pseudopotential strength for first ion, spin component:            2
 -9.233  -0.001   0.003   0.003   0.004  -9.354  -0.001   0.003
 -0.001  -9.225   0.009   0.000  -0.006  -0.001  -9.347   0.009
  0.003   0.009  -9.250  -0.004   0.010   0.003   0.009  -9.371
  0.003   0.000  -0.004  -9.247  -0.003   0.003   0.000  -0.004
  0.004  -0.006   0.010  -0.003  -9.222   0.004  -0.006   0.010
 -9.354  -0.001   0.003   0.003   0.004  -9.460  -0.001   0.003
 -0.001  -9.347   0.009   0.000  -0.006  -0.001  -9.452   0.009
  0.003   0.009  -9.371  -0.004   0.010   0.003   0.009  -9.476
  0.003   0.000  -0.004  -9.368  -0.003   0.003   0.000  -0.004
  0.004  -0.006   0.010  -0.003  -9.344   0.004  -0.006   0.010
  0.001  -0.006   0.008   0.002   0.008   0.001  -0.006   0.009
  0.002  -0.009   0.012   0.003   0.012   0.002  -0.009   0.012
 -0.020  -0.016  -0.001  -0.000  -0.002  -0.019  -0.016  -0.001
 -0.000   0.002  -0.019  -0.019   0.000  -0.000   0.002  -0.018
  0.002  -0.000   0.011  -0.016  -0.018   0.002  -0.000   0.011
 -0.023  -0.019  -0.001  -0.000  -0.002  -0.022  -0.019  -0.001
 -0.000   0.003  -0.022  -0.021   0.000  -0.000   0.003  -0.022
  0.003  -0.000   0.012  -0.019  -0.020   0.003  -0.000   0.012
 total augmentation occupancy for first ion, spin component:            1
  3.278   0.208  -0.026  -0.214   0.056  -1.291  -0.185   0.050   0.185  -0.010  -0.096   0.047  -0.177   0.047  -0.028  -0.014
  0.208   2.875  -0.018   0.092   0.003  -0.184  -0.765   0.116  -0.074  -0.014   0.287  -0.040  -0.045  -0.012   0.014  -0.015
 -0.026  -0.018   3.131   0.225  -0.317   0.050   0.116  -1.212  -0.253   0.328  -0.302  -0.047   0.016  -0.101   0.101  -0.003
 -0.214   0.092   0.225   3.923  -0.026   0.185  -0.074  -0.254  -1.862   0.018  -0.179   0.024   0.045  -0.318   0.007  -0.001
  0.056   0.003  -0.317  -0.026   3.169  -0.010  -0.015   0.329   0.018  -1.045  -0.613   0.235  -0.006   0.033  -0.199  -0.002
 -1.291  -0.184   0.050   0.185  -0.010   1.250   0.173  -0.068  -0.166  -0.023   0.085  -0.045   0.210  -0.040   0.023  -0.006
 -0.185  -0.765   0.116  -0.074  -0.015   0.173   0.633  -0.191   0.059   0.022  -0.251   0.046   0.052   0.000  -0.015  -0.000
  0.050   0.116  -1.212  -0.254   0.329  -0.068  -0.191   1.231   0.283  -0.340   0.253   0.032  -0.021   0.126  -0.103   0.002
  0.185  -0.074  -0.253  -1.862   0.018  -0.166   0.059   0.283   1.772  -0.009   0.182  -0.032  -0.038   0.334   0.012   0.001
 -0.010  -0.014   0.328   0.018  -1.045  -0.023   0.022  -0.340  -0.009   0.906   0.567  -0.234  -0.001  -0.025   0.216   0.000
 -0.096   0.287  -0.302  -0.179  -0.613   0.085  -0.251   0.253   0.182   0.567   2.057  -0.379   0.005   0.089   0.252  -0.000
  0.047  -0.040  -0.047   0.024   0.235  -0.045   0.046   0.032  -0.032  -0.234  -0.379   0.120  -0.009  -0.005  -0.089   0.000
 -0.177  -0.045   0.016   0.045  -0.006   0.210   0.052  -0.021  -0.038  -0.001   0.005  -0.009   0.042  -0.012   0.006  -0.002
  0.047  -0.012  -0.101  -0.318   0.033  -0.040   0.000   0.126   0.334  -0.025   0.089  -0.005  -0.012   0.085  -0.006   0.000
 -0.028   0.014   0.101   0.007  -0.199   0.023  -0.015  -0.103   0.012   0.216   0.252  -0.089   0.006  -0.006   0.075  -0.000
 -0.014  -0.015  -0.003  -0.001  -0.002  -0.006  -0.000   0.002   0.001   0.000  -0.000   0.000  -0.002   0.000  -0.000   0.000
 -0.001   0.001  -0.013  -0.009   0.001   0.001   0.001  -0.005  -0.010  -0.000  -0.006   0.001   0.000  -0.003  -0.000  -0.000
  0.004  -0.001   0.007  -0.014  -0.008  -0.001   0.001   0.003   0.000  -0.009  -0.017   0.004  -0.000  -0.000  -0.004  -0.000
 total augmentation occupancy for first ion, spin component:            2
 -0.000   0.000   0.000  -0.000   0.000   0.000  -0.000  -0.000   0.000  -0.000   0.000   0.000   0.000  -0.000  -0.000  -0.000
  0.000   0.000   0.000   0.000   0.000  -0.000  -0.000  -0.000  -0.000  -0.000  -0.000  -0.000   0.000  -0.000   0.000  -0.000
  0.000   0.000  -0.000   0.000  -0.000  -0.000  -0.000   0.000  -0.000   0.000   0.000  -0.000   0.000   0.000  -0.000  -0.000
 -0.000   0.000   0.000  -0.000  -0.000   0.000  -0.000   0.000   0.000   0.000  -0.000  -0.000   0.000   0.000  -0.000  -0.000
  0.000   0.000  -0.000  -0.000  -0.000  -0.000  -0.000   0.000   0.000   0.000  -0.000   0.000   0.000  -0.000   0.000  -0.000
  0.000  -0.000  -0.000   0.000  -0.000  -0.000   0.000   0.000  -0.000   0.000  -0.000  -0.000  -0.000   0.000   0.000   0.000
 -0.000  -0.000  -0.000  -0.000  -0.000   0.000   0.000   0.000   0.000   0.000   0.000  -0.000   0.000   0.000   0.000   0.000
 -0.000  -0.000   0.000   0.000   0.000   0.000   0.000   0.000   0.000  -0.000  -0.000  -0.000   0.000  -0.000   0.000   0.000
  0.000  -0.000  -0.000   0.000   0.000  -0.000   0.000   0.000  -0.000  -0.000   0.000   0.000  -0.000  -0.000  -0.000  -0.000
 -0.000  -0.000   0.000   0.000   0.000   0.000   0.000  -0.000  -0.000  -0.000  -0.000   0.000   0.000   0.000  -0.000   0.000
  0.000  -0.000   0.000  -0.000  -0.000  -0.000   0.000  -0.000   0.000  -0.000   0.000  -0.000   0.000  -0.000   0.000  -0.000
  0.000  -0.000  -0.000  -0.000   0.000  -0.000  -0.000  -0.000   0.000   0.000  -0.000   0.000  -0.000  -0.000  -0.000   0.000
  0.000   0.000   0.000   0.000   0.000  -0.000   0.000   0.000  -0.000   0.000   0.000  -0.000  -0.000   0.000   0.000   0.000
 -0.000  -0.000   0.000   0.000  -0.000   0.000   0.000  -0.000  -0.000   0.000  -0.000  -0.000   0.000  -0.000   0.000   0.000
 -0.000   0.000  -0.000  -0.000   0.000   0.000   0.000   0.000  -0.000  -0.000   0.000  -0.000   0.000   0.000   0.000  -0.000
 -0.000  -0.000  -0.000  -0.000  -0.000   0.000   0.000   0.000  -0.000   0.000  -0.000   0.000   0.000   0.000  -0.000   0.000
 -0.000  -0.000  -0.000  -0.000   0.000  -0.000   0.000   0.000   0.000  -0.000   0.000   0.000  -0.000   0.000  -0.000   0.000
  0.000  -0.000   0.000   0.000   0.000  -0.000  -0.000  -0.000  -0.000  -0.000  -0.000   0.000  -0.000   0.000  -0.000  -0.000


------------------------ aborting loop because EDIFF is reached ----------------------------------------


    CHARGE:  cpu time    0.7514: real time    0.7523
    FORLOC:  cpu time    0.1116: real time    0.1117
    FORNL :  cpu time    3.5038: real time    3.5055
    FORCOR:  cpu time    3.6555: real time    3.6601
    FORHAR:  cpu time    0.4662: real time    0.4674
    MIXING:  cpu time    0.0657: real time    0.0657
    OFIELD:  cpu time    0.0000: real time    0.0000

 VOLUME and BASIS-vectors are now :
 -----------------------------------------------------------------------------
  energy-cutoff  :      400.00
  volume of cell :    11438.59
      direct lattice vectors                 reciprocal lattice vectors
    21.969645825  0.000000000  0.000000000     0.045517347  0.000000000  0.000000000
     0.000000000 22.551716949  0.000000000     0.000000000  0.044342522  0.000000000
     0.000000000  0.000000000 23.087114478     0.000000000  0.000000000  0.043314205

  length of vectors
    21.969645825 22.551716949 23.087114478     0.045517347  0.044342522  0.043314205


 FORCES acting on ions
    electron-ion (+dipol)            ewald-force                    non-local-force                 convergence-correction
 -----------------------------------------------------------------------------------------------
   0.804E+03 0.318E+02 0.228E+03   -.801E+03 -.321E+02 -.226E+03   -.295E+01 0.325E+00 -.258E+01   -.146E-01 0.114E-01 -.628E-02
   -.487E+02 -.551E+03 -.622E+03   0.490E+02 0.548E+03 0.617E+03   -.291E+00 0.273E+01 0.526E+01   0.790E-02 -.171E-01 0.328E-01
   -.640E+02 -.726E+03 0.189E+03   0.649E+02 0.726E+03 -.189E+03   -.846E+00 0.832E+00 -.475E+00   0.129E-01 -.120E-01 -.379E-01
   -.416E+01 -.195E+03 0.798E+03   0.508E+01 0.194E+03 -.792E+03   -.857E+00 0.135E+01 -.593E+01   -.451E-01 -.182E-01 0.661E-01
   -.793E+03 -.382E+02 -.217E+03   0.791E+03 0.381E+02 0.216E+03   0.217E+01 0.102E+00 0.538E+00   0.800E-01 0.594E-03 0.120E-02
   -.202E+03 0.749E+03 -.301E+03   0.201E+03 -.744E+03 0.297E+03   0.625E+00 -.484E+01 0.339E+01   0.816E-02 0.191E-01 0.243E-01
   0.510E+03 0.202E+03 -.574E+03   -.511E+03 -.202E+03 0.573E+03   0.123E+01 -.376E+00 0.206E+01   -.467E-01 0.290E-03 -.457E-01
   -.202E+03 0.529E+03 0.497E+03   0.202E+03 -.528E+03 -.496E+03   -.664E+00 -.668E+00 -.837E+00   0.184E-01 0.206E-01 -.121E-01
 -----------------------------------------------------------------------------------------------
   0.156E+01 0.538E+00 -.144E+01   0.114E-12 0.000E+00 0.568E-13   -.158E+01 -.542E+00 0.141E+01   0.211E-01 0.462E-02 0.225E-01
 
 
 POSITION                                       TOTAL-FORCE (eV/Angst)
 -----------------------------------------------------------------------------------
      9.10638     11.60115     11.03231        -0.006835     -0.005459     -0.004062
     11.66177     13.44199     14.13697        -0.004259      0.035865      0.017923
     11.38107     13.21445     11.52661        -0.003226      0.008878     -0.013146
     11.04020     12.29655      9.04562         0.016531      0.005168     -0.004369
     13.23372     11.60883     12.87666        -0.030927     -0.002774     -0.004334
     12.17079      9.10879     13.07151         0.001604     -0.039355      0.000653
     10.27644     11.13807     13.38208         0.032082     -0.001272      0.025029
     11.68643     10.44352     10.85083        -0.004971     -0.001052     -0.017693
 -----------------------------------------------------------------------------------
    total drift:                               -0.002580      0.000384     -0.004220


--------------------------------------------------------------------------------------------------------



  FREE ENERGIE OF THE ION-ELECTRON SYSTEM (eV)
  ---------------------------------------------------
  free  energy   TOTEN  =       -16.79606818 eV

  energy  without entropy=      -16.80767519  energy(sigma->0) =      -16.79993718
 
 d Force =-0.5152168E-04[-0.166E-03, 0.631E-04]  d Energy =-0.2203600E-05-0.493E-04
 d Force = 0.2547979E+00[ 0.255E+00, 0.255E+00]  d Ewald  = 0.2547980E+00-0.612E-07


--------------------------------------------------------------------------------------------------------


    POTLOK:  cpu time    3.7246: real time    3.7355


--------------------------------------------------------------------------------------------------------




--------------------------------------------------------------------------------------------------------


  
 reached required accuracy - stopping structural energy minimisation
     LOOP+:  cpu time   33.1217: real time   33.1948
    4ORBIT:  cpu time    0.0000: real time    0.0000

 total amount of memory used by VASP MPI-rank0   230258. kBytes
=======================================================================

   base      :      30000. kBytes
   nonl-proj :       3532. kBytes
   fftplans  :      53134. kBytes
   grid      :     120289. kBytes
   one-center:         15. kBytes
   wavefun   :      23288. kBytes
 
  
  
 General timing and accounting informations for this job:
 ========================================================
  
                  Total CPU time used (sec):      951.362
                            User time (sec):      938.734
                          System time (sec):       12.629
                         Elapsed time (sec):      954.183
  
                   Maximum memory used (kb):      452160.
                   Average memory used (kb):           0.
  
                          Minor page faults:      4147995
                          Major page faults:        16549
                 Voluntary context switches:         1977
