<?xml version="1.0" encoding="ISO-8859-1"?>
<modeling>
 <generator>
  <i name="program" type="string">vasp </i>
  <i name="version" type="string">6.1.2  </i>
  <i name="subversion" type="string">22Jul20 (build Aug  2 2021 21:04:21) gamma-only                       parallel </i>
  <i name="platform" type="string">LinuxPGI </i>
  <i name="date" type="string">2021 12 30 </i>
  <i name="time" type="string">12:19:10 </i>
 </generator>
 <incar>
  <i type="int" name="ISPIN">     2</i>
  <i type="int" name="IBRION">     2</i>
  <i type="int" name="NSW">  1000</i>
  <i type="int" name="ISIF">     0</i>
  <i type="int" name="ISYM">     0</i>
  <i name="ENCUT">    400.00000000</i>
  <i type="logical" name="LREAL"> F  </i>
  <i type="int" name="ISMEAR">     1</i>
  <i name="SIGMA">      0.20000000</i>
  <i type="logical" name="LWAVE"> F  </i>
  <i type="logical" name="LCHARG"> F  </i>
  <i type="int" name="KPAR">     1</i>
  <i type="int" name="NCORE">     8</i>
  <i type="string" name="GGA"> PE</i>
  <i type="int" name="ISPIN">     2</i>
 </incar>
 <structure name="primitive_cell" >
  <crystal>
   <varray name="basis" >
    <v>      21.96964583       0.00000000       0.00000000 </v>
    <v>       0.00000000      22.55171695       0.00000000 </v>
    <v>       0.00000000       0.00000000      23.08711448 </v>
   </varray>
   <i name="volume">  11438.58553475 </i>
   <varray name="rec_basis" >
    <v>       0.04551735       0.00000000       0.00000000 </v>
    <v>       0.00000000       0.04434252       0.00000000 </v>
    <v>       0.00000000       0.00000000       0.04331420 </v>
   </varray>
  </crystal>
  <varray name="positions" >
   <v>       0.42005019       0.51647260       0.47338985 </v>
   <v>       0.53100952       0.59054021       0.61237057 </v>
   <v>       0.51737990       0.58357211       0.49984040 </v>
   <v>       0.49596606       0.54378289       0.39489610 </v>
   <v>       0.59849252       0.51395085       0.55916352 </v>
   <v>       0.55309197       0.40871573       0.56886010 </v>
   <v>       0.47487779       0.49576128       0.57490725 </v>
   <v>       0.53103706       0.46455570       0.47138287 </v>
  </varray>
 </structure>
 <varray name="primitive_index" >
  <v type="int" >        1 </v>
  <v type="int" >        2 </v>
  <v type="int" >        3 </v>
  <v type="int" >        4 </v>
  <v type="int" >        5 </v>
  <v type="int" >        6 </v>
  <v type="int" >        7 </v>
  <v type="int" >        8 </v>
 </varray>
 <kpoints>
  <generation param="Gamma">
   <v type="int" name="divisions">       1        1        1 </v>
   <v name="usershift">      0.00000000       0.00000000       0.00000000 </v>
   <v name="genvec1">      1.00000000       0.00000000       0.00000000 </v>
   <v name="genvec2">      0.00000000       1.00000000       0.00000000 </v>
   <v name="genvec3">      0.00000000       0.00000000       1.00000000 </v>
   <v name="shift">      0.00000000       0.00000000       0.00000000 </v>
  </generation>
  <varray name="kpointlist" >
   <v>       0.00000000       0.00000000       0.00000000 </v>
  </varray>
  <varray name="weights" >
   <v>       1.00000000 </v>
  </varray>
 </kpoints>
 <parameters>
  <separator name="general" >
   <i type="string" name="SYSTEM">unknown system</i>
   <i type="logical" name="LCOMPAT"> F  </i>
  </separator>
  <separator name="electronic" >
   <i type="string" name="PREC">normal</i>
   <i name="ENMAX">    400.00000000</i>
   <i name="ENAUG">    356.67000000</i>
   <i name="EDIFF">      0.00010000</i>
   <i type="int" name="IALGO">    38</i>
   <i type="int" name="IWAVPR">    11</i>
   <i type="int" name="NBANDS">    56</i>
   <i type="int" name="NBANDSLOW">    -1</i>
   <i type="int" name="NBANDSHIGH">    -1</i>
   <i name="NELECT">     88.00000000</i>
   <i type="int" name="TURBO">     0</i>
   <i type="int" name="IRESTART">     0</i>
   <i type="int" name="NREBOOT">     0</i>
   <i type="int" name="NMIN">     0</i>
   <i name="EREF">      0.00000000</i>
   <separator name="electronic smearing" >
    <i type="int" name="ISMEAR">     1</i>
    <i name="SIGMA">      0.20000000</i>
    <i name="KSPACING">      0.50000000</i>
    <i type="logical" name="KGAMMA"> T  </i>
    <i type="logical" name="KBLOWUP"> T  </i>
   </separator>
   <separator name="electronic projectors" >
    <i type="logical" name="LREAL"> F  </i>
    <v name="ROPT">      0.00000000</v>
    <i type="int" name="LMAXPAW">  -100</i>
    <i type="int" name="LMAXMIX">     2</i>
    <i type="logical" name="NLSPLINE"> F  </i>
   </separator>
   <separator name="electronic startup" >
    <i type="int" name="ISTART">     0</i>
    <i type="int" name="ICHARG">     2</i>
    <i type="int" name="INIWAV">     1</i>
   </separator>
   <separator name="electronic spin" >
    <i type="int" name="ISPIN">     2</i>
    <i type="logical" name="LNONCOLLINEAR"> F  </i>
    <v name="MAGMOM">      1.00000000      1.00000000      1.00000000      1.00000000      1.00000000      1.00000000      1.00000000      1.00000000</v>
    <i name="NUPDOWN">     -1.00000000</i>
    <i type="logical" name="LSORBIT"> F  </i>
    <v name="SAXIS">      0.00000000      0.00000000      1.00000000</v>
    <i type="logical" name="LSPIRAL"> F  </i>
    <v name="QSPIRAL">      0.00000000      0.00000000      0.00000000</v>
    <i type="logical" name="LZEROZ"> F  </i>
   </separator>
   <separator name="electronic exchange-correlation" >
    <i type="logical" name="LASPH"> F  </i>
    <i type="logical" name="LMETAGGA"> F  </i>
   </separator>
   <separator name="electronic convergence" >
    <i type="int" name="NELM">    60</i>
    <i type="int" name="NELMDL">     0</i>
    <i type="int" name="NELMIN">     2</i>
    <i name="ENINI">    400.00000000</i>
    <separator name="electronic convergence detail" >
     <i type="logical" name="LDIAG"> T  </i>
     <i type="logical" name="LSUBROT"> F  </i>
     <i name="WEIMIN">      0.00100000</i>
     <i name="EBREAK">      0.00000045</i>
     <i name="DEPER">      0.30000000</i>
     <i type="int" name="NRMM">     4</i>
     <i name="TIME">      0.40000000</i>
    </separator>
   </separator>
   <separator name="electronic mixer" >
    <i name="AMIX">      0.40000000</i>
    <i name="BMIX">      1.00000000</i>
    <i name="AMIN">      0.10000000</i>
    <i name="AMIX_MAG">      1.60000000</i>
    <i name="BMIX_MAG">      1.00000000</i>
    <separator name="electronic mixer details" >
     <i type="int" name="IMIX">     4</i>
     <i type="logical" name="MIXFIRST"> F  </i>
     <i type="int" name="MAXMIX">   -45</i>
     <i name="WC">    100.00000000</i>
     <i type="int" name="INIMIX">     1</i>
     <i type="int" name="MIXPRE">     1</i>
     <i type="int" name="MREMOVE">     5</i>
    </separator>
   </separator>
   <separator name="electronic dipolcorrection" >
    <i type="logical" name="LDIPOL"> F  </i>
    <i type="logical" name="LMONO"> F  </i>
    <i type="int" name="IDIPOL">     0</i>
    <i name="EPSILON">      1.00000000</i>
    <v name="DIPOL">   -100.00000000   -100.00000000   -100.00000000</v>
    <i name="EFIELD">      0.00000000</i>
   </separator>
  </separator>
  <separator name="grids" >
   <i type="int" name="NGX">   108</i>
   <i type="int" name="NGY">   112</i>
   <i type="int" name="NGZ">   120</i>
   <i type="int" name="NGXF">   216</i>
   <i type="int" name="NGYF">   224</i>
   <i type="int" name="NGZF">   240</i>
   <i type="logical" name="ADDGRID"> F  </i>
  </separator>
  <separator name="ionic" >
   <i type="int" name="NSW">  1000</i>
   <i type="int" name="IBRION">     2</i>
   <i type="int" name="MDALGO">     0</i>
   <i type="int" name="ISIF">     0</i>
   <i name="PSTRESS">      0.00000000</i>
   <i name="EDIFFG">      0.00100000</i>
   <i type="int" name="NFREE">     1</i>
   <i name="POTIM">      0.50000000</i>
   <i name="SMASS">     -3.00000000</i>
   <i name="SCALEE">      1.00000000</i>
  </separator>
  <separator name="ionic md" >
   <i name="TEBEG">      0.00010000</i>
   <i name="TEEND">      0.00010000</i>
   <i type="int" name="NBLOCK">     1</i>
   <i type="int" name="KBLOCK">  1000</i>
   <i type="int" name="NPACO">   256</i>
   <i name="APACO">     16.00000000</i>
  </separator>
  <separator name="symmetry" >
   <i type="int" name="ISYM">     0</i>
   <i name="SYMPREC">      0.00001000</i>
  </separator>
  <separator name="dos" >
   <i type="int" name="LORBIT">     0</i>
   <v name="RWIGS">     -1.00000000</v>
   <i type="int" name="NEDOS">   301</i>
   <i name="EMIN">     10.00000000</i>
   <i name="EMAX">    -10.00000000</i>
   <i name="EFERMI">      0.00000000</i>
  </separator>
  <separator name="writing" >
   <i type="int" name="NWRITE">     2</i>
   <i type="logical" name="LWAVE"> F  </i>
   <i type="logical" name="LDOWNSAMPLE"> F  </i>
   <i type="logical" name="LCHARG"> F  </i>
   <i type="logical" name="LPARD"> F  </i>
   <i type="logical" name="LVTOT"> F  </i>
   <i type="logical" name="LVHAR"> F  </i>
   <i type="logical" name="LELF"> F  </i>
   <i type="logical" name="LOPTICS"> F  </i>
   <v name="STM">      0.00000000      0.00000000      0.00000000      0.00000000      0.00000000      0.00000000      0.00000000</v>
  </separator>
  <separator name="performance" >
   <i type="int" name="NPAR">     1</i>
   <i type="int" name="NSIM">     4</i>
   <i type="int" name="NBLK">    -1</i>
   <i type="logical" name="LPLANE"> T  </i>
   <i type="logical" name="LSCALAPACK"> T  </i>
   <i type="logical" name="LSCAAWARE"> F  </i>
   <i type="logical" name="LSCALU"> F  </i>
   <i type="logical" name="LASYNC"> F  </i>
   <i type="logical" name="LORBITALREAL"> F  </i>
  </separator>
  <separator name="miscellaneous" >
   <i type="int" name="IDIOT">     3</i>
   <i type="int" name="PHON_NSTRUCT">    -1</i>
   <i type="logical" name="LMUSIC"> F  </i>
   <v name="POMASS">    196.96600000</v>
   <v name="DARWINR">      0.00000000</v>
   <v name="DARWINV">      1.00000000</v>
   <i type="logical" name="LCORR"> T  </i>
  </separator>
  <i type="logical" name="GGA_COMPAT"> T  </i>
  <i type="logical" name="LBERRY"> F  </i>
  <i type="int" name="ICORELEVEL">     0</i>
  <i type="logical" name="LDAU"> F  </i>
  <i type="int" name="I_CONSTRAINED_M">     0</i>
  <separator name="electronic exchange-correlation" >
   <i type="string" name="GGA">PE</i>
   <i type="int" name="VOSKOWN">     0</i>
   <i type="logical" name="LHFCALC"> F  </i>
   <i type="string" name="PRECFOCK"></i>
   <i type="logical" name="LSYMGRAD"> F  </i>
   <i type="logical" name="LHFONE"> F  </i>
   <i type="logical" name="LRHFCALC"> F  </i>
   <i type="logical" name="LTHOMAS"> F  </i>
   <i type="logical" name="LMODELHF"> F  </i>
   <i type="logical" name="LFOCKACE"> F  </i>
   <i name="ENCUT4O">     -1.00000000</i>
   <i type="int" name="EXXOEP">     0</i>
   <i type="int" name="FOURORBIT">     0</i>
   <i name="AEXX">      0.00000000</i>
   <i name="HFALPHA">      0.00000000</i>
   <i name="MCALPHA">      0.00000000</i>
   <i name="ALDAX">      1.00000000</i>
   <i name="AGGAX">      1.00000000</i>
   <i name="ALDAC">      1.00000000</i>
   <i name="AGGAC">      1.00000000</i>
   <i type="int" name="NKREDX">     1</i>
   <i type="int" name="NKREDY">     1</i>
   <i type="int" name="NKREDZ">     1</i>
   <i type="logical" name="SHIFTRED"> F  </i>
   <i type="logical" name="ODDONLY"> F  </i>
   <i type="logical" name="EVENONLY"> F  </i>
   <i type="int" name="LMAXFOCK">     0</i>
   <i type="int" name="NMAXFOCKAE">     0</i>
   <i type="logical" name="LFOCKAEDFT"> F  </i>
   <i name="HFSCREEN">      0.00000000</i>
   <i name="HFSCREENC">      0.00000000</i>
   <i type="int" name="NBANDSGWLOW">     0</i>
  </separator>
  <separator name="vdW DFT" >
   <i type="logical" name="LUSE_VDW"> F  </i>
   <i name="Zab_VDW">     -0.84910000</i>
   <i name="PARAM1">      0.12340000</i>
   <i name="PARAM2">      1.00000000</i>
   <i name="PARAM3">      0.00000000</i>
  </separator>
  <separator name="model GW" >
   <i type="int" name="MODEL_GW">     0</i>
   <i name="MODEL_EPS0">    857.89391511</i>
   <i name="MODEL_ALPHA">      1.00000000</i>
  </separator>
  <separator name="linear response parameters" >
   <i type="logical" name="LEPSILON"> F  </i>
   <i type="logical" name="LRPA"> F  </i>
   <i type="logical" name="LNABLA"> F  </i>
   <i type="logical" name="LVEL"> F  </i>
   <i type="int" name="KINTER">     0</i>
   <i name="CSHIFT">      0.10000000</i>
   <i name="OMEGAMAX">     -1.00000000</i>
   <i name="DEG_THRESHOLD">      0.00200000</i>
   <i name="RTIME">     -0.10000000</i>
   <i name="WPLASMAI">      0.00000000</i>
   <v name="DFIELD">      0.00000000      0.00000000      0.00000000</v>
   <v name="WPLASMA">      0.00000000      0.00000000      0.00000000      0.00000000      0.00000000      0.00000000      0.00000000      0.00000000      0.00000000</v>
  </separator>
  <separator name="orbital magnetization" >
   <i type="logical" name="NUCIND"> F  </i>
   <v name="MAGPOS">      0.00000000      0.00000000      0.00000000</v>
   <i type="logical" name="LNICSALL"> T  </i>
   <i type="logical" name="ORBITALMAG"> F  </i>
   <i type="logical" name="LMAGBLOCH"> F  </i>
   <i type="logical" name="LCHIMAG"> F  </i>
   <i type="logical" name="LGAUGE"> T  </i>
   <i type="int" name="MAGATOM">     0</i>
   <v name="MAGDIPOL">      0.00000000      0.00000000      0.00000000</v>
   <v name="AVECCONST">      0.00000000      0.00000000      0.00000000</v>
  </separator>
  <separator name="response functions" >
   <i type="logical" name="LFINITE_TEMPERATURE"> F  </i>
   <i type="logical" name="LADDER"> F  </i>
   <i type="logical" name="LRPAFORCE"> F  </i>
   <i type="logical" name="LFXC"> F  </i>
   <i type="logical" name="LHARTREE"> T  </i>
   <i type="int" name="IBSE">     0</i>
   <v type="int" name="KPOINT">    -1     0     0     0</v>
   <i type="logical" name="LTCTC"> F  </i>
   <i type="logical" name="LTCTE"> F  </i>
   <i type="logical" name="LTETE"> F  </i>
   <i type="logical" name="LTRIPLET"> F  </i>
   <i type="logical" name="LFXCEPS"> F  </i>
   <i type="logical" name="LFXHEG"> F  </i>
   <i type="int" name="NATURALO">     2</i>
   <i type="logical" name="LHOLEGF"> F  </i>
   <i type="logical" name="L2ORDER"> F  </i>
   <i type="logical" name="LDMP1"> F  </i>
   <i type="logical" name="LMP2LT"> F  </i>
   <i type="logical" name="LSMP2LT"> F  </i>
   <i type="logical" name="LGWLF"> F  </i>
   <i name="ENCUTGW">     -2.00000000</i>
   <i name="ENCUTGWSOFT">     -2.00000000</i>
   <i name="ENCUTLF">     -1.00000000</i>
   <i type="logical" name="LESF_SPLINES"> F  </i>
   <i type="int" name="LMAXMP2">    -1</i>
   <i name="SCISSOR">      0.00000000</i>
   <i type="int" name="NOMEGA">     0</i>
   <i type="int" name="NOMEGAR">     0</i>
   <i type="int" name="NBANDSGW">    -1</i>
   <i type="int" name="NBANDSO">    -1</i>
   <i type="int" name="NBANDSV">    -1</i>
   <i type="int" name="NELM">     1</i>
   <i type="int" name="NELMHF">     1</i>
   <i type="int" name="DIM">     3</i>
   <i type="int" name="IESPILON">     4</i>
   <i type="int" name="ANTIRES">     0</i>
   <i name="OMEGAMAX">    -30.00000000</i>
   <i name="OMEGAMIN">    -30.00000000</i>
   <i name="OMEGATL">   -200.00000000</i>
   <i type="int" name="OMEGAGRID">     0</i>
   <i name="CSHIFT">     -0.10000000</i>
   <i type="logical" name="LSELFENERGY"> F  </i>
   <i type="logical" name="LSPECTRAL"> F  </i>
   <i type="logical" name="LSPECTRALGW"> F  </i>
   <i type="logical" name="LSINGLES"> F  </i>
   <i type="logical" name="LFERMIGW"> F  </i>
   <i type="logical" name="ODDONLYGW"> F  </i>
   <i type="logical" name="EVENONLYGW"> F  </i>
   <i type="int" name="NKREDLFX">     1</i>
   <i type="int" name="NKREDLFY">     1</i>
   <i type="int" name="NKREDLFZ">     1</i>
   <i type="int" name="MAXMEM">  2800</i>
   <i type="int" name="TELESCOPE">     0</i>
   <i type="int" name="NTAUPAR">    -1</i>
   <i type="int" name="NOMEGAPAR">    -1</i>
   <i name="LAMBDA">      1.00000000</i>
  </separator>
  <separator name="External order field" >
   <i name="OFIELD_KAPPA">      0.00000000</i>
   <v name="OFIELD_K">      0.00000000      0.00000000      0.00000000</v>
   <i name="OFIELD_Q6_NEAR">      0.00000000</i>
   <i name="OFIELD_Q6_FAR">      0.00000000</i>
   <i name="OFIELD_A">      0.00000000</i>
  </separator>
 </parameters>
 <atominfo>
  <atoms>       8 </atoms>
  <types>       1 </types>
  <array name="atoms" >
   <dimension dim="1">ion</dimension>
   <field type="string">element</field>
   <field type="int">atomtype</field>
   <set>
    <rc><c>Au</c><c>   1</c></rc>
    <rc><c>Au</c><c>   1</c></rc>
    <rc><c>Au</c><c>   1</c></rc>
    <rc><c>Au</c><c>   1</c></rc>
    <rc><c>Au</c><c>   1</c></rc>
    <rc><c>Au</c><c>   1</c></rc>
    <rc><c>Au</c><c>   1</c></rc>
    <rc><c>Au</c><c>   1</c></rc>
   </set>
  </array>
  <array name="atomtypes" >
   <dimension dim="1">type</dimension>
   <field type="int">atomspertype</field>
   <field type="string">element</field>
   <field>mass</field>
   <field>valence</field>
   <field type="string">pseudopotential</field>
   <set>
    <rc><c>   8</c><c>Au</c><c>    196.96600000</c><c>     11.00000000</c><c>  PAW_PBE Au 04Oct2007                  </c></rc>
   </set>
  </array>
 </atominfo>
 <structure name="initialpos" >
  <crystal>
   <varray name="basis" >
    <v>      21.96964583       0.00000000       0.00000000 </v>
    <v>       0.00000000      22.55171695       0.00000000 </v>
    <v>       0.00000000       0.00000000      23.08711448 </v>
   </varray>
   <i name="volume">  11438.58553475 </i>
   <varray name="rec_basis" >
    <v>       0.04551735       0.00000000       0.00000000 </v>
    <v>       0.00000000       0.04434252       0.00000000 </v>
    <v>       0.00000000       0.00000000       0.04331420 </v>
   </varray>
  </crystal>
  <varray name="positions" >
   <v>       0.42005019       0.51647260       0.47338985 </v>
   <v>       0.53100952       0.59054021       0.61237057 </v>
   <v>       0.51737990       0.58357211       0.49984040 </v>
   <v>       0.49596606       0.54378289       0.39489610 </v>
   <v>       0.59849252       0.51395085       0.55916352 </v>
   <v>       0.55309197       0.40871573       0.56886010 </v>
   <v>       0.47487779       0.49576128       0.57490725 </v>
   <v>       0.53103706       0.46455570       0.47138287 </v>
  </varray>
 </structure>
 <calculation>
  <scstep>
   <time name="dav">    6.06    6.07</time>
   <time name="total">   10.00   10.02</time>
   <energy>
    <i name="alphaZ">      6.51714733 </i>
    <i name="ewald">   8703.85755893 </i>
    <i name="hartreedc"> -15779.71970882 </i>
    <i name="XCdc">    119.15274386 </i>
    <i name="pawpsdc">   6992.17180065 </i>
    <i name="pawaedc">  -6807.49900724 </i>
    <i name="eentropy">     -0.04506477 </i>
    <i name="bandstr">    113.33128207 </i>
    <i name="atom">   7408.64415014 </i>
    <i name="e_fr_energy">    756.41090214 </i>
    <i name="e_wo_entrp">    756.45596691 </i>
    <i name="e_0_energy">    756.42592373 </i>
   </energy>
  </scstep>
  <scstep>
   <time name="dav">    9.78    9.79</time>
   <time name="total">    9.78    9.80</time>
   <energy>
    <i name="e_fr_energy">    456.08195872 </i>
    <i name="e_wo_entrp">    456.14938692 </i>
    <i name="e_0_energy">    456.10443479 </i>
   </energy>
  </scstep>
  <scstep>
   <time name="dav">    9.27    9.28</time>
   <time name="total">    9.28    9.29</time>
   <energy>
    <i name="e_fr_energy">    135.75261899 </i>
    <i name="e_wo_entrp">    135.71266780 </i>
    <i name="e_0_energy">    135.73930193 </i>
   </energy>
  </scstep>
  <scstep>
   <time name="dav">    7.91    7.92</time>
   <time name="total">    7.92    7.93</time>
   <energy>
    <i name="e_fr_energy">      7.27659264 </i>
    <i name="e_wo_entrp">      7.30866584 </i>
    <i name="e_0_energy">      7.28728370 </i>
   </energy>
  </scstep>
  <scstep>
   <time name="dav">    7.42    7.43</time>
   <time name="total">    8.27    8.28</time>
   <energy>
    <i name="e_fr_energy">    -15.43696433 </i>
    <i name="e_wo_entrp">    -15.44294592 </i>
    <i name="e_0_energy">    -15.43895819 </i>
   </energy>
  </scstep>
  <scstep>
   <time name="dav">    6.37    6.38</time>
   <time name="total">   11.15   11.17</time>
   <energy>
    <i name="e_fr_energy">     -2.72939413 </i>
    <i name="e_wo_entrp">     -2.69768791 </i>
    <i name="e_0_energy">     -2.71882539 </i>
   </energy>
  </scstep>
  <scstep>
   <time name="dav">    6.37    6.38</time>
   <time name="total">   11.14   11.16</time>
   <energy>
    <i name="e_fr_energy">     -4.51498214 </i>
    <i name="e_wo_entrp">     -4.49487017 </i>
    <i name="e_0_energy">     -4.50827815 </i>
   </energy>
  </scstep>
  <scstep>
   <time name="dav">    6.38    6.39</time>
   <time name="total">   11.14   11.15</time>
   <energy>
    <i name="e_fr_energy">     -6.24953282 </i>
    <i name="e_wo_entrp">     -6.24452992 </i>
    <i name="e_0_energy">     -6.24786518 </i>
   </energy>
  </scstep>
  <scstep>
   <time name="dav">    6.52    6.53</time>
   <time name="total">   11.29   11.30</time>
   <energy>
    <i name="e_fr_energy">     -8.67210729 </i>
    <i name="e_wo_entrp">     -8.69495568 </i>
    <i name="e_0_energy">     -8.67972342 </i>
   </energy>
  </scstep>
  <scstep>
   <time name="dav">    6.24    6.24</time>
   <time name="total">   10.97   10.99</time>
   <energy>
    <i name="e_fr_energy">    -10.66274151 </i>
    <i name="e_wo_entrp">    -10.67521876 </i>
    <i name="e_0_energy">    -10.66690060 </i>
   </energy>
  </scstep>
  <scstep>
   <time name="dav">    6.24    6.25</time>
   <time name="total">   11.03   11.05</time>
   <energy>
    <i name="e_fr_energy">    -13.03974595 </i>
    <i name="e_wo_entrp">    -13.04899583 </i>
    <i name="e_0_energy">    -13.04282924 </i>
   </energy>
  </scstep>
  <scstep>
   <time name="dav">    6.34    6.35</time>
   <time name="total">   11.11   11.13</time>
   <energy>
    <i name="e_fr_energy">    -13.85710727 </i>
    <i name="e_wo_entrp">    -13.86887686 </i>
    <i name="e_0_energy">    -13.86103047 </i>
   </energy>
  </scstep>
  <scstep>
   <time name="dav">    6.52    6.53</time>
   <time name="total">   11.31   11.32</time>
   <energy>
    <i name="e_fr_energy">    -14.93656307 </i>
    <i name="e_wo_entrp">    -14.94926588 </i>
    <i name="e_0_energy">    -14.94079734 </i>
   </energy>
  </scstep>
  <scstep>
   <time name="dav">    6.84    6.84</time>
   <time name="total">   11.64   11.65</time>
   <energy>
    <i name="e_fr_energy">    -15.21759360 </i>
    <i name="e_wo_entrp">    -15.22965338 </i>
    <i name="e_0_energy">    -15.22161352 </i>
   </energy>
  </scstep>
  <scstep>
   <time name="dav">    6.03    6.04</time>
   <time name="total">   10.82   10.83</time>
   <energy>
    <i name="e_fr_energy">    -15.58510557 </i>
    <i name="e_wo_entrp">    -15.59680032 </i>
    <i name="e_0_energy">    -15.58900382 </i>
   </energy>
  </scstep>
  <scstep>
   <time name="dav">    6.36    6.37</time>
   <time name="total">   11.17   11.18</time>
   <energy>
    <i name="e_fr_energy">    -15.78106620 </i>
    <i name="e_wo_entrp">    -15.79269712 </i>
    <i name="e_0_energy">    -15.78494317 </i>
   </energy>
  </scstep>
  <scstep>
   <time name="dav">    6.39    6.39</time>
   <time name="total">   11.20   11.22</time>
   <energy>
    <i name="e_fr_energy">    -15.94721978 </i>
    <i name="e_wo_entrp">    -15.95881634 </i>
    <i name="e_0_energy">    -15.95108530 </i>
   </energy>
  </scstep>
  <scstep>
   <time name="dav">    5.30    5.31</time>
   <time name="total">   10.10   10.11</time>
   <energy>
    <i name="e_fr_energy">    -16.00318690 </i>
    <i name="e_wo_entrp">    -16.01478294 </i>
    <i name="e_0_energy">    -16.00705225 </i>
   </energy>
  </scstep>
  <scstep>
   <time name="dav">    5.17    5.17</time>
   <time name="total">    9.94    9.95</time>
   <energy>
    <i name="e_fr_energy">    -16.02182192 </i>
    <i name="e_wo_entrp">    -16.03341803 </i>
    <i name="e_0_energy">    -16.02568729 </i>
   </energy>
  </scstep>
  <scstep>
   <time name="dav">    4.76    4.77</time>
   <time name="total">    9.55    9.57</time>
   <energy>
    <i name="e_fr_energy">    -16.02805724 </i>
    <i name="e_wo_entrp">    -16.03965328 </i>
    <i name="e_0_energy">    -16.03192259 </i>
   </energy>
  </scstep>
  <scstep>
   <time name="dav">    4.74    4.75</time>
   <time name="total">    9.54    9.55</time>
   <energy>
    <i name="e_fr_energy">    -16.03131674 </i>
    <i name="e_wo_entrp">    -16.04291281 </i>
    <i name="e_0_energy">    -16.03518210 </i>
   </energy>
  </scstep>
  <scstep>
   <time name="dav">    5.04    5.05</time>
   <time name="total">    9.86    9.88</time>
   <energy>
    <i name="e_fr_energy">    -16.03341860 </i>
    <i name="e_wo_entrp">    -16.04501467 </i>
    <i name="e_0_energy">    -16.03728396 </i>
   </energy>
  </scstep>
  <scstep>
   <time name="dav">    4.72    4.72</time>
   <time name="total">    9.51    9.52</time>
   <energy>
    <i name="e_fr_energy">    -16.03511737 </i>
    <i name="e_wo_entrp">    -16.04671340 </i>
    <i name="e_0_energy">    -16.03898271 </i>
   </energy>
  </scstep>
  <scstep>
   <time name="dav">    5.03    5.03</time>
   <time name="total">    9.83    9.85</time>
   <energy>
    <i name="e_fr_energy">    -16.03617694 </i>
    <i name="e_wo_entrp">    -16.04777297 </i>
    <i name="e_0_energy">    -16.04004229 </i>
   </energy>
  </scstep>
  <scstep>
   <time name="dav">    4.76    4.77</time>
   <time name="total">    9.58    9.59</time>
   <energy>
    <i name="e_fr_energy">    -16.03669050 </i>
    <i name="e_wo_entrp">    -16.04828652 </i>
    <i name="e_0_energy">    -16.04055584 </i>
   </energy>
  </scstep>
  <scstep>
   <time name="dav">    4.75    4.75</time>
   <time name="total">    9.52    9.53</time>
   <energy>
    <i name="e_fr_energy">    -16.03685364 </i>
    <i name="e_wo_entrp">    -16.04844967 </i>
    <i name="e_0_energy">    -16.04071898 </i>
   </energy>
  </scstep>
  <scstep>
   <time name="dav">    4.78    4.79</time>
   <time name="total">    8.61    8.62</time>
   <energy>
    <i name="alphaZ">      6.51714733 </i>
    <i name="ewald">   8703.85755893 </i>
    <i name="hartreedc"> -15734.63635753 </i>
    <i name="XCdc">    116.02810268 </i>
    <i name="pawpsdc">   8150.20506113 </i>
    <i name="pawaedc">  -7981.48369682 </i>
    <i name="eentropy">      0.01159603 </i>
    <i name="bandstr">   -685.18044930 </i>
    <i name="atom">   7408.64415014 </i>
    <i name="e_fr_energy">    -16.03688741 </i>
    <i name="e_wo_entrp">    -16.04848344 </i>
    <i name="e_0_energy">    -16.04075275 </i>
   </energy>
  </scstep>
  <structure>
   <crystal>
    <varray name="basis" >
     <v>      21.96964583       0.00000000       0.00000000 </v>
     <v>       0.00000000      22.55171695       0.00000000 </v>
     <v>       0.00000000       0.00000000      23.08711448 </v>
    </varray>
    <i name="volume">  11438.58553475 </i>
    <varray name="rec_basis" >
     <v>       0.04551735       0.00000000       0.00000000 </v>
     <v>       0.00000000       0.04434252       0.00000000 </v>
     <v>       0.00000000       0.00000000       0.04331420 </v>
    </varray>
   </crystal>
   <varray name="positions" >
    <v>       0.42005019       0.51647260       0.47338985 </v>
    <v>       0.53100952       0.59054021       0.61237057 </v>
    <v>       0.51737990       0.58357211       0.49984040 </v>
    <v>       0.49596606       0.54378289       0.39489610 </v>
    <v>       0.59849252       0.51395085       0.55916352 </v>
    <v>       0.55309197       0.40871573       0.56886010 </v>
    <v>       0.47487779       0.49576128       0.57490725 </v>
    <v>       0.53103706       0.46455570       0.47138287 </v>
   </varray>
  </structure>
  <varray name="forces" >
   <v>      -2.27239343      -0.51373545       0.97027247 </v>
   <v>      -0.08934716       1.51419961       1.02524635 </v>
   <v>       0.44911000       1.33268222      -0.10778323 </v>
   <v>       1.00771388       0.56025594      -1.90259174 </v>
   <v>       1.94054883       0.29878958      -0.23701242 </v>
   <v>       0.29651599      -1.80751371       0.19371331 </v>
   <v>      -1.99316876      -0.39845496       0.74391754 </v>
   <v>       0.66102064      -0.98622322      -0.68576230 </v>
  </varray>
  <energy>
   <i name="e_fr_energy">    -16.03688741 </i>
   <i name="e_wo_entrp">    -16.04848344 </i>
   <i name="e_0_energy">    -16.04075275 </i>
  </energy>
  <time name="totalsc">  288.44  288.86</time>
 </calculation>
 <calculation>
  <scstep>
   <time name="dav">    5.88    5.89</time>
   <time name="total">   10.52   10.53</time>
   <energy>
    <i name="alphaZ">      6.51714733 </i>
    <i name="ewald">   8137.49891746 </i>
    <i name="hartreedc"> -15178.20325818 </i>
    <i name="XCdc">    114.19251517 </i>
    <i name="pawpsdc">   8150.18749254 </i>
    <i name="pawaedc">  -7981.46611486 </i>
    <i name="eentropy">      0.01159719 </i>
    <i name="bandstr">   -673.71278300 </i>
    <i name="atom">   7408.64415014 </i>
    <i name="e_fr_energy">    -16.33033621 </i>
    <i name="e_wo_entrp">    -16.34193341 </i>
    <i name="e_0_energy">    -16.33420194 </i>
   </energy>
  </scstep>
  <scstep>
   <time name="dav">    6.17    6.18</time>
   <time name="total">   10.79   10.80</time>
   <energy>
    <i name="e_fr_energy">    -16.77163596 </i>
    <i name="e_wo_entrp">    -16.78323267 </i>
    <i name="e_0_energy">    -16.77550153 </i>
   </energy>
  </scstep>
  <scstep>
   <time name="dav">    6.07    6.07</time>
   <time name="total">   10.63   10.64</time>
   <energy>
    <i name="e_fr_energy">    -16.74559548 </i>
    <i name="e_wo_entrp">    -16.75719407 </i>
    <i name="e_0_energy">    -16.74946167 </i>
   </energy>
  </scstep>
  <scstep>
   <time name="dav">    6.47    6.47</time>
   <time name="total">   10.99   11.00</time>
   <energy>
    <i name="e_fr_energy">    -16.74792503 </i>
    <i name="e_wo_entrp">    -16.75952353 </i>
    <i name="e_0_energy">    -16.75179120 </i>
   </energy>
  </scstep>
  <scstep>
   <time name="dav">    6.06    6.07</time>
   <time name="total">   10.65   10.66</time>
   <energy>
    <i name="e_fr_energy">    -16.74209781 </i>
    <i name="e_wo_entrp">    -16.75369585 </i>
    <i name="e_0_energy">    -16.74596382 </i>
   </energy>
  </scstep>
  <scstep>
   <time name="dav">    6.62    6.63</time>
   <time name="total">   11.17   11.18</time>
   <energy>
    <i name="e_fr_energy">    -16.74201166 </i>
    <i name="e_wo_entrp">    -16.75360955 </i>
    <i name="e_0_energy">    -16.74587762 </i>
   </energy>
  </scstep>
  <scstep>
   <time name="dav">    4.44    4.44</time>
   <time name="total">    8.15    8.17</time>
   <energy>
    <i name="alphaZ">      6.51714733 </i>
    <i name="ewald">   8137.49891746 </i>
    <i name="hartreedc"> -15189.47618971 </i>
    <i name="XCdc">    114.46328428 </i>
    <i name="pawpsdc">   7801.16062196 </i>
    <i name="pawaedc">  -7629.26130187 </i>
    <i name="eentropy">      0.01159788 </i>
    <i name="bandstr">   -666.30029957 </i>
    <i name="atom">   7408.64415014 </i>
    <i name="e_fr_energy">    -16.74207211 </i>
    <i name="e_wo_entrp">    -16.75366999 </i>
    <i name="e_0_energy">    -16.74593807 </i>
   </energy>
  </scstep>
  <structure>
   <crystal>
    <varray name="basis" >
     <v>      21.96964583       0.00000000       0.00000000 </v>
     <v>       0.00000000      22.55171695       0.00000000 </v>
     <v>       0.00000000       0.00000000      23.08711448 </v>
    </varray>
    <i name="volume">  11438.58553475 </i>
    <varray name="rec_basis" >
     <v>       0.04551735       0.00000000       0.00000000 </v>
     <v>       0.00000000       0.04434252       0.00000000 </v>
     <v>       0.00000000       0.00000000       0.04331420 </v>
    </varray>
   </crystal>
   <varray name="positions" >
    <v>       0.41506029       0.51537362       0.47541733 </v>
    <v>       0.53081332       0.59377939       0.61451292 </v>
    <v>       0.51836609       0.58642298       0.49961518 </v>
    <v>       0.49817887       0.54498139       0.39092046 </v>
    <v>       0.60275373       0.51459002       0.55866826 </v>
    <v>       0.55374309       0.40484909       0.56926488 </v>
    <v>       0.47050104       0.49490890       0.57646174 </v>
    <v>       0.53248858       0.46244597       0.46994990 </v>
   </varray>
  </structure>
  <varray name="forces" >
   <v>      -0.17565591      -0.06779371       0.15656515 </v>
   <v>       0.00720057       0.21526427      -0.07338170 </v>
   <v>       0.05322968      -0.06121351      -0.07535739 </v>
   <v>       0.27282423      -0.01394855       0.17621835 </v>
   <v>       0.09916410       0.04046702      -0.12197462 </v>
   <v>       0.04116729      -0.13960978      -0.18153064 </v>
   <v>      -0.32892557      -0.07203355       0.13807810 </v>
   <v>       0.03099560       0.09886780      -0.01861724 </v>
  </varray>
  <energy>
   <i name="e_fr_energy">    -16.74207211 </i>
   <i name="e_wo_entrp">    -16.75366999 </i>
   <i name="e_0_energy">    -16.74593807 </i>
  </energy>
  <time name="totalsc">   85.80   85.95</time>
 </calculation>
 <calculation>
  <scstep>
   <time name="dav">    5.92    5.93</time>
   <time name="total">   10.47   10.48</time>
   <energy>
    <i name="alphaZ">      6.51714733 </i>
    <i name="ewald">   8080.33158262 </i>
    <i name="hartreedc"> -15133.31996542 </i>
    <i name="XCdc">    114.29324455 </i>
    <i name="pawpsdc">   7799.69880429 </i>
    <i name="pawaedc">  -7627.79510032 </i>
    <i name="eentropy">      0.01159847 </i>
    <i name="bandstr">   -665.12361087 </i>
    <i name="atom">   7408.64415014 </i>
    <i name="e_fr_energy">    -16.74214920 </i>
    <i name="e_wo_entrp">    -16.75374767 </i>
    <i name="e_0_energy">    -16.74601536 </i>
   </energy>
  </scstep>
  <scstep>
   <time name="dav">    6.19    6.20</time>
   <time name="total">   10.73   10.75</time>
   <energy>
    <i name="e_fr_energy">    -16.74756938 </i>
    <i name="e_wo_entrp">    -16.75916779 </i>
    <i name="e_0_energy">    -16.75143552 </i>
   </energy>
  </scstep>
  <scstep>
   <time name="dav">    6.18    6.19</time>
   <time name="total">   10.72   10.73</time>
   <energy>
    <i name="e_fr_energy">    -16.74725817 </i>
    <i name="e_wo_entrp">    -16.75885684 </i>
    <i name="e_0_energy">    -16.75112439 </i>
   </energy>
  </scstep>
  <scstep>
   <time name="dav">    6.20    6.21</time>
   <time name="total">    9.94    9.95</time>
   <energy>
    <i name="alphaZ">      6.51714733 </i>
    <i name="ewald">   8080.33158262 </i>
    <i name="hartreedc"> -15134.97304129 </i>
    <i name="XCdc">    114.32509130 </i>
    <i name="pawpsdc">   7770.07973327 </i>
    <i name="pawaedc">  -7597.87541779 </i>
    <i name="eentropy">      0.01159870 </i>
    <i name="bandstr">   -663.80820139 </i>
    <i name="atom">   7408.64415014 </i>
    <i name="e_fr_energy">    -16.74735710 </i>
    <i name="e_wo_entrp">    -16.75895580 </i>
    <i name="e_0_energy">    -16.75122334 </i>
   </energy>
  </scstep>
  <structure>
   <crystal>
    <varray name="basis" >
     <v>      21.96964583       0.00000000       0.00000000 </v>
     <v>       0.00000000      22.55171695       0.00000000 </v>
     <v>       0.00000000       0.00000000      23.08711448 </v>
    </varray>
    <i name="volume">  11438.58553475 </i>
    <varray name="rec_basis" >
     <v>       0.04551735       0.00000000       0.00000000 </v>
     <v>       0.00000000       0.04434252       0.00000000 </v>
     <v>       0.00000000       0.00000000       0.04331420 </v>
    </varray>
   </crystal>
   <varray name="positions" >
    <v>       0.41453309       0.51525750       0.47563154 </v>
    <v>       0.53079259       0.59412162       0.61473927 </v>
    <v>       0.51847029       0.58672419       0.49959138 </v>
    <v>       0.49841267       0.54510801       0.39050042 </v>
    <v>       0.60320394       0.51465756       0.55861594 </v>
    <v>       0.55381188       0.40444056       0.56930765 </v>
    <v>       0.47003861       0.49481884       0.57662597 </v>
    <v>       0.53264194       0.46222307       0.46979850 </v>
   </varray>
  </structure>
  <varray name="forces" >
   <v>      -0.05069260      -0.04525519       0.12413108 </v>
   <v>       0.01350111       0.12473173      -0.15963894 </v>
   <v>       0.03196735      -0.16294819      -0.06795066 </v>
   <v>       0.24251325      -0.04974207       0.31266166 </v>
   <v>      -0.02890465       0.02446530      -0.12056907 </v>
   <v>       0.02250298      -0.01940560      -0.21604935 </v>
   <v>      -0.22271166      -0.04962090       0.09277324 </v>
   <v>      -0.00817577       0.17777493       0.03464203 </v>
  </varray>
  <energy>
   <i name="e_fr_energy">    -16.74735710 </i>
   <i name="e_wo_entrp">    -16.75895580 </i>
   <i name="e_0_energy">    -16.75122334 </i>
  </energy>
  <time name="totalsc">   54.75   54.85</time>
 </calculation>
 <calculation>
  <scstep>
   <time name="dav">    5.88    5.89</time>
   <time name="total">   10.43   10.44</time>
   <energy>
    <i name="alphaZ">      6.51714733 </i>
    <i name="ewald">   8093.21951154 </i>
    <i name="hartreedc"> -15147.69158296 </i>
    <i name="XCdc">    114.36476555 </i>
    <i name="pawpsdc">   7770.47134298 </i>
    <i name="pawaedc">  -7598.27487739 </i>
    <i name="eentropy">      0.01159982 </i>
    <i name="bandstr">   -664.02013089 </i>
    <i name="atom">   7408.64415014 </i>
    <i name="e_fr_energy">    -16.75807387 </i>
    <i name="e_wo_entrp">    -16.76967369 </i>
    <i name="e_0_energy">    -16.76194048 </i>
   </energy>
  </scstep>
  <scstep>
   <time name="dav">    5.91    5.91</time>
   <time name="total">   10.48   10.50</time>
   <energy>
    <i name="e_fr_energy">    -16.76508798 </i>
    <i name="e_wo_entrp">    -16.77668802 </i>
    <i name="e_0_energy">    -16.76895466 </i>
   </energy>
  </scstep>
  <scstep>
   <time name="dav">    6.49    6.50</time>
   <time name="total">   11.07   11.08</time>
   <energy>
    <i name="e_fr_energy">    -16.76486701 </i>
    <i name="e_wo_entrp">    -16.77646715 </i>
    <i name="e_0_energy">    -16.76873372 </i>
   </energy>
  </scstep>
  <scstep>
   <time name="dav">    6.28    6.29</time>
   <time name="total">    9.99   10.00</time>
   <energy>
    <i name="alphaZ">      6.51714733 </i>
    <i name="ewald">   8093.21951154 </i>
    <i name="hartreedc"> -15147.63800964 </i>
    <i name="XCdc">    114.36036196 </i>
    <i name="pawpsdc">   7776.31397048 </i>
    <i name="pawaedc">  -7604.18870991 </i>
    <i name="eentropy">      0.01160035 </i>
    <i name="bandstr">   -664.00482221 </i>
    <i name="atom">   7408.64415014 </i>
    <i name="e_fr_energy">    -16.76479996 </i>
    <i name="e_wo_entrp">    -16.77640031 </i>
    <i name="e_0_energy">    -16.76866674 </i>
   </energy>
  </scstep>
  <structure>
   <crystal>
    <varray name="basis" >
     <v>      21.96964583       0.00000000       0.00000000 </v>
     <v>       0.00000000      22.55171695       0.00000000 </v>
     <v>       0.00000000       0.00000000      23.08711448 </v>
    </varray>
    <i name="volume">  11438.58553475 </i>
    <varray name="rec_basis" >
     <v>       0.04551735       0.00000000       0.00000000 </v>
     <v>       0.00000000       0.04434252       0.00000000 </v>
     <v>       0.00000000       0.00000000       0.04331420 </v>
    </varray>
   </crystal>
   <varray name="positions" >
    <v>       0.41435389       0.51514422       0.47592303 </v>
    <v>       0.53082029       0.59443663       0.61442677 </v>
    <v>       0.51855492       0.58640569       0.49944344 </v>
    <v>       0.49898551       0.54501510       0.39111535 </v>
    <v>       0.60319509       0.51471939       0.55835217 </v>
    <v>       0.55387089       0.40434740       0.56885197 </v>
    <v>       0.46948175       0.49469926       0.57684434 </v>
    <v>       0.53264267       0.46258370       0.46985360 </v>
   </varray>
  </structure>
  <varray name="forces" >
   <v>      -0.06645987      -0.04005314       0.09776215 </v>
   <v>       0.00787949       0.08998288      -0.16774261 </v>
   <v>       0.03296462      -0.10001162      -0.00257244 </v>
   <v>       0.20359435      -0.02464855       0.19044946 </v>
   <v>      -0.03564884       0.01840066      -0.08775170 </v>
   <v>       0.01118034       0.00403891      -0.19963444 </v>
   <v>      -0.16097364      -0.04540317       0.11502921 </v>
   <v>       0.00746355       0.09769401       0.05446038 </v>
  </varray>
  <energy>
   <i name="e_fr_energy">    -16.76479996 </i>
   <i name="e_wo_entrp">    -16.77640031 </i>
   <i name="e_0_energy">    -16.76866674 </i>
  </energy>
  <time name="totalsc">   54.87   54.97</time>
 </calculation>
 <calculation>
  <scstep>
   <time name="dav">    5.89    5.90</time>
   <time name="total">   10.44   10.45</time>
   <energy>
    <i name="alphaZ">      6.51714733 </i>
    <i name="ewald">   8132.49995658 </i>
    <i name="hartreedc"> -15186.75618283 </i>
    <i name="XCdc">    114.49197089 </i>
    <i name="pawpsdc">   7777.12544047 </i>
    <i name="pawaedc">  -7605.00946962 </i>
    <i name="eentropy">      0.01160862 </i>
    <i name="bandstr">   -664.24563298 </i>
    <i name="atom">   7408.64415014 </i>
    <i name="e_fr_energy">    -16.72101139 </i>
    <i name="e_wo_entrp">    -16.73262001 </i>
    <i name="e_0_energy">    -16.72488093 </i>
   </energy>
  </scstep>
  <scstep>
   <time name="dav">    5.91    5.91</time>
   <time name="total">   10.49   10.50</time>
   <energy>
    <i name="e_fr_energy">    -16.78403753 </i>
    <i name="e_wo_entrp">    -16.79564778 </i>
    <i name="e_0_energy">    -16.78790761 </i>
   </energy>
  </scstep>
  <scstep>
   <time name="dav">    6.47    6.48</time>
   <time name="total">   11.02   11.04</time>
   <energy>
    <i name="e_fr_energy">    -16.78183202 </i>
    <i name="e_wo_entrp">    -16.79344363 </i>
    <i name="e_0_energy">    -16.78570255 </i>
   </energy>
  </scstep>
  <scstep>
   <time name="dav">    6.47    6.47</time>
   <time name="total">   11.02   11.03</time>
   <energy>
    <i name="e_fr_energy">    -16.78102472 </i>
    <i name="e_wo_entrp">    -16.79263841 </i>
    <i name="e_0_energy">    -16.78489595 </i>
   </energy>
  </scstep>
  <scstep>
   <time name="dav">    5.00    5.01</time>
   <time name="total">    8.74    8.75</time>
   <energy>
    <i name="alphaZ">      6.51714733 </i>
    <i name="ewald">   8132.49995658 </i>
    <i name="hartreedc"> -15186.31848439 </i>
    <i name="XCdc">    114.47317220 </i>
    <i name="pawpsdc">   7800.29881499 </i>
    <i name="pawaedc">  -7628.43689744 </i>
    <i name="eentropy">      0.01161348 </i>
    <i name="bandstr">   -664.47054288 </i>
    <i name="atom">   7408.64415014 </i>
    <i name="e_fr_energy">    -16.78106999 </i>
    <i name="e_wo_entrp">    -16.79268347 </i>
    <i name="e_0_energy">    -16.78494115 </i>
   </energy>
  </scstep>
  <structure>
   <crystal>
    <varray name="basis" >
     <v>      21.96964583       0.00000000       0.00000000 </v>
     <v>       0.00000000      22.55171695       0.00000000 </v>
     <v>       0.00000000       0.00000000      23.08711448 </v>
    </varray>
    <i name="volume">  11438.58553475 </i>
    <varray name="rec_basis" >
     <v>       0.04551735       0.00000000       0.00000000 </v>
     <v>       0.00000000       0.04434252       0.00000000 </v>
     <v>       0.00000000       0.00000000       0.04331420 </v>
    </varray>
   </crystal>
   <varray name="positions" >
    <v>       0.41381630       0.51480435       0.47679750 </v>
    <v>       0.53090338       0.59538164       0.61348929 </v>
    <v>       0.51880881       0.58545017       0.49899960 </v>
    <v>       0.50070404       0.54473634       0.39296014 </v>
    <v>       0.60316854       0.51490490       0.55756086 </v>
    <v>       0.55404791       0.40406789       0.56748494 </v>
    <v>       0.46781118       0.49434050       0.57749945 </v>
    <v>       0.53264486       0.46366558       0.47001890 </v>
   </varray>
  </structure>
  <varray name="forces" >
   <v>      -0.11438935      -0.02252769       0.01396257 </v>
   <v>      -0.00881662      -0.01516223      -0.17266662 </v>
   <v>       0.03422147       0.15211161       0.25876950 </v>
   <v>       0.05111578       0.07376319      -0.29762353 </v>
   <v>      -0.03458162      -0.00042835       0.02539537 </v>
   <v>      -0.02074119       0.06507928      -0.13104091 </v>
   <v>       0.02589029      -0.03001440       0.16527735 </v>
   <v>       0.06730123      -0.22282141       0.13792626 </v>
  </varray>
  <energy>
   <i name="e_fr_energy">    -16.78106999 </i>
   <i name="e_wo_entrp">    -16.79268347 </i>
   <i name="e_0_energy">    -16.78494115 </i>
  </energy>
  <time name="totalsc">   64.62   64.73</time>
 </calculation>
 <calculation>
  <scstep>
   <time name="dav">    5.94    5.94</time>
   <time name="total">   10.50   10.52</time>
   <energy>
    <i name="alphaZ">      6.51714733 </i>
    <i name="ewald">   8124.41846935 </i>
    <i name="hartreedc"> -15178.32910715 </i>
    <i name="XCdc">    114.44472580 </i>
    <i name="pawpsdc">   7799.93049918 </i>
    <i name="pawaedc">  -7628.06308914 </i>
    <i name="eentropy">      0.01160990 </i>
    <i name="bandstr">   -664.35439422 </i>
    <i name="atom">   7408.64415014 </i>
    <i name="e_fr_energy">    -16.77998881 </i>
    <i name="e_wo_entrp">    -16.79159871 </i>
    <i name="e_0_energy">    -16.78385878 </i>
   </energy>
  </scstep>
  <scstep>
   <time name="dav">    6.19    6.20</time>
   <time name="total">   10.76   10.78</time>
   <energy>
    <i name="e_fr_energy">    -16.78259690 </i>
    <i name="e_wo_entrp">    -16.79420631 </i>
    <i name="e_0_energy">    -16.78646670 </i>
   </energy>
  </scstep>
  <scstep>
   <time name="dav">    6.47    6.48</time>
   <time name="total">   10.19   10.20</time>
   <energy>
    <i name="alphaZ">      6.51714733 </i>
    <i name="ewald">   8124.41846935 </i>
    <i name="hartreedc"> -15178.38526288 </i>
    <i name="XCdc">    114.44710499 </i>
    <i name="pawpsdc">   7797.55447714 </i>
    <i name="pawaedc">  -7625.65472224 </i>
    <i name="eentropy">      0.01160920 </i>
    <i name="bandstr">   -664.33547863 </i>
    <i name="atom">   7408.64415014 </i>
    <i name="e_fr_energy">    -16.78250559 </i>
    <i name="e_wo_entrp">    -16.79411479 </i>
    <i name="e_0_energy">    -16.78637533 </i>
   </energy>
  </scstep>
  <structure>
   <crystal>
    <varray name="basis" >
     <v>      21.96964583       0.00000000       0.00000000 </v>
     <v>       0.00000000      22.55171695       0.00000000 </v>
     <v>       0.00000000       0.00000000      23.08711448 </v>
    </varray>
    <i name="volume">  11438.58553475 </i>
    <varray name="rec_basis" >
     <v>       0.04551735       0.00000000       0.00000000 </v>
     <v>       0.00000000       0.04434252       0.00000000 </v>
     <v>       0.00000000       0.00000000       0.04331420 </v>
    </varray>
   </crystal>
   <varray name="positions" >
    <v>       0.41392582       0.51487359       0.47661934 </v>
    <v>       0.53088645       0.59518911       0.61368028 </v>
    <v>       0.51875709       0.58564484       0.49909002 </v>
    <v>       0.50035392       0.54479313       0.39258430 </v>
    <v>       0.60317395       0.51486711       0.55772207 </v>
    <v>       0.55401185       0.40412483       0.56776344 </v>
    <v>       0.46815152       0.49441359       0.57736599 </v>
    <v>       0.53264441       0.46344517       0.46998522 </v>
   </varray>
  </structure>
  <varray name="forces" >
   <v>      -0.10436295      -0.02578981       0.03074019 </v>
   <v>      -0.00553343       0.00179462      -0.17038389 </v>
   <v>       0.03349903       0.09669775       0.19539982 </v>
   <v>       0.08059771       0.05040662      -0.18373483 </v>
   <v>      -0.03784162       0.00270184       0.00371513 </v>
   <v>      -0.01502300       0.05601028      -0.14185830 </v>
   <v>      -0.00518485      -0.03139949       0.15173427 </v>
   <v>       0.05384911      -0.15042181       0.11438759 </v>
  </varray>
  <energy>
   <i name="e_fr_energy">    -16.78250559 </i>
   <i name="e_wo_entrp">    -16.79411479 </i>
   <i name="e_0_energy">    -16.78637533 </i>
  </energy>
  <time name="totalsc">   44.42   44.50</time>
 </calculation>
 <calculation>
  <scstep>
   <time name="dav">    5.90    5.91</time>
   <time name="total">   10.46   10.47</time>
   <energy>
    <i name="alphaZ">      6.51714733 </i>
    <i name="ewald">   8122.26119464 </i>
    <i name="hartreedc"> -15176.42921905 </i>
    <i name="XCdc">    114.44813872 </i>
    <i name="pawpsdc">   7795.50791625 </i>
    <i name="pawaedc">  -7623.59112286 </i>
    <i name="eentropy">      0.01161366 </i>
    <i name="bandstr">   -664.14846047 </i>
    <i name="atom">   7408.64415014 </i>
    <i name="e_fr_energy">    -16.77864164 </i>
    <i name="e_wo_entrp">    -16.79025530 </i>
    <i name="e_0_energy">    -16.78251286 </i>
   </energy>
  </scstep>
  <scstep>
   <time name="dav">    6.19    6.20</time>
   <time name="total">   10.72   10.74</time>
   <energy>
    <i name="e_fr_energy">    -16.79123138 </i>
    <i name="e_wo_entrp">    -16.80284250 </i>
    <i name="e_0_energy">    -16.79510175 </i>
   </energy>
  </scstep>
  <scstep>
   <time name="dav">    6.48    6.49</time>
   <time name="total">   11.02   11.03</time>
   <energy>
    <i name="e_fr_energy">    -16.79076851 </i>
    <i name="e_wo_entrp">    -16.80238029 </i>
    <i name="e_0_energy">    -16.79463910 </i>
   </energy>
  </scstep>
  <scstep>
   <time name="dav">    6.47    6.48</time>
   <time name="total">   11.01   11.03</time>
   <energy>
    <i name="e_fr_energy">    -16.79060010 </i>
    <i name="e_wo_entrp">    -16.80221185 </i>
    <i name="e_0_energy">    -16.79447068 </i>
   </energy>
  </scstep>
  <scstep>
   <time name="dav">    4.42    4.43</time>
   <time name="total">    8.14    8.15</time>
   <energy>
    <i name="alphaZ">      6.51714733 </i>
    <i name="ewald">   8122.26119464 </i>
    <i name="hartreedc"> -15176.56432037 </i>
    <i name="XCdc">    114.44851935 </i>
    <i name="pawpsdc">   7795.29254972 </i>
    <i name="pawaedc">  -7623.39270543 </i>
    <i name="eentropy">      0.01161187 </i>
    <i name="bandstr">   -664.00877121 </i>
    <i name="atom">   7408.64415014 </i>
    <i name="e_fr_energy">    -16.79062397 </i>
    <i name="e_wo_entrp">    -16.80223584 </i>
    <i name="e_0_energy">    -16.79449459 </i>
   </energy>
  </scstep>
  <structure>
   <crystal>
    <varray name="basis" >
     <v>      21.96964583       0.00000000       0.00000000 </v>
     <v>       0.00000000      22.55171695       0.00000000 </v>
     <v>       0.00000000       0.00000000      23.08711448 </v>
    </varray>
    <i name="volume">  11438.58553475 </i>
    <varray name="rec_basis" >
     <v>       0.04551735       0.00000000       0.00000000 </v>
     <v>       0.00000000       0.04434252       0.00000000 </v>
     <v>       0.00000000       0.00000000       0.04331420 </v>
    </varray>
   </crystal>
   <varray name="positions" >
    <v>       0.41343269       0.51469721       0.47695591 </v>
    <v>       0.53089089       0.59545387       0.61288613 </v>
    <v>       0.51893766       0.58569513       0.49958452 </v>
    <v>       0.50109193       0.54487946       0.39251050 </v>
    <v>       0.60304128       0.51492666       0.55751694 </v>
    <v>       0.55401058       0.40422904       0.56694152 </v>
    <v>       0.46767654       0.49421392       0.57802395 </v>
    <v>       0.53282345       0.46325607       0.47039121 </v>
   </varray>
  </structure>
  <varray name="forces" >
   <v>       0.03697859      -0.00730701       0.02509263 </v>
   <v>      -0.00479446       0.02839229       0.00717701 </v>
   <v>      -0.05301500       0.04329802      -0.04786242 </v>
   <v>       0.05045802       0.01606862      -0.03761945 </v>
   <v>       0.02054344      -0.00704580       0.03585817 </v>
   <v>       0.00162798      -0.03483749      -0.00382764 </v>
   <v>      -0.00514165      -0.01810911       0.08738185 </v>
   <v>      -0.04665693      -0.02045952      -0.06620014 </v>
  </varray>
  <energy>
   <i name="e_fr_energy">    -16.79062397 </i>
   <i name="e_wo_entrp">    -16.80223584 </i>
   <i name="e_0_energy">    -16.79449459 </i>
  </energy>
  <time name="totalsc">   64.28   64.38</time>
 </calculation>
 <calculation>
  <scstep>
   <time name="dav">    6.17    6.17</time>
   <time name="total">   10.72   10.74</time>
   <energy>
    <i name="alphaZ">      6.51714733 </i>
    <i name="ewald">   8122.18763233 </i>
    <i name="hartreedc"> -15176.49078062 </i>
    <i name="XCdc">    114.44856054 </i>
    <i name="pawpsdc">   7795.34002614 </i>
    <i name="pawaedc">  -7623.43987055 </i>
    <i name="eentropy">      0.01161196 </i>
    <i name="bandstr">   -664.00906496 </i>
    <i name="atom">   7408.64415014 </i>
    <i name="e_fr_energy">    -16.79058768 </i>
    <i name="e_wo_entrp">    -16.80219964 </i>
    <i name="e_0_energy">    -16.79445833 </i>
   </energy>
  </scstep>
  <scstep>
   <time name="dav">    4.45    4.46</time>
   <time name="total">    8.18    8.19</time>
   <energy>
    <i name="alphaZ">      6.51714733 </i>
    <i name="ewald">   8122.18763233 </i>
    <i name="hartreedc"> -15176.49921970 </i>
    <i name="XCdc">    114.44862623 </i>
    <i name="pawpsdc">   7795.31900910 </i>
    <i name="pawaedc">  -7623.41947805 </i>
    <i name="eentropy">      0.01161185 </i>
    <i name="bandstr">   -664.00008302 </i>
    <i name="atom">   7408.64415014 </i>
    <i name="e_fr_energy">    -16.79060378 </i>
    <i name="e_wo_entrp">    -16.80221564 </i>
    <i name="e_0_energy">    -16.79447440 </i>
   </energy>
  </scstep>
  <structure>
   <crystal>
    <varray name="basis" >
     <v>      21.96964583       0.00000000       0.00000000 </v>
     <v>       0.00000000      22.55171695       0.00000000 </v>
     <v>       0.00000000       0.00000000      23.08711448 </v>
    </varray>
    <i name="volume">  11438.58553475 </i>
    <varray name="rec_basis" >
     <v>       0.04551735       0.00000000       0.00000000 </v>
     <v>       0.00000000       0.04434252       0.00000000 </v>
     <v>       0.00000000       0.00000000       0.04331420 </v>
    </varray>
   </crystal>
   <varray name="positions" >
    <v>       0.41341483       0.51469082       0.47696810 </v>
    <v>       0.53089105       0.59546346       0.61285737 </v>
    <v>       0.51894420       0.58569696       0.49960243 </v>
    <v>       0.50111865       0.54488259       0.39250782 </v>
    <v>       0.60303647       0.51492882       0.55750952 </v>
    <v>       0.55401053       0.40423282       0.56691176 </v>
    <v>       0.46765934       0.49420669       0.57804778 </v>
    <v>       0.53282993       0.46324923       0.47040591 </v>
   </varray>
  </structure>
  <varray name="forces" >
   <v>       0.04922797      -0.00385771       0.01940948 </v>
   <v>      -0.00490427       0.02457799       0.02636031 </v>
   <v>      -0.05907495       0.04093369      -0.06446027 </v>
   <v>       0.03768391       0.01354184      -0.03171409 </v>
   <v>       0.02497428      -0.00839443       0.04045567 </v>
   <v>       0.00212847      -0.03915318       0.01464865 </v>
   <v>       0.00310542      -0.01443634       0.07474659 </v>
   <v>      -0.05314083      -0.01321187      -0.07944634 </v>
  </varray>
  <energy>
   <i name="e_fr_energy">    -16.79060378 </i>
   <i name="e_wo_entrp">    -16.80221564 </i>
   <i name="e_0_energy">    -16.79447440 </i>
  </energy>
  <time name="totalsc">   31.85   31.91</time>
 </calculation>
 <calculation>
  <scstep>
   <time name="dav">    5.88    5.89</time>
   <time name="total">   10.42   10.44</time>
   <energy>
    <i name="alphaZ">      6.51714733 </i>
    <i name="ewald">   8107.58637757 </i>
    <i name="hartreedc"> -15162.09684240 </i>
    <i name="XCdc">    114.40602836 </i>
    <i name="pawpsdc">   7795.30600130 </i>
    <i name="pawaedc">  -7623.40683020 </i>
    <i name="eentropy">      0.01161166 </i>
    <i name="bandstr">   -663.75859661 </i>
    <i name="atom">   7408.64415014 </i>
    <i name="e_fr_energy">    -16.79095285 </i>
    <i name="e_wo_entrp">    -16.80256451 </i>
    <i name="e_0_energy">    -16.79482340 </i>
   </energy>
  </scstep>
  <scstep>
   <time name="dav">    6.17    6.18</time>
   <time name="total">   10.70   10.71</time>
   <energy>
    <i name="e_fr_energy">    -16.79258793 </i>
    <i name="e_wo_entrp">    -16.80419983 </i>
    <i name="e_0_energy">    -16.79645857 </i>
   </energy>
  </scstep>
  <scstep>
   <time name="dav">    6.46    6.47</time>
   <time name="total">   10.18   10.19</time>
   <energy>
    <i name="alphaZ">      6.51714733 </i>
    <i name="ewald">   8107.58637757 </i>
    <i name="hartreedc"> -15162.31479867 </i>
    <i name="XCdc">    114.41065542 </i>
    <i name="pawpsdc">   7791.27617377 </i>
    <i name="pawaedc">  -7619.33663508 </i>
    <i name="eentropy">      0.01161194 </i>
    <i name="bandstr">   -663.58719617 </i>
    <i name="atom">   7408.64415014 </i>
    <i name="e_fr_energy">    -16.79251374 </i>
    <i name="e_wo_entrp">    -16.80412568 </i>
    <i name="e_0_energy">    -16.79638438 </i>
   </energy>
  </scstep>
  <structure>
   <crystal>
    <varray name="basis" >
     <v>      21.96964583       0.00000000       0.00000000 </v>
     <v>       0.00000000      22.55171695       0.00000000 </v>
     <v>       0.00000000       0.00000000      23.08711448 </v>
    </varray>
    <i name="volume">  11438.58553475 </i>
    <varray name="rec_basis" >
     <v>       0.04551735       0.00000000       0.00000000 </v>
     <v>       0.00000000       0.04434252       0.00000000 </v>
     <v>       0.00000000       0.00000000       0.04331420 </v>
    </varray>
   </crystal>
   <varray name="positions" >
    <v>       0.41346993       0.51463922       0.47710427 </v>
    <v>       0.53087566       0.59560200       0.61276523 </v>
    <v>       0.51878703       0.58584119       0.49950721 </v>
    <v>       0.50140785       0.54494573       0.39239075 </v>
    <v>       0.60309045       0.51491472       0.55759258 </v>
    <v>       0.55401736       0.40412859       0.56677627 </v>
    <v>       0.46756452       0.49411553       0.57843088 </v>
    <v>       0.53269221       0.46316440       0.47024349 </v>
   </varray>
  </structure>
  <varray name="forces" >
   <v>       0.06763941      -0.00437425       0.02907801 </v>
   <v>      -0.00262031       0.01273915       0.00557327 </v>
   <v>      -0.04398734       0.00267850      -0.03562961 </v>
   <v>       0.03072295       0.01130777      -0.01972576 </v>
   <v>      -0.02181694      -0.00978886       0.01559669 </v>
   <v>      -0.00124717      -0.01151105      -0.00373530 </v>
   <v>       0.01452751      -0.00574171       0.03662650 </v>
   <v>      -0.04321811       0.00469046      -0.02778381 </v>
  </varray>
  <energy>
   <i name="e_fr_energy">    -16.79251374 </i>
   <i name="e_wo_entrp">    -16.80412568 </i>
   <i name="e_0_energy">    -16.79638438 </i>
  </energy>
  <time name="totalsc">   44.17   44.25</time>
 </calculation>
 <calculation>
  <scstep>
   <time name="dav">    5.94    5.95</time>
   <time name="total">   10.53   10.55</time>
   <energy>
    <i name="alphaZ">      6.51714733 </i>
    <i name="ewald">   8088.92828827 </i>
    <i name="hartreedc"> -15143.98689123 </i>
    <i name="XCdc">    114.35787872 </i>
    <i name="pawpsdc">   7788.44203756 </i>
    <i name="pawaedc">  -7616.47858299 </i>
    <i name="eentropy">      0.01161172 </i>
    <i name="bandstr">   -663.22642238 </i>
    <i name="atom">   7408.64415014 </i>
    <i name="e_fr_energy">    -16.79078286 </i>
    <i name="e_wo_entrp">    -16.80239457 </i>
    <i name="e_0_energy">    -16.79465343 </i>
   </energy>
  </scstep>
  <scstep>
   <time name="dav">    6.20    6.20</time>
   <time name="total">   10.74   10.75</time>
   <energy>
    <i name="e_fr_energy">    -16.79346773 </i>
    <i name="e_wo_entrp">    -16.80507974 </i>
    <i name="e_0_energy">    -16.79733840 </i>
   </energy>
  </scstep>
  <scstep>
   <time name="dav">    6.76    6.77</time>
   <time name="total">   10.48   10.49</time>
   <energy>
    <i name="alphaZ">      6.51714733 </i>
    <i name="ewald">   8088.92828827 </i>
    <i name="hartreedc"> -15144.24196808 </i>
    <i name="XCdc">    114.36405850 </i>
    <i name="pawpsdc">   7783.14275677 </i>
    <i name="pawaedc">  -7611.12628345 </i>
    <i name="eentropy">      0.01161207 </i>
    <i name="bandstr">   -663.03313056 </i>
    <i name="atom">   7408.64415014 </i>
    <i name="e_fr_energy">    -16.79336901 </i>
    <i name="e_wo_entrp">    -16.80498107 </i>
    <i name="e_0_energy">    -16.79723970 </i>
   </energy>
  </scstep>
  <structure>
   <crystal>
    <varray name="basis" >
     <v>      21.96964583       0.00000000       0.00000000 </v>
     <v>       0.00000000      22.55171695       0.00000000 </v>
     <v>       0.00000000       0.00000000      23.08711448 </v>
    </varray>
    <i name="volume">  11438.58553475 </i>
    <varray name="rec_basis" >
     <v>       0.04551735       0.00000000       0.00000000 </v>
     <v>       0.00000000       0.04434252       0.00000000 </v>
     <v>       0.00000000       0.00000000       0.04331420 </v>
    </varray>
   </crystal>
   <varray name="positions" >
    <v>       0.41354037       0.51457325       0.47727836 </v>
    <v>       0.53085599       0.59577911       0.61264743 </v>
    <v>       0.51858609       0.58602557       0.49938548 </v>
    <v>       0.50177756       0.54502646       0.39224110 </v>
    <v>       0.60315945       0.51489668       0.55769876 </v>
    <v>       0.55402608       0.40399535       0.56660307 </v>
    <v>       0.46744331       0.49399900       0.57892062 </v>
    <v>       0.53251617       0.46305595       0.47003586 </v>
   </varray>
  </structure>
  <varray name="forces" >
   <v>       0.09579183      -0.00378087       0.04062806 </v>
   <v>      -0.00023986      -0.00555642      -0.01046425 </v>
   <v>      -0.03014454      -0.04239769      -0.00956292 </v>
   <v>       0.01529881       0.00801963      -0.00499573 </v>
   <v>      -0.07598140      -0.01298248      -0.00923403 </v>
   <v>      -0.00578368       0.02156381      -0.01591633 </v>
   <v>       0.03623388       0.00728355      -0.01668900 </v>
   <v>      -0.03517504       0.02785048       0.02623420 </v>
  </varray>
  <energy>
   <i name="e_fr_energy">    -16.79336901 </i>
   <i name="e_wo_entrp">    -16.80498107 </i>
   <i name="e_0_energy">    -16.79723970 </i>
  </energy>
  <time name="totalsc">   44.69   44.77</time>
 </calculation>
 <calculation>
  <scstep>
   <time name="dav">    5.88    5.89</time>
   <time name="total">   10.44   10.45</time>
   <energy>
    <i name="alphaZ">      6.51714733 </i>
    <i name="ewald">   8101.23452239 </i>
    <i name="hartreedc"> -15156.51245181 </i>
    <i name="XCdc">    114.40194024 </i>
    <i name="pawpsdc">   7779.49737930 </i>
    <i name="pawaedc">  -7607.45053171 </i>
    <i name="eentropy">      0.01161093 </i>
    <i name="bandstr">   -663.13640610 </i>
    <i name="atom">   7408.64415014 </i>
    <i name="e_fr_energy">    -16.79263929 </i>
    <i name="e_wo_entrp">    -16.80425021 </i>
    <i name="e_0_energy">    -16.79650960 </i>
   </energy>
  </scstep>
  <scstep>
   <time name="dav">    6.53    6.54</time>
   <time name="total">   11.11   11.12</time>
   <energy>
    <i name="e_fr_energy">    -16.79518136 </i>
    <i name="e_wo_entrp">    -16.80679248 </i>
    <i name="e_0_energy">    -16.79905173 </i>
   </energy>
  </scstep>
  <scstep>
   <time name="dav">    6.49    6.50</time>
   <time name="total">   10.22   10.23</time>
   <energy>
    <i name="alphaZ">      6.51714733 </i>
    <i name="ewald">   8101.23452239 </i>
    <i name="hartreedc"> -15156.33104873 </i>
    <i name="XCdc">    114.39734349 </i>
    <i name="pawpsdc">   7782.74675631 </i>
    <i name="pawaedc">  -7610.73372017 </i>
    <i name="eentropy">      0.01161093 </i>
    <i name="bandstr">   -663.28187798 </i>
    <i name="atom">   7408.64415014 </i>
    <i name="e_fr_energy">    -16.79511629 </i>
    <i name="e_wo_entrp">    -16.80672722 </i>
    <i name="e_0_energy">    -16.79898660 </i>
   </energy>
  </scstep>
  <structure>
   <crystal>
    <varray name="basis" >
     <v>      21.96964583       0.00000000       0.00000000 </v>
     <v>       0.00000000      22.55171695       0.00000000 </v>
     <v>       0.00000000       0.00000000      23.08711448 </v>
    </varray>
    <i name="volume">  11438.58553475 </i>
    <varray name="rec_basis" >
     <v>       0.04551735       0.00000000       0.00000000 </v>
     <v>       0.00000000       0.04434252       0.00000000 </v>
     <v>       0.00000000       0.00000000       0.04331420 </v>
    </varray>
   </crystal>
   <varray name="positions" >
    <v>       0.41398411       0.51451484       0.47755266 </v>
    <v>       0.53084214       0.59587240       0.61252910 </v>
    <v>       0.51832961       0.58597460       0.49926813 </v>
    <v>       0.50208272       0.54511166       0.39212354 </v>
    <v>       0.60288909       0.51483239       0.55773168 </v>
    <v>       0.55400777       0.40399548       0.56642697 </v>
    <v>       0.46751452       0.49395229       0.57917480 </v>
    <v>       0.53225506       0.46309771       0.47000379 </v>
   </varray>
  </structure>
  <varray name="forces" >
   <v>       0.03393598      -0.00277856       0.00787912 </v>
   <v>      -0.00121937       0.00431358      -0.00967990 </v>
   <v>      -0.00730789      -0.01356669       0.01793233 </v>
   <v>       0.00921539       0.00783582      -0.02436114 </v>
   <v>      -0.05666745      -0.00334681      -0.00906470 </v>
   <v>      -0.00258403      -0.00204900      -0.00752064 </v>
   <v>       0.03737055       0.00401140       0.00679226 </v>
   <v>      -0.01274316       0.00558025       0.01802268 </v>
  </varray>
  <energy>
   <i name="e_fr_energy">    -16.79511629 </i>
   <i name="e_wo_entrp">    -16.80672722 </i>
   <i name="e_0_energy">    -16.79898660 </i>
  </energy>
  <time name="totalsc">   44.63   44.72</time>
 </calculation>
 <calculation>
  <scstep>
   <time name="dav">    5.97    5.98</time>
   <time name="total">   10.57   10.58</time>
   <energy>
    <i name="alphaZ">      6.51714733 </i>
    <i name="ewald">   8112.64666817 </i>
    <i name="hartreedc"> -15167.54913782 </i>
    <i name="XCdc">    114.43060325 </i>
    <i name="pawpsdc">   7784.27904137 </i>
    <i name="pawaedc">  -7612.28289262 </i>
    <i name="eentropy">      0.01160968 </i>
    <i name="bandstr">   -663.49072843 </i>
    <i name="atom">   7408.64415014 </i>
    <i name="e_fr_energy">    -16.79353893 </i>
    <i name="e_wo_entrp">    -16.80514861 </i>
    <i name="e_0_energy">    -16.79740883 </i>
   </energy>
  </scstep>
  <scstep>
   <time name="dav">    6.50    6.51</time>
   <time name="total">   11.04   11.06</time>
   <energy>
    <i name="e_fr_energy">    -16.79571059 </i>
    <i name="e_wo_entrp">    -16.80732046 </i>
    <i name="e_0_energy">    -16.79958055 </i>
   </energy>
  </scstep>
  <scstep>
   <time name="dav">    5.89    5.90</time>
   <time name="total">    9.62    9.64</time>
   <energy>
    <i name="alphaZ">      6.51714733 </i>
    <i name="ewald">   8112.64666817 </i>
    <i name="hartreedc"> -15167.40132742 </i>
    <i name="XCdc">    114.42591479 </i>
    <i name="pawpsdc">   7788.16250692 </i>
    <i name="pawaedc">  -7616.20566416 </i>
    <i name="eentropy">      0.01160969 </i>
    <i name="bandstr">   -663.59663400 </i>
    <i name="atom">   7408.64415014 </i>
    <i name="e_fr_energy">    -16.79562853 </i>
    <i name="e_wo_entrp">    -16.80723822 </i>
    <i name="e_0_energy">    -16.79949843 </i>
   </energy>
  </scstep>
  <structure>
   <crystal>
    <varray name="basis" >
     <v>      21.96964583       0.00000000       0.00000000 </v>
     <v>       0.00000000      22.55171695       0.00000000 </v>
     <v>       0.00000000       0.00000000      23.08711448 </v>
    </varray>
    <i name="volume">  11438.58553475 </i>
    <varray name="rec_basis" >
     <v>       0.04551735       0.00000000       0.00000000 </v>
     <v>       0.00000000       0.04434252       0.00000000 </v>
     <v>       0.00000000       0.00000000       0.04331420 </v>
    </varray>
   </crystal>
   <varray name="positions" >
    <v>       0.41439572       0.51446066       0.47780709 </v>
    <v>       0.53082929       0.59595894       0.61241933 </v>
    <v>       0.51809169       0.58592733       0.49915928 </v>
    <v>       0.50236580       0.54519069       0.39201449 </v>
    <v>       0.60263831       0.51477275       0.55776222 </v>
    <v>       0.55399078       0.40399559       0.56626363 </v>
    <v>       0.46758056       0.49390897       0.57941058 </v>
    <v>       0.53201285       0.46313645       0.46997404 </v>
   </varray>
  </structure>
  <varray name="forces" >
   <v>      -0.02786736      -0.00227802      -0.02212189 </v>
   <v>      -0.00253040       0.01284512      -0.00859544 </v>
   <v>       0.01705492       0.01566323       0.04409037 </v>
   <v>       0.00255618       0.00762260      -0.04205993 </v>
   <v>      -0.03786517       0.00596363      -0.00968147 </v>
   <v>      -0.00003477      -0.02364641       0.00047192 </v>
   <v>       0.03670347       0.00082134       0.02803337 </v>
   <v>       0.01198313      -0.01699148       0.00986307 </v>
  </varray>
  <energy>
   <i name="e_fr_energy">    -16.79562853 </i>
   <i name="e_wo_entrp">    -16.80723822 </i>
   <i name="e_0_energy">    -16.79949843 </i>
  </energy>
  <time name="totalsc">   44.20   44.28</time>
 </calculation>
 <calculation>
  <scstep>
   <time name="dav">    5.90    5.91</time>
   <time name="total">   10.47   10.49</time>
   <energy>
    <i name="alphaZ">      6.51714733 </i>
    <i name="ewald">   8113.83420076 </i>
    <i name="hartreedc"> -15168.49224342 </i>
    <i name="XCdc">    114.42736358 </i>
    <i name="pawpsdc">   7790.15657223 </i>
    <i name="pawaedc">  -7618.22129409 </i>
    <i name="eentropy">      0.01160731 </i>
    <i name="bandstr">   -663.67198186 </i>
    <i name="atom">   7408.64415014 </i>
    <i name="e_fr_energy">    -16.79447802 </i>
    <i name="e_wo_entrp">    -16.80608533 </i>
    <i name="e_0_energy">    -16.79834713 </i>
   </energy>
  </scstep>
  <scstep>
   <time name="dav">    6.58    6.58</time>
   <time name="total">   11.16   11.18</time>
   <energy>
    <i name="e_fr_energy">    -16.79612056 </i>
    <i name="e_wo_entrp">    -16.80772742 </i>
    <i name="e_0_energy">    -16.79998951 </i>
   </energy>
  </scstep>
  <scstep>
   <time name="dav">    6.21    6.22</time>
   <time name="total">    9.94    9.95</time>
   <energy>
    <i name="alphaZ">      6.51714733 </i>
    <i name="ewald">   8113.83420076 </i>
    <i name="hartreedc"> -15168.46682359 </i>
    <i name="XCdc">    114.42660618 </i>
    <i name="pawpsdc">   7790.88964157 </i>
    <i name="pawaedc">  -7618.95887870 </i>
    <i name="eentropy">      0.01160672 </i>
    <i name="bandstr">   -663.69372080 </i>
    <i name="atom">   7408.64415014 </i>
    <i name="e_fr_energy">    -16.79607038 </i>
    <i name="e_wo_entrp">    -16.80767710 </i>
    <i name="e_0_energy">    -16.79993929 </i>
   </energy>
  </scstep>
  <structure>
   <crystal>
    <varray name="basis" >
     <v>      21.96964583       0.00000000       0.00000000 </v>
     <v>       0.00000000      22.55171695       0.00000000 </v>
     <v>       0.00000000       0.00000000      23.08711448 </v>
    </varray>
    <i name="volume">  11438.58553475 </i>
    <varray name="rec_basis" >
     <v>       0.04551735       0.00000000       0.00000000 </v>
     <v>       0.00000000       0.04434252       0.00000000 </v>
     <v>       0.00000000       0.00000000       0.04331420 </v>
    </varray>
   </crystal>
   <varray name="positions" >
    <v>       0.41452636       0.51441448       0.47786902 </v>
    <v>       0.53080847       0.59607683       0.61230766 </v>
    <v>       0.51802085       0.58597168       0.49929497 </v>
    <v>       0.50256255       0.54527866       0.39174655 </v>
    <v>       0.60228878       0.51476254       0.55773675 </v>
    <v>       0.55397956       0.40388229       0.56615957 </v>
    <v>       0.46780419       0.49388472       0.57969528 </v>
    <v>       0.53191425       0.46308017       0.47000088 </v>
   </varray>
  </structure>
  <varray name="forces" >
   <v>      -0.01296179      -0.00231952      -0.00598368 </v>
   <v>      -0.00240021       0.03346585       0.03726084 </v>
   <v>      -0.00371439       0.00239790      -0.04472317 </v>
   <v>       0.00566860      -0.00374204       0.03445539 </v>
   <v>      -0.00001051      -0.00482011       0.00004164 </v>
   <v>       0.00381670      -0.03460881       0.00919977 </v>
   <v>       0.01075744       0.00039151      -0.00147313 </v>
   <v>      -0.00115584       0.00923522      -0.02877767 </v>
  </varray>
  <energy>
   <i name="e_fr_energy">    -16.79607038 </i>
   <i name="e_wo_entrp">    -16.80767710 </i>
   <i name="e_0_energy">    -16.79993929 </i>
  </energy>
  <time name="totalsc">   44.51   44.58</time>
 </calculation>
 <calculation>
  <scstep>
   <time name="dav">    5.96    5.97</time>
   <time name="total">   10.58   10.60</time>
   <energy>
    <i name="alphaZ">      6.51714733 </i>
    <i name="ewald">   8113.57940279 </i>
    <i name="hartreedc"> -15168.21818924 </i>
    <i name="XCdc">    114.42606939 </i>
    <i name="pawpsdc">   7791.01670553 </i>
    <i name="pawaedc">  -7619.08807114 </i>
    <i name="eentropy">      0.01160688 </i>
    <i name="bandstr">   -663.68480577 </i>
    <i name="atom">   7408.64415014 </i>
    <i name="e_fr_energy">    -16.79598411 </i>
    <i name="e_wo_entrp">    -16.80759098 </i>
    <i name="e_0_energy">    -16.79985307 </i>
   </energy>
  </scstep>
  <scstep>
   <time name="dav">    6.52    6.52</time>
   <time name="total">   10.26   10.27</time>
   <energy>
    <i name="alphaZ">      6.51714733 </i>
    <i name="ewald">   8113.57940279 </i>
    <i name="hartreedc"> -15168.22317843 </i>
    <i name="XCdc">    114.42614629 </i>
    <i name="pawpsdc">   7790.99891807 </i>
    <i name="pawaedc">  -7619.07050870 </i>
    <i name="eentropy">      0.01160701 </i>
    <i name="bandstr">   -663.67975267 </i>
    <i name="atom">   7408.64415014 </i>
    <i name="e_fr_energy">    -16.79606818 </i>
    <i name="e_wo_entrp">    -16.80767519 </i>
    <i name="e_0_energy">    -16.79993718 </i>
   </energy>
  </scstep>
  <structure>
   <crystal>
    <varray name="basis" >
     <v>      21.96964583       0.00000000       0.00000000 </v>
     <v>       0.00000000      22.55171695       0.00000000 </v>
     <v>       0.00000000       0.00000000      23.08711448 </v>
    </varray>
    <i name="volume">  11438.58553475 </i>
    <varray name="rec_basis" >
     <v>       0.04551735       0.00000000       0.00000000 </v>
     <v>       0.00000000       0.04434252       0.00000000 </v>
     <v>       0.00000000       0.00000000       0.04331420 </v>
    </varray>
   </crystal>
   <varray name="positions" >
    <v>       0.41449838       0.51442437       0.47785576 </v>
    <v>       0.53081293       0.59605159       0.61233157 </v>
    <v>       0.51803602       0.58596218       0.49926592 </v>
    <v>       0.50252041       0.54525982       0.39180393 </v>
    <v>       0.60236363       0.51476473       0.55774220 </v>
    <v>       0.55398196       0.40390655       0.56618185 </v>
    <v>       0.46775630       0.49388991       0.57963431 </v>
    <v>       0.53193537       0.46309222       0.46999513 </v>
   </varray>
  </structure>
  <varray name="forces" >
   <v>      -0.00683469      -0.00545927      -0.00406237 </v>
   <v>      -0.00425866       0.03586490       0.01792267 </v>
   <v>      -0.00322603       0.00887848      -0.01314581 </v>
   <v>       0.01653098       0.00516842      -0.00436939 </v>
   <v>      -0.03092681      -0.00277367      -0.00433425 </v>
   <v>       0.00160422      -0.03935501       0.00065334 </v>
   <v>       0.03208225      -0.00127159       0.02502858 </v>
   <v>      -0.00497125      -0.00105227      -0.01769278 </v>
  </varray>
  <energy>
   <i name="e_fr_energy">    -16.79606818 </i>
   <i name="e_wo_entrp">    -16.80767519 </i>
   <i name="e_0_energy">    -16.79993718 </i>
  </energy>
  <time name="totalsc">   33.12   33.19</time>
  <eigenvalues>
   <array>
    <dimension dim="1">band</dimension>
    <dimension dim="2">kpoint</dimension>
    <dimension dim="3">spin</dimension>
    <field>eigene</field>
    <field>occ</field>
    <set>
     <set comment="spin 1">
      <set comment="kpoint 1">
       <r>  -10.8882    1.0000 </r>
       <r>  -10.0148    1.0000 </r>
       <r>   -9.9923    1.0000 </r>
       <r>   -9.5634    1.0000 </r>
       <r>   -9.1776    1.0000 </r>
       <r>   -9.0510    1.0000 </r>
       <r>   -9.0104    1.0000 </r>
       <r>   -8.7958    1.0000 </r>
       <r>   -8.7049    1.0000 </r>
       <r>   -8.6358    1.0000 </r>
       <r>   -8.5358    1.0000 </r>
       <r>   -8.4371    1.0000 </r>
       <r>   -8.3370    1.0000 </r>
       <r>   -8.3125    1.0000 </r>
       <r>   -8.2698    1.0000 </r>
       <r>   -7.8633    1.0000 </r>
       <r>   -7.8108    1.0000 </r>
       <r>   -7.6825    1.0000 </r>
       <r>   -7.5533    1.0000 </r>
       <r>   -7.5518    1.0000 </r>
       <r>   -7.4530    1.0000 </r>
       <r>   -7.3797    1.0000 </r>
       <r>   -7.2966    1.0000 </r>
       <r>   -7.2779    1.0000 </r>
       <r>   -7.0360    1.0000 </r>
       <r>   -7.0012    1.0000 </r>
       <r>   -6.9105    1.0000 </r>
       <r>   -6.8557    1.0000 </r>
       <r>   -6.8059    1.0000 </r>
       <r>   -6.7441    1.0000 </r>
       <r>   -6.7111    1.0000 </r>
       <r>   -6.6924    1.0000 </r>
       <r>   -6.5687    1.0000 </r>
       <r>   -6.5598    1.0000 </r>
       <r>   -6.4497    1.0000 </r>
       <r>   -6.3647    1.0000 </r>
       <r>   -6.3483    1.0000 </r>
       <r>   -6.2011    1.0000 </r>
       <r>   -6.1756    1.0000 </r>
       <r>   -6.1340    1.0000 </r>
       <r>   -5.9641    1.0000 </r>
       <r>   -5.9185    1.0000 </r>
       <r>   -5.6539    1.0000 </r>
       <r>   -5.1492    1.0000 </r>
       <r>   -3.9483   -0.0000 </r>
       <r>   -3.6778   -0.0000 </r>
       <r>   -3.5812   -0.0000 </r>
       <r>   -3.4050   -0.0000 </r>
       <r>   -1.8129   -0.0000 </r>
       <r>   -1.7541   -0.0000 </r>
       <r>   -1.2743   -0.0000 </r>
       <r>   -1.0728   -0.0000 </r>
       <r>   -0.6619   -0.0000 </r>
       <r>   -0.5922   -0.0000 </r>
       <r>   -0.2704   -0.0000 </r>
       <r>   -0.0936   -0.0000 </r>
      </set>
     </set>
     <set comment="spin 2">
      <set comment="kpoint 1">
       <r>  -10.8882    1.0000 </r>
       <r>  -10.0148    1.0000 </r>
       <r>   -9.9923    1.0000 </r>
       <r>   -9.5634    1.0000 </r>
       <r>   -9.1776    1.0000 </r>
       <r>   -9.0510    1.0000 </r>
       <r>   -9.0104    1.0000 </r>
       <r>   -8.7958    1.0000 </r>
       <r>   -8.7049    1.0000 </r>
       <r>   -8.6358    1.0000 </r>
       <r>   -8.5358    1.0000 </r>
       <r>   -8.4371    1.0000 </r>
       <r>   -8.3370    1.0000 </r>
       <r>   -8.3125    1.0000 </r>
       <r>   -8.2698    1.0000 </r>
       <r>   -7.8633    1.0000 </r>
       <r>   -7.8108    1.0000 </r>
       <r>   -7.6825    1.0000 </r>
       <r>   -7.5533    1.0000 </r>
       <r>   -7.5518    1.0000 </r>
       <r>   -7.4530    1.0000 </r>
       <r>   -7.3797    1.0000 </r>
       <r>   -7.2966    1.0000 </r>
       <r>   -7.2779    1.0000 </r>
[...]
       <r>    -2.0388    -0.2490    47.9353 </r>
       <r>    -1.9895     0.4324    47.9566 </r>
       <r>    -1.9402     1.8533    48.0480 </r>
       <r>    -1.8909     3.9354    48.2421 </r>
       <r>    -1.8416     6.1659    48.5461 </r>
       <r>    -1.7923     7.7415    48.9279 </r>
       <r>    -1.7429     7.9875    49.3218 </r>
       <r>    -1.6936     6.7756    49.6560 </r>
       <r>    -1.6443     4.6088    49.8832 </r>
       <r>    -1.5950     2.3145    49.9974 </r>
       <r>    -1.5457     0.6102    50.0275 </r>
       <r>    -1.4964    -0.1461    50.0203 </r>
       <r>    -1.4471     0.0543    50.0229 </r>
       <r>    -1.3977     0.9923    50.0719 </r>
       <r>    -1.3484     2.3190    50.1862 </r>
       <r>    -1.2991     3.6426    50.3659 </r>
       <r>    -1.2498     4.6549    50.5954 </r>
       <r>    -1.2005     5.2341    50.8536 </r>
       <r>    -1.1512     5.4119    51.1204 </r>
       <r>    -1.1018     5.2257    51.3782 </r>
       <r>    -1.0525     4.6319    51.6066 </r>
       <r>    -1.0032     3.6000    51.7841 </r>
       <r>    -0.9539     2.2911    51.8971 </r>
       <r>    -0.9046     1.1172    51.9522 </r>
       <r>    -0.8553     0.6035    51.9820 </r>
       <r>    -0.8060     1.1352    52.0379 </r>
       <r>    -0.7566     2.7224    52.1722 </r>
       <r>    -0.7073     4.8953    52.4136 </r>
       <r>    -0.6580     6.8255    52.7502 </r>
       <r>    -0.6087     7.6944    53.1297 </r>
       <r>    -0.5594     7.1474    53.4821 </r>
       <r>    -0.5101     5.5299    53.7549 </r>
       <r>    -0.4607     3.7009    53.9374 </r>
       <r>    -0.4114     2.5305    54.0622 </r>
       <r>    -0.3621     2.4302    54.1820 </r>
       <r>    -0.3128     3.2230    54.3410 </r>
       <r>    -0.2635     4.3765    54.5568 </r>
       <r>    -0.2142     5.3599    54.8211 </r>
       <r>    -0.1649     5.8543    55.1098 </r>
       <r>    -0.1155     5.7475    55.3933 </r>
       <r>    -0.0662     5.0552    55.6426 </r>
       <r>    -0.0169     3.9021    55.8350 </r>
       <r>     0.0324     2.5374    55.9601 </r>
       <r>     0.0817     1.2779    56.0231 </r>
       <r>     0.1310     0.3713    56.0415 </r>
       <r>     0.1804    -0.1095    56.0361 </r>
       <r>     0.2297    -0.2553    56.0235 </r>
       <r>     0.2790    -0.2226    56.0125 </r>
       <r>     0.3283    -0.1393    56.0056 </r>
       <r>     0.3776    -0.0699    56.0022 </r>
       <r>     0.4269    -0.0293    56.0007 </r>
       <r>     0.4763    -0.0104    56.0002 </r>
       <r>     0.5256    -0.0032    56.0001 </r>
       <r>     0.5749    -0.0009    56.0000 </r>
       <r>     0.6242    -0.0002    56.0000 </r>
       <r>     0.6735    -0.0000    56.0000 </r>
       <r>     0.7228    -0.0000    56.0000 </r>
       <r>     0.7721    -0.0000    56.0000 </r>
       <r>     0.8215    -0.0000    56.0000 </r>
       <r>     0.8708    -0.0000    56.0000 </r>
       <r>     0.9201    -0.0000    56.0000 </r>
       <r>     0.9694    -0.0000    56.0000 </r>
       <r>     1.0187    -0.0000    56.0000 </r>
       <r>     1.0680    -0.0000    56.0000 </r>
       <r>     1.1174    -0.0000    56.0000 </r>
       <r>     1.1667    -0.0000    56.0000 </r>
       <r>     1.2160     0.0000    56.0000 </r>
       <r>     1.2653     0.0000    56.0000 </r>
       <r>     1.3146     0.0000    56.0000 </r>
       <r>     1.3639     0.0000    56.0000 </r>
       <r>     1.4132     0.0000    56.0000 </r>
       <r>     1.4626     0.0000    56.0000 </r>
       <r>     1.5119     0.0000    56.0000 </r>
       <r>     1.5612     0.0000    56.0000 </r>
       <r>     1.6105     0.0000    56.0000 </r>
       <r>     1.6598     0.0000    56.0000 </r>
       <r>     1.7091     0.0000    56.0000 </r>
       <r>     1.7585     0.0000    56.0000 </r>
       <r>     1.8078     0.0000    56.0000 </r>
       <r>     1.8571     0.0000    56.0000 </r>
       <r>     1.9064     0.0000    56.0000 </r>
      </set>
      <set comment="spin 2">
       <r>   -12.8882     0.0000     0.0000 </r>
       <r>   -12.8389     0.0000     0.0000 </r>
       <r>   -12.7896     0.0000     0.0000 </r>
       <r>   -12.7403     0.0000     0.0000 </r>
       <r>   -12.6910     0.0000     0.0000 </r>
       <r>   -12.6417     0.0000     0.0000 </r>
       <r>   -12.5924     0.0000     0.0000 </r>
       <r>   -12.5430     0.0000     0.0000 </r>
       <r>   -12.4937    -0.0000    -0.0000 </r>
       <r>   -12.4444    -0.0000    -0.0000 </r>
       <r>   -12.3951    -0.0000    -0.0000 </r>
       <r>   -12.3458    -0.0000    -0.0000 </r>
       <r>   -12.2965    -0.0000    -0.0000 </r>
       <r>   -12.2471    -0.0000    -0.0000 </r>
       <r>   -12.1978    -0.0000    -0.0000 </r>
       <r>   -12.1485    -0.0000    -0.0000 </r>
       <r>   -12.0992    -0.0000    -0.0000 </r>
       <r>   -12.0499    -0.0000    -0.0000 </r>
       <r>   -12.0006    -0.0000    -0.0000 </r>
       <r>   -11.9512    -0.0000    -0.0000 </r>
       <r>   -11.9019    -0.0000    -0.0000 </r>
       <r>   -11.8526    -0.0000    -0.0000 </r>
       <r>   -11.8033    -0.0000    -0.0000 </r>
       <r>   -11.7540    -0.0000    -0.0000 </r>
       <r>   -11.7047    -0.0000    -0.0000 </r>
       <r>   -11.6554    -0.0000    -0.0000 </r>
       <r>   -11.6060    -0.0000    -0.0000 </r>
       <r>   -11.5567    -0.0002    -0.0000 </r>
       <r>   -11.5074    -0.0009    -0.0001 </r>
       <r>   -11.4581    -0.0032    -0.0002 </r>
       <r>   -11.4088    -0.0104    -0.0007 </r>
       <r>   -11.3595    -0.0289    -0.0021 </r>
       <r>   -11.3101    -0.0684    -0.0055 </r>
       <r>   -11.2608    -0.1340    -0.0121 </r>
       <r>   -11.2115    -0.2064    -0.0223 </r>
       <r>   -11.1622    -0.2131    -0.0328 </r>
       <r>   -11.1129    -0.0167    -0.0336 </r>
       <r>   -11.0636     0.5374    -0.0071 </r>
       <r>   -11.0143     1.5024     0.0670 </r>
       <r>   -10.9649     2.7062     0.2004 </r>
       <r>   -10.9156     3.7498     0.3853 </r>
       <r>   -10.8663     4.1946     0.5922 </r>
       <r>   -10.8170     3.8350     0.7813 </r>
       <r>   -10.7677     2.8380     0.9213 </r>
       <r>   -10.7184     1.6292     1.0016 </r>
       <r>   -10.6690     0.6242     1.0324 </r>
       <r>   -10.6197     0.0226     1.0335 </r>
       <r>   -10.5704    -0.2115     1.0231 </r>
       <r>   -10.5211    -0.2351     1.0115 </r>
       <r>   -10.4718    -0.2048     1.0014 </r>
       <r>   -10.4225    -0.2192     0.9906 </r>
       <r>   -10.3732    -0.3097     0.9753 </r>
       <r>   -10.3238    -0.4277     0.9542 </r>
       <r>   -10.2745    -0.4099     0.9340 </r>
       <r>   -10.2252     0.0290     0.9354 </r>
       <r>   -10.1759     1.1902     0.9941 </r>
       <r>   -10.1266     3.1519     1.1496 </r>
       <r>   -10.0773     5.5357     1.4226 </r>
       <r>   -10.0279     7.5285     1.7938 </r>
       <r>    -9.9786     8.2722     2.2018 </r>
       <r>    -9.9293     7.4009     2.5668 </r>
       <r>    -9.8800     5.3091     2.8286 </r>
       <r>    -9.8307     2.9292     2.9730 </r>
       <r>    -9.7814     1.2078     3.0326 </r>
       <r>    -9.7321     0.6621     3.0652 </r>
       <r>    -9.6827     1.2345     3.1261 </r>
       <r>    -9.6334     2.4102     3.2450 </r>
       <r>    -9.5841     3.4797     3.4166 </r>
       <r>    -9.5348     3.8595     3.6069 </r>
       <r>    -9.4855     3.3645     3.7728 </r>
       <r>    -9.4362     2.2930     3.8859 </r>
       <r>    -9.3868     1.2597     3.9480 </r>
       <r>    -9.3375     0.8817     3.9915 </r>
       <r>    -9.2882     1.5083     4.0659 </r>
       <r>    -9.2389     3.1133     4.2194 </r>
       <r>    -9.1896     5.3362     4.4826 </r>
       <r>    -9.1403     7.5985     4.8573 </r>
       <r>    -9.0910     9.2615     5.3141 </r>
       <r>    -9.0416     9.8447     5.7996 </r>
       <r>    -8.9923     9.2778     6.2571 </r>
       <r>    -8.9430     8.0284     6.6530 </r>
       <r>    -8.8937     6.9226     6.9944 </r>
       <r>    -8.8444     6.6851     7.3241 </r>
       <r>    -8.7951     7.5043     7.6942 </r>
       <r>    -8.7457     8.9588     8.1360 </r>
       <r>    -8.6964    10.3461     8.6462 </r>
       <r>    -8.6471    11.1474     9.1959 </r>
       <r>    -8.5978    11.3107     9.7537 </r>
       <r>    -8.5485    11.2206    10.3071 </r>
       <r>    -8.4992    11.4215    10.8703 </r>
       <r>    -8.4499    12.2445    11.4742 </r>
       <r>    -8.4005    13.5152    12.1407 </r>
       <r>    -8.3512    14.5279    12.8571 </r>
       <r>    -8.3019    14.3828    13.5664 </r>
       <r>    -8.2526    12.5425    14.1850 </r>
       <r>    -8.2033     9.2355    14.6404 </r>
       <r>    -8.1540     5.3967    14.9066 </r>
       <r>    -8.1046     2.1952    15.0148 </r>
       <r>    -8.0553     0.5053    15.0397 </r>
       <r>    -8.0060     0.6246    15.0705 </r>
       <r>    -7.9567     2.2708    15.1825 </r>
       <r>    -7.9074     4.7393    15.4163 </r>
       <r>    -7.8581     7.1714    15.7699 </r>
       <r>    -7.8087     8.9113    16.2094 </r>
       <r>    -7.7594     9.8066    16.6930 </r>
       <r>    -7.7101    10.2229    17.1971 </r>
       <r>    -7.6608    10.7152    17.7256 </r>
       <r>    -7.6115    11.6027    18.2978 </r>
       <r>    -7.5622    12.7920    18.9286 </r>
       <r>    -7.5129    13.9462    19.6164 </r>
       <r>    -7.4635    14.7677    20.3446 </r>
       <r>    -7.4142    15.0948    21.0891 </r>
       <r>    -7.3649    14.7892    21.8184 </r>
       <r>    -7.3156    13.6715    22.4926 </r>
       <r>    -7.2663    11.7117    23.0702 </r>
       <r>    -7.2170     9.3164    23.5296 </r>
       <r>    -7.1676     7.3358    23.8914 </r>
       <r>    -7.1183     6.6367    24.2187 </r>
       <r>    -7.0690     7.5598    24.5915 </r>
       <r>    -7.0197     9.7441    25.0720 </r>
       <r>    -6.9704    12.4553    25.6863 </r>
       <r>    -6.9211    15.0708    26.4295 </r>
       <r>    -6.8718    17.2898    27.2821 </r>
       <r>    -6.8224    18.9882    28.2186 </r>
       <r>    -6.7731    20.0051    29.2051 </r>
       <r>    -6.7238    20.1414    30.1984 </r>
       <r>    -6.6745    19.3547    31.1529 </r>
       <r>    -6.6252    17.9041    32.0358 </r>
       <r>    -6.5759    16.2699    32.8382 </r>
       <r>    -6.5265    14.9109    33.5735 </r>
       <r>    -6.4772    14.0574    34.2668 </r>
       <r>    -6.4279    13.6798    34.9414 </r>
       <r>    -6.3786    13.6174    35.6130 </r>
       <r>    -6.3293    13.7346    36.2903 </r>
       <r>    -6.2800    13.9504    36.9783 </r>
       <r>    -6.2307    14.1314    37.6751 </r>
       <r>    -6.1813    14.0306    38.3671 </r>
       <r>    -6.1320    13.4366    39.0297 </r>
       <r>    -6.0827    12.3948    39.6410 </r>
       <r>    -6.0334    11.1919    40.1929 </r>
       <r>    -5.9841    10.0542    40.6887 </r>
       <r>    -5.9348     8.9191    41.1286 </r>
       <r>    -5.8854     7.5901    41.5029 </r>
       <r>    -5.8361     6.0958    41.8035 </r>
       <r>    -5.7868     4.7926    42.0398 </r>
       <r>    -5.7375     4.0491    42.2395 </r>
       <r>    -5.6882     3.8593    42.4299 </r>
       <r>    -5.6389     3.8098    42.6177 </r>
       <r>    -5.5896     3.4280    42.7868 </r>
       <r>    -5.5402     2.5547    42.9128 </r>
       <r>    -5.4909     1.4179    42.9827 </r>
       <r>    -5.4416     0.4258    43.0037 </r>
       <r>    -5.3923    -0.0771    42.9999 </r>
       <r>    -5.3430     0.0791    43.0038 </r>
       <r>    -5.2937     0.8760    43.0470 </r>
       <r>    -5.2443     2.0952    43.1503 </r>
       <r>    -5.1950     3.3253    43.3143 </r>
       <r>    -5.1457     4.0825    43.5156 </r>
       <r>    -5.0964     4.0476    43.7153 </r>
       <r>    -5.0471     3.2573    43.8759 </r>
       <r>    -4.9978     2.0758    43.9783 </r>
       <r>    -4.9485     0.9581    44.0255 </r>
       <r>    -4.8991     0.1998    44.0354 </r>
       <r>    -4.8498    -0.1535    44.0278 </r>
       <r>    -4.8005    -0.2250    44.0167 </r>
       <r>    -4.7512    -0.1712    44.0083 </r>
       <r>    -4.7019    -0.0973    44.0035 </r>
       <r>    -4.6526    -0.0449    44.0012 </r>
       <r>    -4.6032    -0.0177    44.0004 </r>
       <r>    -4.5539    -0.0070    44.0000 </r>
       <r>    -4.5046    -0.0061    43.9997 </r>
       <r>    -4.4553    -0.0144    43.9990 </r>
       <r>    -4.4060    -0.0374    43.9972 </r>
       <r>    -4.3567    -0.0841    43.9930 </r>
       <r>    -4.3074    -0.1557    43.9853 </r>
       <r>    -4.2580    -0.2221    43.9744 </r>
       <r>    -4.2087    -0.1952    43.9648 </r>
       <r>    -4.1594     0.0683    43.9681 </r>
       <r>    -4.1101     0.6973    44.0025 </r>
       <r>    -4.0608     1.6796    44.0853 </r>
       <r>    -4.0115     2.7747    44.2222 </r>
       <r>    -3.9621     3.5978    44.3996 </r>
       <r>    -3.9128     3.8832    44.5911 </r>
       <r>    -3.8635     3.7370    44.7754 </r>
       <r>    -3.8142     3.6229    44.9541 </r>
       <r>    -3.7649     4.0304    45.1528 </r>
       <r>    -3.7156     5.0792    45.4033 </r>
       <r>    -3.6662     6.4077    45.7193 </r>
       <r>    -3.6169     7.4430    46.0864 </r>
       <r>    -3.5676     7.8076    46.4714 </r>
       <r>    -3.5183     7.5081    46.8417 </r>
       <r>    -3.4690     6.7893    47.1765 </r>
       <r>    -3.4197     5.8569    47.4653 </r>
       <r>    -3.3704     4.7594    47.7000 </r>
       <r>    -3.3210     3.4988    47.8726 </r>
       <r>    -3.2717     2.1837    47.9803 </r>
       <r>    -3.2224     1.0323    48.0312 </r>
       <r>    -3.1731     0.2353    48.0428 </r>
       <r>    -3.1238    -0.1636    48.0347 </r>
       <r>    -3.0745    -0.2631    48.0217 </r>
       <r>    -3.0251    -0.2128    48.0112 </r>
       <r>    -2.9758    -0.1279    48.0049 </r>
       <r>    -2.9265    -0.0623    48.0019 </r>
       <r>    -2.8772    -0.0255    48.0006 </r>
       <r>    -2.8279    -0.0089    48.0002 </r>
       <r>    -2.7786    -0.0027    48.0000 </r>
       <r>    -2.7293    -0.0007    48.0000 </r>
       <r>    -2.6799    -0.0002    48.0000 </r>
       <r>    -2.6306    -0.0000    48.0000 </r>
       <r>    -2.5813    -0.0000    48.0000 </r>
       <r>    -2.5320    -0.0000    48.0000 </r>
       <r>    -2.4827    -0.0002    48.0000 </r>
       <r>    -2.4334    -0.0010    47.9999 </r>
       <r>    -2.3840    -0.0037    47.9998 </r>
       <r>    -2.3347    -0.0125    47.9991 </r>
       <r>    -2.2854    -0.0364    47.9973 </r>
       <r>    -2.2361    -0.0905    47.9929 </r>
       <r>    -2.1868    -0.1896    47.9835 </r>
       <r>    -2.1375    -0.3227    47.9676 </r>
       <r>    -2.0882    -0.4073    47.9475 </r>
       <r>    -2.0388    -0.2490    47.9353 </r>
       <r>    -1.9895     0.4324    47.9566 </r>
       <r>    -1.9402     1.8533    48.0480 </r>
       <r>    -1.8909     3.9353    48.2421 </r>
       <r>    -1.8416     6.1659    48.5461 </r>
       <r>    -1.7923     7.7414    48.9279 </r>
       <r>    -1.7429     7.9875    49.3218 </r>
       <r>    -1.6936     6.7757    49.6559 </r>
       <r>    -1.6443     4.6088    49.8832 </r>
       <r>    -1.5950     2.3145    49.9974 </r>
       <r>    -1.5457     0.6102    50.0275 </r>
       <r>    -1.4964    -0.1461    50.0203 </r>
       <r>    -1.4471     0.0543    50.0229 </r>
       <r>    -1.3977     0.9923    50.0719 </r>
       <r>    -1.3484     2.3189    50.1862 </r>
       <r>    -1.2991     3.6426    50.3659 </r>
       <r>    -1.2498     4.6549    50.5954 </r>
       <r>    -1.2005     5.2340    50.8536 </r>
       <r>    -1.1512     5.4119    51.1204 </r>
       <r>    -1.1018     5.2257    51.3782 </r>
       <r>    -1.0525     4.6319    51.6066 </r>
       <r>    -1.0032     3.6000    51.7841 </r>
       <r>    -0.9539     2.2911    51.8971 </r>
       <r>    -0.9046     1.1172    51.9522 </r>
       <r>    -0.8553     0.6035    51.9820 </r>
       <r>    -0.8060     1.1352    52.0379 </r>
       <r>    -0.7566     2.7223    52.1722 </r>
       <r>    -0.7073     4.8952    52.4136 </r>
       <r>    -0.6580     6.8255    52.7502 </r>
       <r>    -0.6087     7.6944    53.1297 </r>
       <r>    -0.5594     7.1474    53.4821 </r>
       <r>    -0.5101     5.5299    53.7549 </r>
       <r>    -0.4607     3.7009    53.9374 </r>
       <r>    -0.4114     2.5305    54.0622 </r>
       <r>    -0.3621     2.4302    54.1820 </r>
       <r>    -0.3128     3.2230    54.3409 </r>
       <r>    -0.2635     4.3764    54.5568 </r>
       <r>    -0.2142     5.3599    54.8211 </r>
       <r>    -0.1649     5.8543    55.1098 </r>
       <r>    -0.1155     5.7476    55.3933 </r>
       <r>    -0.0662     5.0552    55.6426 </r>
       <r>    -0.0169     3.9021    55.8350 </r>
       <r>     0.0324     2.5375    55.9601 </r>
       <r>     0.0817     1.2779    56.0231 </r>
       <r>     0.1310     0.3713    56.0415 </r>
       <r>     0.1804    -0.1095    56.0361 </r>
       <r>     0.2297    -0.2553    56.0235 </r>
       <r>     0.2790    -0.2226    56.0125 </r>
       <r>     0.3283    -0.1393    56.0056 </r>
       <r>     0.3776    -0.0699    56.0022 </r>
       <r>     0.4269    -0.0293    56.0007 </r>
       <r>     0.4763    -0.0104    56.0002 </r>
       <r>     0.5256    -0.0032    56.0001 </r>
       <r>     0.5749    -0.0009    56.0000 </r>
       <r>     0.6242    -0.0002    56.0000 </r>
       <r>     0.6735    -0.0000    56.0000 </r>
       <r>     0.7228    -0.0000    56.0000 </r>
       <r>     0.7721    -0.0000    56.0000 </r>
       <r>     0.8215    -0.0000    56.0000 </r>
       <r>     0.8708    -0.0000    56.0000 </r>
       <r>     0.9201    -0.0000    56.0000 </r>
       <r>     0.9694    -0.0000    56.0000 </r>
       <r>     1.0187    -0.0000    56.0000 </r>
       <r>     1.0680    -0.0000    56.0000 </r>
       <r>     1.1174    -0.0000    56.0000 </r>
       <r>     1.1667    -0.0000    56.0000 </r>
       <r>     1.2160     0.0000    56.0000 </r>
       <r>     1.2653     0.0000    56.0000 </r>
       <r>     1.3146     0.0000    56.0000 </r>
       <r>     1.3639     0.0000    56.0000 </r>
       <r>     1.4132     0.0000    56.0000 </r>
       <r>     1.4626     0.0000    56.0000 </r>
       <r>     1.5119     0.0000    56.0000 </r>
       <r>     1.5612     0.0000    56.0000 </r>
       <r>     1.6105     0.0000    56.0000 </r>
       <r>     1.6598     0.0000    56.0000 </r>
       <r>     1.7091     0.0000    56.0000 </r>
       <r>     1.7585     0.0000    56.0000 </r>
       <r>     1.8078     0.0000    56.0000 </r>
       <r>     1.8571     0.0000    56.0000 </r>
       <r>     1.9064     0.0000    56.0000 </r>
      </set>
     </set>
    </array>
   </total>
  </dos>
 </calculation>
 <structure name="finalpos" >
  <crystal>
   <varray name="basis" >
    <v>      21.96964583       0.00000000       0.00000000 </v>
    <v>       0.00000000      22.55171695       0.00000000 </v>
    <v>       0.00000000       0.00000000      23.08711448 </v>
   </varray>
   <i name="volume">  11438.58553475 </i>
   <varray name="rec_basis" >
    <v>       0.04551735       0.00000000       0.00000000 </v>
    <v>       0.00000000       0.04434252       0.00000000 </v>
    <v>       0.00000000       0.00000000       0.04331420 </v>
   </varray>
  </crystal>
  <varray name="positions" >
   <v>       0.41449838       0.51442437       0.47785576 </v>
   <v>       0.53081293       0.59605159       0.61233157 </v>
   <v>       0.51803602       0.58596218       0.49926592 </v>
   <v>       0.50252041       0.54525982       0.39180393 </v>
   <v>       0.60236363       0.51476473       0.55774220 </v>
   <v>       0.55398196       0.40390655       0.56618185 </v>
   <v>       0.46775630       0.49388991       0.57963431 </v>
   <v>       0.53193537       0.46309222       0.46999513 </v>
  </varray>
 </structure>
</modeling>
