unknown system                          
            1
    21.969646    0.000000    0.000000
     0.000000   22.551717    0.000000
     0.000000    0.000000   23.087114
   Au
     8
Direct configuration=     1
   0.42005019  0.51647260  0.47338985
   0.53100952  0.59054021  0.61237057
   0.51737990  0.58357211  0.49984040
   0.49596606  0.54378289  0.39489610
   0.59849252  0.51395085  0.55916352
   0.55309197  0.40871573  0.56886010
   0.47487779  0.49576128  0.57490725
   0.53103706  0.46455570  0.47138287
Direct configuration=     2
   0.41506029  0.51537362  0.47541733
   0.53081332  0.59377939  0.61451292
   0.51836609  0.58642298  0.49961518
   0.49817887  0.54498139  0.39092046
   0.60275373  0.51459002  0.55866826
   0.55374309  0.40484909  0.56926488
   0.47050104  0.49490890  0.57646174
   0.53248858  0.46244597  0.46994990
Direct configuration=     3
   0.41453309  0.51525750  0.47563154
   0.53079259  0.59412162  0.61473927
   0.51847029  0.58672419  0.49959138
   0.49841267  0.54510801  0.39050042
   0.60320394  0.51465756  0.55861594
   0.55381188  0.40444056  0.56930765
   0.47003861  0.49481884  0.57662597
   0.53264194  0.46222307  0.46979850
Direct configuration=     4
   0.41435389  0.51514422  0.47592303
   0.53082029  0.59443663  0.61442677
   0.51855492  0.58640569  0.49944344
   0.49898551  0.54501510  0.39111535
   0.60319509  0.51471939  0.55835217
   0.55387089  0.40434740  0.56885197
   0.46948175  0.49469926  0.57684434
   0.53264267  0.46258370  0.46985360
Direct configuration=     5
   0.41381630  0.51480435  0.47679750
   0.53090338  0.59538164  0.61348929
   0.51880881  0.58545017  0.49899960
   0.50070404  0.54473634  0.39296014
   0.60316854  0.51490490  0.55756086
   0.55404791  0.40406789  0.56748494
   0.46781118  0.49434050  0.57749945
   0.53264486  0.46366558  0.47001890
Direct configuration=     6
   0.41392582  0.51487359  0.47661934
   0.53088645  0.59518911  0.61368028
   0.51875709  0.58564484  0.49909002
   0.50035392  0.54479313  0.39258430
   0.60317395  0.51486711  0.55772207
   0.55401185  0.40412483  0.56776344
   0.46815152  0.49441359  0.57736599
   0.53264441  0.46344517  0.46998522
Direct configuration=     7
   0.41343269  0.51469721  0.47695591
   0.53089089  0.59545387  0.61288613
   0.51893766  0.58569513  0.49958452
   0.50109193  0.54487946  0.39251050
   0.60304128  0.51492666  0.55751694
   0.55401058  0.40422904  0.56694152
   0.46767654  0.49421392  0.57802395
   0.53282345  0.46325607  0.47039121
Direct configuration=     8
   0.41341483  0.51469082  0.47696810
   0.53089105  0.59546346  0.61285737
   0.51894420  0.58569696  0.49960243
   0.50111865  0.54488259  0.39250782
   0.60303647  0.51492882  0.55750952
   0.55401053  0.40423282  0.56691176
   0.46765934  0.49420669  0.57804778
   0.53282993  0.46324923  0.47040591
Direct configuration=     9
   0.41346993  0.51463922  0.47710427
   0.53087566  0.59560200  0.61276523
   0.51878703  0.58584119  0.49950721
   0.50140785  0.54494573  0.39239075
   0.60309045  0.51491472  0.55759258
   0.55401736  0.40412859  0.56677627
   0.46756452  0.49411553  0.57843088
   0.53269221  0.46316440  0.47024349
Direct configuration=    10
   0.41354037  0.51457325  0.47727836
   0.53085599  0.59577911  0.61264743
   0.51858609  0.58602557  0.49938548
   0.50177756  0.54502646  0.39224110
   0.60315945  0.51489668  0.55769876
   0.55402608  0.40399535  0.56660307
   0.46744331  0.49399900  0.57892062
   0.53251617  0.46305595  0.47003586
Direct configuration=    11
   0.41398411  0.51451484  0.47755266
   0.53084214  0.59587240  0.61252910
   0.51832961  0.58597460  0.49926813
   0.50208272  0.54511166  0.39212354
   0.60288909  0.51483239  0.55773168
   0.55400777  0.40399548  0.56642697
   0.46751452  0.49395229  0.57917480
   0.53225506  0.46309771  0.47000379
Direct configuration=    12
   0.41439572  0.51446066  0.47780709
   0.53082929  0.59595894  0.61241933
   0.51809169  0.58592733  0.49915928
   0.50236580  0.54519069  0.39201449
   0.60263831  0.51477275  0.55776222
   0.55399078  0.40399559  0.56626363
   0.46758056  0.49390897  0.57941058
   0.53201285  0.46313645  0.46997404
Direct configuration=    13
   0.41452636  0.51441448  0.47786902
   0.53080847  0.59607683  0.61230766
   0.51802085  0.58597168  0.49929497
   0.50256255  0.54527866  0.39174655
   0.60228878  0.51476254  0.55773675
   0.55397956  0.40388229  0.56615957
   0.46780419  0.49388472  0.57969528
   0.53191425  0.46308017  0.47000088
Direct configuration=    14
   0.41449838  0.51442437  0.47785576
   0.53081293  0.59605159  0.61233157
   0.51803602  0.58596218  0.49926592
   0.50252041  0.54525982  0.39180393
   0.60236363  0.51476473  0.55774220
   0.55398196  0.40390655  0.56618185
   0.46775630  0.49388991  0.57963431
   0.53193537  0.46309222  0.46999513
