   7   7   0   0
  0.1559380E+04  0.2459523E-08  0.2235453E-08  0.1985334E-08  0.5000000E-15
   1.0000000000000000E-004
  CAR 
 unknown system                          
      1.20858762    -14.33320779  301     -4.01276223      1.00000000
    -14.333  0.0000E+00  0.0000E+00  0.0000E+00  0.0000E+00
    -14.281  0.0000E+00  0.0000E+00  0.0000E+00  0.0000E+00
    -14.230  0.0000E+00  0.0000E+00  0.0000E+00  0.0000E+00
    -14.178  0.0000E+00  0.0000E+00  0.0000E+00  0.0000E+00
    -14.126  0.0000E+00  0.0000E+00  0.0000E+00  0.0000E+00
    -14.074  0.0000E+00  0.0000E+00  0.0000E+00  0.0000E+00
    -14.022  0.0000E+00  0.0000E+00  0.0000E+00  0.0000E+00
    -13.971 -0.3477E-30  0.0000E+00 -0.1801E-31  0.0000E+00
    -13.919 -0.2153E-28  0.0000E+00 -0.1133E-29  0.0000E+00
    -13.867 -0.1181E-26 -0.1935E-30 -0.6230E-28 -0.1003E-31
    -13.815 -0.5653E-25 -0.1222E-28 -0.2991E-26 -0.6428E-30
    -13.763 -0.2363E-23 -0.6826E-27 -0.1254E-24 -0.3601E-28
    -13.712 -0.8622E-22 -0.3330E-25 -0.4592E-23 -0.1761E-26
    -13.660 -0.2745E-20 -0.1419E-23 -0.1468E-21 -0.7526E-25
    -13.608 -0.7628E-19 -0.5275E-22 -0.4099E-20 -0.2808E-23
    -13.556 -0.1849E-17 -0.1712E-20 -0.9988E-19 -0.9148E-22
    -13.504 -0.3801E-16 -0.4847E-19 -0.2069E-17 -0.2602E-20
    -13.453 -0.6977E-15 -0.1197E-17 -0.3822E-16 -0.6463E-19
    -13.401 -0.1117E-13 -0.2472E-16 -0.6167E-15 -0.1345E-17
    -13.349 -0.1557E-12 -0.4695E-15 -0.8682E-14 -0.2567E-16
    -13.297 -0.1889E-11 -0.7661E-14 -0.1065E-12 -0.4226E-15
    -13.245 -0.1993E-10 -0.1089E-12 -0.1139E-11 -0.6063E-14
    -13.193 -0.1827E-09 -0.1347E-11 -0.1060E-10 -0.7583E-13
    -13.142 -0.1453E-08 -0.1449E-10 -0.8588E-10 -0.8263E-12
    -13.090 -0.1002E-07 -0.1354E-09 -0.6049E-09 -0.7842E-11
    -13.038 -0.5976E-07 -0.1099E-08 -0.3701E-08 -0.6477E-10
    -12.986 -0.3076E-06 -0.7729E-08 -0.1964E-07 -0.4652E-09
    -12.934 -0.1362E-05 -0.4704E-07 -0.9021E-07 -0.2902E-08
    -12.883 -0.5166E-05 -0.2472E-06 -0.3578E-06 -0.1571E-07
    -12.831 -0.1666E-04 -0.1118E-05 -0.1221E-05 -0.7364E-07
    -12.779 -0.4518E-04 -0.4334E-05 -0.3561E-05 -0.2982E-06
    -12.727 -0.1010E-03 -0.1430E-04 -0.8796E-05 -0.1039E-05
    -12.675 -0.1790E-03 -0.3976E-04 -0.1807E-04 -0.3099E-05
    -12.624 -0.2251E-03 -0.9151E-04 -0.2973E-04 -0.7840E-05
    -12.572 -0.1075E-03 -0.1681E-03 -0.3530E-04 -0.1655E-04
    -12.520  0.3561E-03 -0.2246E-03 -0.1685E-04 -0.2818E-04
    -12.468  0.1275E-02 -0.1404E-03  0.4919E-04 -0.3546E-04
    -12.416  0.2516E-02  0.2652E-03  0.1795E-03 -0.2172E-04
    -12.365  0.3658E-02  0.1121E-02  0.3690E-03  0.3638E-04
    -12.313  0.4187E-02  0.2337E-02  0.5860E-03  0.1575E-03
    -12.261  0.3836E-02  0.3526E-02  0.7847E-03  0.3401E-03
    -12.209  0.2783E-02  0.4165E-02  0.9289E-03  0.5559E-03
    -12.157  0.1520E-02  0.3935E-02  0.1008E-02  0.7598E-03
    -12.106  0.5121E-03  0.2955E-02  0.1034E-02  0.9128E-03
    -12.054 -0.4432E-04  0.1689E-02  0.1032E-02  0.1000E-02
    -12.002 -0.2197E-03  0.6262E-03  0.1020E-02  0.1033E-02
    -11.950 -0.1946E-03  0.6579E-05  0.1010E-02  0.1033E-02
    -11.898 -0.1165E-03 -0.2116E-03  0.1004E-02  0.1022E-02
    -11.847 -0.5446E-04 -0.2037E-03  0.1002E-02  0.1012E-02
    -11.795 -0.2087E-04 -0.1272E-03  0.1000E-02  0.1005E-02
    -11.743 -0.6706E-05 -0.6129E-04  0.1000E-02  0.1002E-02
    -11.691 -0.1829E-05 -0.2411E-04  0.1000E-02  0.1001E-02
    -11.639 -0.4266E-06 -0.7931E-05  0.1000E-02  0.1000E-02
    -11.587 -0.8551E-07 -0.2211E-05  0.1000E-02  0.1000E-02
    -11.536 -0.1479E-07 -0.5269E-06  0.1000E-02  0.1000E-02
    -11.484 -0.2211E-08 -0.1079E-06  0.1000E-02  0.1000E-02
    -11.432 -0.2864E-09 -0.1903E-07  0.1000E-02  0.1000E-02
    -11.380 -0.3219E-10 -0.2903E-08  0.1000E-02  0.1000E-02
    -11.328 -0.3143E-11 -0.3836E-09  0.1000E-02  0.1000E-02
    -11.277 -0.2668E-12 -0.4398E-10  0.1000E-02  0.1000E-02
    -11.225 -0.1971E-13 -0.4378E-11  0.1000E-02  0.1000E-02
    -11.173 -0.1269E-14 -0.3789E-12  0.1000E-02  0.1000E-02
    -11.121 -0.6858E-16 -0.2853E-13  0.1000E-02  0.1000E-02
    -11.069 -0.4286E-17 -0.1873E-14  0.1000E-02  0.1000E-02
    -11.018 -0.5806E-20 -0.1072E-15  0.1000E-02  0.1000E-02
    -10.966 -0.1565E-18 -0.4286E-17  0.1000E-02  0.1000E-02
    -10.914 -0.3680E-17 -0.1917E-23  0.1000E-02  0.1000E-02
    -10.862 -0.7331E-16 -0.7048E-22  0.1000E-02  0.1000E-02
    -10.810 -0.1305E-14 -0.2262E-20  0.1000E-02  0.1000E-02
    -10.759 -0.2027E-13 -0.6333E-19  0.1000E-02  0.1000E-02
    -10.707 -0.2740E-12 -0.1547E-17  0.1000E-02  0.1000E-02
    -10.655 -0.3223E-11 -0.3188E-16  0.1000E-02  0.1000E-02
    -10.603 -0.3297E-10 -0.5929E-15  0.1000E-02  0.1000E-02
    -10.551 -0.2929E-09 -0.9568E-14  0.1000E-02  0.1000E-02
    -10.500 -0.2257E-08 -0.1344E-12  0.1000E-02  0.1000E-02
    -10.448 -0.1507E-07 -0.1644E-11  0.1000E-02  0.1000E-02
    -10.396 -0.8704E-07 -0.1749E-10  0.1000E-02  0.1000E-02
    -10.344 -0.4335E-06 -0.1616E-09  0.1000E-02  0.1000E-02
    -10.292 -0.1856E-05 -0.1296E-08  0.9999E-03  0.1000E-02
    -10.241 -0.6793E-05 -0.9008E-08  0.9995E-03  0.1000E-02
    -10.189 -0.2111E-04 -0.5418E-07  0.9984E-03  0.1000E-02
    -10.137 -0.5496E-04 -0.2813E-06  0.9956E-03  0.1000E-02
    -10.085 -0.1173E-03 -0.1257E-05  0.9895E-03  0.9999E-03
    -10.033 -0.1953E-03 -0.4808E-05  0.9794E-03  0.9997E-03
     -9.982 -0.2193E-03 -0.1565E-04  0.9680E-03  0.9989E-03
     -9.930 -0.4072E-04 -0.4289E-04  0.9659E-03  0.9966E-03
     -9.878  0.5204E-03 -0.9706E-04  0.9929E-03  0.9916E-03
     -9.826  0.1533E-02 -0.1746E-03  0.1072E-02  0.9826E-03
     -9.774  0.2797E-02 -0.2252E-03  0.1217E-02  0.9709E-03
     -9.722  0.3844E-02 -0.1218E-03  0.1416E-02  0.9646E-03
     -9.671  0.4186E-02  0.3176E-03  0.1633E-02  0.9810E-03
     -9.619  0.3649E-02  0.1211E-02  0.1822E-02  0.1044E-02
     -9.567  0.2502E-02  0.2443E-02  0.1952E-02  0.1170E-02
     -9.515  0.1262E-02  0.3605E-02  0.2017E-02  0.1357E-02
     -9.463  0.3455E-03  0.4179E-02  0.2035E-02  0.1574E-02
     -9.412 -0.1227E-03  0.3875E-02  0.2029E-02  0.1774E-02
     -9.360 -0.2644E-03  0.2841E-02  0.2015E-02  0.1922E-02
     -9.308 -0.2816E-03  0.1547E-02  0.2000E-02  0.2002E-02
     -9.256 -0.3240E-03  0.4498E-03  0.1984E-02  0.2025E-02
     -9.204 -0.4242E-03 -0.2556E-03  0.1962E-02  0.2012E-02
     -9.153 -0.4582E-03 -0.6037E-03  0.1938E-02  0.1980E-02
     -9.101 -0.1300E-03 -0.6369E-03  0.1931E-02  0.1947E-02
     -9.049  0.9309E-03 -0.2138E-03  0.1979E-02  0.1936E-02
     -8.997  0.2893E-02  0.9522E-03  0.2129E-02  0.1986E-02
     -8.945  0.5404E-02  0.2991E-02  0.2409E-02  0.2141E-02
     -8.894  0.7561E-02  0.5526E-02  0.2801E-02  0.2427E-02
     -8.842  0.8370E-02  0.7643E-02  0.3235E-02  0.2823E-02
     -8.790  0.7421E-02  0.8366E-02  0.3619E-02  0.3256E-02
     -8.738  0.5193E-02  0.7332E-02  0.3888E-02  0.3636E-02
     -8.686  0.2699E-02  0.5063E-02  0.4028E-02  0.3898E-02
     -8.635  0.8087E-03  0.2581E-02  0.4070E-02  0.4032E-02
     -8.583 -0.1751E-03  0.7348E-03  0.4061E-02  0.4070E-02
     -8.531 -0.4461E-03 -0.2045E-03  0.4038E-02  0.4060E-02
     -8.479 -0.3673E-03 -0.4482E-03  0.4019E-02  0.4036E-02
     -8.427 -0.2115E-03 -0.3596E-03  0.4008E-02  0.4018E-02
     -8.376 -0.9610E-04 -0.2041E-03  0.4003E-02  0.4007E-02
     -8.324 -0.3594E-04 -0.9169E-04  0.4001E-02  0.4002E-02
     -8.272 -0.1130E-04 -0.3396E-04  0.4000E-02  0.4001E-02
     -8.220 -0.3019E-05 -0.1057E-04  0.4000E-02  0.4000E-02
     -8.168 -0.6905E-06 -0.2801E-05  0.4000E-02  0.4000E-02
     -8.116 -0.1359E-06 -0.6352E-06  0.4000E-02  0.4000E-02
     -8.065 -0.2308E-07 -0.1239E-06  0.4000E-02  0.4000E-02
     -8.013 -0.3392E-08 -0.2088E-07  0.4000E-02  0.4000E-02
     -7.961 -0.4320E-09 -0.3042E-08  0.4000E-02  0.4000E-02
     -7.909 -0.4776E-10 -0.3843E-09  0.4000E-02  0.4000E-02
     -7.857 -0.4588E-11 -0.4214E-10  0.4000E-02  0.4000E-02
     -7.806 -0.3835E-12 -0.4015E-11  0.4000E-02  0.4000E-02
     -7.754 -0.2890E-13 -0.3327E-12  0.4000E-02  0.4000E-02
     -7.702 -0.1771E-13 -0.2400E-13  0.4000E-02  0.4000E-02
     -7.650 -0.2184E-12 -0.1509E-14  0.4000E-02  0.4000E-02
     -7.598 -0.2600E-11 -0.8144E-16  0.4000E-02  0.4000E-02
     -7.547 -0.2692E-10 -0.4410E-17  0.4000E-02  0.4000E-02
     -7.495 -0.2422E-09 -0.2934E-17  0.4000E-02  0.4000E-02
     -7.443 -0.1891E-08 -0.5863E-16  0.4000E-02  0.4000E-02
     -7.391 -0.1279E-07 -0.1062E-14  0.4000E-02  0.4000E-02
     -7.339 -0.7484E-07 -0.1666E-13  0.4000E-02  0.4000E-02
     -7.288 -0.3778E-06 -0.2276E-12  0.4000E-02  0.4000E-02
     -7.236 -0.1639E-05 -0.2704E-11  0.4000E-02  0.4000E-02
     -7.184 -0.6088E-05 -0.2794E-10  0.4000E-02  0.4000E-02
     -7.132 -0.1920E-04 -0.2508E-09  0.3999E-02  0.4000E-02
     -7.080 -0.5084E-04 -0.1953E-08  0.3996E-02  0.4000E-02
     -7.029 -0.1106E-03 -0.1318E-07  0.3990E-02  0.4000E-02
     -6.977 -0.1889E-03 -0.7695E-07  0.3980E-02  0.4000E-02
     -6.925 -0.2227E-03 -0.3874E-06  0.3969E-02  0.4000E-02
     -6.873 -0.6989E-04 -0.1677E-05  0.3965E-02  0.4000E-02
     -6.821  0.4512E-03 -0.6212E-05  0.3989E-02  0.4000E-02
     -6.770  0.1427E-02 -0.1954E-04  0.4063E-02  0.3999E-02
     -6.718  0.2684E-02 -0.5158E-04  0.4202E-02  0.3996E-02
     -6.666  0.3773E-02 -0.1118E-03  0.4397E-02  0.3990E-02
     -6.614  0.4191E-02 -0.1902E-03  0.4614E-02  0.3980E-02
     -6.562  0.3724E-02 -0.2227E-03  0.4807E-02  0.3969E-02
     -6.511  0.2601E-02 -0.6742E-04  0.4942E-02  0.3965E-02
     -6.459  0.1318E-02  0.4536E-03  0.5010E-02  0.3989E-02
     -6.407  0.2928E-03  0.1413E-02  0.5025E-02  0.4062E-02
     -6.355 -0.3344E-03  0.2616E-02  0.5008E-02  0.4197E-02
     -6.303 -0.6257E-03  0.3588E-02  0.4976E-02  0.4383E-02
     -6.251 -0.6100E-03  0.3838E-02  0.4944E-02  0.4582E-02
     -6.200 -0.1168E-03  0.3265E-02  0.4938E-02  0.4751E-02
     -6.148  0.1146E-02  0.2370E-02  0.4997E-02  0.4874E-02
     -6.096  0.3269E-02  0.2025E-02  0.5167E-02  0.4979E-02
     -6.044  0.5806E-02  0.2892E-02  0.5467E-02  0.5129E-02
     -5.992  0.7805E-02  0.4873E-02  0.5872E-02  0.5381E-02
     -5.941  0.8331E-02  0.7039E-02  0.6303E-02  0.5746E-02
     -5.889  0.7118E-02  0.8179E-02  0.6672E-02  0.6170E-02
     -5.837  0.4773E-02  0.7602E-02  0.6919E-02  0.6563E-02
     -5.785  0.2332E-02  0.5584E-02  0.7040E-02  0.6853E-02
     -5.733  0.5863E-03  0.3088E-02  0.7071E-02  0.7013E-02
     -5.682 -0.2590E-03  0.1064E-02  0.7057E-02  0.7068E-02
     -5.630 -0.4497E-03 -0.6981E-04  0.7034E-02  0.7064E-02
     -5.578 -0.3496E-03 -0.4384E-03  0.7016E-02  0.7041E-02
     -5.526 -0.2137E-03 -0.4016E-03  0.7005E-02  0.7021E-02
     -5.474 -0.1535E-03 -0.2667E-03  0.6997E-02  0.7007E-02
     -5.423 -0.1980E-03 -0.1937E-03  0.6986E-02  0.6997E-02
     -5.371 -0.3372E-03 -0.2343E-03  0.6969E-02  0.6985E-02
     -5.319 -0.5001E-03 -0.3784E-03  0.6943E-02  0.6965E-02
     -5.267 -0.4853E-03 -0.5352E-03  0.6918E-02  0.6937E-02
     -5.215  0.7256E-04 -0.4672E-03  0.6922E-02  0.6913E-02
     -5.164  0.1586E-02  0.2289E-03  0.7004E-02  0.6925E-02
     -5.112  0.4211E-02  0.1966E-02  0.7222E-02  0.7027E-02
     -5.060  0.7511E-02  0.4822E-02  0.7611E-02  0.7277E-02
     -5.008  0.1043E-01  0.8213E-02  0.8151E-02  0.7702E-02
     -4.956  0.1174E-01  0.1096E-01  0.8760E-02  0.8270E-02
     -4.905  0.1083E-01  0.1185E-01  0.9321E-02  0.8884E-02
     -4.853  0.8104E-02  0.1047E-01  0.9741E-02  0.9426E-02
     -4.801  0.4716E-02  0.7434E-02  0.9985E-02  0.9811E-02
     -4.749  0.1861E-02  0.4025E-02  0.1008E-01  0.1002E-01
     -4.697  0.1341E-03  0.1366E-02  0.1009E-01  0.1009E-01
     -4.645 -0.5483E-03 -0.9905E-04  0.1006E-01  0.1009E-01
     -4.594 -0.6257E-03 -0.5735E-03  0.1003E-01  0.1006E-01
     -4.542 -0.5123E-03 -0.5196E-03  0.1000E-01  0.1003E-01
     -4.490 -0.4018E-03 -0.3182E-03  0.9980E-02  0.1001E-01
     -4.438 -0.2550E-03 -0.1524E-03  0.9967E-02  0.1000E-01
     -4.386  0.1147E-03 -0.5999E-04  0.9973E-02  0.1000E-01
     -4.335  0.8889E-03 -0.1983E-04  0.1002E-01  0.1000E-01
     -4.283  0.2056E-02 -0.5575E-05  0.1013E-01  0.1000E-01
     -4.231  0.3296E-02 -0.1342E-05  0.1030E-01  0.1000E-01
     -4.179  0.4094E-02 -0.2802E-06  0.1051E-01  0.1000E-01
     -4.127  0.4060E-02 -0.6476E-07  0.1072E-01  0.1000E-01
     -4.076  0.3211E-02 -0.9472E-07  0.1089E-01  0.1000E-01
     -4.024  0.1961E-02 -0.4355E-06  0.1099E-01  0.1000E-01
     -3.972  0.8220E-03 -0.1866E-05  0.1103E-01  0.1000E-01
     -3.920  0.9793E-04 -0.6872E-05  0.1103E-01  0.1000E-01
     -3.868 -0.2063E-03 -0.2156E-04  0.1102E-01  0.9998E-02
     -3.817 -0.2649E-03 -0.5712E-04  0.1101E-01  0.9995E-02
     -3.765 -0.2687E-03 -0.1258E-03  0.1100E-01  0.9989E-02
     -3.713 -0.3286E-03 -0.2239E-03  0.1098E-01  0.9977E-02
     -3.661 -0.4351E-03 -0.2991E-03  0.1096E-01  0.9962E-02
     -3.609 -0.4237E-03 -0.2249E-03  0.1093E-01  0.9950E-02
     -3.558  0.2687E-04  0.1816E-03  0.1094E-01  0.9960E-02
     -3.506  0.1263E-02  0.1078E-02  0.1100E-01  0.1002E-01
     -3.454  0.3353E-02  0.2503E-02  0.1117E-01  0.1015E-01
     -3.402  0.5809E-02  0.4340E-02  0.1148E-01  0.1037E-01
     -3.350  0.7667E-02  0.6348E-02  0.1187E-01  0.1070E-01
     -3.299  0.8061E-02  0.8167E-02  0.1229E-01  0.1112E-01
     -3.247  0.6884E-02  0.9332E-02  0.1265E-01  0.1161E-01
     -3.195  0.4944E-02  0.9429E-02  0.1290E-01  0.1209E-01
     -3.143  0.3396E-02  0.8419E-02  0.1308E-01  0.1253E-01
     -3.091  0.2909E-02  0.6808E-02  0.1323E-01  0.1288E-01
     -3.040  0.3276E-02  0.5356E-02  0.1340E-01  0.1316E-01
     -2.988  0.3725E-02  0.4495E-02  0.1359E-01  0.1339E-01
     -2.936  0.3585E-02  0.4051E-02  0.1378E-01  0.1360E-01
     -2.884  0.2737E-02  0.3532E-02  0.1392E-01  0.1379E-01
     -2.832  0.1547E-02  0.2650E-02  0.1400E-01  0.1392E-01
     -2.780  0.4790E-03  0.1542E-02  0.1403E-01  0.1400E-01
     -2.729 -0.2319E-03  0.5446E-03  0.1401E-01  0.1403E-01
     -2.677 -0.5927E-03 -0.1214E-03  0.1398E-01  0.1403E-01
     -2.625 -0.6426E-03 -0.4722E-03  0.1395E-01  0.1400E-01
     -2.573 -0.2506E-03 -0.6199E-03  0.1394E-01  0.1397E-01
     -2.521  0.8655E-03 -0.5570E-03  0.1398E-01  0.1394E-01
     -2.470  0.2853E-02 -0.5266E-04  0.1413E-01  0.1394E-01
     -2.418  0.5371E-02  0.1221E-02  0.1441E-01  0.1400E-01
     -2.366  0.7533E-02  0.3355E-02  0.1480E-01  0.1417E-01
     -2.314  0.8355E-02  0.5886E-02  0.1523E-01  0.1448E-01
     -2.262  0.7425E-02  0.7848E-02  0.1562E-01  0.1489E-01
     -2.211  0.5212E-02  0.8316E-02  0.1589E-01  0.1532E-01
     -2.159  0.2719E-02  0.7050E-02  0.1603E-01  0.1568E-01
     -2.107  0.8095E-03  0.4673E-02  0.1607E-01  0.1592E-01
     -2.055 -0.2163E-03  0.2212E-02  0.1606E-01  0.1604E-01
     -2.003 -0.5558E-03  0.4350E-03  0.1603E-01  0.1606E-01
     -1.952 -0.5591E-03 -0.4622E-03  0.1600E-01  0.1604E-01
     -1.900 -0.4349E-03 -0.6697E-03  0.1598E-01  0.1600E-01
     -1.848 -0.1581E-03 -0.4045E-03  0.1597E-01  0.1598E-01
     -1.796  0.4367E-03  0.2728E-03  0.1599E-01  0.1600E-01
     -1.744  0.1449E-02  0.1355E-02  0.1607E-01  0.1607E-01
     -1.693  0.2718E-02  0.2665E-02  0.1621E-01  0.1620E-01
     -1.641  0.3796E-02  0.3771E-02  0.1640E-01  0.1640E-01
     -1.589  0.4191E-02  0.4189E-02  0.1662E-01  0.1662E-01
     -1.537  0.3703E-02  0.3721E-02  0.1681E-01  0.1681E-01
     -1.485  0.2579E-02  0.2607E-02  0.1695E-01  0.1694E-01
     -1.434  0.1330E-02  0.1355E-02  0.1701E-01  0.1701E-01
     -1.382  0.3854E-03  0.4045E-03  0.1703E-01  0.1703E-01
     -1.330 -0.1122E-03 -0.9473E-04  0.1703E-01  0.1703E-01
     -1.278 -0.2730E-03 -0.2450E-03  0.1701E-01  0.1702E-01
     -1.226 -0.2895E-03 -0.2389E-03  0.1700E-01  0.1700E-01
     -1.174 -0.2896E-03 -0.2226E-03  0.1698E-01  0.1699E-01
     -1.123 -0.2712E-03 -0.2427E-03  0.1697E-01  0.1698E-01
     -1.071 -0.1032E-03 -0.2377E-03  0.1697E-01  0.1697E-01
     -1.019  0.4068E-03 -0.4996E-04  0.1699E-01  0.1697E-01
     -0.967  0.1364E-02  0.5105E-03  0.1706E-01  0.1699E-01
     -0.915  0.2617E-02  0.1520E-02  0.1719E-01  0.1707E-01
     -0.864  0.3729E-02  0.2783E-02  0.1739E-01  0.1722E-01
     -0.812  0.4192E-02  0.3836E-02  0.1760E-01  0.1741E-01
     -0.760  0.3773E-02  0.4187E-02  0.1780E-01  0.1763E-01
     -0.708  0.2684E-02  0.3658E-02  0.1794E-01  0.1782E-01
     -0.656  0.1426E-02  0.2516E-02  0.1801E-01  0.1795E-01
     -0.605  0.4509E-03  0.1275E-02  0.1803E-01  0.1802E-01
     -0.553 -0.7003E-04  0.3561E-03  0.1803E-01  0.1804E-01
     -0.501 -0.2227E-03 -0.1075E-03  0.1802E-01  0.1803E-01
     -0.449 -0.1889E-03 -0.2251E-03  0.1801E-01  0.1802E-01
     -0.397 -0.1105E-03 -0.1790E-03  0.1800E-01  0.1801E-01
     -0.346 -0.5081E-04 -0.1010E-03  0.1800E-01  0.1800E-01
     -0.294 -0.1919E-04 -0.4518E-04  0.1800E-01  0.1800E-01
     -0.242 -0.6084E-05 -0.1666E-04  0.1800E-01  0.1800E-01
     -0.190 -0.1638E-05 -0.5166E-05  0.1800E-01  0.1800E-01
     -0.138 -0.3775E-06 -0.1362E-05  0.1800E-01  0.1800E-01
     -0.087 -0.7478E-07 -0.3076E-06  0.1800E-01  0.1800E-01
     -0.035 -0.1278E-07 -0.5976E-07  0.1800E-01  0.1800E-01
      0.017 -0.1889E-08 -0.1002E-07  0.1800E-01  0.1800E-01
      0.069 -0.2420E-09 -0.1453E-08  0.1800E-01  0.1800E-01
      0.121 -0.2689E-10 -0.1827E-09  0.1800E-01  0.1800E-01
      0.172 -0.2597E-11 -0.1993E-10  0.1800E-01  0.1800E-01
      0.224 -0.2180E-12 -0.1889E-11  0.1800E-01  0.1800E-01
      0.276 -0.1592E-13 -0.1557E-12  0.1800E-01  0.1800E-01
      0.328 -0.1012E-14 -0.1117E-13  0.1800E-01  0.1800E-01
      0.380 -0.5572E-16 -0.6943E-15  0.1800E-01  0.1800E-01
      0.431 -0.4286E-17 -0.4286E-16  0.1800E-01  0.1800E-01
      0.483  0.0000E+00  0.0000E+00  0.1800E-01  0.1800E-01
      0.535  0.0000E+00  0.0000E+00  0.1800E-01  0.1800E-01
      0.587  0.0000E+00  0.0000E+00  0.1800E-01  0.1800E-01
      0.639  0.0000E+00  0.0000E+00  0.1800E-01  0.1800E-01
      0.691  0.0000E+00  0.0000E+00  0.1800E-01  0.1800E-01
      0.742  0.0000E+00  0.0000E+00  0.1800E-01  0.1800E-01
      0.794  0.0000E+00  0.0000E+00  0.1800E-01  0.1800E-01
      0.846  0.0000E+00  0.0000E+00  0.1800E-01  0.1800E-01
      0.898  0.0000E+00  0.0000E+00  0.1800E-01  0.1800E-01
      0.950  0.0000E+00  0.0000E+00  0.1800E-01  0.1800E-01
      1.001  0.0000E+00  0.0000E+00  0.1800E-01  0.1800E-01
      1.053  0.0000E+00  0.0000E+00  0.1800E-01  0.1800E-01
      1.105  0.0000E+00  0.0000E+00  0.1800E-01  0.1800E-01
      1.157  0.0000E+00  0.0000E+00  0.1800E-01  0.1800E-01
      1.209  0.0000E+00  0.0000E+00  0.1800E-01  0.1800E-01
