    7    7 1000    2
  0.1559380E+04  0.2459523E-08  0.2235453E-08  0.1985334E-08  0.5000000E-15
   1.0000000000000000E-004
  CAR 
 unknown system                          
     21      1     18
 
  0.1262379E-14  0.1262379E-14  0.1262379E-14  0.1000000E+01
    1      -12.333208    -12.222401   1.000000   1.000000
    2       -9.702589     -9.480922   1.000000   1.000000
    3       -8.876027     -8.826055   1.000000   1.000000
    4       -8.863658     -8.815321   1.000000   1.000000
    5       -6.641396     -6.279604   1.000000   1.000000
    6       -5.983743     -5.912095   1.000000   1.000000
    7       -5.970682     -5.903687   1.000000   1.000000
    8       -5.036786     -4.990853   1.000000   1.000000
    9       -4.951125     -4.912067   1.000000   1.000000
   10       -4.949155     -4.909625   1.000000   1.000000
   11       -4.181193     -3.382156   1.000059  -0.000039
   12       -3.348429     -3.212177  -0.000014  -0.000000
   13       -3.326008     -3.204223  -0.000007  -0.000000
   14       -3.001840     -2.943782  -0.000000  -0.000000
   15       -2.350774     -2.255317  -0.000000  -0.000000
   16       -2.332862     -2.242332  -0.000000  -0.000000
   17       -1.617723     -1.616621  -0.000000  -0.000000
   18       -0.836396     -0.791412  -0.000000  -0.000000
