       N       E                     dE             d eps       ncg     rms          rms(c)
DAV:   1     0.445835109396E+02    0.44584E+02   -0.33248E+03   104   0.416E+02
DAV:   2    -0.923522224218E+01   -0.53819E+02   -0.52817E+02   112   0.623E+01
DAV:   3    -0.189734312535E+02   -0.97382E+01   -0.97007E+01    96   0.248E+01
DAV:   4    -0.192541760062E+02   -0.28074E+00   -0.27970E+00    88   0.714E+00
DAV:   5    -0.192694757325E+02   -0.15300E-01   -0.15298E-01   106   0.199E+00    0.705E+00
DAV:   6    -0.847691397709E+01    0.10793E+02   -0.20167E+01    72   0.159E+01    0.373E+00
DAV:   7    -0.582649116965E+01    0.26504E+01   -0.52536E+00    72   0.798E+00    0.198E+00
DAV:   8    -0.801282110980E+01   -0.21863E+01   -0.93992E-01    90   0.469E+00    0.154E+00
DAV:   9    -0.113630045149E+02   -0.33502E+01   -0.13277E+00    74   0.420E+00    0.103E+00
DAV:  10    -0.137749066072E+02   -0.24119E+01   -0.97956E-01    82   0.304E+00    0.743E-01
DAV:  11    -0.151884229806E+02   -0.14135E+01   -0.45932E-01    74   0.210E+00    0.573E-01
DAV:  12    -0.165595513757E+02   -0.13711E+01   -0.58434E-01    74   0.244E+00    0.359E-01
DAV:  13    -0.168337890523E+02   -0.27424E+00   -0.90813E-02    74   0.112E+00    0.267E-01
DAV:  14    -0.170906920565E+02   -0.25690E+00   -0.29143E-02    74   0.726E-01    0.179E-01
DAV:  15    -0.175106742029E+02   -0.41998E+00   -0.33016E-02    76   0.559E-01    0.103E-01
DAV:  16    -0.176430266884E+02   -0.13235E+00   -0.74590E-03    74   0.281E-01    0.712E-02
DAV:  17    -0.177029443901E+02   -0.59918E-01   -0.33959E-03    84   0.193E-01    0.441E-02
DAV:  18    -0.177613285158E+02   -0.58384E-01   -0.24512E-03    74   0.139E-01    0.250E-02
DAV:  19    -0.177783953250E+02   -0.17067E-01   -0.22177E-04    92   0.501E-02    0.162E-02
DAV:  20    -0.177893564490E+02   -0.10961E-01   -0.15252E-04    76   0.429E-02    0.105E-02
DAV:  21    -0.177950576474E+02   -0.57012E-02   -0.50084E-05    66   0.243E-02    0.662E-03
DAV:  22    -0.177984501226E+02   -0.33925E-02   -0.38083E-05    68   0.187E-02    0.405E-03
DAV:  23    -0.178001104621E+02   -0.16603E-02   -0.18455E-05    50   0.118E-02    0.235E-03
DAV:  24    -0.178009743534E+02   -0.86389E-03   -0.83058E-06    52   0.762E-03    0.143E-03
DAV:  25    -0.178013861082E+02   -0.41175E-03   -0.37921E-06    46   0.517E-03    0.917E-04
DAV:  26    -0.178015646695E+02   -0.17856E-03   -0.81623E-07    48   0.306E-03    0.588E-04
DAV:  27    -0.178016729825E+02   -0.10831E-03   -0.61544E-07    46   0.232E-03    0.383E-04
DAV:  28    -0.178017318503E+02   -0.58868E-04   -0.32615E-07    48   0.171E-03
   1 F= -.17801732E+02 E0= -.17803685E+02  d E =-.178017E+02  mag=     1.0005
       N       E                     dE             d eps       ncg     rms          rms(c)
DAV:   1    -0.178021633037E+02   -0.49032E-03   -0.27828E-03    76   0.278E-01    0.141E-02
DAV:   2    -0.178021765366E+02   -0.13233E-04   -0.11699E-04    48   0.622E-02
   2 F= -.17802177E+02 E0= -.17804128E+02  d E =-.444686E-03  mag=     1.0004
       N       E                     dE             d eps       ncg     rms          rms(c)
DAV:   1    -0.178024495040E+02   -0.28620E-03   -0.87500E-03    74   0.490E-01    0.244E-02
DAV:   2    -0.178024720051E+02   -0.22501E-04   -0.44731E-04    80   0.112E-01
   3 F= -.17802472E+02 E0= -.17804421E+02  d E =-.740155E-03  mag=     1.0004
