 vasp.6.1.2 22Jul20 (build Aug  2 2021 21:04:21) gamma-only                      
 executed on             LinuxPGI date 2021.12.29  02:51:21
 running on    8 total cores
 distrk:  each k-point on    8 cores,    1 groups
 distr:  one band on NCORE=   8 cores,    1 groups


--------------------------------------------------------------------------------------------------------


 INCAR:
 POTCAR:    PAW_PBE Al 04Jan2001                  
 -----------------------------------------------------------------------------
|                                                                             |
|           W    W    AA    RRRRR   N    N  II  N    N   GGGG   !!!           |
|           W    W   A  A   R    R  NN   N  II  NN   N  G    G  !!!           |
|           W    W  A    A  R    R  N N  N  II  N N  N  G       !!!           |
|           W WW W  AAAAAA  RRRRR   N  N N  II  N  N N  G  GGG   !            |
|           WW  WW  A    A  R   R   N   NN  II  N   NN  G    G                |
|           W    W  A    A  R    R  N    N  II  N    N   GGGG   !!!           |
|                                                                             |
|     You use a magnetic or noncollinear calculation, but did not specify     |
|     the initial magnetic moment with the MAGMOM tag. Note that a            |
|     default of 1 will be used for all atoms. This ferromagnetic setup       |
|     may break the symmetry of the crystal, in particular it may rule        |
|     out finding an antiferromagnetic solution. Thence, we recommend         |
|     setting the initial magnetic moment manually or verifying carefully     |
|     that this magnetic setup is desired.                                    |
|                                                                             |
 -----------------------------------------------------------------------------

 -----------------------------------------------------------------------------
|                                                                             |
|           W    W    AA    RRRRR   N    N  II  N    N   GGGG   !!!           |
|           W    W   A  A   R    R  NN   N  II  NN   N  G    G  !!!           |
|           W    W  A    A  R    R  N N  N  II  N N  N  G       !!!           |
|           W WW W  AAAAAA  RRRRR   N  N N  II  N  N N  G  GGG   !            |
|           WW  WW  A    A  R   R   N   NN  II  N   NN  G    G                |
|           W    W  A    A  R    R  N    N  II  N    N   GGGG   !!!           |
|                                                                             |
|     For optimal performance we recommend to set                             |
|       NCORE = 4 - approx SQRT(number of cores).                             |
|     NCORE specifies how many cores store one orbital (NPAR=cpu/NCORE).      |
|     This setting can greatly improve the performance of VASP for DFT.       |
|     The default, NCORE=1 might be grossly inefficient on modern             |
|     multi-core architectures or massively parallel machines. Do your        |
|     own testing!!!!                                                         |
|     Unfortunately you need to use the default for GW and RPA                |
|     calculations (for HF NCORE is supported but not extensively tested      |
|     yet).                                                                   |
|                                                                             |
 -----------------------------------------------------------------------------

 POTCAR:    PAW_PBE Al 04Jan2001                  
   SHA256 =  17880443556af62b473fe41b62a467bd001ad55d2cabe504a3f22e34d4e9db96 Al/POTCAR             
   COPYR  = (c) Copyright 04Jan2001 Georg Kresse                                                    
   COPYR  = This file is part of the software VASP. Any use, copying, and all other rights are regul
   COPYR  = If you do not have a valid VASP license, you may not use, copy or distribute this file. 
   VRHFIN =Al: s2p1                                                                                 
   LEXCH  = PE                                                                                      
   EATOM  =    53.5387 eV,    3.9350 Ry                                                             
                                                                                                    
   TITEL  = PAW_PBE Al 04Jan2001                                                                    
   LULTRA =        F    use ultrasoft PP ?                                                          
   IUNSCR =        1    unscreen: 0-lin 1-nonlin 2-no                                               
   RPACOR =    1.500    partial core radius                                                         
   POMASS =   26.981; ZVAL   =    3.000    mass and valenz                                          
   RCORE  =    1.900    outmost cutoff radius                                                       
   RWIGS  =    2.650; RWIGS  =    1.402    wigner-seitz radius (au A)                               
   ENMAX  =  240.300; ENMIN  =  180.225 eV                                                          
   ICORE  =        2    local potential                                                             
   LCOR   =        T    correct aug charges                                                         
   LPAW   =        T    paw PP                                                                      
   EAUG   =  291.052                                                                                
   DEXC   =    0.000                                                                                
   RMAX   =    1.939    core radius for proj-oper                                                   
   RAUG   =    1.300    factor for augmentation sphere                                              
   RDEP   =    1.966    radius for radial grids                                                     
   RDEPT  =    1.856    core radius for aug-charge                                                  
                                                                                                    
   Atomic configuration                                                                             
    6 entries                                                                                       
     n  l   j            E        occ.                                                              
     1  0  0.50     -1511.1048   2.0000                                                             
     2  0  0.50      -108.1629   2.0000                                                             
     2  1  1.50       -69.6402   6.0000                                                             
     3  0  0.50        -7.7528   2.0000                                                             
     3  1  1.50        -2.7121   1.0000                                                             
     3  2  2.50        -2.7212   0.0000                                                             
   Description                                                                                      
     l       E           TYP  RCUT    TYP  RCUT                                                     
     0     -7.7528455     23  1.900                                                                 
     0     -3.3096929     23  1.900                                                                 
     1     -2.7120682     23  1.900                                                                 
     1     13.6058260     23  1.900                                                                 
     2     -2.7211652      7  1.900                                                                 
  local pseudopotential read in
  partial core-charges read in
  partial kinetic energy density read in
  atomic valenz-charges read in
  non local Contribution for L=            0  read in
    real space projection operators read in
  non local Contribution for L=            0  read in
    real space projection operators read in
  non local Contribution for L=            1  read in
    real space projection operators read in
  non local Contribution for L=            1  read in
    real space projection operators read in
    PAW grid and wavefunctions read in
 
   number of l-projection  operators is LMAX  =            4
   number of lm-projection operators is LMMAX =            8
 
  PAW_PBE Al 04Jan2001                  :
 energy of atom  1       EATOM=  -53.5387
 kinetic energy error for atom=    0.0005 (will be added to EATOM!!)
 
 
 POSCAR: Al
  positions in cartesian coordinates
  No initial velocities read in
 exchange correlation table for  LEXCH =        8
   RHO(1)=    0.500       N(1)  =     2000
   RHO(2)=  100.500       N(2)  =     4000
 


--------------------------------------------------------------------------------------------------------


 ion  position               nearest neighbor table
   1  0.428  0.529  0.555-   7 2.65   2 2.65   5 2.65
   2  0.501  0.449  0.516-   4 2.59   6 2.59   1 2.65   5 2.91   7 2.95
   3  0.576  0.590  0.457-   5 2.59   7 2.59   4 2.71   6 2.74
   4  0.552  0.480  0.408-   2 2.59   5 2.59   3 2.71   6 2.73
   5  0.477  0.556  0.439-   3 2.59   4 2.59   1 2.65   2 2.91   7 2.92
   6  0.599  0.489  0.532-   7 2.58   2 2.59   4 2.73   3 2.74
   7  0.529  0.567  0.571-   6 2.58   3 2.59   1 2.65   5 2.92   2 2.95
 

IMPORTANT INFORMATION: All symmetrisations will be switched off!
NOSYMM: (Re-)initialisation of all symmetry stuff for point group C_1.


----------------------------------------------------------------------------------------

                                     Primitive cell                                     

  volume of cell :   10915.6566

  direct lattice vectors                    reciprocal lattice vectors
    24.595230480  0.000000000  0.000000000     0.040658289  0.000000000  0.000000000
     0.000000000 22.354526831  0.000000000     0.000000000  0.044733669  0.000000000
     0.000000000  0.000000000 19.853335785     0.000000000  0.000000000  0.050369369

  length of vectors
    24.595230480 22.354526831 19.853335785     0.040658289  0.044733669  0.050369369

  position of ions in fractional coordinates (direct lattice)
     0.427842724  0.528829874  0.554574876
     0.501201470  0.448663164  0.516471307
     0.576301602  0.589501022  0.457264701
     0.551796205  0.479831023  0.407734064
     0.476723597  0.555939789  0.439384852
     0.599192243  0.489206738  0.531522013
     0.528839890  0.567444859  0.570933668

  ion indices of the primitive-cell ions
   primitive index   ion index
                 1           1
                 2           2
                 3           3
                 4           4
                 5           5
                 6           6
                 7           7

----------------------------------------------------------------------------------------

 
 
 KPOINTS: KPOINTS created by Atomic Simulation Env

Automatic generation of k-mesh.
Space group operators:
 irot       det(A)        alpha          n_x          n_y          n_z        tau_x        tau_y        tau_z
    1     1.000000     0.000001     1.000000     0.000000     0.000000     0.000000     0.000000     0.000000
 
 Subroutine IBZKPT returns following result:
 ===========================================
 
 Found      1 irreducible k-points:
 
 Following reciprocal coordinates:
            Coordinates               Weight
  0.000000  0.000000  0.000000      1.000000
 
 Following cartesian coordinates:
            Coordinates               Weight
  0.000000  0.000000  0.000000      1.000000
 


--------------------------------------------------------------------------------------------------------




 Dimension of arrays:
   k-points           NKPTS =      1   k-points in BZ     NKDIM =      1   number of bands    NBANDS=     18
   number of dos      NEDOS =    301   number of ions     NIONS =      7
   non local maximal  LDIM  =      4   non local SUM 2l+1 LMDIM =      8
   total plane-waves  NPLWV = ******
   max r-space proj   IRMAX =      1   max aug-charges    IRDMAX=   4895
   dimension x,y,z NGX =   120 NGY =  112 NGZ =   98
   dimension x,y,z NGXF=   240 NGYF=  224 NGZF=  196
   support grid    NGXF=   240 NGYF=  224 NGZF=  196
   ions per type =               7
   NGX,Y,Z   is equivalent  to a cutoff of   8.11,  8.33,  8.21 a.u.
   NGXF,Y,Z  is equivalent  to a cutoff of  16.22, 16.66, 16.41 a.u.

 SYSTEM =  unknown system                          
 POSCAR =  Al                                      

 Startparameter for this run:
   NWRITE =      2    write-flag & timer
   PREC   = normal    normal or accurate (medium, high low for compatibility)
   ISTART =      0    job   : 0-new  1-cont  2-samecut
   ICHARG =      2    charge: 1-file 2-atom 10-const
   ISPIN  =      2    spin polarized calculation?
   LNONCOLLINEAR =      F non collinear calculations
   LSORBIT =      F    spin-orbit coupling
   INIWAV =      1    electr: 0-lowe 1-rand  2-diag
   LASPH  =      F    aspherical Exc in radial PAW
   METAGGA=      F    non-selfconsistent MetaGGA calc.

 Electronic Relaxation 1
   ENCUT  =  400.0 eV  29.40 Ry    5.42 a.u.  40.11 36.45 32.38*2*pi/ulx,y,z
   ENINI  =  400.0     initial cutoff
   ENAUG  =  291.1 eV  augmentation charge cutoff
   NELM   =     60;   NELMIN=  2; NELMDL=  0     # of ELM steps 
   EDIFF  = 0.1E-03   stopping-criterion for ELM
   LREAL  =      F    real-space projection
   NLSPLINE    = F    spline interpolate recip. space projectors
   LCOMPAT=      F    compatible to vasp.4.4
   GGA_COMPAT  = T    GGA compatible to vasp.4.4-vasp.4.6
   LMAXPAW     = -100 max onsite density
   LMAXMIX     =    2 max onsite mixed and CHGCAR
   VOSKOWN=      0    Vosko Wilk Nusair interpolation
   ROPT   =    0.00000
 Ionic relaxation
   EDIFFG = 0.1E-02   stopping-criterion for IOM
   NSW    =   1000    number of steps for IOM
   NBLOCK =      1;   KBLOCK =   1000    inner block; outer block 
   IBRION =      2    ionic relax: 0-MD 1-quasi-New 2-CG
   NFREE  =      1    steps in history (QN), initial steepest desc. (CG)
   ISIF   =      0    stress and relaxation
   IWAVPR =     11    prediction:  0-non 1-charg 2-wave 3-comb
   ISYM   =      0    0-nonsym 1-usesym 2-fastsym
   LCORR  =      T    Harris-Foulkes like correction to forces

   POTIM  = 0.5000    time-step for ionic-motion
   TEIN   =    0.0    initial temperature
   TEBEG  =    0.0;   TEEND  =   0.0 temperature during run
   SMASS  =  -3.00    Nose mass-parameter (am)
   estimated Nose-frequenzy (Omega)   =  0.10E-29 period in steps = 0.13E+47 mass=  -0.138E-25a.u.
   SCALEE = 1.0000    scale energy and forces
   NPACO  =    256;   APACO  = 16.0  distance and # of slots for P.C.
   PSTRESS=    0.0 pullay stress

  Mass of Ions in am
   POMASS =  26.98
  Ionic Valenz
   ZVAL   =   3.00
  Atomic Wigner-Seitz radii
   RWIGS  =  -1.00
  virtual crystal weights 
   VCA    =   1.00
   NELECT =      21.0000    total number of electrons
   NUPDOWN=      -1.0000    fix difference up-down

 DOS related values:
   EMIN   =  10.00;   EMAX   =-10.00  energy-range for DOS
   EFERMI =   0.00
   ISMEAR =     1;   SIGMA  =   0.20  broadening in eV -4-tet -1-fermi 0-gaus

 Electronic relaxation 2 (details)
   IALGO  =     38    algorithm
   LDIAG  =      T    sub-space diagonalisation (order eigenvalues)
   LSUBROT=      F    optimize rotation matrix (better conditioning)
   TURBO    =      0    0=normal 1=particle mesh
   IRESTART =      0    0=no restart 2=restart with 2 vectors
   NREBOOT  =      0    no. of reboots
   NMIN     =      0    reboot dimension
   EREF     =   0.00    reference energy to select bands
   IMIX   =      4    mixing-type and parameters
     AMIX     =   0.40;   BMIX     =  1.00
     AMIX_MAG =   1.60;   BMIX_MAG =  1.00
     AMIN     =   0.10
     WC   =   100.;   INIMIX=   1;  MIXPRE=   1;  MAXMIX= -45

 Intra band minimization:
   WEIMIN = 0.0010     energy-eigenvalue tresh-hold
   EBREAK =  0.14E-05  absolut break condition
   DEPER  =   0.30     relativ break condition  

   TIME   =   0.40     timestep for ELM

  volume/ion in A,a.u.               =    1559.38     10523.21
  Fermi-wavevector in a.u.,A,eV,Ry     =   0.203609  0.384766  0.564054  0.041457
  Thomas-Fermi vector in A             =   0.962172
 
 Write flags
   LWAVE        =      F    write WAVECAR
   LDOWNSAMPLE  =      F    k-point downsampling of WAVECAR
   LCHARG       =      F    write CHGCAR
   LVTOT        =      F    write LOCPOT, total local potential
   LVHAR        =      F    write LOCPOT, Hartree potential only
   LELF         =      F    write electronic localiz. function (ELF)
   LORBIT       =      0    0 simple, 1 ext, 2 COOP (PROOUT), +10 PAW based schemes


 Dipole corrections
   LMONO  =      F    monopole corrections only (constant potential shift)
   LDIPOL =      F    correct potential (dipole corrections)
   IDIPOL =      0    1-x, 2-y, 3-z, 4-all directions 
   EPSILON=  1.0000000 bulk dielectric constant

 Exchange correlation treatment:
   GGA     =    PE    GGA type
   LEXCH   =     8    internal setting for exchange type
   VOSKOWN=      0    Vosko Wilk Nusair interpolation
   LHFCALC =     F    Hartree Fock is set to
   LHFONE  =     F    Hartree Fock one center treatment
   AEXX    =    0.0000 exact exchange contribution

 Linear response parameters
   LEPSILON=     F    determine dielectric tensor
   LRPA    =     F    only Hartree local field effects (RPA)
   LNABLA  =     F    use nabla operator in PAW spheres
   LVEL    =     F    velocity operator in full k-point grid
   LINTERFAST=   F  fast interpolation
   KINTER  =     0    interpolate to denser k-point grid
   CSHIFT  =0.1000    complex shift for real part using Kramers Kronig
   OMEGAMAX=  -1.0    maximum frequency
   DEG_THRESHOLD= 0.2000000E-02 threshold for treating states as degnerate
   RTIME   =   -0.100 relaxation time in fs
  (WPLASMAI=    0.000 imaginary part of plasma frequency in eV, 0.658/RTIME)
   DFIELD  = 0.0000000 0.0000000 0.0000000 field for delta impulse in time
 
 Orbital magnetization related:
   ORBITALMAG=     F  switch on orbital magnetization
   LCHIMAG   =     F  perturbation theory with respect to B field
   DQ        =  0.001000  dq finite difference perturbation B field
   LLRAUG    =     F  two centre corrections for induced B field



--------------------------------------------------------------------------------------------------------


 conjugate gradient relaxation of ions
 charge density and potential will be updated during run
 spin polarized calculation
 Variant of blocked Davidson
 Davidson routine will perform the subspace rotation
 perform sub-space diagonalisation
    after iterative eigenvector-optimisation
 modified Broyden-mixing scheme, WC =      100.0
 initial mixing is a Kerker type mixing with AMIX =  0.4000 and BMIX =      1.0000
 Hartree-type preconditioning will be used
 using additional bands             7
 reciprocal scheme for non local part
 use partial core corrections
 calculate Harris-corrections to forces 
   (improved forces if not selfconsistent)
 use gradient corrections 
 use of overlap-Matrix (Vanderbilt PP)
 Methfessel and Paxton  Order N= 1 SIGMA  =   0.20


--------------------------------------------------------------------------------------------------------


  energy-cutoff  :      400.00
  volume of cell :    10915.66
      direct lattice vectors                 reciprocal lattice vectors
    24.595230480  0.000000000  0.000000000     0.040658289  0.000000000  0.000000000
     0.000000000 22.354526831  0.000000000     0.000000000  0.044733669  0.000000000
     0.000000000  0.000000000 19.853335785     0.000000000  0.000000000  0.050369369

  length of vectors
    24.595230480 22.354526831 19.853335785     0.040658289  0.044733669  0.050369369


 
 k-points in units of 2pi/SCALE and weight: KPOINTS created by Atomic Simulation Env
   0.00000000  0.00000000  0.00000000       1.000
 
 k-points in reciprocal lattice and weights: KPOINTS created by Atomic Simulation Env
   0.00000000  0.00000000  0.00000000       1.000
 
 position of ions in fractional coordinates (direct lattice) 
   0.42784272  0.52882987  0.55457488
   0.50120147  0.44866316  0.51647131
   0.57630160  0.58950102  0.45726470
   0.55179621  0.47983102  0.40773406
   0.47672360  0.55593979  0.43938485
   0.59919224  0.48920674  0.53152201
   0.52883989  0.56744486  0.57093367
 
 position of ions in cartesian coordinates  (Angst):
  10.52289040 11.82174160 11.01016124
  12.32716567 10.02965274 10.25367829
  14.17427074 13.17801641  9.07822966
  13.57155484 10.72639548  8.09488128
  11.72512675 12.42777093  8.72325500
  14.73727131 10.93598514 10.55248500
  13.00693898 12.68496132 11.33493783
 


--------------------------------------------------------------------------------------------------------


 use parallel FFT for orbitals z direction half grid
 k-point   1 :   0.0000 0.0000 0.0000  plane waves:   99193

 maximum and minimum number of plane-waves per node :     12413    12388

 maximum number of plane-waves:     99193
 maximum index in each direction: 
   IXMAX=   40   IYMAX=   36   IZMAX=   32
   IXMIN=  -40   IYMIN=  -36   IZMIN=    0


 parallel 3D FFT for wavefunctions:
    minimum data exchange during FFTs selected (reduces bandwidth)
 parallel 3D FFT for charge:
    minimum data exchange during FFTs selected (reduces bandwidth)


 total amount of memory used by VASP MPI-rank0   196297. kBytes
=======================================================================

   base      :      30000. kBytes
   nonl-proj :       2184. kBytes
   fftplans  :      48148. kBytes
   grid      :     108810. kBytes
   one-center:          3. kBytes
   wavefun   :       7152. kBytes
 
     INWAV:  cpu time    0.0001: real time    0.0000
 Broyden mixing: mesh for mixing (old mesh)
   NGX = 81   NGY = 73   NGZ = 65
  (NGX  =240   NGY  =224   NGZ  =196)
  gives a total of 384345 points

 initial charge density was supplied:
 charge density of overlapping atoms calculated
 number of electron      21.0000000 magnetization       7.0000000
 keeping initial charge density in first step


--------------------------------------------------------------------------------------------------------


 Maximum index for augmentation-charges           590 (set IRDMAX)


--------------------------------------------------------------------------------------------------------


 First call to EWALD:  gamma=   0.080
 Maximum number of real-space cells 3x 3x 3
 Maximum number of reciprocal cells 3x 3x 3

    FEWALD:  cpu time    0.0020: real time    0.0020


--------------------------------------- Iteration      1(   1)  ---------------------------------------


    POTLOK:  cpu time    2.9619: real time    2.9671
    SETDIJ:  cpu time    0.0354: real time    0.0354
     EDDAV:  cpu time    1.5214: real time    1.5310
       DOS:  cpu time    0.0008: real time    0.0008
    --------------------------------------------
      LOOP:  cpu time    4.5196: real time    4.5344

 eigenvalue-minimisations  :   104
 total energy-change (2. order) : 0.4458351E+02  (-0.3324819E+03)
 number of electron      21.0000000 magnetization       7.0000000
 augmentation part       21.0000000 magnetization       7.0000000

 Free energy of the ion-electron system (eV)
  ---------------------------------------------------
  alpha Z        PSCENC =        -0.01507758
  Ewald energy   TEWEN  =       517.25803070
  -Hartree energ DENC   =      -758.85095114
  -exchange      EXHF   =         0.00000000
  -V(xc)+E(xc)   XCENC  =      -189.70503424
  PAW double counting   =       462.65713654     -238.99141827
  entropy T*S    EENTRO =        -0.04496860
  eigenvalues    EBANDS =      -122.49128673
  atomic energy  EATOM  =       374.76708025
  Solvation  Ediel_sol  =         0.00000000
  ---------------------------------------------------
  free energy    TOTEN  =        44.58351094 eV

  energy without entropy =       44.62847954  energy(sigma->0) =       44.59850047


--------------------------------------------------------------------------------------------------------




--------------------------------------- Iteration      1(   2)  ---------------------------------------


     EDDAV:  cpu time    1.6243: real time    1.6259
       DOS:  cpu time    0.0013: real time    0.0013
    --------------------------------------------
      LOOP:  cpu time    1.6257: real time    1.6298

 eigenvalue-minimisations  :   112
 total energy-change (2. order) :-0.5381873E+02  (-0.5281685E+02)
 number of electron      21.0000000 magnetization       7.0000000
 augmentation part       21.0000000 magnetization       7.0000000

 Free energy of the ion-electron system (eV)
  ---------------------------------------------------
  alpha Z        PSCENC =        -0.01507758
  Ewald energy   TEWEN  =       517.25803070
  -Hartree energ DENC   =      -758.85095114
  -exchange      EXHF   =         0.00000000
  -V(xc)+E(xc)   XCENC  =      -189.70503424
  PAW double counting   =       462.65713654     -238.99141827
  entropy T*S    EENTRO =         0.00584591
  eigenvalues    EBANDS =      -176.36083442
  atomic energy  EATOM  =       374.76708025
  Solvation  Ediel_sol  =         0.00000000
  ---------------------------------------------------
  free energy    TOTEN  =        -9.23522224 eV

  energy without entropy =       -9.24106815  energy(sigma->0) =       -9.23717088


--------------------------------------------------------------------------------------------------------




--------------------------------------- Iteration      1(   3)  ---------------------------------------


     EDDAV:  cpu time    1.7245: real time    1.7286
       DOS:  cpu time    0.0019: real time    0.0019
    --------------------------------------------
      LOOP:  cpu time    1.7263: real time    1.7279

 eigenvalue-minimisations  :    96
 total energy-change (2. order) :-0.9738209E+01  (-0.9700734E+01)
 number of electron      21.0000000 magnetization       7.0000000
 augmentation part       21.0000000 magnetization       7.0000000

 Free energy of the ion-electron system (eV)
  ---------------------------------------------------
  alpha Z        PSCENC =        -0.01507758
  Ewald energy   TEWEN  =       517.25803070
  -Hartree energ DENC   =      -758.85095114
  -exchange      EXHF   =         0.00000000
  -V(xc)+E(xc)   XCENC  =      -189.70503424
  PAW double counting   =       462.65713654     -238.99141827
  entropy T*S    EENTRO =         0.00787751
  eigenvalues    EBANDS =      -186.10107504
  atomic energy  EATOM  =       374.76708025
  Solvation  Ediel_sol  =         0.00000000
  ---------------------------------------------------
  free energy    TOTEN  =       -18.97343125 eV

  energy without entropy =      -18.98130877  energy(sigma->0) =      -18.97605709


--------------------------------------------------------------------------------------------------------




--------------------------------------- Iteration      1(   4)  ---------------------------------------


     EDDAV:  cpu time    1.9507: real time    1.9564
       DOS:  cpu time    0.0031: real time    0.0031
    --------------------------------------------
      LOOP:  cpu time    1.9538: real time    1.9596

 eigenvalue-minimisations  :    88
 total energy-change (2. order) :-0.2807448E+00  (-0.2796957E+00)
 number of electron      21.0000000 magnetization       7.0000000
 augmentation part       21.0000000 magnetization       7.0000000

 Free energy of the ion-electron system (eV)
  ---------------------------------------------------
  alpha Z        PSCENC =        -0.01507758
  Ewald energy   TEWEN  =       517.25803070
  -Hartree energ DENC   =      -758.85095114
  -exchange      EXHF   =         0.00000000
  -V(xc)+E(xc)   XCENC  =      -189.70503424
  PAW double counting   =       462.65713654     -238.99141827
  entropy T*S    EENTRO =         0.01350488
  eigenvalues    EBANDS =      -186.38744715
  atomic energy  EATOM  =       374.76708025
  Solvation  Ediel_sol  =         0.00000000
  ---------------------------------------------------
  free energy    TOTEN  =       -19.25417601 eV

  energy without entropy =      -19.26768088  energy(sigma->0) =      -19.25867763


--------------------------------------------------------------------------------------------------------




--------------------------------------- Iteration      1(   5)  ---------------------------------------


     EDDAV:  cpu time    2.4004: real time    2.4026
       DOS:  cpu time    0.0011: real time    0.0011
    CHARGE:  cpu time    0.4151: real time    0.4154
    MIXING:  cpu time    0.0508: real time    0.0509
    --------------------------------------------
      LOOP:  cpu time    2.8674: real time    2.8700

 eigenvalue-minimisations  :   106
 total energy-change (2. order) :-0.1529973E-01  (-0.1529823E-01)
 number of electron      21.0000000 magnetization       6.4118705
 augmentation part       -0.3627768 magnetization       5.4208486

 Broyden mixing:
  rms(total) = 0.70466E+00    rms(broyden)= 0.70466E+00
  rms(prec ) = 0.81251E+00
  weight for this iteration     100.00

 Free energy of the ion-electron system (eV)
  ---------------------------------------------------
  alpha Z        PSCENC =        -0.01507758
  Ewald energy   TEWEN  =       517.25803070
  -Hartree energ DENC   =      -758.85095114
  -exchange      EXHF   =         0.00000000
  -V(xc)+E(xc)   XCENC  =      -189.70503424
  PAW double counting   =       462.65713654     -238.99141827
  entropy T*S    EENTRO =         0.01398195
  eigenvalues    EBANDS =      -186.40322395
  atomic energy  EATOM  =       374.76708025
  Solvation  Ediel_sol  =         0.00000000
  ---------------------------------------------------
  free energy    TOTEN  =       -19.26947573 eV

  energy without entropy =      -19.28345768  energy(sigma->0) =      -19.27413638


--------------------------------------------------------------------------------------------------------




--------------------------------------- Iteration      1(   6)  ---------------------------------------


    POTLOK:  cpu time    3.3124: real time    3.3191
    SETDIJ:  cpu time    0.0401: real time    0.0402
     EDDAV:  cpu time    1.7119: real time    1.7135
       DOS:  cpu time    0.0015: real time    0.0015
    CHARGE:  cpu time    0.3846: real time    0.3889
    MIXING:  cpu time    0.0816: real time    0.0817
    --------------------------------------------
      LOOP:  cpu time    5.5322: real time    5.5448

 eigenvalue-minimisations  :    72
 total energy-change (2. order) : 0.1079256E+02  (-0.2016717E+01)
 number of electron      21.0000000 magnetization       5.5992100
 augmentation part       -0.3745433 magnetization       4.5624298

 Broyden mixing:
  rms(total) = 0.37327E+00    rms(broyden)= 0.37327E+00
  rms(prec ) = 0.42371E+00
  weight for this iteration     100.00

 eigenvalues of (default mixing * dielectric matrix)
  average eigenvalue GAMMA=   1.1993
  1.1993

 Free energy of the ion-electron system (eV)
  ---------------------------------------------------
  alpha Z        PSCENC =        -0.01507758
  Ewald energy   TEWEN  =       517.25803070
  -Hartree energ DENC   =      -773.93708857
  -exchange      EXHF   =         0.00000000
  -V(xc)+E(xc)   XCENC  =      -182.68752258
  PAW double counting   =       590.89613469     -367.31957659
  entropy T*S    EENTRO =         0.01824924
  eigenvalues    EBANDS =      -167.45714355
  atomic energy  EATOM  =       374.76708025
  Solvation  Ediel_sol  =         0.00000000
  ---------------------------------------------------
  free energy    TOTEN  =        -8.47691398 eV

  energy without entropy =       -8.49516322  energy(sigma->0) =       -8.48299706


--------------------------------------------------------------------------------------------------------




--------------------------------------- Iteration      1(   7)  ---------------------------------------


    POTLOK:  cpu time    3.5031: real time    3.5140
    SETDIJ:  cpu time    0.0217: real time    0.0217
     EDDAV:  cpu time    1.4177: real time    1.4391
       DOS:  cpu time    0.0103: real time    0.0103
    CHARGE:  cpu time    0.3083: real time    0.3125
    MIXING:  cpu time    0.1201: real time    0.1201
    --------------------------------------------
      LOOP:  cpu time    5.3812: real time    5.4178

 eigenvalue-minimisations  :    72
 total energy-change (2. order) : 0.2650423E+01  (-0.5253621E+00)
 number of electron      21.0000001 magnetization       5.1344881
 augmentation part       -0.3674641 magnetization       4.1697378

 Broyden mixing:
  rms(total) = 0.19839E+00    rms(broyden)= 0.19839E+00
  rms(prec ) = 0.21056E+00
  weight for this iteration     100.00

 eigenvalues of (default mixing * dielectric matrix)
  average eigenvalue GAMMA=   1.2240
  0.7837  1.6643

 Free energy of the ion-electron system (eV)
  ---------------------------------------------------
  alpha Z        PSCENC =        -0.01507758
  Ewald energy   TEWEN  =       517.25803070
  -Hartree energ DENC   =      -788.50419673
  -exchange      EXHF   =         0.00000000
  -V(xc)+E(xc)   XCENC  =      -179.98102544
  PAW double counting   =       703.60070597     -480.12601964
  entropy T*S    EENTRO =         0.01623985
  eigenvalues    EBANDS =      -152.84222855
  atomic energy  EATOM  =       374.76708025
  Solvation  Ediel_sol  =         0.00000000
  ---------------------------------------------------
  free energy    TOTEN  =        -5.82649117 eV

  energy without entropy =       -5.84273102  energy(sigma->0) =       -5.83190445


--------------------------------------------------------------------------------------------------------




--------------------------------------- Iteration      1(   8)  ---------------------------------------


    POTLOK:  cpu time    3.6151: real time    3.6317
    SETDIJ:  cpu time    0.0459: real time    0.0459
     EDDAV:  cpu time    2.1359: real time    2.1417
       DOS:  cpu time    0.0013: real time    0.0013
    CHARGE:  cpu time    0.4047: real time    0.4049
    MIXING:  cpu time    0.1071: real time    0.1072
    --------------------------------------------
      LOOP:  cpu time    6.3100: real time    6.3327

 eigenvalue-minimisations  :    90
 total energy-change (2. order) :-0.2186330E+01  (-0.9399199E-01)
 number of electron      21.0000001 magnetization       4.4524345
 augmentation part       -0.3661578 magnetization       3.5394664

 Broyden mixing:
  rms(total) = 0.15393E+00    rms(broyden)= 0.15393E+00
  rms(prec ) = 0.16378E+00
  weight for this iteration     100.00

 eigenvalues of (default mixing * dielectric matrix)
  average eigenvalue GAMMA=   1.1832
  1.5916  1.3206  0.6374

 Free energy of the ion-electron system (eV)
  ---------------------------------------------------
  alpha Z        PSCENC =        -0.01507758
  Ewald energy   TEWEN  =       517.25803070
  -Hartree energ DENC   =      -791.36000211
  -exchange      EXHF   =         0.00000000
  -V(xc)+E(xc)   XCENC  =      -181.49266567
  PAW double counting   =       734.33994474     -510.87423510
  entropy T*S    EENTRO =         0.01424406
  eigenvalues    EBANDS =      -150.65014041
  atomic energy  EATOM  =       374.76708025
  Solvation  Ediel_sol  =         0.00000000
  ---------------------------------------------------
  free energy    TOTEN  =        -8.01282111 eV

  energy without entropy =       -8.02706517  energy(sigma->0) =       -8.01756913


--------------------------------------------------------------------------------------------------------




--------------------------------------- Iteration      1(   9)  ---------------------------------------


    POTLOK:  cpu time    3.3156: real time    3.3179
    SETDIJ:  cpu time    0.0449: real time    0.0449
     EDDAV:  cpu time    1.6881: real time    1.7056
       DOS:  cpu time    0.0036: real time    0.0036
    CHARGE:  cpu time    0.3760: real time    0.3803
    MIXING:  cpu time    0.0915: real time    0.0915
    --------------------------------------------
      LOOP:  cpu time    5.5196: real time    5.5438

 eigenvalue-minimisations  :    74
 total energy-change (2. order) :-0.3350183E+01  (-0.1327697E+00)
 number of electron      21.0000000 magnetization       3.8736217
 augmentation part       -0.3597677 magnetization       2.8832950

 Broyden mixing:
  rms(total) = 0.10261E+00    rms(broyden)= 0.10261E+00
  rms(prec ) = 0.10751E+00
  weight for this iteration     100.00

 eigenvalues of (default mixing * dielectric matrix)
  average eigenvalue GAMMA=   1.2691
  1.8347  1.8347  0.8230  0.5839

 Free energy of the ion-electron system (eV)
  ---------------------------------------------------
  alpha Z        PSCENC =        -0.01507758
  Ewald energy   TEWEN  =       517.25803070
  -Hartree energ DENC   =      -794.13043793
  -exchange      EXHF   =         0.00000000
  -V(xc)+E(xc)   XCENC  =      -183.89445354
  PAW double counting   =       763.55906631     -540.09150339
  entropy T*S    EENTRO =         0.00613374
  eigenvalues    EBANDS =      -148.82184307
  atomic energy  EATOM  =       374.76708025
  Solvation  Ediel_sol  =         0.00000000
  ---------------------------------------------------
  free energy    TOTEN  =       -11.36300451 eV

  energy without entropy =      -11.36913825  energy(sigma->0) =      -11.36504909


--------------------------------------------------------------------------------------------------------




--------------------------------------- Iteration      1(  10)  ---------------------------------------


    POTLOK:  cpu time    8.9142: real time    9.0788
    SETDIJ:  cpu time    0.1726: real time    0.1727
     EDDAV:  cpu time   13.7187: real time   13.7824
       DOS:  cpu time    0.0009: real time    0.0009
    CHARGE:  cpu time    0.2629: real time    0.2631
    MIXING:  cpu time    0.0710: real time    0.0711
    --------------------------------------------
      LOOP:  cpu time   23.1404: real time   23.3690

 eigenvalue-minimisations  :    82
 total energy-change (2. order) :-0.2411902E+01  (-0.9795558E-01)
 number of electron      21.0000000 magnetization       3.4216006
 augmentation part       -0.3557054 magnetization       2.4259429

 Broyden mixing:
  rms(total) = 0.74262E-01    rms(broyden)= 0.74262E-01
  rms(prec ) = 0.77346E-01
  weight for this iteration     100.00

 eigenvalues of (default mixing * dielectric matrix)
  average eigenvalue GAMMA=   1.3591
  2.1725  2.1725  1.0921  0.7539  0.6045

 Free energy of the ion-electron system (eV)
  ---------------------------------------------------
  alpha Z        PSCENC =        -0.01507758
  Ewald energy   TEWEN  =       517.25803070
  -Hartree energ DENC   =      -796.31460236
  -exchange      EXHF   =         0.00000000
  -V(xc)+E(xc)   XCENC  =      -185.61179477
  PAW double counting   =       788.89875864     -565.42055171
  entropy T*S    EENTRO =         0.00581920
  eigenvalues    EBANDS =      -147.34256898
  atomic energy  EATOM  =       374.76708025
  Solvation  Ediel_sol  =         0.00000000
  ---------------------------------------------------
  free energy    TOTEN  =       -13.77490661 eV

  energy without entropy =      -13.78072580  energy(sigma->0) =      -13.77684634


--------------------------------------------------------------------------------------------------------




--------------------------------------- Iteration      1(  11)  ---------------------------------------


    POTLOK:  cpu time    2.8054: real time    2.8114
    SETDIJ:  cpu time    0.0203: real time    0.0203
     EDDAV:  cpu time    1.1265: real time    1.1314
       DOS:  cpu time    0.0012: real time    0.0012
    CHARGE:  cpu time    0.2500: real time    0.2501
    MIXING:  cpu time    0.0758: real time    0.0759
    --------------------------------------------
      LOOP:  cpu time    4.2792: real time    4.2903

 eigenvalue-minimisations  :    74
 total energy-change (2. order) :-0.1413516E+01  (-0.4593179E-01)
 number of electron      21.0000000 magnetization       2.7052232
 augmentation part       -0.3543960 magnetization       1.7076599

 Broyden mixing:
  rms(total) = 0.57302E-01    rms(broyden)= 0.57302E-01
  rms(prec ) = 0.60037E-01
  weight for this iteration     100.00

 eigenvalues of (default mixing * dielectric matrix)
  average eigenvalue GAMMA=   1.5646
  2.7886  2.7886  1.5339  0.9282  0.7257  0.6226

 Free energy of the ion-electron system (eV)
  ---------------------------------------------------
  alpha Z        PSCENC =        -0.01507758
  Ewald energy   TEWEN  =       517.25803070
  -Hartree energ DENC   =      -796.91083146
  -exchange      EXHF   =         0.00000000
  -V(xc)+E(xc)   XCENC  =      -186.66853052
  PAW double counting   =       800.87408536     -577.37324336
  entropy T*S    EENTRO =         0.00581144
  eigenvalues    EBANDS =      -147.12574781
  atomic energy  EATOM  =       374.76708025
  Solvation  Ediel_sol  =         0.00000000
  ---------------------------------------------------
  free energy    TOTEN  =       -15.18842298 eV

  energy without entropy =      -15.19423442  energy(sigma->0) =      -15.19036013


--------------------------------------------------------------------------------------------------------




--------------------------------------- Iteration      1(  12)  ---------------------------------------


    POTLOK:  cpu time    2.8232: real time    2.8314
    SETDIJ:  cpu time    0.0269: real time    0.0269
     EDDAV:  cpu time    1.1823: real time    1.1873
       DOS:  cpu time    0.0005: real time    0.0005
    CHARGE:  cpu time    0.4272: real time    0.4320
    MIXING:  cpu time    0.0788: real time    0.0831
    --------------------------------------------
      LOOP:  cpu time    4.5389: real time    4.5612

 eigenvalue-minimisations  :    74
 total energy-change (2. order) :-0.1371128E+01  (-0.5843370E-01)
 number of electron      21.0000000 magnetization       2.2775140
 augmentation part       -0.3543189 magnetization       1.2783402

 Broyden mixing:
  rms(total) = 0.35895E-01    rms(broyden)= 0.35895E-01
  rms(prec ) = 0.36993E-01
  weight for this iteration     100.00

 eigenvalues of (default mixing * dielectric matrix)
  average eigenvalue GAMMA=   1.5943
  3.6542  2.5279  1.7432  1.1051  0.8519  0.6602  0.6172

 Free energy of the ion-electron system (eV)
  ---------------------------------------------------
  alpha Z        PSCENC =        -0.01507758
  Ewald energy   TEWEN  =       517.25803070
  -Hartree energ DENC   =      -796.43491084
  -exchange      EXHF   =         0.00000000
  -V(xc)+E(xc)   XCENC  =      -187.78174665
  PAW double counting   =       806.77610573     -583.23748496
  entropy T*S    EENTRO =         0.00581902
  eigenvalues    EBANDS =      -147.89736705
  atomic energy  EATOM  =       374.76708025
  Solvation  Ediel_sol  =         0.00000000
  ---------------------------------------------------
  free energy    TOTEN  =       -16.55955138 eV

  energy without entropy =      -16.56537040  energy(sigma->0) =      -16.56149105


--------------------------------------------------------------------------------------------------------




--------------------------------------- Iteration      1(  13)  ---------------------------------------


    POTLOK:  cpu time    3.2121: real time    3.2484
    SETDIJ:  cpu time    0.0185: real time    0.0185
     EDDAV:  cpu time    1.7407: real time    1.7674
       DOS:  cpu time    0.0007: real time    0.0007
    CHARGE:  cpu time    0.4188: real time    0.4196
    MIXING:  cpu time    0.0943: real time    0.0944
    --------------------------------------------
      LOOP:  cpu time    5.4850: real time    5.5490

 eigenvalue-minimisations  :    74
 total energy-change (2. order) :-0.2742377E+00  (-0.9081278E-02)
 number of electron      21.0000000 magnetization       1.9105973
 augmentation part       -0.3542715 magnetization       0.9108426

 Broyden mixing:
  rms(total) = 0.26743E-01    rms(broyden)= 0.26743E-01
  rms(prec ) = 0.27802E-01
  weight for this iteration     100.00

 eigenvalues of (default mixing * dielectric matrix)
  average eigenvalue GAMMA=   1.6108
  4.1540  2.2794  2.2794  1.0634  1.0634  0.8150  0.6292  0.6027

 Free energy of the ion-electron system (eV)
  ---------------------------------------------------
  alpha Z        PSCENC =        -0.01507758
  Ewald energy   TEWEN  =       517.25803070
  -Hartree energ DENC   =      -796.44194973
  -exchange      EXHF   =         0.00000000
  -V(xc)+E(xc)   XCENC  =      -187.98907166
  PAW double counting   =       808.15568614     -584.61194012
  entropy T*S    EENTRO =         0.00582418
  eigenvalues    EBANDS =      -147.96237123
  atomic energy  EATOM  =       374.76708025
  Solvation  Ediel_sol  =         0.00000000
  ---------------------------------------------------
  free energy    TOTEN  =       -16.83378905 eV

  energy without entropy =      -16.83961323  energy(sigma->0) =      -16.83573044


--------------------------------------------------------------------------------------------------------




--------------------------------------- Iteration      1(  14)  ---------------------------------------


    POTLOK:  cpu time    3.6286: real time    3.6909
    SETDIJ:  cpu time    0.0177: real time    0.0177
     EDDAV:  cpu time    1.2536: real time    1.2670
       DOS:  cpu time    0.0005: real time    0.0005
    CHARGE:  cpu time    0.4964: real time    0.5012
    MIXING:  cpu time    0.0945: real time    0.0947
    --------------------------------------------
      LOOP:  cpu time    5.4913: real time    5.5720

 eigenvalue-minimisations  :    74
 total energy-change (2. order) :-0.2569030E+00  (-0.2914280E-02)
 number of electron      21.0000000 magnetization       1.5147937
 augmentation part       -0.3545183 magnetization       0.5147916

 Broyden mixing:
  rms(total) = 0.17923E-01    rms(broyden)= 0.17923E-01
  rms(prec ) = 0.18821E-01
  weight for this iteration     100.00

 eigenvalues of (default mixing * dielectric matrix)
  average eigenvalue GAMMA=   1.7711
  5.4660  2.7428  2.2245  1.5997  0.9741  0.9741  0.7208  0.6070  0.6308

 Free energy of the ion-electron system (eV)
  ---------------------------------------------------
  alpha Z        PSCENC =        -0.01507758
  Ewald energy   TEWEN  =       517.25803070
  -Hartree energ DENC   =      -796.18090893
  -exchange      EXHF   =         0.00000000
  -V(xc)+E(xc)   XCENC  =      -188.24530348
  PAW double counting   =       802.67182801     -579.13185032
  entropy T*S    EENTRO =         0.00583191
  eigenvalues    EBANDS =      -148.22032263
  atomic energy  EATOM  =       374.76708025
  Solvation  Ediel_sol  =         0.00000000
  ---------------------------------------------------
  free energy    TOTEN  =       -17.09069206 eV

  energy without entropy =      -17.09652396  energy(sigma->0) =      -17.09263603


--------------------------------------------------------------------------------------------------------




--------------------------------------- Iteration      1(  15)  ---------------------------------------


    POTLOK:  cpu time    3.5382: real time    3.5766
    SETDIJ:  cpu time    0.0160: real time    0.0160
     EDDAV:  cpu time    1.8466: real time    1.8814
       DOS:  cpu time    0.0010: real time    0.0010
    CHARGE:  cpu time    0.2645: real time    0.2647
    MIXING:  cpu time    0.0873: real time    0.0873
    --------------------------------------------
      LOOP:  cpu time    5.7535: real time    5.8270

 eigenvalue-minimisations  :    76
 total energy-change (2. order) :-0.4199821E+00  (-0.3301597E-02)
 number of electron      21.0000000 magnetization       1.3406763
 augmentation part       -0.3549554 magnetization       0.3401925

 Broyden mixing:
  rms(total) = 0.10332E-01    rms(broyden)= 0.10332E-01
  rms(prec ) = 0.10947E-01
  weight for this iteration     100.00

 eigenvalues of (default mixing * dielectric matrix)
  average eigenvalue GAMMA=   1.8776
  6.7760  2.7220  2.3346  2.0424  1.0659  1.0659  0.8563  0.6743  0.6193  0.6193

 Free energy of the ion-electron system (eV)
  ---------------------------------------------------
  alpha Z        PSCENC =        -0.01507758
  Ewald energy   TEWEN  =       517.25803070
  -Hartree energ DENC   =      -795.52437246
  -exchange      EXHF   =         0.00000000
  -V(xc)+E(xc)   XCENC  =      -188.68970186
  PAW double counting   =       794.36904230     -570.83092694
  entropy T*S    EENTRO =         0.00584797
  eigenvalues    EBANDS =      -148.85059659
  atomic energy  EATOM  =       374.76708025
  Solvation  Ediel_sol  =         0.00000000
  ---------------------------------------------------
  free energy    TOTEN  =       -17.51067420 eV

  energy without entropy =      -17.51652217  energy(sigma->0) =      -17.51262353


--------------------------------------------------------------------------------------------------------




--------------------------------------- Iteration      1(  16)  ---------------------------------------


    POTLOK:  cpu time    3.3389: real time    3.3861
    SETDIJ:  cpu time    0.0161: real time    0.0161
     EDDAV:  cpu time    1.2423: real time    1.2435
       DOS:  cpu time    0.0006: real time    0.0006
    CHARGE:  cpu time    0.3085: real time    0.3132
    MIXING:  cpu time    0.1176: real time    0.1179
    --------------------------------------------
      LOOP:  cpu time    5.0240: real time    5.0775

 eigenvalue-minimisations  :    74
 total energy-change (2. order) :-0.1323525E+00  (-0.7459035E-03)
 number of electron      21.0000000 magnetization       1.2250020
 augmentation part       -0.3549468 magnetization       0.2243417

 Broyden mixing:
  rms(total) = 0.71231E-02    rms(broyden)= 0.71231E-02
  rms(prec ) = 0.78181E-02
  weight for this iteration     100.00

 eigenvalues of (default mixing * dielectric matrix)
  average eigenvalue GAMMA=   1.8711
  7.2751  2.7645  2.7645  1.8964  1.2974  0.9404  0.9404  0.8094  0.6757  0.6090
  0.6090

 Free energy of the ion-electron system (eV)
  ---------------------------------------------------
  alpha Z        PSCENC =        -0.01507758
  Ewald energy   TEWEN  =       517.25803070
  -Hartree energ DENC   =      -795.33181668
  -exchange      EXHF   =         0.00000000
  -V(xc)+E(xc)   XCENC  =      -188.82320488
  PAW double counting   =       793.10660803     -569.57043291
  entropy T*S    EENTRO =         0.00585367
  eigenvalues    EBANDS =      -149.04006728
  atomic energy  EATOM  =       374.76708025
  Solvation  Ediel_sol  =         0.00000000
  ---------------------------------------------------
  free energy    TOTEN  =       -17.64302669 eV

  energy without entropy =      -17.64888036  energy(sigma->0) =      -17.64497791


--------------------------------------------------------------------------------------------------------




--------------------------------------- Iteration      1(  17)  ---------------------------------------


    POTLOK:  cpu time   13.0214: real time   13.2321
    SETDIJ:  cpu time    0.0895: real time    0.0895
     EDDAV:  cpu time   10.1416: real time   10.1489
       DOS:  cpu time    0.0005: real time    0.0005
    CHARGE:  cpu time    0.2726: real time    0.2728
    MIXING:  cpu time    0.0907: real time    0.0908
    --------------------------------------------
      LOOP:  cpu time   23.6162: real time   23.8347

 eigenvalue-minimisations  :    84
 total energy-change (2. order) :-0.5991770E-01  (-0.3395947E-03)
 number of electron      21.0000000 magnetization       1.1107745
 augmentation part       -0.3548249 magnetization       0.1101736

 Broyden mixing:
  rms(total) = 0.44129E-02    rms(broyden)= 0.44129E-02
  rms(prec ) = 0.49343E-02
  weight for this iteration     100.00

 eigenvalues of (default mixing * dielectric matrix)
  average eigenvalue GAMMA=   1.9819
  8.1506  3.0937  3.0937  2.1569  1.7414  1.0119  1.0119  0.8238  0.8238  0.6529
  0.6116  0.6101

 Free energy of the ion-electron system (eV)
  ---------------------------------------------------
  alpha Z        PSCENC =        -0.01507758
  Ewald energy   TEWEN  =       517.25803070
  -Hartree energ DENC   =      -795.28307945
  -exchange      EXHF   =         0.00000000
  -V(xc)+E(xc)   XCENC  =      -188.88190088
  PAW double counting   =       794.27943689     -570.74575023
  entropy T*S    EENTRO =         0.00585493
  eigenvalues    EBANDS =      -149.08753904
  atomic energy  EATOM  =       374.76708025
  Solvation  Ediel_sol  =         0.00000000
  ---------------------------------------------------
  free energy    TOTEN  =       -17.70294439 eV

  energy without entropy =      -17.70879932  energy(sigma->0) =      -17.70489603


--------------------------------------------------------------------------------------------------------




--------------------------------------- Iteration      1(  18)  ---------------------------------------


    POTLOK:  cpu time    4.2908: real time    4.2939
    SETDIJ:  cpu time    0.0255: real time    0.0255
     EDDAV:  cpu time    1.2290: real time    1.2301
       DOS:  cpu time    0.0008: real time    0.0008
    CHARGE:  cpu time    0.2740: real time    0.2742
    MIXING:  cpu time    0.0906: real time    0.0907
    --------------------------------------------
      LOOP:  cpu time    5.9107: real time    5.9152

 eigenvalue-minimisations  :    74
 total energy-change (2. order) :-0.5838413E-01  (-0.2451177E-03)
 number of electron      21.0000000 magnetization       1.0724461
 augmentation part       -0.3548739 magnetization       0.0718459

 Broyden mixing:
  rms(total) = 0.25034E-02    rms(broyden)= 0.25034E-02
  rms(prec ) = 0.30256E-02
  weight for this iteration     100.00

 eigenvalues of (default mixing * dielectric matrix)
  average eigenvalue GAMMA=   2.0137
  8.7735  3.7489  2.7462  2.5690  1.7860  1.2087  0.9426  0.9426  0.7934  0.7934
  0.6445  0.6053  0.6245

 Free energy of the ion-electron system (eV)
  ---------------------------------------------------
  alpha Z        PSCENC =        -0.01507758
  Ewald energy   TEWEN  =       517.25803070
  -Hartree energ DENC   =      -795.07346893
  -exchange      EXHF   =         0.00000000
  -V(xc)+E(xc)   XCENC  =      -188.94853411
  PAW double counting   =       794.79884521     -571.26502682
  entropy T*S    EENTRO =         0.00585895
  eigenvalues    EBANDS =      -149.28903619
  atomic energy  EATOM  =       374.76708025
  Solvation  Ediel_sol  =         0.00000000
  ---------------------------------------------------
  free energy    TOTEN  =       -17.76132852 eV

  energy without entropy =      -17.76718747  energy(sigma->0) =      -17.76328150


--------------------------------------------------------------------------------------------------------




--------------------------------------- Iteration      1(  19)  ---------------------------------------


    POTLOK:  cpu time    3.0978: real time    3.1006
    SETDIJ:  cpu time    0.0168: real time    0.0168
     EDDAV:  cpu time    1.3305: real time    1.3316
       DOS:  cpu time    0.0006: real time    0.0006
    CHARGE:  cpu time    0.2638: real time    0.2680
    MIXING:  cpu time    0.0999: real time    0.1000
    --------------------------------------------
      LOOP:  cpu time    4.8092: real time    4.8176

 eigenvalue-minimisations  :    92
 total energy-change (2. order) :-0.1706681E-01  (-0.2217675E-04)
 number of electron      21.0000000 magnetization       1.0436314
 augmentation part       -0.3549104 magnetization       0.0430201

 Broyden mixing:
  rms(total) = 0.16236E-02    rms(broyden)= 0.16236E-02
  rms(prec ) = 0.19704E-02
  weight for this iteration     100.00

 eigenvalues of (default mixing * dielectric matrix)
  average eigenvalue GAMMA=   2.0258
  9.0852  4.2358  2.6968  2.6968  1.9029  1.4365  1.0481  0.9236  0.9236  0.8361
  0.7063  0.6045  0.6324  0.6324

 Free energy of the ion-electron system (eV)
  ---------------------------------------------------
  alpha Z        PSCENC =        -0.01507758
  Ewald energy   TEWEN  =       517.25803070
  -Hartree energ DENC   =      -794.92772325
  -exchange      EXHF   =         0.00000000
  -V(xc)+E(xc)   XCENC  =      -188.96988925
  PAW double counting   =       795.15430957     -571.61922487
  entropy T*S    EENTRO =         0.00585991
  eigenvalues    EBANDS =      -149.43176082
  atomic energy  EATOM  =       374.76708025
  Solvation  Ediel_sol  =         0.00000000
  ---------------------------------------------------
  free energy    TOTEN  =       -17.77839532 eV

  energy without entropy =      -17.78425524  energy(sigma->0) =      -17.78034863


--------------------------------------------------------------------------------------------------------




--------------------------------------- Iteration      1(  20)  ---------------------------------------


    POTLOK:  cpu time    3.0038: real time    3.0061
    SETDIJ:  cpu time    0.0286: real time    0.0286
     EDDAV:  cpu time    1.6619: real time    1.6634
       DOS:  cpu time    0.0008: real time    0.0030
    CHARGE:  cpu time    0.3585: real time    0.3588
    MIXING:  cpu time    0.1657: real time    0.1659
    --------------------------------------------
      LOOP:  cpu time    5.2195: real time    5.2258

 eigenvalue-minimisations  :    76
 total energy-change (2. order) :-0.1096112E-01  (-0.1525201E-04)
 number of electron      21.0000000 magnetization       1.0257429
 augmentation part       -0.3549420 magnetization       0.0251212

 Broyden mixing:
  rms(total) = 0.10524E-02    rms(broyden)= 0.10524E-02
  rms(prec ) = 0.12631E-02
  weight for this iteration     100.00

 eigenvalues of (default mixing * dielectric matrix)
  average eigenvalue GAMMA=   2.0472
  9.3290  4.7838  2.6471  2.6471  2.3956  1.4343  1.3834  0.9517  0.9517  0.8353
  0.8353  0.6755  0.6020  0.6182  0.6182

 Free energy of the ion-electron system (eV)
  ---------------------------------------------------
  alpha Z        PSCENC =        -0.01507758
  Ewald energy   TEWEN  =       517.25803070
  -Hartree energ DENC   =      -794.80682215
  -exchange      EXHF   =         0.00000000
  -V(xc)+E(xc)   XCENC  =      -188.98338191
  PAW double counting   =       795.53609837     -572.00016248
  entropy T*S    EENTRO =         0.00585966
  eigenvalues    EBANDS =      -149.55098131
  atomic energy  EATOM  =       374.76708025
  Solvation  Ediel_sol  =         0.00000000
  ---------------------------------------------------
  free energy    TOTEN  =       -17.78935645 eV

  energy without entropy =      -17.79521611  energy(sigma->0) =      -17.79130967


--------------------------------------------------------------------------------------------------------




--------------------------------------- Iteration      1(  21)  ---------------------------------------


    POTLOK:  cpu time    3.4673: real time    3.4699
    SETDIJ:  cpu time    0.0346: real time    0.0347
     EDDAV:  cpu time    1.6081: real time    1.6098
       DOS:  cpu time    0.0024: real time    0.0024
    CHARGE:  cpu time    0.3701: real time    0.3704
    MIXING:  cpu time    0.1537: real time    0.1538
    --------------------------------------------
      LOOP:  cpu time    5.6363: real time    5.6410

 eigenvalue-minimisations  :    66
 total energy-change (2. order) :-0.5701198E-02  (-0.5008448E-05)
 number of electron      21.0000000 magnetization       1.0137058
 augmentation part       -0.3549486 magnetization       0.0130863

 Broyden mixing:
  rms(total) = 0.66233E-03    rms(broyden)= 0.66233E-03
  rms(prec ) = 0.79877E-03
  weight for this iteration     100.00

 eigenvalues of (default mixing * dielectric matrix)
  average eigenvalue GAMMA=   2.0856
  9.4744  5.3444  2.8529  2.8529  2.5269  1.7198  1.4762  1.0983  0.9510  0.9510
  0.8065  0.8065  0.6682  0.6008  0.6198  0.6198

 Free energy of the ion-electron system (eV)
  ---------------------------------------------------
  alpha Z        PSCENC =        -0.01507758
  Ewald energy   TEWEN  =       517.25803070
  -Hartree energ DENC   =      -794.74554007
  -exchange      EXHF   =         0.00000000
  -V(xc)+E(xc)   XCENC  =      -188.99078111
  PAW double counting   =       795.58508820     -572.04935877
  entropy T*S    EENTRO =         0.00585916
  eigenvalues    EBANDS =      -149.61035844
  atomic energy  EATOM  =       374.76708025
  Solvation  Ediel_sol  =         0.00000000
  ---------------------------------------------------
  free energy    TOTEN  =       -17.79505765 eV

  energy without entropy =      -17.80091681  energy(sigma->0) =      -17.79701070


--------------------------------------------------------------------------------------------------------




--------------------------------------- Iteration      1(  22)  ---------------------------------------


    POTLOK:  cpu time    3.6472: real time    3.6495
    SETDIJ:  cpu time    0.0276: real time    0.0277
     EDDAV:  cpu time    1.5358: real time    1.5371
       DOS:  cpu time    0.0005: real time    0.0005
    CHARGE:  cpu time    0.2747: real time    0.2750
    MIXING:  cpu time    0.1388: real time    0.1390
    --------------------------------------------
      LOOP:  cpu time    5.6248: real time    5.6288

 eigenvalue-minimisations  :    68
 total energy-change (2. order) :-0.3392475E-02  (-0.3808275E-05)
 number of electron      21.0000000 magnetization       1.0080522
 augmentation part       -0.3549655 magnetization       0.0074402

 Broyden mixing:
  rms(total) = 0.40538E-03    rms(broyden)= 0.40538E-03
  rms(prec ) = 0.48466E-03
  weight for this iteration     100.00

 eigenvalues of (default mixing * dielectric matrix)
  average eigenvalue GAMMA=   2.1062
  9.5774  5.9118  3.3696  2.6862  2.6862  1.9458  1.4821  1.2660  0.9271  0.9271
  0.9200  0.8156  0.7891  0.6563  0.6002  0.6226  0.6226

 Free energy of the ion-electron system (eV)
  ---------------------------------------------------
  alpha Z        PSCENC =        -0.01507758
  Ewald energy   TEWEN  =       517.25803070
  -Hartree energ DENC   =      -794.68749127
  -exchange      EXHF   =         0.00000000
  -V(xc)+E(xc)   XCENC  =      -188.99614237
  PAW double counting   =       795.39398973     -571.85842900
  entropy T*S    EENTRO =         0.00585929
  eigenvalues    EBANDS =      -149.66626987
  atomic energy  EATOM  =       374.76708025
  Solvation  Ediel_sol  =         0.00000000
  ---------------------------------------------------
  free energy    TOTEN  =       -17.79845012 eV

  energy without entropy =      -17.80430941  energy(sigma->0) =      -17.80040322


--------------------------------------------------------------------------------------------------------




--------------------------------------- Iteration      1(  23)  ---------------------------------------


    POTLOK:  cpu time    2.9012: real time    2.9226
    SETDIJ:  cpu time    0.0255: real time    0.0255
     EDDAV:  cpu time    1.3038: real time    1.3049
       DOS:  cpu time    0.0008: real time    0.0008
    CHARGE:  cpu time    0.3571: real time    0.3573
    MIXING:  cpu time    0.2277: real time    0.2278
    --------------------------------------------
      LOOP:  cpu time    4.8160: real time    4.8390

 eigenvalue-minimisations  :    50
 total energy-change (2. order) :-0.1660339E-02  (-0.1845489E-05)
 number of electron      21.0000000 magnetization       1.0048509
 augmentation part       -0.3549697 magnetization       0.0042401

 Broyden mixing:
  rms(total) = 0.23487E-03    rms(broyden)= 0.23487E-03
  rms(prec ) = 0.28729E-03
  weight for this iteration     100.00

 eigenvalues of (default mixing * dielectric matrix)
  average eigenvalue GAMMA=   2.1408
  9.6860  6.5132  3.8521  2.7460  2.7460  2.1371  1.5329  1.5329  1.0106  0.9535
  0.9535  0.8399  0.8399  0.7006  0.5982  0.6444  0.6235  0.6235

 Free energy of the ion-electron system (eV)
  ---------------------------------------------------
  alpha Z        PSCENC =        -0.01507758
  Ewald energy   TEWEN  =       517.25803070
  -Hartree energ DENC   =      -794.66712312
  -exchange      EXHF   =         0.00000000
  -V(xc)+E(xc)   XCENC  =      -188.99814041
  PAW double counting   =       795.36110372     -571.82579821
  entropy T*S    EENTRO =         0.00585900
  eigenvalues    EBANDS =      -149.68604482
  atomic energy  EATOM  =       374.76708025
  Solvation  Ediel_sol  =         0.00000000
  ---------------------------------------------------
  free energy    TOTEN  =       -17.80011046 eV

  energy without entropy =      -17.80596946  energy(sigma->0) =      -17.80206346


--------------------------------------------------------------------------------------------------------




--------------------------------------- Iteration      1(  24)  ---------------------------------------


    POTLOK:  cpu time    3.6205: real time    3.6235
    SETDIJ:  cpu time    0.0326: real time    0.0326
     EDDAV:  cpu time    0.9633: real time    0.9641
       DOS:  cpu time    0.0007: real time    0.0007
    CHARGE:  cpu time    0.2390: real time    0.2391
    MIXING:  cpu time    0.1341: real time    0.1342
    --------------------------------------------
      LOOP:  cpu time    4.9901: real time    4.9942

 eigenvalue-minimisations  :    52
 total energy-change (2. order) :-0.8638913E-03  (-0.8305846E-06)
 number of electron      21.0000000 magnetization       1.0028622
 augmentation part       -0.3549701 magnetization       0.0022503

 Broyden mixing:
  rms(total) = 0.14298E-03    rms(broyden)= 0.14298E-03
  rms(prec ) = 0.17907E-03
  weight for this iteration     100.00

 eigenvalues of (default mixing * dielectric matrix)
  average eigenvalue GAMMA=   2.1567
  9.8123  6.9612  4.2292  2.7735  2.7735  2.4216  1.7409  1.3860  1.2229  1.0255
  0.9364  0.9364  0.8058  0.8058  0.6707  0.6383  0.5981  0.6198  0.6198

 Free energy of the ion-electron system (eV)
  ---------------------------------------------------
  alpha Z        PSCENC =        -0.01507758
  Ewald energy   TEWEN  =       517.25803070
  -Hartree energ DENC   =      -794.65508071
  -exchange      EXHF   =         0.00000000
  -V(xc)+E(xc)   XCENC  =      -188.99931934
  PAW double counting   =       795.34530467     -571.81007779
  entropy T*S    EENTRO =         0.00585898
  eigenvalues    EBANDS =      -149.69769354
  atomic energy  EATOM  =       374.76708025
  Solvation  Ediel_sol  =         0.00000000
  ---------------------------------------------------
  free energy    TOTEN  =       -17.80097435 eV

  energy without entropy =      -17.80683333  energy(sigma->0) =      -17.80292735


--------------------------------------------------------------------------------------------------------




--------------------------------------- Iteration      1(  25)  ---------------------------------------


    POTLOK:  cpu time    2.6923: real time    2.7005
    SETDIJ:  cpu time    0.0164: real time    0.0165
     EDDAV:  cpu time    0.8615: real time    0.8662
       DOS:  cpu time    0.0009: real time    0.0009
    CHARGE:  cpu time    0.2834: real time    0.2836
    MIXING:  cpu time    0.2029: real time    0.2030
    --------------------------------------------
      LOOP:  cpu time    4.0574: real time    4.0708

 eigenvalue-minimisations  :    46
 total energy-change (2. order) :-0.4117548E-03  (-0.3792121E-06)
 number of electron      21.0000000 magnetization       1.0021054
 augmentation part       -0.3549712 magnetization       0.0014932

 Broyden mixing:
  rms(total) = 0.91737E-04    rms(broyden)= 0.91737E-04
  rms(prec ) = 0.11513E-03
  weight for this iteration     100.00

 eigenvalues of (default mixing * dielectric matrix)
  average eigenvalue GAMMA=   2.1517
  9.8517  7.2131  4.4206  2.7894  2.7894  2.6261  1.9253  1.4538  1.4538  0.9383
  0.9383  0.9527  0.9527  0.7941  0.7941  0.6671  0.6007  0.6321  0.6204  0.6204

 Free energy of the ion-electron system (eV)
  ---------------------------------------------------
  alpha Z        PSCENC =        -0.01507758
  Ewald energy   TEWEN  =       517.25803070
  -Hartree energ DENC   =      -794.64731619
  -exchange      EXHF   =         0.00000000
  -V(xc)+E(xc)   XCENC  =      -189.00004465
  PAW double counting   =       795.34796618     -571.81272009
  entropy T*S    EENTRO =         0.00585899
  eigenvalues    EBANDS =      -149.70516372
  atomic energy  EATOM  =       374.76708025
  Solvation  Ediel_sol  =         0.00000000
  ---------------------------------------------------
  free energy    TOTEN  =       -17.80138611 eV

  energy without entropy =      -17.80724510  energy(sigma->0) =      -17.80333911


--------------------------------------------------------------------------------------------------------




--------------------------------------- Iteration      1(  26)  ---------------------------------------


    POTLOK:  cpu time    2.9954: real time    3.0138
    SETDIJ:  cpu time    0.0174: real time    0.0174
     EDDAV:  cpu time    1.0290: real time    1.0300
       DOS:  cpu time    0.0019: real time    0.0019
    CHARGE:  cpu time    0.3873: real time    0.3876
    MIXING:  cpu time    0.1611: real time    0.1612
    --------------------------------------------
      LOOP:  cpu time    4.5921: real time    4.6119

 eigenvalue-minimisations  :    48
 total energy-change (2. order) :-0.1785613E-03  (-0.8162309E-07)
 number of electron      21.0000000 magnetization       1.0013445
 augmentation part       -0.3549707 magnetization       0.0007320

 Broyden mixing:
  rms(total) = 0.58767E-04    rms(broyden)= 0.58767E-04
  rms(prec ) = 0.74360E-04
  weight for this iteration     100.00

 eigenvalues of (default mixing * dielectric matrix)
  average eigenvalue GAMMA=   2.1636
  9.8852  7.4743  4.6671  2.9619  2.8503  2.8503  2.1772  1.5343  1.5343  1.1124
  1.0278  0.9353  0.9353  0.8299  0.8299  0.7038  0.6582  0.5998  0.6269  0.6269
  0.6141

 Free energy of the ion-electron system (eV)
  ---------------------------------------------------
  alpha Z        PSCENC =        -0.01507758
  Ewald energy   TEWEN  =       517.25803070
  -Hartree energ DENC   =      -794.64563076
  -exchange      EXHF   =         0.00000000
  -V(xc)+E(xc)   XCENC  =      -189.00021325
  PAW double counting   =       795.38913076     -571.85384896
  entropy T*S    EENTRO =         0.00585893
  eigenvalues    EBANDS =      -149.70689478
  atomic energy  EATOM  =       374.76708025
  Solvation  Ediel_sol  =         0.00000000
  ---------------------------------------------------
  free energy    TOTEN  =       -17.80156467 eV

  energy without entropy =      -17.80742360  energy(sigma->0) =      -17.80351765


--------------------------------------------------------------------------------------------------------




--------------------------------------- Iteration      1(  27)  ---------------------------------------


    POTLOK:  cpu time    3.4978: real time    3.5046
    SETDIJ:  cpu time    0.0296: real time    0.0296
     EDDAV:  cpu time    1.2383: real time    1.2433
       DOS:  cpu time    0.0016: real time    0.0017
    CHARGE:  cpu time    0.3808: real time    0.3810
    MIXING:  cpu time    0.2496: real time    0.2499
    --------------------------------------------
      LOOP:  cpu time    5.3978: real time    5.4101

 eigenvalue-minimisations  :    46
 total energy-change (2. order) :-0.1083130E-03  (-0.6154424E-07)
 number of electron      21.0000000 magnetization       1.0008104
 augmentation part       -0.3549699 magnetization       0.0001982

 Broyden mixing:
  rms(total) = 0.38330E-04    rms(broyden)= 0.38330E-04
  rms(prec ) = 0.47559E-04
  weight for this iteration     100.00

 eigenvalues of (default mixing * dielectric matrix)
  average eigenvalue GAMMA=   2.1544
  9.9113  7.6045  4.9136  3.3548  2.7639  2.7639  2.2510  1.7388  1.4177  1.4177
  0.9294  0.9294  0.9661  0.9661  0.8196  0.8196  0.7100  0.6582  0.5980  0.6176
  0.6176  0.6288

 Free energy of the ion-electron system (eV)
  ---------------------------------------------------
  alpha Z        PSCENC =        -0.01507758
  Ewald energy   TEWEN  =       517.25803070
  -Hartree energ DENC   =      -794.64386807
  -exchange      EXHF   =         0.00000000
  -V(xc)+E(xc)   XCENC  =      -189.00032176
  PAW double counting   =       795.40633558     -571.87105622
  entropy T*S    EENTRO =         0.00585888
  eigenvalues    EBANDS =      -149.70865476
  atomic energy  EATOM  =       374.76708025
  Solvation  Ediel_sol  =         0.00000000
  ---------------------------------------------------
  free energy    TOTEN  =       -17.80167298 eV

  energy without entropy =      -17.80753186  energy(sigma->0) =      -17.80362594


--------------------------------------------------------------------------------------------------------




--------------------------------------- Iteration      1(  28)  ---------------------------------------


    POTLOK:  cpu time    3.2814: real time    3.2836
    SETDIJ:  cpu time    0.0172: real time    0.0172
     EDDAV:  cpu time    0.8421: real time    0.8468
       DOS:  cpu time    0.0014: real time    0.0014
    --------------------------------------------
      LOOP:  cpu time    4.1420: real time    4.1490

 eigenvalue-minimisations  :    48
 total energy-change (2. order) :-0.5886782E-04  (-0.3261521E-07)
 number of electron      21.0000000 magnetization       1.0008104
 augmentation part       -0.3549699 magnetization       0.0001982

 Free energy of the ion-electron system (eV)
  ---------------------------------------------------
  alpha Z        PSCENC =        -0.01507758
  Ewald energy   TEWEN  =       517.25803070
  -Hartree energ DENC   =      -794.64219688
  -exchange      EXHF   =         0.00000000
  -V(xc)+E(xc)   XCENC  =      -189.00040304
  PAW double counting   =       795.40239325     -571.86712562
  entropy T*S    EENTRO =         0.00585886
  eigenvalues    EBANDS =      -149.71029178
  atomic energy  EATOM  =       374.76708025
  Solvation  Ediel_sol  =         0.00000000
  ---------------------------------------------------
  free energy    TOTEN  =       -17.80173185 eV

  energy without entropy =      -17.80759071  energy(sigma->0) =      -17.80368480


--------------------------------------------------------------------------------------------------------




 average (electrostatic) potential at core
  the test charge radii are     1.0406
  (the norm of the test charge is              1.0000)
       1 -84.5996       2 -84.3882       3 -84.5245       4 -84.5182       5 -84.3761
       6 -84.5258       7 -84.3828
 
 
 
 E-fermi :  -3.9975     XC(G=0):  -0.3071     alpha+bet : -0.1574


 spin component 1

 k-point     1 :       0.0000    0.0000    0.0000
  band No.  band energies     occupation 
      1     -12.3270      1.00000
      2      -9.6830      1.00000
      3      -8.8847      1.00000
      4      -8.8730      1.00000
      5      -6.6245      1.00000
      6      -5.9834      1.00000
      7      -5.9688      1.00000
      8      -5.0397      1.00000
      9      -4.9598      1.00000
     10      -4.9564      1.00000
     11      -4.1659      1.00007
     12      -3.3477     -0.00002
     13      -3.3250     -0.00001
     14      -2.9990     -0.00000
     15      -2.3492     -0.00000
     16      -2.3293     -0.00000
     17      -1.6381     -0.00000
     18      -0.8396     -0.00000

 spin component 2

 k-point     1 :       0.0000    0.0000    0.0000
  band No.  band energies     occupation 
      1     -12.2167      1.00000
      2      -9.4608      1.00000
      3      -8.8347      1.00000
      4      -8.8248      1.00000
      5      -6.2622      1.00000
      6      -5.9124      1.00000
      7      -5.9018      1.00000
      8      -4.9940      1.00000
      9      -4.9186      1.00000
     10      -4.9181      1.00000
     11      -3.3677     -0.00004
     12      -3.2115     -0.00000
     13      -3.2037     -0.00000
     14      -2.9407     -0.00000
     15      -2.2531     -0.00000
     16      -2.2387     -0.00000
     17      -1.6369     -0.00000
     18      -0.7931     -0.00000


--------------------------------------------------------------------------------------------------------


 soft charge-density along one line, spin component            1
         0         1         2         3         4         5         6         7         8         9
 total charge-density along one line
 
 soft charge-density along one line, spin component            2
         0         1         2         3         4         5         6         7         8         9
 total charge-density along one line
 
 pseudopotential strength for first ion, spin component:            1
  8.863  15.125   0.000   0.002  -0.004   0.001   0.006  -0.012
 15.125  25.810   0.000   0.003  -0.007   0.001   0.010  -0.020
  0.000   0.000   1.974  -0.000   0.000   5.776  -0.000   0.000
  0.002   0.003  -0.000   1.974   0.000  -0.000   5.776   0.001
 -0.004  -0.007   0.000   0.000   1.974   0.000   0.001   5.775
  0.001   0.001   5.776  -0.000   0.000  16.764  -0.000   0.000
  0.006   0.010  -0.000   5.776   0.001  -0.000  16.763   0.002
 -0.012  -0.020   0.000   0.001   5.775   0.000   0.002  16.760
 pseudopotential strength for first ion, spin component:            2
  8.844  15.092   0.000   0.001  -0.002   0.000   0.002  -0.005
 15.092  25.754   0.000   0.001  -0.003   0.000   0.004  -0.008
  0.000   0.000   1.969  -0.000   0.000   5.760  -0.000   0.000
  0.001   0.001  -0.000   1.969   0.000  -0.000   5.759   0.001
 -0.002  -0.003   0.000   0.000   1.969   0.000   0.001   5.758
  0.000   0.000   5.760  -0.000   0.000  16.714  -0.000   0.000
  0.002   0.004  -0.000   5.759   0.001  -0.000  16.712   0.004
 -0.005  -0.008   0.000   0.001   5.758   0.000   0.004  16.706
 total augmentation occupancy for first ion, spin component:            1
  2.721  -0.431  -0.023  -0.197   0.402   0.003   0.026  -0.053
 -0.431   0.135   0.013   0.115  -0.232  -0.001  -0.009   0.017
 -0.023   0.013   0.649   0.013  -0.016  -0.032  -0.001   0.001
 -0.197   0.115   0.013   0.731  -0.166  -0.001  -0.035   0.008
  0.402  -0.232  -0.016  -0.166   0.971   0.001   0.008  -0.047
  0.003  -0.001  -0.032  -0.001   0.001   0.002   0.000  -0.000
  0.026  -0.009  -0.001  -0.035   0.008   0.000   0.002  -0.001
 -0.053   0.017   0.001   0.008  -0.047  -0.000  -0.001   0.003
 total augmentation occupancy for first ion, spin component:            2
  0.507  -0.153   0.008   0.070  -0.141   0.000   0.001  -0.001
 -0.153   0.042   0.005   0.046  -0.092  -0.000  -0.003   0.005
  0.008   0.005   0.037   0.015  -0.031  -0.004  -0.000   0.001
  0.070   0.046   0.015   0.175  -0.275  -0.000  -0.008   0.008
 -0.141  -0.092  -0.031  -0.275   0.581   0.001   0.008  -0.020
  0.000  -0.000  -0.004  -0.000   0.001   0.000   0.000  -0.000
  0.001  -0.003  -0.000  -0.008   0.008   0.000   0.000  -0.000
 -0.001   0.005   0.001   0.008  -0.020  -0.000  -0.000   0.001


------------------------ aborting loop because EDIFF is reached ----------------------------------------


    CHARGE:  cpu time    0.2753: real time    0.2755
    FORLOC:  cpu time    0.0987: real time    0.0988
    FORNL :  cpu time    0.3619: real time    0.3621
    FORCOR:  cpu time    3.3509: real time    3.3616
    FORHAR:  cpu time    0.4097: real time    0.4100
    MIXING:  cpu time    0.2381: real time    0.2383
    OFIELD:  cpu time    0.0000: real time    0.0000

 VOLUME and BASIS-vectors are now :
 -----------------------------------------------------------------------------
  energy-cutoff  :      400.00
  volume of cell :    10915.66
[...]
  8.844  15.092   0.000   0.001  -0.002   0.000   0.002  -0.005
 15.092  25.754   0.000   0.001  -0.003   0.001   0.004  -0.008
  0.000   0.000   1.969  -0.000   0.000   5.760  -0.000   0.000
  0.001   0.001  -0.000   1.969   0.000  -0.000   5.759   0.001
 -0.002  -0.003   0.000   0.000   1.969   0.000   0.001   5.758
  0.000   0.001   5.760  -0.000   0.000  16.714  -0.000   0.000
  0.002   0.004  -0.000   5.759   0.001  -0.000  16.712   0.004
 -0.005  -0.008   0.000   0.001   5.758   0.000   0.004  16.706
 total augmentation occupancy for first ion, spin component:            1
  2.726  -0.432  -0.023  -0.196   0.405   0.003   0.026  -0.053
 -0.432   0.135   0.013   0.114  -0.233  -0.001  -0.009   0.017
 -0.023   0.013   0.650   0.013  -0.016  -0.032  -0.001   0.001
 -0.196   0.114   0.013   0.733  -0.165  -0.001  -0.036   0.008
  0.405  -0.233  -0.016  -0.165   0.971   0.001   0.008  -0.047
  0.003  -0.001  -0.032  -0.001   0.001   0.002   0.000  -0.000
  0.026  -0.009  -0.001  -0.036   0.008   0.000   0.002  -0.001
 -0.053   0.017   0.001   0.008  -0.047  -0.000  -0.001   0.003
 total augmentation occupancy for first ion, spin component:            2
  0.507  -0.153   0.008   0.071  -0.141   0.000   0.001  -0.001
 -0.153   0.042   0.005   0.046  -0.092  -0.000  -0.003   0.005
  0.008   0.005   0.037   0.015  -0.031  -0.004  -0.000   0.001
  0.071   0.046   0.015   0.175  -0.275  -0.000  -0.008   0.008
 -0.141  -0.092  -0.031  -0.275   0.580   0.001   0.008  -0.020
  0.000  -0.000  -0.004  -0.000   0.001   0.000   0.000  -0.000
  0.001  -0.003  -0.000  -0.008   0.008   0.000   0.000  -0.000
 -0.001   0.005   0.001   0.008  -0.020  -0.000  -0.000   0.001


------------------------ aborting loop because EDIFF is reached ----------------------------------------


    CHARGE:  cpu time    0.3689: real time    0.3692
    FORLOC:  cpu time    0.0860: real time    0.0861
    FORNL :  cpu time    0.3560: real time    0.3603
    FORCOR:  cpu time    3.1569: real time    3.1636
    FORHAR:  cpu time    0.3307: real time    0.3309
    MIXING:  cpu time    0.0405: real time    0.0406
    OFIELD:  cpu time    0.0000: real time    0.0000

 VOLUME and BASIS-vectors are now :
 -----------------------------------------------------------------------------
  energy-cutoff  :      400.00
  volume of cell :    10915.66
      direct lattice vectors                 reciprocal lattice vectors
    24.595230480  0.000000000  0.000000000     0.040658289  0.000000000  0.000000000
     0.000000000 22.354526831  0.000000000     0.000000000  0.044733669  0.000000000
     0.000000000  0.000000000 19.853335785     0.000000000  0.000000000  0.050369369

  length of vectors
    24.595230480 22.354526831 19.853335785     0.040658289  0.044733669  0.050369369


 FORCES acting on ions
    electron-ion (+dipol)            ewald-force                    non-local-force                 convergence-correction
 -----------------------------------------------------------------------------------------------
   0.571E+02 -.328E+01 -.276E+02   -.550E+02 0.316E+01 0.266E+02   -.211E+01 0.117E+00 0.101E+01   -.359E-02 -.238E-03 0.351E-02
   0.206E+02 0.596E+02 -.146E+02   -.191E+02 -.572E+02 0.138E+02   -.141E+01 -.238E+01 0.853E+00   -.159E-02 -.931E-03 -.248E-03
   -.403E+02 -.506E+02 0.241E+02   0.372E+02 0.483E+02 -.224E+02   0.306E+01 0.231E+01 -.164E+01   -.305E-03 -.554E-04 -.104E-02
   -.197E+02 0.324E+02 0.573E+02   0.177E+02 -.308E+02 -.541E+02   0.205E+01 -.163E+01 -.327E+01   -.765E-03 0.243E-03 -.171E-02
   0.427E+02 -.269E+02 0.405E+02   -.404E+02 0.258E+02 -.391E+02   -.230E+01 0.111E+01 -.141E+01   0.243E-02 -.592E-03 -.524E-03
   -.592E+02 0.250E+02 -.250E+02   0.553E+02 -.238E+02 0.244E+02   0.391E+01 -.120E+01 0.544E+00   0.362E-02 -.558E-03 0.143E-02
   -.390E+01 -.360E+02 -.532E+02   0.433E+01 0.345E+02 0.508E+02   -.440E+00 0.151E+01 0.242E+01   -.544E-03 0.711E-03 0.159E-02
 -----------------------------------------------------------------------------------------------
   -.276E+01 0.158E+00 0.149E+01   -.533E-14 0.000E+00 0.142E-13   0.276E+01 -.157E+00 -.150E+01   -.743E-03 -.142E-02 0.301E-02
 
 
 POSITION                                       TOTAL-FORCE (eV/Angst)
 -----------------------------------------------------------------------------------
     10.52192     11.82170     11.01020        -0.020637     -0.001403      0.003011
     12.32744     10.03131     10.25449         0.006315      0.026549      0.011525
     14.17578     13.17656      9.07835         0.018452     -0.021126      0.003766
     13.57366     10.72639      8.09462         0.024806      0.001373     -0.004513
     11.72368     12.42764      8.72469        -0.011803     -0.004449      0.017958
     14.73695     10.93614     10.55032        -0.003855      0.002189     -0.029738
     13.00578     12.68478     11.33496        -0.013277     -0.003135     -0.002010
 -----------------------------------------------------------------------------------
    total drift:                                0.000638     -0.000288      0.000348


--------------------------------------------------------------------------------------------------------



  FREE ENERGIE OF THE ION-ELECTRON SYSTEM (eV)
  ---------------------------------------------------
  free  energy   TOTEN  =       -17.80217654 eV

  energy  without entropy=      -17.80803111  energy(sigma->0) =      -17.80412806
 
 d Force = 0.4019742E-03[ 0.313E-03, 0.491E-03]  d Energy = 0.4446862E-03-0.427E-04
 d Force =-0.8518837E-01[-0.853E-01,-0.851E-01]  d Ewald  =-0.8518830E-01-0.664E-07


--------------------------------------------------------------------------------------------------------


    POTLOK:  cpu time    3.3525: real time    3.3640


--------------------------------------------------------------------------------------------------------


 Steepest descent step on ions:
 trial-energy change:   -0.000445  1 .order   -0.000402   -0.000491   -0.000313
  (g-gl).g = 0.491E-03      g.g   = 0.491E-03  gl.gl    = 0.000E+00
 g(Force)  = 0.491E-03   g(Stress)= 0.000E+00 ortho     = 0.000E+00
 gamma     =   0.00000
 trial     =   1.00000
 opt step  =   2.75803  (harmonic =   2.75803) maximal distance =0.00580261
 next E    =   -17.802409   (d E  =  -0.00068)


--------------------------------------------------------------------------------------------------------


    WAVPRE:  cpu time    0.1959: real time    0.2057
    FEWALD:  cpu time    0.0227: real time    0.0227
    ORTHCH:  cpu time    0.0541: real time    0.0542
     LOOP+:  cpu time   18.2669: real time   18.3417


--------------------------------------- Iteration      3(   1)  ---------------------------------------


    POTLOK:  cpu time    3.5054: real time    3.5082
    SETDIJ:  cpu time    0.0332: real time    0.0332
     EDDAV:  cpu time    1.7260: real time    1.7276
       DOS:  cpu time    0.0013: real time    0.0013
    CHARGE:  cpu time    0.3609: real time    0.3612
    MIXING:  cpu time    0.0469: real time    0.0469
    --------------------------------------------
      LOOP:  cpu time    5.6737: real time    5.6785

 eigenvalue-minimisations  :    74
 total energy-change (2. order) :-0.2862003E-03  (-0.8749979E-03)
 number of electron      21.0000001 magnetization       1.0003941
 augmentation part       -0.3547486 magnetization      -0.0003062

 Broyden mixing:
  rms(total) = 0.24443E-02    rms(broyden)= 0.24441E-02
  rms(prec ) = 0.27206E-02
  weight for this iteration     100.00

 Free energy of the ion-electron system (eV)
  ---------------------------------------------------
  alpha Z        PSCENC =        -0.01507758
  Ewald energy   TEWEN  =       517.49339424
  -Hartree energ DENC   =      -794.84721728
  -exchange      EXHF   =         0.00000000
  -V(xc)+E(xc)   XCENC  =      -188.99466428
  PAW double counting   =       795.74281406     -572.20755680
  entropy T*S    EENTRO =         0.00584978
  eigenvalues    EBANDS =      -149.74707190
  atomic energy  EATOM  =       374.76708025
  Solvation  Ediel_sol  =         0.00000000
  ---------------------------------------------------
  free energy    TOTEN  =       -17.80244950 eV

  energy without entropy =      -17.80829928  energy(sigma->0) =      -17.80439943


--------------------------------------------------------------------------------------------------------




--------------------------------------- Iteration      3(   2)  ---------------------------------------


    POTLOK:  cpu time    3.0785: real time    3.0829
    SETDIJ:  cpu time    0.0280: real time    0.0280
     EDDAV:  cpu time    1.7338: real time    1.7353
       DOS:  cpu time    0.0024: real time    0.0024
    --------------------------------------------
      LOOP:  cpu time    4.8427: real time    4.8486

 eigenvalue-minimisations  :    80
 total energy-change (2. order) :-0.2250113E-04  (-0.4473110E-04)
 number of electron      21.0000001 magnetization       1.0003941
 augmentation part       -0.3547486 magnetization      -0.0003062

 Free energy of the ion-electron system (eV)
  ---------------------------------------------------
  alpha Z        PSCENC =        -0.01507758
  Ewald energy   TEWEN  =       517.49339424
  -Hartree energ DENC   =      -794.85230148
  -exchange      EXHF   =         0.00000000
  -V(xc)+E(xc)   XCENC  =      -188.99440496
  PAW double counting   =       796.13739130     -572.60216045
  entropy T*S    EENTRO =         0.00584815
  eigenvalues    EBANDS =      -149.74224148
  atomic energy  EATOM  =       374.76708025
  Solvation  Ediel_sol  =         0.00000000
  ---------------------------------------------------
  free energy    TOTEN  =       -17.80247201 eV

  energy without entropy =      -17.80832016  energy(sigma->0) =      -17.80442139


--------------------------------------------------------------------------------------------------------




 average (electrostatic) potential at core
  the test charge radii are     1.0406
  (the norm of the test charge is              1.0000)
       1 -84.6100       2 -84.3836       3 -84.5221       4 -84.5202       5 -84.3785
       6 -84.5208       7 -84.3830
 
 
 
 E-fermi :  -4.0128     XC(G=0):  -0.3116     alpha+bet : -0.1574


 spin component 1

 k-point     1 :       0.0000    0.0000    0.0000
  band No.  band energies     occupation 
      1     -12.3332      1.00000
      2      -9.7026      1.00000
      3      -8.8760      1.00000
      4      -8.8637      1.00000
      5      -6.6414      1.00000
      6      -5.9837      1.00000
      7      -5.9707      1.00000
      8      -5.0368      1.00000
      9      -4.9511      1.00000
     10      -4.9492      1.00000
     11      -4.1812      1.00006
     12      -3.3484     -0.00001
     13      -3.3260     -0.00001
     14      -3.0018     -0.00000
     15      -2.3508     -0.00000
     16      -2.3329     -0.00000
     17      -1.6177     -0.00000
     18      -0.8364     -0.00000

 spin component 2

 k-point     1 :       0.0000    0.0000    0.0000
  band No.  band energies     occupation 
      1     -12.2224      1.00000
      2      -9.4809      1.00000
      3      -8.8261      1.00000
      4      -8.8153      1.00000
      5      -6.2796      1.00000
      6      -5.9121      1.00000
      7      -5.9037      1.00000
      8      -4.9909      1.00000
      9      -4.9121      1.00000
     10      -4.9096      1.00000
     11      -3.3822     -0.00004
     12      -3.2122     -0.00000
     13      -3.2042     -0.00000
     14      -2.9438     -0.00000
     15      -2.2553     -0.00000
     16      -2.2423     -0.00000
     17      -1.6166     -0.00000
     18      -0.7914     -0.00000


--------------------------------------------------------------------------------------------------------


 soft charge-density along one line, spin component            1
         0         1         2         3         4         5         6         7         8         9
 total charge-density along one line
 
 soft charge-density along one line, spin component            2
         0         1         2         3         4         5         6         7         8         9
 total charge-density along one line
 
 pseudopotential strength for first ion, spin component:            1
  8.863  15.125   0.000   0.002  -0.004   0.001   0.006  -0.012
 15.125  25.811   0.000   0.003  -0.007   0.001   0.010  -0.020
  0.000   0.000   1.974  -0.000   0.000   5.776  -0.000   0.000
  0.002   0.003  -0.000   1.974   0.000  -0.000   5.776   0.001
 -0.004  -0.007   0.000   0.000   1.974   0.000   0.001   5.775
  0.001   0.001   5.776  -0.000   0.000  16.764  -0.000   0.000
  0.006   0.010  -0.000   5.776   0.001  -0.000  16.763   0.002
 -0.012  -0.020   0.000   0.001   5.775   0.000   0.002  16.760
 pseudopotential strength for first ion, spin component:            2
  8.844  15.093   0.000   0.001  -0.002   0.000   0.002  -0.005
 15.093  25.755   0.000   0.001  -0.003   0.001   0.004  -0.008
  0.000   0.000   1.969  -0.000   0.000   5.760  -0.000   0.000
  0.001   0.001  -0.000   1.969   0.000  -0.000   5.759   0.001
 -0.002  -0.003   0.000   0.000   1.969   0.000   0.001   5.758
  0.000   0.001   5.760  -0.000   0.000  16.714  -0.000   0.000
  0.002   0.004  -0.000   5.759   0.001  -0.000  16.712   0.004
 -0.005  -0.008   0.000   0.001   5.758   0.000   0.004  16.706
 total augmentation occupancy for first ion, spin component:            1
  2.730  -0.434  -0.023  -0.196   0.410   0.003   0.026  -0.054
 -0.434   0.135   0.013   0.114  -0.234  -0.001  -0.009   0.018
 -0.023   0.013   0.652   0.012  -0.016  -0.032  -0.001   0.001
 -0.196   0.114   0.012   0.735  -0.165  -0.001  -0.036   0.008
  0.410  -0.234  -0.016  -0.165   0.973   0.001   0.008  -0.047
  0.003  -0.001  -0.032  -0.001   0.001   0.002   0.000  -0.000
  0.026  -0.009  -0.001  -0.036   0.008   0.000   0.002  -0.001
 -0.054   0.018   0.001   0.008  -0.047  -0.000  -0.001   0.003
 total augmentation occupancy for first ion, spin component:            2
  0.508  -0.153   0.008   0.071  -0.141   0.000   0.001  -0.001
 -0.153   0.042   0.005   0.046  -0.092  -0.000  -0.003   0.005
  0.008   0.005   0.037   0.015  -0.031  -0.004  -0.000   0.001
  0.071   0.046   0.015   0.175  -0.275  -0.000  -0.008   0.008
 -0.141  -0.092  -0.031  -0.275   0.579   0.001   0.008  -0.020
  0.000  -0.000  -0.004  -0.000   0.001   0.000   0.000  -0.000
  0.001  -0.003  -0.000  -0.008   0.008   0.000   0.000  -0.000
 -0.001   0.005   0.001   0.008  -0.020  -0.000  -0.000   0.001


------------------------ aborting loop because EDIFF is reached ----------------------------------------


    CHARGE:  cpu time    0.3665: real time    0.3668
    FORLOC:  cpu time    0.0955: real time    0.0955
    FORNL :  cpu time    0.3621: real time    0.3664
    FORCOR:  cpu time    2.9101: real time    2.9324
    FORHAR:  cpu time    0.3430: real time    0.3434
    MIXING:  cpu time    0.0555: real time    0.0555
    OFIELD:  cpu time    0.0000: real time    0.0000

 VOLUME and BASIS-vectors are now :
 -----------------------------------------------------------------------------
  energy-cutoff  :      400.00
  volume of cell :    10915.66
      direct lattice vectors                 reciprocal lattice vectors
    24.595230480  0.000000000  0.000000000     0.040658289  0.000000000  0.000000000
     0.000000000 22.354526831  0.000000000     0.000000000  0.044733669  0.000000000
     0.000000000  0.000000000 19.853335785     0.000000000  0.000000000  0.050369369

  length of vectors
    24.595230480 22.354526831 19.853335785     0.040658289  0.044733669  0.050369369


 FORCES acting on ions
    electron-ion (+dipol)            ewald-force                    non-local-force                 convergence-correction
 -----------------------------------------------------------------------------------------------
   0.571E+02 -.325E+01 -.276E+02   -.550E+02 0.314E+01 0.266E+02   -.213E+01 0.112E+00 0.103E+01   -.737E-02 -.575E-03 0.751E-02
   0.206E+02 0.596E+02 -.146E+02   -.192E+02 -.572E+02 0.138E+02   -.141E+01 -.239E+01 0.840E+00   -.159E-02 -.158E-02 -.199E-03
   -.402E+02 -.506E+02 0.241E+02   0.372E+02 0.483E+02 -.224E+02   0.303E+01 0.232E+01 -.164E+01   0.275E-03 -.946E-03 -.145E-02
   -.196E+02 0.324E+02 0.574E+02   0.176E+02 -.307E+02 -.541E+02   0.200E+01 -.162E+01 -.327E+01   -.166E-03 0.248E-03 -.223E-02
   0.426E+02 -.269E+02 0.406E+02   -.403E+02 0.258E+02 -.391E+02   -.223E+01 0.111E+01 -.143E+01   0.548E-02 -.133E-02 -.674E-03
   -.593E+02 0.251E+02 -.251E+02   0.553E+02 -.239E+02 0.245E+02   0.394E+01 -.121E+01 0.583E+00   0.658E-02 -.967E-03 0.220E-02
   -.390E+01 -.361E+02 -.532E+02   0.433E+01 0.345E+02 0.508E+02   -.425E+00 0.151E+01 0.242E+01   0.813E-04 0.558E-03 0.275E-02
 -----------------------------------------------------------------------------------------------
   -.277E+01 0.178E+00 0.147E+01   0.178E-14 -.711E-14 0.000E+00   0.277E+01 -.173E+00 -.148E+01   0.330E-02 -.460E-02 0.791E-02
 
 
 POSITION                                       TOTAL-FORCE (eV/Angst)
 -----------------------------------------------------------------------------------
     10.52022     11.82163     11.01027        -0.021336     -0.002654      0.007016
     12.32792     10.03423     10.25593         0.006475      0.012690      0.002364
     14.17844     13.17399      9.07855        -0.003224     -0.005542      0.005748
     13.57736     10.72637      8.09415        -0.006727      0.004084     -0.004168
     11.72115     12.42742      8.72720         0.018359     -0.007583     -0.001206
     14.73639     10.93641     10.54653         0.002328      0.000152     -0.004344
     13.00375     12.68447     11.33500         0.004126     -0.001147     -0.005410
 -----------------------------------------------------------------------------------
    total drift:                               -0.000788      0.000308     -0.000262


--------------------------------------------------------------------------------------------------------



  FREE ENERGIE OF THE ION-ELECTRON SYSTEM (eV)
  ---------------------------------------------------
  free  energy   TOTEN  =       -17.80247201 eV

  energy  without entropy=      -17.80832016  energy(sigma->0) =      -17.80442139
 
 d Force = 0.2867917E-03[ 0.234E-04, 0.550E-03]  d Energy = 0.2954685E-03-0.868E-05
 d Force =-0.1501756E+00[-0.150E+00,-0.150E+00]  d Ewald  =-0.1501752E+00-0.359E-06


--------------------------------------------------------------------------------------------------------


    POTLOK:  cpu time    2.9958: real time    3.0050


--------------------------------------------------------------------------------------------------------




--------------------------------------------------------------------------------------------------------


  
 reached required accuracy - stopping structural energy minimisation
     LOOP+:  cpu time   17.6476: real time   17.7158
    4ORBIT:  cpu time    0.0000: real time    0.0000

 total amount of memory used by VASP MPI-rank0   196297. kBytes
=======================================================================

   base      :      30000. kBytes
   nonl-proj :       2184. kBytes
   fftplans  :      48148. kBytes
   grid      :     108810. kBytes
   one-center:          3. kBytes
   wavefun   :       7152. kBytes
 
  
  
 General timing and accounting informations for this job:
 ========================================================
  
                  Total CPU time used (sec):      220.007
                            User time (sec):      216.526
                          System time (sec):        3.481
                         Elapsed time (sec):      224.001
  
                   Maximum memory used (kb):      402732.
                   Average memory used (kb):           0.
  
                          Minor page faults:      1624075
                          Major page faults:         3124
                 Voluntary context switches:         4967
