<?xml version="1.0" encoding="ISO-8859-1"?>
<modeling>
 <generator>
  <i name="program" type="string">vasp </i>
  <i name="version" type="string">6.1.2  </i>
  <i name="subversion" type="string">22Jul20 (build Aug  2 2021 21:04:21) gamma-only                       parallel </i>
  <i name="platform" type="string">LinuxPGI </i>
  <i name="date" type="string">2021 12 29 </i>
  <i name="time" type="string">02:51:21 </i>
 </generator>
 <incar>
  <i type="int" name="ISPIN">     2</i>
  <i type="int" name="IBRION">     2</i>
  <i type="int" name="NSW">  1000</i>
  <i type="int" name="ISIF">     0</i>
  <i type="int" name="ISYM">     0</i>
  <i name="ENCUT">    400.00000000</i>
  <i type="logical" name="LREAL"> F  </i>
  <i type="int" name="ISMEAR">     1</i>
  <i name="SIGMA">      0.20000000</i>
  <i type="logical" name="LWAVE"> F  </i>
  <i type="logical" name="LCHARG"> F  </i>
  <i type="int" name="KPAR">     1</i>
  <i type="int" name="NCORE">     8</i>
  <i type="string" name="GGA"> PE</i>
  <i type="int" name="ISPIN">     2</i>
 </incar>
 <structure name="primitive_cell" >
  <crystal>
   <varray name="basis" >
    <v>      24.59523048       0.00000000       0.00000000 </v>
    <v>       0.00000000      22.35452683       0.00000000 </v>
    <v>       0.00000000       0.00000000      19.85333579 </v>
   </varray>
   <i name="volume">  10915.65664669 </i>
   <varray name="rec_basis" >
    <v>       0.04065829       0.00000000       0.00000000 </v>
    <v>       0.00000000       0.04473367       0.00000000 </v>
    <v>       0.00000000       0.00000000       0.05036937 </v>
   </varray>
  </crystal>
  <varray name="positions" >
   <v>       0.42784272       0.52882987       0.55457488 </v>
   <v>       0.50120147       0.44866316       0.51647131 </v>
   <v>       0.57630160       0.58950102       0.45726470 </v>
   <v>       0.55179621       0.47983102       0.40773406 </v>
   <v>       0.47672360       0.55593979       0.43938485 </v>
   <v>       0.59919224       0.48920674       0.53152201 </v>
   <v>       0.52883989       0.56744486       0.57093367 </v>
  </varray>
 </structure>
 <varray name="primitive_index" >
  <v type="int" >        1 </v>
  <v type="int" >        2 </v>
  <v type="int" >        3 </v>
  <v type="int" >        4 </v>
  <v type="int" >        5 </v>
  <v type="int" >        6 </v>
  <v type="int" >        7 </v>
 </varray>
 <kpoints>
  <generation param="Gamma">
   <v type="int" name="divisions">       1        1        1 </v>
   <v name="usershift">      0.00000000       0.00000000       0.00000000 </v>
   <v name="genvec1">      1.00000000       0.00000000       0.00000000 </v>
   <v name="genvec2">      0.00000000       1.00000000       0.00000000 </v>
   <v name="genvec3">      0.00000000       0.00000000       1.00000000 </v>
   <v name="shift">      0.00000000       0.00000000       0.00000000 </v>
  </generation>
  <varray name="kpointlist" >
   <v>       0.00000000       0.00000000       0.00000000 </v>
  </varray>
  <varray name="weights" >
   <v>       1.00000000 </v>
  </varray>
 </kpoints>
 <parameters>
  <separator name="general" >
   <i type="string" name="SYSTEM">unknown system</i>
   <i type="logical" name="LCOMPAT"> F  </i>
  </separator>
  <separator name="electronic" >
   <i type="string" name="PREC">normal</i>
   <i name="ENMAX">    400.00000000</i>
   <i name="ENAUG">    291.05200000</i>
   <i name="EDIFF">      0.00010000</i>
   <i type="int" name="IALGO">    38</i>
   <i type="int" name="IWAVPR">    11</i>
   <i type="int" name="NBANDS">    18</i>
   <i type="int" name="NBANDSLOW">    -1</i>
   <i type="int" name="NBANDSHIGH">    -1</i>
   <i name="NELECT">     21.00000000</i>
   <i type="int" name="TURBO">     0</i>
   <i type="int" name="IRESTART">     0</i>
   <i type="int" name="NREBOOT">     0</i>
   <i type="int" name="NMIN">     0</i>
   <i name="EREF">      0.00000000</i>
   <separator name="electronic smearing" >
    <i type="int" name="ISMEAR">     1</i>
    <i name="SIGMA">      0.20000000</i>
    <i name="KSPACING">      0.50000000</i>
    <i type="logical" name="KGAMMA"> T  </i>
    <i type="logical" name="KBLOWUP"> T  </i>
   </separator>
   <separator name="electronic projectors" >
    <i type="logical" name="LREAL"> F  </i>
    <v name="ROPT">      0.00000000</v>
    <i type="int" name="LMAXPAW">  -100</i>
    <i type="int" name="LMAXMIX">     2</i>
    <i type="logical" name="NLSPLINE"> F  </i>
   </separator>
   <separator name="electronic startup" >
    <i type="int" name="ISTART">     0</i>
    <i type="int" name="ICHARG">     2</i>
    <i type="int" name="INIWAV">     1</i>
   </separator>
   <separator name="electronic spin" >
    <i type="int" name="ISPIN">     2</i>
    <i type="logical" name="LNONCOLLINEAR"> F  </i>
    <v name="MAGMOM">      1.00000000      1.00000000      1.00000000      1.00000000      1.00000000      1.00000000      1.00000000</v>
    <i name="NUPDOWN">     -1.00000000</i>
    <i type="logical" name="LSORBIT"> F  </i>
    <v name="SAXIS">      0.00000000      0.00000000      1.00000000</v>
    <i type="logical" name="LSPIRAL"> F  </i>
    <v name="QSPIRAL">      0.00000000      0.00000000      0.00000000</v>
    <i type="logical" name="LZEROZ"> F  </i>
   </separator>
   <separator name="electronic exchange-correlation" >
    <i type="logical" name="LASPH"> F  </i>
    <i type="logical" name="LMETAGGA"> F  </i>
   </separator>
   <separator name="electronic convergence" >
    <i type="int" name="NELM">    60</i>
    <i type="int" name="NELMDL">     0</i>
    <i type="int" name="NELMIN">     2</i>
    <i name="ENINI">    400.00000000</i>
    <separator name="electronic convergence detail" >
     <i type="logical" name="LDIAG"> T  </i>
     <i type="logical" name="LSUBROT"> F  </i>
     <i name="WEIMIN">      0.00100000</i>
     <i name="EBREAK">      0.00000139</i>
     <i name="DEPER">      0.30000000</i>
     <i type="int" name="NRMM">     4</i>
     <i name="TIME">      0.40000000</i>
    </separator>
   </separator>
   <separator name="electronic mixer" >
    <i name="AMIX">      0.40000000</i>
    <i name="BMIX">      1.00000000</i>
    <i name="AMIN">      0.10000000</i>
    <i name="AMIX_MAG">      1.60000000</i>
    <i name="BMIX_MAG">      1.00000000</i>
    <separator name="electronic mixer details" >
     <i type="int" name="IMIX">     4</i>
     <i type="logical" name="MIXFIRST"> F  </i>
     <i type="int" name="MAXMIX">   -45</i>
     <i name="WC">    100.00000000</i>
     <i type="int" name="INIMIX">     1</i>
     <i type="int" name="MIXPRE">     1</i>
     <i type="int" name="MREMOVE">     5</i>
    </separator>
   </separator>
   <separator name="electronic dipolcorrection" >
    <i type="logical" name="LDIPOL"> F  </i>
    <i type="logical" name="LMONO"> F  </i>
    <i type="int" name="IDIPOL">     0</i>
    <i name="EPSILON">      1.00000000</i>
    <v name="DIPOL">   -100.00000000   -100.00000000   -100.00000000</v>
    <i name="EFIELD">      0.00000000</i>
   </separator>
  </separator>
  <separator name="grids" >
   <i type="int" name="NGX">   120</i>
   <i type="int" name="NGY">   112</i>
   <i type="int" name="NGZ">    98</i>
   <i type="int" name="NGXF">   240</i>
   <i type="int" name="NGYF">   224</i>
   <i type="int" name="NGZF">   196</i>
   <i type="logical" name="ADDGRID"> F  </i>
  </separator>
  <separator name="ionic" >
   <i type="int" name="NSW">  1000</i>
   <i type="int" name="IBRION">     2</i>
   <i type="int" name="MDALGO">     0</i>
   <i type="int" name="ISIF">     0</i>
   <i name="PSTRESS">      0.00000000</i>
   <i name="EDIFFG">      0.00100000</i>
   <i type="int" name="NFREE">     1</i>
   <i name="POTIM">      0.50000000</i>
   <i name="SMASS">     -3.00000000</i>
   <i name="SCALEE">      1.00000000</i>
  </separator>
  <separator name="ionic md" >
   <i name="TEBEG">      0.00010000</i>
   <i name="TEEND">      0.00010000</i>
   <i type="int" name="NBLOCK">     1</i>
   <i type="int" name="KBLOCK">  1000</i>
   <i type="int" name="NPACO">   256</i>
   <i name="APACO">     16.00000000</i>
  </separator>
  <separator name="symmetry" >
   <i type="int" name="ISYM">     0</i>
   <i name="SYMPREC">      0.00001000</i>
  </separator>
  <separator name="dos" >
   <i type="int" name="LORBIT">     0</i>
   <v name="RWIGS">     -1.00000000</v>
   <i type="int" name="NEDOS">   301</i>
   <i name="EMIN">     10.00000000</i>
   <i name="EMAX">    -10.00000000</i>
   <i name="EFERMI">      0.00000000</i>
  </separator>
  <separator name="writing" >
   <i type="int" name="NWRITE">     2</i>
   <i type="logical" name="LWAVE"> F  </i>
   <i type="logical" name="LDOWNSAMPLE"> F  </i>
   <i type="logical" name="LCHARG"> F  </i>
   <i type="logical" name="LPARD"> F  </i>
   <i type="logical" name="LVTOT"> F  </i>
   <i type="logical" name="LVHAR"> F  </i>
   <i type="logical" name="LELF"> F  </i>
   <i type="logical" name="LOPTICS"> F  </i>
   <v name="STM">      0.00000000      0.00000000      0.00000000      0.00000000      0.00000000      0.00000000      0.00000000</v>
  </separator>
  <separator name="performance" >
   <i type="int" name="NPAR">     1</i>
   <i type="int" name="NSIM">     4</i>
   <i type="int" name="NBLK">    -1</i>
   <i type="logical" name="LPLANE"> T  </i>
   <i type="logical" name="LSCALAPACK"> T  </i>
   <i type="logical" name="LSCAAWARE"> F  </i>
   <i type="logical" name="LSCALU"> F  </i>
   <i type="logical" name="LASYNC"> F  </i>
   <i type="logical" name="LORBITALREAL"> F  </i>
  </separator>
  <separator name="miscellaneous" >
   <i type="int" name="IDIOT">     3</i>
   <i type="int" name="PHON_NSTRUCT">    -1</i>
   <i type="logical" name="LMUSIC"> F  </i>
   <v name="POMASS">     26.98100000</v>
   <v name="DARWINR">      0.00000000</v>
   <v name="DARWINV">      1.00000000</v>
   <i type="logical" name="LCORR"> T  </i>
  </separator>
  <i type="logical" name="GGA_COMPAT"> T  </i>
  <i type="logical" name="LBERRY"> F  </i>
  <i type="int" name="ICORELEVEL">     0</i>
  <i type="logical" name="LDAU"> F  </i>
  <i type="int" name="I_CONSTRAINED_M">     0</i>
  <separator name="electronic exchange-correlation" >
   <i type="string" name="GGA">PE</i>
   <i type="int" name="VOSKOWN">     0</i>
   <i type="logical" name="LHFCALC"> F  </i>
   <i type="string" name="PRECFOCK"></i>
   <i type="logical" name="LSYMGRAD"> F  </i>
   <i type="logical" name="LHFONE"> F  </i>
   <i type="logical" name="LRHFCALC"> F  </i>
   <i type="logical" name="LTHOMAS"> F  </i>
   <i type="logical" name="LMODELHF"> F  </i>
   <i type="logical" name="LFOCKACE"> F  </i>
   <i name="ENCUT4O">     -1.00000000</i>
   <i type="int" name="EXXOEP">     0</i>
   <i type="int" name="FOURORBIT">     0</i>
   <i name="AEXX">      0.00000000</i>
   <i name="HFALPHA">      0.00000000</i>
   <i name="MCALPHA">      0.00000000</i>
   <i name="ALDAX">      1.00000000</i>
   <i name="AGGAX">      1.00000000</i>
   <i name="ALDAC">      1.00000000</i>
   <i name="AGGAC">      1.00000000</i>
   <i type="int" name="NKREDX">     1</i>
   <i type="int" name="NKREDY">     1</i>
   <i type="int" name="NKREDZ">     1</i>
   <i type="logical" name="SHIFTRED"> F  </i>
   <i type="logical" name="ODDONLY"> F  </i>
   <i type="logical" name="EVENONLY"> F  </i>
   <i type="int" name="LMAXFOCK">     0</i>
   <i type="int" name="NMAXFOCKAE">     0</i>
   <i type="logical" name="LFOCKAEDFT"> F  </i>
   <i name="HFSCREEN">      0.00000000</i>
   <i name="HFSCREENC">      0.00000000</i>
   <i type="int" name="NBANDSGWLOW">     0</i>
  </separator>
  <separator name="vdW DFT" >
   <i type="logical" name="LUSE_VDW"> F  </i>
   <i name="Zab_VDW">     -0.84910000</i>
   <i name="PARAM1">      0.12340000</i>
   <i name="PARAM2">      1.00000000</i>
   <i name="PARAM3">      0.00000000</i>
  </separator>
  <separator name="model GW" >
   <i type="int" name="MODEL_GW">     0</i>
   <i name="MODEL_EPS0">    935.62771257</i>
   <i name="MODEL_ALPHA">      1.00000000</i>
  </separator>
  <separator name="linear response parameters" >
   <i type="logical" name="LEPSILON"> F  </i>
   <i type="logical" name="LRPA"> F  </i>
   <i type="logical" name="LNABLA"> F  </i>
   <i type="logical" name="LVEL"> F  </i>
   <i type="int" name="KINTER">     0</i>
   <i name="CSHIFT">      0.10000000</i>
   <i name="OMEGAMAX">     -1.00000000</i>
   <i name="DEG_THRESHOLD">      0.00200000</i>
   <i name="RTIME">     -0.10000000</i>
   <i name="WPLASMAI">      0.00000000</i>
   <v name="DFIELD">      0.00000000      0.00000000      0.00000000</v>
   <v name="WPLASMA">      0.00000000      0.00000000      0.00000000      0.00000000      0.00000000      0.00000000      0.00000000      0.00000000      0.00000000</v>
  </separator>
  <separator name="orbital magnetization" >
   <i type="logical" name="NUCIND"> F  </i>
   <v name="MAGPOS">      0.00000000      0.00000000      0.00000000</v>
   <i type="logical" name="LNICSALL"> T  </i>
   <i type="logical" name="ORBITALMAG"> F  </i>
   <i type="logical" name="LMAGBLOCH"> F  </i>
   <i type="logical" name="LCHIMAG"> F  </i>
   <i type="logical" name="LGAUGE"> T  </i>
   <i type="int" name="MAGATOM">     0</i>
   <v name="MAGDIPOL">      0.00000000      0.00000000      0.00000000</v>
   <v name="AVECCONST">      0.00000000      0.00000000      0.00000000</v>
  </separator>
  <separator name="response functions" >
   <i type="logical" name="LFINITE_TEMPERATURE"> F  </i>
   <i type="logical" name="LADDER"> F  </i>
   <i type="logical" name="LRPAFORCE"> F  </i>
   <i type="logical" name="LFXC"> F  </i>
   <i type="logical" name="LHARTREE"> T  </i>
   <i type="int" name="IBSE">     0</i>
   <v type="int" name="KPOINT">    -1     0     0     0</v>
   <i type="logical" name="LTCTC"> F  </i>
   <i type="logical" name="LTCTE"> F  </i>
   <i type="logical" name="LTETE"> F  </i>
   <i type="logical" name="LTRIPLET"> F  </i>
   <i type="logical" name="LFXCEPS"> F  </i>
   <i type="logical" name="LFXHEG"> F  </i>
   <i type="int" name="NATURALO">     2</i>
   <i type="logical" name="LHOLEGF"> F  </i>
   <i type="logical" name="L2ORDER"> F  </i>
   <i type="logical" name="LDMP1"> F  </i>
   <i type="logical" name="LMP2LT"> F  </i>
   <i type="logical" name="LSMP2LT"> F  </i>
   <i type="logical" name="LGWLF"> F  </i>
   <i name="ENCUTGW">     -2.00000000</i>
   <i name="ENCUTGWSOFT">     -2.00000000</i>
   <i name="ENCUTLF">     -1.00000000</i>
   <i type="logical" name="LESF_SPLINES"> F  </i>
   <i type="int" name="LMAXMP2">    -1</i>
   <i name="SCISSOR">      0.00000000</i>
   <i type="int" name="NOMEGA">     0</i>
   <i type="int" name="NOMEGAR">     0</i>
   <i type="int" name="NBANDSGW">    -1</i>
   <i type="int" name="NBANDSO">    -1</i>
   <i type="int" name="NBANDSV">    -1</i>
   <i type="int" name="NELM">     1</i>
   <i type="int" name="NELMHF">     1</i>
   <i type="int" name="DIM">     3</i>
   <i type="int" name="IESPILON">     4</i>
   <i type="int" name="ANTIRES">     0</i>
   <i name="OMEGAMAX">    -30.00000000</i>
   <i name="OMEGAMIN">    -30.00000000</i>
   <i name="OMEGATL">   -200.00000000</i>
   <i type="int" name="OMEGAGRID">     0</i>
   <i name="CSHIFT">     -0.10000000</i>
   <i type="logical" name="LSELFENERGY"> F  </i>
   <i type="logical" name="LSPECTRAL"> F  </i>
   <i type="logical" name="LSPECTRALGW"> F  </i>
   <i type="logical" name="LSINGLES"> F  </i>
   <i type="logical" name="LFERMIGW"> F  </i>
   <i type="logical" name="ODDONLYGW"> F  </i>
   <i type="logical" name="EVENONLYGW"> F  </i>
   <i type="int" name="NKREDLFX">     1</i>
   <i type="int" name="NKREDLFY">     1</i>
   <i type="int" name="NKREDLFZ">     1</i>
   <i type="int" name="MAXMEM">  2800</i>
   <i type="int" name="TELESCOPE">     0</i>
   <i type="int" name="NTAUPAR">    -1</i>
   <i type="int" name="NOMEGAPAR">    -1</i>
   <i name="LAMBDA">      1.00000000</i>
  </separator>
  <separator name="External order field" >
   <i name="OFIELD_KAPPA">      0.00000000</i>
   <v name="OFIELD_K">      0.00000000      0.00000000      0.00000000</v>
   <i name="OFIELD_Q6_NEAR">      0.00000000</i>
   <i name="OFIELD_Q6_FAR">      0.00000000</i>
   <i name="OFIELD_A">      0.00000000</i>
  </separator>
 </parameters>
 <atominfo>
  <atoms>       7 </atoms>
  <types>       1 </types>
  <array name="atoms" >
   <dimension dim="1">ion</dimension>
   <field type="string">element</field>
   <field type="int">atomtype</field>
   <set>
    <rc><c>Al</c><c>   1</c></rc>
    <rc><c>Al</c><c>   1</c></rc>
    <rc><c>Al</c><c>   1</c></rc>
    <rc><c>Al</c><c>   1</c></rc>
    <rc><c>Al</c><c>   1</c></rc>
    <rc><c>Al</c><c>   1</c></rc>
    <rc><c>Al</c><c>   1</c></rc>
   </set>
  </array>
  <array name="atomtypes" >
   <dimension dim="1">type</dimension>
   <field type="int">atomspertype</field>
   <field type="string">element</field>
   <field>mass</field>
   <field>valence</field>
   <field type="string">pseudopotential</field>
   <set>
    <rc><c>   7</c><c>Al</c><c>     26.98100000</c><c>      3.00000000</c><c>  PAW_PBE Al 04Jan2001                  </c></rc>
   </set>
  </array>
 </atominfo>
 <structure name="initialpos" >
  <crystal>
   <varray name="basis" >
    <v>      24.59523048       0.00000000       0.00000000 </v>
    <v>       0.00000000      22.35452683       0.00000000 </v>
    <v>       0.00000000       0.00000000      19.85333579 </v>
   </varray>
   <i name="volume">  10915.65664669 </i>
   <varray name="rec_basis" >
    <v>       0.04065829       0.00000000       0.00000000 </v>
    <v>       0.00000000       0.04473367       0.00000000 </v>
    <v>       0.00000000       0.00000000       0.05036937 </v>
   </varray>
  </crystal>
  <varray name="positions" >
   <v>       0.42784272       0.52882987       0.55457488 </v>
   <v>       0.50120147       0.44866316       0.51647131 </v>
   <v>       0.57630160       0.58950102       0.45726470 </v>
   <v>       0.55179621       0.47983102       0.40773406 </v>
   <v>       0.47672360       0.55593979       0.43938485 </v>
   <v>       0.59919224       0.48920674       0.53152201 </v>
   <v>       0.52883989       0.56744486       0.57093367 </v>
  </varray>
 </structure>
 <calculation>
  <scstep>
   <time name="dav">    1.52    1.53</time>
   <time name="total">    4.52    4.53</time>
   <energy>
    <i name="alphaZ">     -0.01507758 </i>
    <i name="ewald">    517.25803070 </i>
    <i name="hartreedc">   -758.85095114 </i>
    <i name="XCdc">   -189.70503424 </i>
    <i name="pawpsdc">    462.65713654 </i>
    <i name="pawaedc">   -238.99141827 </i>
    <i name="eentropy">     -0.04496860 </i>
    <i name="bandstr">   -122.49128673 </i>
    <i name="atom">    374.76708025 </i>
    <i name="e_fr_energy">     44.58351094 </i>
    <i name="e_wo_entrp">     44.62847954 </i>
    <i name="e_0_energy">     44.59850047 </i>
   </energy>
  </scstep>
  <scstep>
   <time name="dav">    1.62    1.63</time>
   <time name="total">    1.63    1.63</time>
   <energy>
    <i name="e_fr_energy">     -9.23522224 </i>
    <i name="e_wo_entrp">     -9.24106815 </i>
    <i name="e_0_energy">     -9.23717088 </i>
   </energy>
  </scstep>
  <scstep>
   <time name="dav">    1.72    1.73</time>
   <time name="total">    1.73    1.73</time>
   <energy>
    <i name="e_fr_energy">    -18.97343125 </i>
    <i name="e_wo_entrp">    -18.98130877 </i>
    <i name="e_0_energy">    -18.97605709 </i>
   </energy>
  </scstep>
  <scstep>
   <time name="dav">    1.95    1.96</time>
   <time name="total">    1.95    1.96</time>
   <energy>
    <i name="e_fr_energy">    -19.25417601 </i>
    <i name="e_wo_entrp">    -19.26768088 </i>
    <i name="e_0_energy">    -19.25867763 </i>
   </energy>
  </scstep>
  <scstep>
   <time name="dav">    2.40    2.40</time>
   <time name="total">    2.87    2.87</time>
   <energy>
    <i name="e_fr_energy">    -19.26947573 </i>
    <i name="e_wo_entrp">    -19.28345768 </i>
    <i name="e_0_energy">    -19.27413638 </i>
   </energy>
  </scstep>
  <scstep>
   <time name="dav">    1.71    1.71</time>
   <time name="total">    5.53    5.54</time>
   <energy>
    <i name="e_fr_energy">     -8.47691398 </i>
    <i name="e_wo_entrp">     -8.49516322 </i>
    <i name="e_0_energy">     -8.48299706 </i>
   </energy>
  </scstep>
  <scstep>
   <time name="dav">    1.42    1.44</time>
   <time name="total">    5.38    5.42</time>
   <energy>
    <i name="e_fr_energy">     -5.82649117 </i>
    <i name="e_wo_entrp">     -5.84273102 </i>
    <i name="e_0_energy">     -5.83190445 </i>
   </energy>
  </scstep>
  <scstep>
   <time name="dav">    2.14    2.14</time>
   <time name="total">    6.31    6.33</time>
   <energy>
    <i name="e_fr_energy">     -8.01282111 </i>
    <i name="e_wo_entrp">     -8.02706517 </i>
    <i name="e_0_energy">     -8.01756913 </i>
   </energy>
  </scstep>
  <scstep>
   <time name="dav">    1.69    1.71</time>
   <time name="total">    5.52    5.54</time>
   <energy>
    <i name="e_fr_energy">    -11.36300451 </i>
    <i name="e_wo_entrp">    -11.36913825 </i>
    <i name="e_0_energy">    -11.36504909 </i>
   </energy>
  </scstep>
  <scstep>
   <time name="dav">   13.72   13.78</time>
   <time name="total">   23.14   23.37</time>
   <energy>
    <i name="e_fr_energy">    -13.77490661 </i>
    <i name="e_wo_entrp">    -13.78072580 </i>
    <i name="e_0_energy">    -13.77684634 </i>
   </energy>
  </scstep>
  <scstep>
   <time name="dav">    1.13    1.13</time>
   <time name="total">    4.28    4.29</time>
   <energy>
    <i name="e_fr_energy">    -15.18842298 </i>
    <i name="e_wo_entrp">    -15.19423442 </i>
    <i name="e_0_energy">    -15.19036013 </i>
   </energy>
  </scstep>
  <scstep>
   <time name="dav">    1.18    1.19</time>
   <time name="total">    4.54    4.56</time>
   <energy>
    <i name="e_fr_energy">    -16.55955138 </i>
    <i name="e_wo_entrp">    -16.56537040 </i>
    <i name="e_0_energy">    -16.56149105 </i>
   </energy>
  </scstep>
  <scstep>
   <time name="dav">    1.74    1.77</time>
   <time name="total">    5.48    5.55</time>
   <energy>
    <i name="e_fr_energy">    -16.83378905 </i>
    <i name="e_wo_entrp">    -16.83961323 </i>
    <i name="e_0_energy">    -16.83573044 </i>
   </energy>
  </scstep>
  <scstep>
   <time name="dav">    1.25    1.27</time>
   <time name="total">    5.49    5.57</time>
   <energy>
    <i name="e_fr_energy">    -17.09069206 </i>
    <i name="e_wo_entrp">    -17.09652396 </i>
    <i name="e_0_energy">    -17.09263603 </i>
   </energy>
  </scstep>
  <scstep>
   <time name="dav">    1.85    1.88</time>
   <time name="total">    5.75    5.83</time>
   <energy>
    <i name="e_fr_energy">    -17.51067420 </i>
    <i name="e_wo_entrp">    -17.51652217 </i>
    <i name="e_0_energy">    -17.51262353 </i>
   </energy>
  </scstep>
  <scstep>
   <time name="dav">    1.24    1.24</time>
   <time name="total">    5.02    5.08</time>
   <energy>
    <i name="e_fr_energy">    -17.64302669 </i>
    <i name="e_wo_entrp">    -17.64888036 </i>
    <i name="e_0_energy">    -17.64497791 </i>
   </energy>
  </scstep>
  <scstep>
   <time name="dav">   10.14   10.15</time>
   <time name="total">   23.62   23.83</time>
   <energy>
    <i name="e_fr_energy">    -17.70294439 </i>
    <i name="e_wo_entrp">    -17.70879932 </i>
    <i name="e_0_energy">    -17.70489603 </i>
   </energy>
  </scstep>
  <scstep>
   <time name="dav">    1.23    1.23</time>
   <time name="total">    5.91    5.92</time>
   <energy>
    <i name="e_fr_energy">    -17.76132852 </i>
    <i name="e_wo_entrp">    -17.76718747 </i>
    <i name="e_0_energy">    -17.76328150 </i>
   </energy>
  </scstep>
  <scstep>
   <time name="dav">    1.33    1.33</time>
   <time name="total">    4.81    4.82</time>
   <energy>
    <i name="e_fr_energy">    -17.77839532 </i>
    <i name="e_wo_entrp">    -17.78425524 </i>
    <i name="e_0_energy">    -17.78034863 </i>
   </energy>
  </scstep>
  <scstep>
   <time name="dav">    1.66    1.66</time>
   <time name="total">    5.22    5.23</time>
   <energy>
    <i name="e_fr_energy">    -17.78935645 </i>
    <i name="e_wo_entrp">    -17.79521611 </i>
    <i name="e_0_energy">    -17.79130967 </i>
   </energy>
  </scstep>
  <scstep>
   <time name="dav">    1.61    1.61</time>
   <time name="total">    5.64    5.64</time>
   <energy>
    <i name="e_fr_energy">    -17.79505765 </i>
    <i name="e_wo_entrp">    -17.80091681 </i>
    <i name="e_0_energy">    -17.79701070 </i>
   </energy>
  </scstep>
  <scstep>
   <time name="dav">    1.54    1.54</time>
   <time name="total">    5.62    5.63</time>
   <energy>
    <i name="e_fr_energy">    -17.79845012 </i>
    <i name="e_wo_entrp">    -17.80430941 </i>
    <i name="e_0_energy">    -17.80040322 </i>
   </energy>
  </scstep>
  <scstep>
   <time name="dav">    1.30    1.30</time>
   <time name="total">    4.82    4.84</time>
   <energy>
    <i name="e_fr_energy">    -17.80011046 </i>
    <i name="e_wo_entrp">    -17.80596946 </i>
    <i name="e_0_energy">    -17.80206346 </i>
   </energy>
  </scstep>
  <scstep>
   <time name="dav">    0.96    0.96</time>
   <time name="total">    4.99    4.99</time>
   <energy>
    <i name="e_fr_energy">    -17.80097435 </i>
    <i name="e_wo_entrp">    -17.80683333 </i>
    <i name="e_0_energy">    -17.80292735 </i>
   </energy>
  </scstep>
  <scstep>
   <time name="dav">    0.86    0.87</time>
   <time name="total">    4.06    4.07</time>
   <energy>
    <i name="e_fr_energy">    -17.80138611 </i>
    <i name="e_wo_entrp">    -17.80724510 </i>
    <i name="e_0_energy">    -17.80333911 </i>
   </energy>
  </scstep>
  <scstep>
   <time name="dav">    1.03    1.03</time>
   <time name="total">    4.59    4.61</time>
   <energy>
    <i name="e_fr_energy">    -17.80156467 </i>
    <i name="e_wo_entrp">    -17.80742360 </i>
    <i name="e_0_energy">    -17.80351765 </i>
   </energy>
  </scstep>
  <scstep>
   <time name="dav">    1.24    1.24</time>
   <time name="total">    5.40    5.41</time>
   <energy>
    <i name="e_fr_energy">    -17.80167298 </i>
    <i name="e_wo_entrp">    -17.80753186 </i>
    <i name="e_0_energy">    -17.80362594 </i>
   </energy>
  </scstep>
  <scstep>
   <time name="dav">    0.84    0.85</time>
   <time name="total">    4.14    4.15</time>
   <energy>
    <i name="alphaZ">     -0.01507758 </i>
    <i name="ewald">    517.25803070 </i>
    <i name="hartreedc">   -794.64219688 </i>
    <i name="XCdc">   -189.00040304 </i>
    <i name="pawpsdc">    795.40239325 </i>
    <i name="pawaedc">   -571.86712562 </i>
    <i name="eentropy">      0.00585886 </i>
    <i name="bandstr">   -149.71029178 </i>
    <i name="atom">    374.76708025 </i>
    <i name="e_fr_energy">    -17.80173185 </i>
    <i name="e_wo_entrp">    -17.80759071 </i>
    <i name="e_0_energy">    -17.80368480 </i>
   </energy>
  </scstep>
  <structure>
   <crystal>
    <varray name="basis" >
     <v>      24.59523048       0.00000000       0.00000000 </v>
     <v>       0.00000000      22.35452683       0.00000000 </v>
     <v>       0.00000000       0.00000000      19.85333579 </v>
    </varray>
    <i name="volume">  10915.65664669 </i>
    <varray name="rec_basis" >
     <v>       0.04065829       0.00000000       0.00000000 </v>
     <v>       0.00000000       0.04473367       0.00000000 </v>
     <v>       0.00000000       0.00000000       0.05036937 </v>
    </varray>
   </crystal>
   <varray name="positions" >
    <v>       0.42784272       0.52882987       0.55457488 </v>
    <v>       0.50120147       0.44866316       0.51647131 </v>
    <v>       0.57630160       0.58950102       0.45726470 </v>
    <v>       0.55179621       0.47983102       0.40773406 </v>
    <v>       0.47672360       0.55593979       0.43938485 </v>
    <v>       0.59919224       0.48920674       0.53152201 </v>
    <v>       0.52883989       0.56744486       0.57093367 </v>
   </varray>
  </structure>
  <varray name="forces" >
   <v>      -0.02004204      -0.00080941       0.00079637 </v>
   <v>       0.00563430       0.03443552       0.01692912 </v>
   <v>       0.03136442      -0.03029041       0.00242841 </v>
   <v>       0.04361072      -0.00019083      -0.00548604 </v>
   <v>      -0.02991278      -0.00264742       0.02965174 </v>
   <v>      -0.00666022       0.00322290      -0.04478354 </v>
   <v>      -0.02399441      -0.00372035       0.00046392 </v>
  </varray>
  <energy>
   <i name="e_fr_energy">    -17.80173185 </i>
   <i name="e_wo_entrp">    -17.80759071 </i>
   <i name="e_0_energy">    -17.80368480 </i>
  </energy>
  <time name="totalsc">  176.57  177.59</time>
 </calculation>
 <calculation>
  <scstep>
   <time name="dav">    1.52    1.53</time>
   <time name="total">    5.53    5.55</time>
   <energy>
    <i name="alphaZ">     -0.01507758 </i>
    <i name="ewald">    517.34321901 </i>
    <i name="hartreedc">   -794.71449366 </i>
    <i name="XCdc">   -188.99838777 </i>
    <i name="pawpsdc">    795.41184918 </i>
    <i name="pawaedc">   -571.87658155 </i>
    <i name="eentropy">      0.00585553 </i>
    <i name="bandstr">   -149.72562671 </i>
    <i name="atom">    374.76708025 </i>
    <i name="e_fr_energy">    -17.80216330 </i>
    <i name="e_wo_entrp">    -17.80801883 </i>
    <i name="e_0_energy">    -17.80411515 </i>
   </energy>
  </scstep>
  <scstep>
   <time name="dav">    1.26    1.26</time>
   <time name="total">    4.77    4.79</time>
   <energy>
    <i name="alphaZ">     -0.01507758 </i>
    <i name="ewald">    517.34321901 </i>
    <i name="hartreedc">   -794.71736322 </i>
    <i name="XCdc">   -188.99824340 </i>
    <i name="pawpsdc">    795.62754067 </i>
    <i name="pawaedc">   -572.09229236 </i>
    <i name="eentropy">      0.00585458 </i>
    <i name="bandstr">   -149.72289448 </i>
    <i name="atom">    374.76708025 </i>
    <i name="e_fr_energy">    -17.80217654 </i>
    <i name="e_wo_entrp">    -17.80803111 </i>
    <i name="e_0_energy">    -17.80412806 </i>
   </energy>
  </scstep>
  <structure>
   <crystal>
    <varray name="basis" >
     <v>      24.59523048       0.00000000       0.00000000 </v>
     <v>       0.00000000      22.35452683       0.00000000 </v>
     <v>       0.00000000       0.00000000      19.85333579 </v>
    </varray>
    <i name="volume">  10915.65664669 </i>
    <varray name="rec_basis" >
     <v>       0.04065829       0.00000000       0.00000000 </v>
     <v>       0.00000000       0.04473367       0.00000000 </v>
     <v>       0.00000000       0.00000000       0.05036937 </v>
    </varray>
   </crystal>
   <varray name="positions" >
    <v>       0.42780341       0.52882813       0.55457681 </v>
    <v>       0.50121252       0.44873748       0.51651244 </v>
    <v>       0.57636312       0.58943565       0.45727060 </v>
    <v>       0.55188175       0.47983061       0.40772073 </v>
    <v>       0.47666492       0.55593408       0.43945690 </v>
    <v>       0.59917918       0.48921369       0.53141319 </v>
    <v>       0.52879283       0.56743683       0.57093480 </v>
   </varray>
  </structure>
  <varray name="forces" >
   <v>      -0.02063696      -0.00140271       0.00301134 </v>
   <v>       0.00631450       0.02654926       0.01152548 </v>
   <v>       0.01845219      -0.02112577       0.00376562 </v>
   <v>       0.02480555       0.00137337      -0.00451316 </v>
   <v>      -0.01180329      -0.00444901       0.01795833 </v>
   <v>      -0.00385507       0.00218942      -0.02973783 </v>
   <v>      -0.01327693      -0.00313456      -0.00200978 </v>
  </varray>
  <energy>
   <i name="e_fr_energy">    -17.80217654 </i>
   <i name="e_wo_entrp">    -17.80803111 </i>
   <i name="e_0_energy">    -17.80412806 </i>
  </energy>
  <time name="totalsc">   18.27   18.34</time>
 </calculation>
 <calculation>
  <scstep>
   <time name="dav">    1.73    1.73</time>
   <time name="total">    5.67    5.68</time>
   <energy>
    <i name="alphaZ">     -0.01507758 </i>
    <i name="ewald">    517.49339424 </i>
    <i name="hartreedc">   -794.84721728 </i>
    <i name="XCdc">   -188.99466428 </i>
    <i name="pawpsdc">    795.74281406 </i>
    <i name="pawaedc">   -572.20755680 </i>
    <i name="eentropy">      0.00584978 </i>
    <i name="bandstr">   -149.74707190 </i>
    <i name="atom">    374.76708025 </i>
    <i name="e_fr_energy">    -17.80244950 </i>
    <i name="e_wo_entrp">    -17.80829928 </i>
    <i name="e_0_energy">    -17.80439943 </i>
   </energy>
  </scstep>
  <scstep>
   <time name="dav">    1.73    1.74</time>
   <time name="total">    4.84    4.85</time>
   <energy>
    <i name="alphaZ">     -0.01507758 </i>
    <i name="ewald">    517.49339424 </i>
    <i name="hartreedc">   -794.85230148 </i>
    <i name="XCdc">   -188.99440496 </i>
    <i name="pawpsdc">    796.13739130 </i>
    <i name="pawaedc">   -572.60216045 </i>
    <i name="eentropy">      0.00584815 </i>
    <i name="bandstr">   -149.74224148 </i>
    <i name="atom">    374.76708025 </i>
    <i name="e_fr_energy">    -17.80247201 </i>
    <i name="e_wo_entrp">    -17.80832016 </i>
    <i name="e_0_energy">    -17.80442139 </i>
   </energy>
  </scstep>
  <structure>
   <crystal>
    <varray name="basis" >
     <v>      24.59523048       0.00000000       0.00000000 </v>
     <v>       0.00000000      22.35452683       0.00000000 </v>
     <v>       0.00000000       0.00000000      19.85333579 </v>
    </varray>
    <i name="volume">  10915.65664669 </i>
    <varray name="rec_basis" >
     <v>       0.04065829       0.00000000       0.00000000 </v>
     <v>       0.00000000       0.04473367       0.00000000 </v>
     <v>       0.00000000       0.00000000       0.05036937 </v>
    </varray>
   </crystal>
   <varray name="positions" >
    <v>       0.42773430       0.52882506       0.55458021 </v>
    <v>       0.50123195       0.44886813       0.51658476 </v>
    <v>       0.57647128       0.58932073       0.45728098 </v>
    <v>       0.55203213       0.47982989       0.40769730 </v>
    <v>       0.47656178       0.55592403       0.43958357 </v>
    <v>       0.59915621       0.48922592       0.53122188 </v>
    <v>       0.52871009       0.56742272       0.57093678 </v>
   </varray>
  </structure>
  <varray name="forces" >
   <v>      -0.02133615      -0.00265439       0.00701630 </v>
   <v>       0.00647489       0.01269042       0.00236391 </v>
   <v>      -0.00322419      -0.00554185       0.00574828 </v>
   <v>      -0.00672709       0.00408370      -0.00416841 </v>
   <v>       0.01835870      -0.00758283      -0.00120605 </v>
   <v>       0.00232798       0.00015225      -0.00434374 </v>
   <v>       0.00412586      -0.00114730      -0.00541029 </v>
  </varray>
  <energy>
   <i name="e_fr_energy">    -17.80247201 </i>
   <i name="e_wo_entrp">    -17.80832016 </i>
   <i name="e_0_energy">    -17.80442139 </i>
  </energy>
  <time name="totalsc">   17.65   17.72</time>
  <eigenvalues>
   <array>
    <dimension dim="1">band</dimension>
    <dimension dim="2">kpoint</dimension>
    <dimension dim="3">spin</dimension>
    <field>eigene</field>
    <field>occ</field>
    <set>
     <set comment="spin 1">
      <set comment="kpoint 1">
       <r>  -12.3332    1.0000 </r>
       <r>   -9.7026    1.0000 </r>
       <r>   -8.8760    1.0000 </r>
       <r>   -8.8637    1.0000 </r>
       <r>   -6.6414    1.0000 </r>
       <r>   -5.9837    1.0000 </r>
       <r>   -5.9707    1.0000 </r>
       <r>   -5.0368    1.0000 </r>
       <r>   -4.9511    1.0000 </r>
       <r>   -4.9492    1.0000 </r>
       <r>   -4.1812    1.0001 </r>
       <r>   -3.3484   -0.0000 </r>
       <r>   -3.3260   -0.0000 </r>
       <r>   -3.0018   -0.0000 </r>
       <r>   -2.3508   -0.0000 </r>
       <r>   -2.3329   -0.0000 </r>
       <r>   -1.6177   -0.0000 </r>
       <r>   -0.8364   -0.0000 </r>
      </set>
     </set>
     <set comment="spin 2">
      <set comment="kpoint 1">
       <r>  -12.2224    1.0000 </r>
       <r>   -9.4809    1.0000 </r>
       <r>   -8.8261    1.0000 </r>
       <r>   -8.8153    1.0000 </r>
       <r>   -6.2796    1.0000 </r>
       <r>   -5.9121    1.0000 </r>
       <r>   -5.9037    1.0000 </r>
       <r>   -4.9909    1.0000 </r>
       <r>   -4.9121    1.0000 </r>
       <r>   -4.9096    1.0000 </r>
       <r>   -3.3822   -0.0000 </r>
       <r>   -3.2122   -0.0000 </r>
       <r>   -3.2042   -0.0000 </r>
       <r>   -2.9438   -0.0000 </r>
       <r>   -2.2553   -0.0000 </r>
       <r>   -2.2423   -0.0000 </r>
       <r>   -1.6166   -0.0000 </r>
       <r>   -0.7914   -0.0000 </r>
      </set>
     </set>
    </set>
   </array>
  </eigenvalues>
  <separator name="orbital magnetization" >
   <v name="MAGDIPOLOUT">      0.00000000      0.00000000      0.00000000</v>
  </separator>
  <dos>
   <i name="efermi">     -4.01276223 </i>
   <total>
    <array>
     <dimension dim="1">gridpoints</dimension>
     <dimension dim="2">spin</dimension>
     <field>energy</field>
     <field>total</field>
     <field>integrated</field>
     <set>
      <set comment="spin 1">
       <r>   -14.3332     0.0000     0.0000 </r>
       <r>   -14.2814     0.0000     0.0000 </r>
       <r>   -14.2296     0.0000     0.0000 </r>
       <r>   -14.1778     0.0000     0.0000 </r>
       <r>   -14.1260     0.0000     0.0000 </r>
       <r>   -14.0742     0.0000     0.0000 </r>
       <r>   -14.0224     0.0000     0.0000 </r>
       <r>   -13.9706    -0.0000    -0.0000 </r>
       <r>   -13.9188    -0.0000    -0.0000 </r>
       <r>   -13.8670    -0.0000    -0.0000 </r>
       <r>   -13.8151    -0.0000    -0.0000 </r>
       <r>   -13.7633    -0.0000    -0.0000 </r>
       <r>   -13.7115    -0.0000    -0.0000 </r>
       <r>   -13.6597    -0.0000    -0.0000 </r>
       <r>   -13.6079    -0.0000    -0.0000 </r>
       <r>   -13.5561    -0.0000    -0.0000 </r>
       <r>   -13.5043    -0.0000    -0.0000 </r>
       <r>   -13.4525    -0.0000    -0.0000 </r>
       <r>   -13.4007    -0.0000    -0.0000 </r>
       <r>   -13.3489    -0.0000    -0.0000 </r>
       <r>   -13.2971    -0.0000    -0.0000 </r>
       <r>   -13.2453    -0.0000    -0.0000 </r>
       <r>   -13.1935    -0.0000    -0.0000 </r>
       <r>   -13.1417    -0.0000    -0.0000 </r>
       <r>   -13.0899    -0.0000    -0.0000 </r>
       <r>   -13.0381    -0.0001    -0.0000 </r>
       <r>   -12.9863    -0.0003    -0.0000 </r>
       <r>   -12.9344    -0.0014    -0.0001 </r>
       <r>   -12.8826    -0.0052    -0.0004 </r>
       <r>   -12.8308    -0.0167    -0.0012 </r>
       <r>   -12.7790    -0.0452    -0.0036 </r>
       <r>   -12.7272    -0.1010    -0.0088 </r>
       <r>   -12.6754    -0.1790    -0.0181 </r>
       <r>   -12.6236    -0.2251    -0.0297 </r>
       <r>   -12.5718    -0.1075    -0.0353 </r>
       <r>   -12.5200     0.3561    -0.0168 </r>
       <r>   -12.4682     1.2746     0.0492 </r>
       <r>   -12.4164     2.5159     0.1795 </r>
       <r>   -12.3646     3.6583     0.3690 </r>
       <r>   -12.3128     4.1871     0.5860 </r>
       <r>   -12.2610     3.8359     0.7847 </r>
       <r>   -12.2092     2.7834     0.9289 </r>
       <r>   -12.1574     1.5202     1.0076 </r>
       <r>   -12.1056     0.5121     1.0342 </r>
       <r>   -12.0537    -0.0443     1.0319 </r>
       <r>   -12.0019    -0.2197     1.0205 </r>
       <r>   -11.9501    -0.1946     1.0104 </r>
       <r>   -11.8983    -0.1165     1.0044 </r>
       <r>   -11.8465    -0.0545     1.0016 </r>
       <r>   -11.7947    -0.0209     1.0005 </r>
       <r>   -11.7429    -0.0067     1.0001 </r>
       <r>   -11.6911    -0.0018     1.0000 </r>
       <r>   -11.6393    -0.0004     1.0000 </r>
       <r>   -11.5875    -0.0001     1.0000 </r>
       <r>   -11.5357    -0.0000     1.0000 </r>
       <r>   -11.4839    -0.0000     1.0000 </r>
       <r>   -11.4321    -0.0000     1.0000 </r>
       <r>   -11.3803    -0.0000     1.0000 </r>
       <r>   -11.3285    -0.0000     1.0000 </r>
       <r>   -11.2767    -0.0000     1.0000 </r>
       <r>   -11.2248    -0.0000     1.0000 </r>
       <r>   -11.1730    -0.0000     1.0000 </r>
       <r>   -11.1212    -0.0000     1.0000 </r>
       <r>   -11.0694    -0.0000     1.0000 </r>
       <r>   -11.0176    -0.0000     1.0000 </r>
       <r>   -10.9658    -0.0000     1.0000 </r>
       <r>   -10.9140    -0.0000     1.0000 </r>
       <r>   -10.8622    -0.0000     1.0000 </r>
       <r>   -10.8104    -0.0000     1.0000 </r>
       <r>   -10.7586    -0.0000     1.0000 </r>
       <r>   -10.7068    -0.0000     1.0000 </r>
       <r>   -10.6550    -0.0000     1.0000 </r>
       <r>   -10.6032    -0.0000     1.0000 </r>
       <r>   -10.5514    -0.0000     1.0000 </r>
       <r>   -10.4996    -0.0000     1.0000 </r>
       <r>   -10.4478    -0.0000     1.0000 </r>
       <r>   -10.3960    -0.0001     1.0000 </r>
       <r>   -10.3441    -0.0004     1.0000 </r>
       <r>   -10.2923    -0.0019     0.9999 </r>
       <r>   -10.2405    -0.0068     0.9995 </r>
       <r>   -10.1887    -0.0211     0.9984 </r>
       <r>   -10.1369    -0.0550     0.9956 </r>
       <r>   -10.0851    -0.1173     0.9895 </r>
       <r>   -10.0333    -0.1953     0.9794 </r>
       <r>    -9.9815    -0.2193     0.9680 </r>
       <r>    -9.9297    -0.0407     0.9659 </r>
       <r>    -9.8779     0.5204     0.9929 </r>
       <r>    -9.8261     1.5328     1.0723 </r>
       <r>    -9.7743     2.7966     1.2172 </r>
       <r>    -9.7225     3.8440     1.4163 </r>
       <r>    -9.6707     4.1860     1.6332 </r>
       <r>    -9.6189     3.6486     1.8222 </r>
       <r>    -9.5671     2.5022     1.9518 </r>
       <r>    -9.5153     1.2619     2.0172 </r>
       <r>    -9.4634     0.3455     2.0351 </r>
       <r>    -9.4116    -0.1227     2.0287 </r>
       <r>    -9.3598    -0.2644     2.0150 </r>
       <r>    -9.3080    -0.2816     2.0004 </r>
       <r>    -9.2562    -0.3240     1.9837 </r>
       <r>    -9.2044    -0.4242     1.9617 </r>
       <r>    -9.1526    -0.4582     1.9379 </r>
       <r>    -9.1008    -0.1300     1.9312 </r>
       <r>    -9.0490     0.9309     1.9794 </r>
       <r>    -8.9972     2.8931     2.1293 </r>
       <r>    -8.9454     5.4042     2.4093 </r>
       <r>    -8.8936     7.5610     2.8010 </r>
       <r>    -8.8418     8.3698     3.2346 </r>
       <r>    -8.7900     7.4207     3.6190 </r>
       <r>    -8.7382     5.1929     3.8881 </r>
       <r>    -8.6864     2.6992     4.0279 </r>
       <r>    -8.6345     0.8087     4.0698 </r>
       <r>    -8.5827    -0.1751     4.0607 </r>
       <r>    -8.5309    -0.4461     4.0376 </r>
       <r>    -8.4791    -0.3673     4.0186 </r>
       <r>    -8.4273    -0.2115     4.0076 </r>
       <r>    -8.3755    -0.0961     4.0026 </r>
       <r>    -8.3237    -0.0359     4.0008 </r>
       <r>    -8.2719    -0.0113     4.0002 </r>
       <r>    -8.2201    -0.0030     4.0000 </r>
       <r>    -8.1683    -0.0007     4.0000 </r>
       <r>    -8.1165    -0.0001     4.0000 </r>
       <r>    -8.0647    -0.0000     4.0000 </r>
       <r>    -8.0129    -0.0000     4.0000 </r>
       <r>    -7.9611    -0.0000     4.0000 </r>
       <r>    -7.9093    -0.0000     4.0000 </r>
       <r>    -7.8575    -0.0000     4.0000 </r>
       <r>    -7.8057    -0.0000     4.0000 </r>
       <r>    -7.7538    -0.0000     4.0000 </r>
       <r>    -7.7020    -0.0000     4.0000 </r>
       <r>    -7.6502    -0.0000     4.0000 </r>
       <r>    -7.5984    -0.0000     4.0000 </r>
       <r>    -7.5466    -0.0000     4.0000 </r>
       <r>    -7.4948    -0.0000     4.0000 </r>
       <r>    -7.4430    -0.0000     4.0000 </r>
       <r>    -7.3912    -0.0000     4.0000 </r>
       <r>    -7.3394    -0.0001     4.0000 </r>
       <r>    -7.2876    -0.0004     4.0000 </r>
       <r>    -7.2358    -0.0016     3.9999 </r>
       <r>    -7.1840    -0.0061     3.9996 </r>
       <r>    -7.1322    -0.0192     3.9986 </r>
       <r>    -7.0804    -0.0508     3.9959 </r>
       <r>    -7.0286    -0.1106     3.9902 </r>
       <r>    -6.9768    -0.1889     3.9804 </r>
       <r>    -6.9250    -0.2227     3.9689 </r>
       <r>    -6.8731    -0.0699     3.9653 </r>
       <r>    -6.8213     0.4512     3.9887 </r>
       <r>    -6.7695     1.4267     4.0626 </r>
       <r>    -6.7177     2.6841     4.2016 </r>
       <r>    -6.6659     3.7729     4.3971 </r>
       <r>    -6.6141     4.1909     4.6142 </r>
       <r>    -6.5623     3.7240     4.8071 </r>
       <r>    -6.5105     2.6014     4.9419 </r>
       <r>    -6.4587     1.3181     5.0102 </r>
       <r>    -6.4069     0.2928     5.0253 </r>
       <r>    -6.3551    -0.3344     5.0080 </r>
       <r>    -6.3033    -0.6257     4.9756 </r>
       <r>    -6.2515    -0.6100     4.9440 </r>
       <r>    -6.1997    -0.1168     4.9379 </r>
       <r>    -6.1479     1.1463     4.9973 </r>
       <r>    -6.0961     3.2687     5.1667 </r>
       <r>    -6.0443     5.8055     5.4674 </r>
       <r>    -5.9924     7.8047     5.8718 </r>
       <r>    -5.9406     8.3305     6.3033 </r>
       <r>    -5.8888     7.1178     6.6721 </r>
       <r>    -5.8370     4.7733     6.9194 </r>
       <r>    -5.7852     2.3323     7.0402 </r>
       <r>    -5.7334     0.5863     7.0706 </r>
       <r>    -5.6816    -0.2590     7.0571 </r>
       <r>    -5.6298    -0.4497     7.0338 </r>
       <r>    -5.5780    -0.3496     7.0157 </r>
       <r>    -5.5262    -0.2137     7.0047 </r>
       <r>    -5.4744    -0.1535     6.9967 </r>
       <r>    -5.4226    -0.1980     6.9865 </r>
       <r>    -5.3708    -0.3372     6.9690 </r>
       <r>    -5.3190    -0.5001     6.9431 </r>
       <r>    -5.2672    -0.4853     6.9179 </r>
       <r>    -5.2154     0.0726     6.9217 </r>
       <r>    -5.1635     1.5864     7.0039 </r>
       <r>    -5.1117     4.2114     7.2221 </r>
       <r>    -5.0599     7.5111     7.6112 </r>
       <r>    -5.0081    10.4252     8.1513 </r>
       <r>    -4.9563    11.7410     8.7595 </r>
       <r>    -4.9045    10.8340     9.3208 </r>
       <r>    -4.8527     8.1041     9.7406 </r>
       <r>    -4.8009     4.7164     9.9850 </r>
       <r>    -4.7491     1.8606    10.0814 </r>
       <r>    -4.6973     0.1341    10.0883 </r>
       <r>    -4.6455    -0.5483    10.0599 </r>
       <r>    -4.5937    -0.6257    10.0275 </r>
       <r>    -4.5419    -0.5123    10.0010 </r>
       <r>    -4.4901    -0.4018     9.9801 </r>
       <r>    -4.4383    -0.2550     9.9669 </r>
       <r>    -4.3865     0.1147     9.9729 </r>
       <r>    -4.3347     0.8889    10.0189 </r>
       <r>    -4.2828     2.0557    10.1254 </r>
       <r>    -4.2310     3.2960    10.2962 </r>
       <r>    -4.1792     4.0944    10.5083 </r>
       <r>    -4.1274     4.0603    10.7186 </r>
       <r>    -4.0756     3.2114    10.8850 </r>
       <r>    -4.0238     1.9610    10.9866 </r>
       <r>    -3.9720     0.8220    11.0292 </r>
       <r>    -3.9202     0.0979    11.0343 </r>
       <r>    -3.8684    -0.2063    11.0236 </r>
       <r>    -3.8166    -0.2649    11.0098 </r>
       <r>    -3.7648    -0.2687    10.9959 </r>
       <r>    -3.7130    -0.3286    10.9789 </r>
       <r>    -3.6612    -0.4351    10.9564 </r>
       <r>    -3.6094    -0.4237    10.9344 </r>
       <r>    -3.5576     0.0269    10.9358 </r>
       <r>    -3.5058     1.2628    11.0012 </r>
       <r>    -3.4540     3.3529    11.1749 </r>
       <r>    -3.4021     5.8087    11.4758 </r>
       <r>    -3.3503     7.6675    11.8731 </r>
       <r>    -3.2985     8.0611    12.2907 </r>
       <r>    -3.2467     6.8838    12.6473 </r>
       <r>    -3.1949     4.9445    12.9035 </r>
       <r>    -3.1431     3.3964    13.0794 </r>
       <r>    -3.0913     2.9093    13.2301 </r>
       <r>    -3.0395     3.2763    13.3999 </r>
       <r>    -2.9877     3.7249    13.5928 </r>
       <r>    -2.9359     3.5850    13.7786 </r>
       <r>    -2.8841     2.7369    13.9203 </r>
       <r>    -2.8323     1.5474    14.0005 </r>
       <r>    -2.7805     0.4790    14.0253 </r>
       <r>    -2.7287    -0.2319    14.0133 </r>
       <r>    -2.6769    -0.5927    13.9826 </r>
       <r>    -2.6251    -0.6426    13.9493 </r>
       <r>    -2.5732    -0.2506    13.9363 </r>
       <r>    -2.5214     0.8655    13.9812 </r>
       <r>    -2.4696     2.8532    14.1290 </r>
       <r>    -2.4178     5.3710    14.4072 </r>
       <r>    -2.3660     7.5332    14.7975 </r>
       <r>    -2.3142     8.3554    15.2304 </r>
       <r>    -2.2624     7.4255    15.6150 </r>
       <r>    -2.2106     5.2122    15.8851 </r>
       <r>    -2.1588     2.7189    16.0259 </r>
       <r>    -2.1070     0.8095    16.0679 </r>
       <r>    -2.0552    -0.2163    16.0566 </r>
       <r>    -2.0034    -0.5558    16.0278 </r>
       <r>    -1.9516    -0.5591    15.9989 </r>
       <r>    -1.8998    -0.4349    15.9763 </r>
       <r>    -1.8480    -0.1581    15.9682 </r>
       <r>    -1.7962     0.4367    15.9908 </r>
       <r>    -1.7444     1.4493    16.0659 </r>
       <r>    -1.6925     2.7177    16.2067 </r>
       <r>    -1.6407     3.7960    16.4033 </r>
       <r>    -1.5889     4.1907    16.6204 </r>
       <r>    -1.5371     3.7029    16.8123 </r>
       <r>    -1.4853     2.5793    16.9459 </r>
       <r>    -1.4335     1.3298    17.0148 </r>
       <r>    -1.3817     0.3854    17.0347 </r>
       <r>    -1.3299    -0.1122    17.0289 </r>
       <r>    -1.2781    -0.2730    17.0148 </r>
       <r>    -1.2263    -0.2895    16.9998 </r>
       <r>    -1.1745    -0.2896    16.9848 </r>
       <r>    -1.1227    -0.2712    16.9707 </r>
       <r>    -1.0709    -0.1032    16.9654 </r>
       <r>    -1.0191     0.4068    16.9865 </r>
       <r>    -0.9673     1.3639    17.0571 </r>
       <r>    -0.9155     2.6170    17.1927 </r>
       <r>    -0.8637     3.7286    17.3859 </r>
       <r>    -0.8118     4.1919    17.6030 </r>
       <r>    -0.7600     3.7727    17.7985 </r>
       <r>    -0.7082     2.6835    17.9375 </r>
       <r>    -0.6564     1.4261    18.0114 </r>
       <r>    -0.6046     0.4509    18.0347 </r>
       <r>    -0.5528    -0.0700    18.0311 </r>
       <r>    -0.5010    -0.2227    18.0196 </r>
       <r>    -0.4492    -0.1889    18.0098 </r>
       <r>    -0.3974    -0.1105    18.0041 </r>
       <r>    -0.3456    -0.0508    18.0014 </r>
       <r>    -0.2938    -0.0192    18.0004 </r>
       <r>    -0.2420    -0.0061    18.0001 </r>
       <r>    -0.1902    -0.0016    18.0000 </r>
       <r>    -0.1384    -0.0004    18.0000 </r>
       <r>    -0.0866    -0.0001    18.0000 </r>
       <r>    -0.0348    -0.0000    18.0000 </r>
       <r>     0.0170    -0.0000    18.0000 </r>
       <r>     0.0689    -0.0000    18.0000 </r>
       <r>     0.1207    -0.0000    18.0000 </r>
       <r>     0.1725    -0.0000    18.0000 </r>
       <r>     0.2243    -0.0000    18.0000 </r>
       <r>     0.2761    -0.0000    18.0000 </r>
       <r>     0.3279    -0.0000    18.0000 </r>
       <r>     0.3797    -0.0000    18.0000 </r>
       <r>     0.4315    -0.0000    18.0000 </r>
       <r>     0.4833     0.0000    18.0000 </r>
       <r>     0.5351     0.0000    18.0000 </r>
       <r>     0.5869     0.0000    18.0000 </r>
       <r>     0.6387     0.0000    18.0000 </r>
       <r>     0.6905     0.0000    18.0000 </r>
       <r>     0.7423     0.0000    18.0000 </r>
       <r>     0.7941     0.0000    18.0000 </r>
       <r>     0.8459     0.0000    18.0000 </r>
       <r>     0.8978     0.0000    18.0000 </r>
       <r>     0.9496     0.0000    18.0000 </r>
       <r>     1.0014     0.0000    18.0000 </r>
       <r>     1.0532     0.0000    18.0000 </r>
       <r>     1.1050     0.0000    18.0000 </r>
       <r>     1.1568     0.0000    18.0000 </r>
       <r>     1.2086     0.0000    18.0000 </r>
      </set>
      <set comment="spin 2">
       <r>   -14.3332     0.0000     0.0000 </r>
       <r>   -14.2814     0.0000     0.0000 </r>
       <r>   -14.2296     0.0000     0.0000 </r>
       <r>   -14.1778     0.0000     0.0000 </r>
       <r>   -14.1260     0.0000     0.0000 </r>
       <r>   -14.0742     0.0000     0.0000 </r>
       <r>   -14.0224     0.0000     0.0000 </r>
       <r>   -13.9706     0.0000     0.0000 </r>
       <r>   -13.9188     0.0000     0.0000 </r>
       <r>   -13.8670    -0.0000    -0.0000 </r>
       <r>   -13.8151    -0.0000    -0.0000 </r>
       <r>   -13.7633    -0.0000    -0.0000 </r>
       <r>   -13.7115    -0.0000    -0.0000 </r>
       <r>   -13.6597    -0.0000    -0.0000 </r>
       <r>   -13.6079    -0.0000    -0.0000 </r>
       <r>   -13.5561    -0.0000    -0.0000 </r>
       <r>   -13.5043    -0.0000    -0.0000 </r>
       <r>   -13.4525    -0.0000    -0.0000 </r>
       <r>   -13.4007    -0.0000    -0.0000 </r>
       <r>   -13.3489    -0.0000    -0.0000 </r>
       <r>   -13.2971    -0.0000    -0.0000 </r>
       <r>   -13.2453    -0.0000    -0.0000 </r>
       <r>   -13.1935    -0.0000    -0.0000 </r>
       <r>   -13.1417    -0.0000    -0.0000 </r>
       <r>   -13.0899    -0.0000    -0.0000 </r>
       <r>   -13.0381    -0.0000    -0.0000 </r>
       <r>   -12.9863    -0.0000    -0.0000 </r>
       <r>   -12.9344    -0.0000    -0.0000 </r>
       <r>   -12.8826    -0.0002    -0.0000 </r>
       <r>   -12.8308    -0.0011    -0.0001 </r>
       <r>   -12.7790    -0.0043    -0.0003 </r>
       <r>   -12.7272    -0.0143    -0.0010 </r>
       <r>   -12.6754    -0.0398    -0.0031 </r>
       <r>   -12.6236    -0.0915    -0.0078 </r>
       <r>   -12.5718    -0.1681    -0.0165 </r>
       <r>   -12.5200    -0.2246    -0.0282 </r>
       <r>   -12.4682    -0.1404    -0.0355 </r>
       <r>   -12.4164     0.2652    -0.0217 </r>
       <r>   -12.3646     1.1215     0.0364 </r>
       <r>   -12.3128     2.3374     0.1575 </r>
       <r>   -12.2610     3.5257     0.3401 </r>
       <r>   -12.2092     4.1647     0.5559 </r>
       <r>   -12.1574     3.9353     0.7598 </r>
       <r>   -12.1056     2.9547     0.9128 </r>
       <r>   -12.0537     1.6887     1.0003 </r>
       <r>   -12.0019     0.6262     1.0327 </r>
       <r>   -11.9501     0.0066     1.0331 </r>
       <r>   -11.8983    -0.2116     1.0221 </r>
       <r>   -11.8465    -0.2037     1.0116 </r>
       <r>   -11.7947    -0.1272     1.0050 </r>
       <r>   -11.7429    -0.0613     1.0018 </r>
       <r>   -11.6911    -0.0241     1.0006 </r>
       <r>   -11.6393    -0.0079     1.0001 </r>
       <r>   -11.5875    -0.0022     1.0000 </r>
       <r>   -11.5357    -0.0005     1.0000 </r>
       <r>   -11.4839    -0.0001     1.0000 </r>
       <r>   -11.4321    -0.0000     1.0000 </r>
       <r>   -11.3803    -0.0000     1.0000 </r>
       <r>   -11.3285    -0.0000     1.0000 </r>
       <r>   -11.2767    -0.0000     1.0000 </r>
       <r>   -11.2248    -0.0000     1.0000 </r>
       <r>   -11.1730    -0.0000     1.0000 </r>
       <r>   -11.1212    -0.0000     1.0000 </r>
       <r>   -11.0694    -0.0000     1.0000 </r>
       <r>   -11.0176    -0.0000     1.0000 </r>
       <r>   -10.9658    -0.0000     1.0000 </r>
       <r>   -10.9140    -0.0000     1.0000 </r>
       <r>   -10.8622    -0.0000     1.0000 </r>
       <r>   -10.8104    -0.0000     1.0000 </r>
       <r>   -10.7586    -0.0000     1.0000 </r>
       <r>   -10.7068    -0.0000     1.0000 </r>
       <r>   -10.6550    -0.0000     1.0000 </r>
       <r>   -10.6032    -0.0000     1.0000 </r>
       <r>   -10.5514    -0.0000     1.0000 </r>
       <r>   -10.4996    -0.0000     1.0000 </r>
       <r>   -10.4478    -0.0000     1.0000 </r>
       <r>   -10.3960    -0.0000     1.0000 </r>
       <r>   -10.3441    -0.0000     1.0000 </r>
       <r>   -10.2923    -0.0000     1.0000 </r>
       <r>   -10.2405    -0.0000     1.0000 </r>
       <r>   -10.1887    -0.0001     1.0000 </r>
       <r>   -10.1369    -0.0003     1.0000 </r>
       <r>   -10.0851    -0.0013     0.9999 </r>
       <r>   -10.0333    -0.0048     0.9997 </r>
       <r>    -9.9815    -0.0157     0.9989 </r>
       <r>    -9.9297    -0.0429     0.9966 </r>
       <r>    -9.8779    -0.0971     0.9916 </r>
       <r>    -9.8261    -0.1746     0.9826 </r>
       <r>    -9.7743    -0.2252     0.9709 </r>
       <r>    -9.7225    -0.1218     0.9646 </r>
       <r>    -9.6707     0.3176     0.9810 </r>
       <r>    -9.6189     1.2108     1.0438 </r>
       <r>    -9.5671     2.4426     1.1703 </r>
       <r>    -9.5153     3.6050     1.3571 </r>
       <r>    -9.4634     4.1792     1.5736 </r>
       <r>    -9.4116     3.8749     1.7743 </r>
       <r>    -9.3598     2.8410     1.9215 </r>
       <r>    -9.3080     1.5474     2.0017 </r>
       <r>    -9.2562     0.4498     2.0250 </r>
       <r>    -9.2044    -0.2556     2.0117 </r>
       <r>    -9.1526    -0.6037     1.9805 </r>
       <r>    -9.1008    -0.6369     1.9475 </r>
       <r>    -9.0490    -0.2138     1.9364 </r>
       <r>    -8.9972     0.9522     1.9857 </r>
       <r>    -8.9454     2.9912     2.1407 </r>
       <r>    -8.8936     5.5260     2.4270 </r>
       <r>    -8.8418     7.6427     2.8229 </r>
       <r>    -8.7900     8.3662     3.2563 </r>
       <r>    -8.7382     7.3324     3.6362 </r>
       <r>    -8.6864     5.0629     3.8985 </r>
       <r>    -8.6345     2.5814     4.0322 </r>
       <r>    -8.5827     0.7348     4.0703 </r>
       <r>    -8.5309    -0.2045     4.0597 </r>
       <r>    -8.4791    -0.4482     4.0365 </r>
       <r>    -8.4273    -0.3596     4.0178 </r>
       <r>    -8.3755    -0.2041     4.0072 </r>
       <r>    -8.3237    -0.0917     4.0025 </r>
       <r>    -8.2719    -0.0340     4.0007 </r>
       <r>    -8.2201    -0.0106     4.0002 </r>
       <r>    -8.1683    -0.0028     4.0000 </r>
       <r>    -8.1165    -0.0006     4.0000 </r>
       <r>    -8.0647    -0.0001     4.0000 </r>
       <r>    -8.0129    -0.0000     4.0000 </r>
       <r>    -7.9611    -0.0000     4.0000 </r>
       <r>    -7.9093    -0.0000     4.0000 </r>
       <r>    -7.8575    -0.0000     4.0000 </r>
       <r>    -7.8057    -0.0000     4.0000 </r>
       <r>    -7.7538    -0.0000     4.0000 </r>
       <r>    -7.7020    -0.0000     4.0000 </r>
       <r>    -7.6502    -0.0000     4.0000 </r>
       <r>    -7.5984    -0.0000     4.0000 </r>
       <r>    -7.5466    -0.0000     4.0000 </r>
       <r>    -7.4948    -0.0000     4.0000 </r>
       <r>    -7.4430    -0.0000     4.0000 </r>
       <r>    -7.3912    -0.0000     4.0000 </r>
       <r>    -7.3394    -0.0000     4.0000 </r>
       <r>    -7.2876    -0.0000     4.0000 </r>
       <r>    -7.2358    -0.0000     4.0000 </r>
       <r>    -7.1840    -0.0000     4.0000 </r>
       <r>    -7.1322    -0.0000     4.0000 </r>
       <r>    -7.0804    -0.0000     4.0000 </r>
       <r>    -7.0286    -0.0000     4.0000 </r>
       <r>    -6.9768    -0.0001     4.0000 </r>
       <r>    -6.9250    -0.0004     4.0000 </r>
       <r>    -6.8731    -0.0017     3.9999 </r>
       <r>    -6.8213    -0.0062     3.9996 </r>
       <r>    -6.7695    -0.0195     3.9986 </r>
       <r>    -6.7177    -0.0516     3.9959 </r>
       <r>    -6.6659    -0.1118     3.9901 </r>
       <r>    -6.6141    -0.1902     3.9802 </r>
       <r>    -6.5623    -0.2227     3.9687 </r>
       <r>    -6.5105    -0.0674     3.9652 </r>
       <r>    -6.4587     0.4536     3.9887 </r>
       <r>    -6.4069     1.4135     4.0619 </r>
       <r>    -6.3551     2.6164     4.1975 </r>
       <r>    -6.3033     3.5879     4.3833 </r>
       <r>    -6.2515     3.8377     4.5822 </r>
       <r>    -6.1997     3.2647     4.7513 </r>
       <r>    -6.1479     2.3696     4.8741 </r>
       <r>    -6.0961     2.0252     4.9790 </r>
       <r>    -6.0443     2.8921     5.1288 </r>
       <r>    -5.9924     4.8728     5.3812 </r>
       <r>    -5.9406     7.0393     5.7459 </r>
       <r>    -5.8888     8.1786     6.1696 </r>
       <r>    -5.8370     7.6017     6.5634 </r>
       <r>    -5.7852     5.5837     6.8527 </r>
       <r>    -5.7334     3.0879     7.0127 </r>
       <r>    -5.6816     1.0637     7.0678 </r>
       <r>    -5.6298    -0.0698     7.0642 </r>
       <r>    -5.5780    -0.4384     7.0415 </r>
       <r>    -5.5262    -0.4016     7.0206 </r>
       <r>    -5.4744    -0.2667     7.0068 </r>
       <r>    -5.4226    -0.1937     6.9968 </r>
       <r>    -5.3708    -0.2343     6.9847 </r>
       <r>    -5.3190    -0.3784     6.9651 </r>
       <r>    -5.2672    -0.5352     6.9373 </r>
       <r>    -5.2154    -0.4672     6.9131 </r>
       <r>    -5.1635     0.2289     6.9250 </r>
       <r>    -5.1117     1.9663     7.0269 </r>
       <r>    -5.0599     4.8220     7.2767 </r>
       <r>    -5.0081     8.2128     7.7021 </r>
       <r>    -4.9563    10.9553     8.2697 </r>
       <r>    -4.9045    11.8545     8.8838 </r>
       <r>    -4.8527    10.4704     9.4262 </r>
       <r>    -4.8009     7.4343     9.8114 </r>
       <r>    -4.7491     4.0246    10.0199 </r>
       <r>    -4.6973     1.3661    10.0907 </r>
       <r>    -4.6455    -0.0990    10.0855 </r>
       <r>    -4.5937    -0.5735    10.0558 </r>
       <r>    -4.5419    -0.5196    10.0289 </r>
       <r>    -4.4901    -0.3182    10.0124 </r>
       <r>    -4.4383    -0.1524    10.0045 </r>
       <r>    -4.3865    -0.0600    10.0014 </r>
       <r>    -4.3347    -0.0198    10.0004 </r>
       <r>    -4.2828    -0.0056    10.0001 </r>
       <r>    -4.2310    -0.0013    10.0000 </r>
       <r>    -4.1792    -0.0003    10.0000 </r>
       <r>    -4.1274    -0.0001    10.0000 </r>
       <r>    -4.0756    -0.0001    10.0000 </r>
       <r>    -4.0238    -0.0004    10.0000 </r>
       <r>    -3.9720    -0.0019     9.9999 </r>
       <r>    -3.9202    -0.0069     9.9995 </r>
       <r>    -3.8684    -0.0216     9.9984 </r>
       <r>    -3.8166    -0.0571     9.9954 </r>
       <r>    -3.7648    -0.1258     9.9889 </r>
       <r>    -3.7130    -0.2239     9.9773 </r>
       <r>    -3.6612    -0.2991     9.9618 </r>
       <r>    -3.6094    -0.2249     9.9502 </r>
       <r>    -3.5576     0.1816     9.9596 </r>
       <r>    -3.5058     1.0782    10.0154 </r>
       <r>    -3.4540     2.5029    10.1451 </r>
       <r>    -3.4021     4.3405    10.3700 </r>
       <r>    -3.3503     6.3483    10.6989 </r>
       <r>    -3.2985     8.1674    11.1220 </r>
       <r>    -3.2467     9.3319    11.6054 </r>
       <r>    -3.1949     9.4287    12.0939 </r>
       <r>    -3.1431     8.4186    12.5300 </r>
       <r>    -3.0913     6.8085    12.8827 </r>
       <r>    -3.0395     5.3562    13.1602 </r>
       <r>    -2.9877     4.4954    13.3931 </r>
       <r>    -2.9359     4.0510    13.6030 </r>
       <r>    -2.8841     3.5316    13.7859 </r>
       <r>    -2.8323     2.6505    13.9232 </r>
       <r>    -2.7805     1.5415    14.0031 </r>
       <r>    -2.7287     0.5446    14.0313 </r>
       <r>    -2.6769    -0.1214    14.0250 </r>
       <r>    -2.6251    -0.4722    14.0006 </r>
       <r>    -2.5732    -0.6199    13.9684 </r>
       <r>    -2.5214    -0.5570    13.9396 </r>
       <r>    -2.4696    -0.0527    13.9369 </r>
       <r>    -2.4178     1.2214    14.0001 </r>
       <r>    -2.3660     3.3554    14.1740 </r>
       <r>    -2.3142     5.8858    14.4789 </r>
       <r>    -2.2624     7.8484    14.8855 </r>
       <r>    -2.2106     8.3164    15.3163 </r>
       <r>    -2.1588     7.0497    15.6815 </r>
       <r>    -2.1070     4.6726    15.9236 </r>
       <r>    -2.0552     2.2123    16.0382 </r>
       <r>    -2.0034     0.4350    16.0607 </r>
       <r>    -1.9516    -0.4622    16.0368 </r>
       <r>    -1.8998    -0.6697    16.0021 </r>
       <r>    -1.8480    -0.4045    15.9812 </r>
       <r>    -1.7962     0.2728    15.9953 </r>
       <r>    -1.7444     1.3554    16.0655 </r>
       <r>    -1.6925     2.6649    16.2036 </r>
       <r>    -1.6407     3.7706    16.3989 </r>
       <r>    -1.5889     4.1894    16.6159 </r>
       <r>    -1.5371     3.7210    16.8087 </r>
       <r>    -1.4853     2.6066    16.9437 </r>
       <r>    -1.4335     1.3554    17.0140 </r>
       <r>    -1.3817     0.4045    17.0349 </r>
       <r>    -1.3299    -0.0947    17.0300 </r>
       <r>    -1.2781    -0.2450    17.0173 </r>
       <r>    -1.2263    -0.2389    17.0049 </r>
       <r>    -1.1745    -0.2226    16.9934 </r>
       <r>    -1.1227    -0.2427    16.9808 </r>
       <r>    -1.0709    -0.2377    16.9685 </r>
       <r>    -1.0191    -0.0500    16.9659 </r>
       <r>    -0.9673     0.5105    16.9924 </r>
       <r>    -0.9155     1.5198    17.0711 </r>
       <r>    -0.8637     2.7833    17.2153 </r>
       <r>    -0.8118     3.8359    17.4140 </r>
       <r>    -0.7600     4.1871    17.6310 </r>
       <r>    -0.7082     3.6583    17.8205 </r>
       <r>    -0.6564     2.5159    17.9508 </r>
       <r>    -0.6046     1.2746    18.0168 </r>
       <r>    -0.5528     0.3561    18.0353 </r>
       <r>    -0.5010    -0.1075    18.0297 </r>
       <r>    -0.4492    -0.2251    18.0181 </r>
       <r>    -0.3974    -0.1790    18.0088 </r>
       <r>    -0.3456    -0.1010    18.0036 </r>
       <r>    -0.2938    -0.0452    18.0012 </r>
       <r>    -0.2420    -0.0167    18.0004 </r>
       <r>    -0.1902    -0.0052    18.0001 </r>
       <r>    -0.1384    -0.0014    18.0000 </r>
       <r>    -0.0866    -0.0003    18.0000 </r>
       <r>    -0.0348    -0.0001    18.0000 </r>
       <r>     0.0170    -0.0000    18.0000 </r>
       <r>     0.0689    -0.0000    18.0000 </r>
       <r>     0.1207    -0.0000    18.0000 </r>
       <r>     0.1725    -0.0000    18.0000 </r>
       <r>     0.2243    -0.0000    18.0000 </r>
       <r>     0.2761    -0.0000    18.0000 </r>
       <r>     0.3279    -0.0000    18.0000 </r>
       <r>     0.3797    -0.0000    18.0000 </r>
       <r>     0.4315    -0.0000    18.0000 </r>
       <r>     0.4833     0.0000    18.0000 </r>
       <r>     0.5351     0.0000    18.0000 </r>
       <r>     0.5869     0.0000    18.0000 </r>
       <r>     0.6387     0.0000    18.0000 </r>
       <r>     0.6905     0.0000    18.0000 </r>
       <r>     0.7423     0.0000    18.0000 </r>
       <r>     0.7941     0.0000    18.0000 </r>
       <r>     0.8459     0.0000    18.0000 </r>
       <r>     0.8978     0.0000    18.0000 </r>
       <r>     0.9496     0.0000    18.0000 </r>
       <r>     1.0014     0.0000    18.0000 </r>
       <r>     1.0532     0.0000    18.0000 </r>
       <r>     1.1050     0.0000    18.0000 </r>
       <r>     1.1568     0.0000    18.0000 </r>
       <r>     1.2086     0.0000    18.0000 </r>
      </set>
     </set>
    </array>
   </total>
  </dos>
 </calculation>
 <structure name="finalpos" >
  <crystal>
   <varray name="basis" >
    <v>      24.59523048       0.00000000       0.00000000 </v>
    <v>       0.00000000      22.35452683       0.00000000 </v>
    <v>       0.00000000       0.00000000      19.85333579 </v>
   </varray>
   <i name="volume">  10915.65664669 </i>
   <varray name="rec_basis" >
    <v>       0.04065829       0.00000000       0.00000000 </v>
    <v>       0.00000000       0.04473367       0.00000000 </v>
    <v>       0.00000000       0.00000000       0.05036937 </v>
   </varray>
  </crystal>
  <varray name="positions" >
   <v>       0.42773430       0.52882506       0.55458021 </v>
   <v>       0.50123195       0.44886813       0.51658476 </v>
   <v>       0.57647128       0.58932073       0.45728098 </v>
   <v>       0.55203213       0.47982989       0.40769730 </v>
   <v>       0.47656178       0.55592403       0.43958357 </v>
   <v>       0.59915621       0.48922592       0.53122188 </v>
   <v>       0.52871009       0.56742272       0.57093678 </v>
  </varray>
 </structure>
</modeling>
