unknown system                          
            1
    24.595230    0.000000    0.000000
     0.000000   22.354527    0.000000
     0.000000    0.000000   19.853336
   Al
     7
Direct configuration=     1
   0.42784272  0.52882987  0.55457488
   0.50120147  0.44866316  0.51647131
   0.57630160  0.58950102  0.45726470
   0.55179621  0.47983102  0.40773406
   0.47672360  0.55593979  0.43938485
   0.59919224  0.48920674  0.53152201
   0.52883989  0.56744486  0.57093367
Direct configuration=     2
   0.42780341  0.52882813  0.55457681
   0.50121252  0.44873748  0.51651244
   0.57636312  0.58943565  0.45727060
   0.55188175  0.47983061  0.40772073
   0.47666492  0.55593408  0.43945690
   0.59917918  0.48921369  0.53141319
   0.52879283  0.56743683  0.57093480
Direct configuration=     3
   0.42773430  0.52882506  0.55458021
   0.50123195  0.44886813  0.51658476
   0.57647128  0.58932073  0.45728098
   0.55203213  0.47982989  0.40769730
   0.47656178  0.55592403  0.43958357
   0.59915621  0.48922592  0.53122188
   0.52871009  0.56742272  0.57093678
