  10  10   0   0
  0.1159636E+04  0.2208998E-08  0.2168724E-08  0.2420596E-08  0.5000000E-15
   1.0000000000000000E-004
  CAR 
 unknown system                          
      1.98088551    -11.93822954  301     -4.14633649      1.00000000
    -11.938  0.0000E+00  0.0000E+00  0.0000E+00  0.0000E+00
    -11.892  0.0000E+00  0.0000E+00  0.0000E+00  0.0000E+00
    -11.845  0.0000E+00  0.0000E+00  0.0000E+00  0.0000E+00
    -11.799  0.0000E+00  0.0000E+00  0.0000E+00  0.0000E+00
    -11.753  0.0000E+00  0.0000E+00  0.0000E+00  0.0000E+00
    -11.706  0.0000E+00  0.0000E+00  0.0000E+00  0.0000E+00
    -11.660  0.0000E+00  0.0000E+00  0.0000E+00  0.0000E+00
    -11.613  0.0000E+00  0.0000E+00  0.0000E+00  0.0000E+00
    -11.567 -0.7753E-30  0.0000E+00 -0.3597E-31  0.0000E+00
    -11.521 -0.3045E-28  0.0000E+00 -0.1449E-29  0.0000E+00
    -11.474 -0.1097E-26 -0.1914E-29 -0.5237E-28 -0.8881E-31
    -11.428 -0.3547E-25 -0.7319E-28 -0.1698E-26 -0.3485E-29
    -11.381 -0.1028E-23 -0.2569E-26 -0.4938E-25 -0.1227E-27
    -11.335 -0.2671E-22 -0.8087E-25 -0.1289E-23 -0.3875E-26
    -11.289 -0.6222E-21 -0.2282E-23 -0.3016E-22 -0.1098E-24
    -11.242 -0.1299E-19 -0.5776E-22 -0.6330E-21 -0.2790E-23
    -11.196 -0.2432E-18 -0.1311E-20 -0.1191E-19 -0.6360E-22
    -11.149 -0.4078E-17 -0.2665E-19 -0.2011E-18 -0.1300E-20
    -11.103 -0.5888E-16 -0.4858E-18 -0.2933E-17 -0.2384E-19
    -11.057 -0.7996E-15 -0.7933E-17 -0.4003E-16 -0.3919E-18
    -11.010 -0.9596E-14 -0.1125E-15 -0.4853E-15 -0.5611E-17
    -10.964 -0.1032E-12 -0.1472E-14 -0.5273E-14 -0.7391E-16
    -10.917 -0.9926E-12 -0.1722E-13 -0.5133E-13 -0.8729E-15
    -10.871 -0.8536E-11 -0.1803E-12 -0.4474E-12 -0.9236E-14
    -10.825 -0.6558E-10 -0.1688E-11 -0.3490E-11 -0.8753E-13
    -10.778 -0.4499E-09 -0.1412E-10 -0.2436E-10 -0.7428E-12
    -10.732 -0.2753E-08 -0.1056E-09 -0.1521E-09 -0.5641E-11
    -10.686 -0.1501E-07 -0.7045E-09 -0.8484E-09 -0.3833E-10
    -10.639 -0.7281E-07 -0.4193E-08 -0.4227E-08 -0.2329E-09
    -10.593 -0.3137E-06 -0.2223E-07 -0.1878E-07 -0.1264E-08
    -10.546 -0.1198E-05 -0.1048E-06 -0.7436E-07 -0.6127E-08
    -10.500 -0.4039E-05 -0.4387E-06 -0.2618E-06 -0.2648E-07
    -10.454 -0.1197E-04 -0.1626E-05 -0.8173E-06 -0.1019E-06
    -10.407 -0.3098E-04 -0.5317E-05 -0.2255E-05 -0.3486E-06
    -10.361 -0.6921E-04 -0.1526E-04 -0.5466E-05 -0.1057E-05
    -10.314 -0.1308E-03 -0.3816E-04 -0.1153E-04 -0.2827E-05
    -10.268 -0.2006E-03 -0.8206E-04 -0.2084E-04 -0.6635E-05
    -10.222 -0.2223E-03 -0.1482E-03 -0.3115E-04 -0.1351E-04
    -10.175 -0.8715E-04 -0.2135E-03 -0.3520E-04 -0.2342E-04
    -10.129  0.3387E-03 -0.2090E-03 -0.1948E-04 -0.3312E-04
    -10.082  0.1134E-02 -0.1551E-04  0.3314E-04 -0.3383E-04
    -10.036  0.2222E-02  0.4969E-03  0.1362E-03 -0.1078E-04
     -9.990  0.3326E-02  0.1378E-02  0.2906E-03  0.5314E-04
     -9.943  0.4065E-02  0.2501E-02  0.4792E-03  0.1692E-03
     -9.897  0.4143E-02  0.3553E-02  0.6714E-03  0.3340E-03
     -9.850  0.3527E-02  0.4151E-02  0.8350E-03  0.5266E-03
     -9.804  0.2467E-02  0.4052E-02  0.9495E-03  0.7146E-03
     -9.758  0.1347E-02  0.3297E-02  0.1012E-02  0.8676E-03
     -9.711  0.4764E-03  0.2188E-02  0.1034E-02  0.9691E-03
     -9.665 -0.2523E-04  0.1106E-02  0.1033E-02  0.1020E-02
     -9.618 -0.2112E-03  0.3210E-03  0.1023E-02  0.1035E-02
     -9.572 -0.2121E-03 -0.9467E-04  0.1013E-02  0.1031E-02
     -9.526 -0.1461E-03 -0.2232E-03  0.1006E-02  0.1021E-02
     -9.479 -0.8041E-04 -0.1988E-03  0.1003E-02  0.1011E-02
     -9.433 -0.3722E-04 -0.1287E-03  0.1001E-02  0.1005E-02
     -9.386 -0.1482E-04 -0.6774E-04  0.1000E-02  0.1002E-02
     -9.340 -0.5144E-05 -0.3019E-04  0.1000E-02  0.1001E-02
     -9.294 -0.1567E-05 -0.1162E-04  0.1000E-02  0.1000E-02
     -9.247 -0.4214E-06 -0.3904E-05  0.1000E-02  0.1000E-02
     -9.201 -0.1011E-06 -0.1154E-05  0.1000E-02  0.1000E-02
     -9.154 -0.2622E-07 -0.3010E-06  0.1000E-02  0.1000E-02
     -9.108 -0.3040E-07 -0.6962E-07  0.1000E-02  0.1000E-02
     -9.062 -0.1245E-06 -0.1430E-07  0.1000E-02  0.1000E-02
     -9.015 -0.5161E-06 -0.2614E-08  0.1000E-02  0.1000E-02
     -8.969 -0.1908E-05 -0.4281E-09  0.9999E-03  0.1000E-02
     -8.922 -0.6248E-05 -0.8111E-10  0.9996E-03  0.1000E-02
     -8.876 -0.1804E-04 -0.1496E-09  0.9988E-03  0.1000E-02
     -8.830 -0.4568E-04 -0.9302E-09  0.9966E-03  0.1000E-02
     -8.783 -0.1006E-03 -0.5440E-08  0.9920E-03  0.1000E-02
     -8.737 -0.1899E-03 -0.2837E-07  0.9832E-03  0.1000E-02
     -8.690 -0.2981E-03 -0.1317E-06  0.9693E-03  0.1000E-02
     -8.644 -0.3614E-03 -0.5426E-06  0.9526E-03  0.1000E-02
     -8.598 -0.2499E-03 -0.1981E-05  0.9410E-03  0.9999E-03
     -8.551  0.2142E-03 -0.6392E-05  0.9509E-03  0.9996E-03
     -8.505  0.1190E-02 -0.1814E-04  0.1006E-02  0.9987E-03
     -8.458  0.2722E-02 -0.4498E-04  0.1132E-02  0.9966E-03
     -8.412  0.4668E-02 -0.9652E-04  0.1349E-02  0.9922E-03
     -8.366  0.6708E-02 -0.1760E-03  0.1660E-02  0.9840E-03
     -8.319  0.8426E-02 -0.2629E-03  0.2051E-02  0.9718E-03
     -8.273  0.9429E-02 -0.2915E-03  0.2489E-02  0.9583E-03
     -8.226  0.9452E-02 -0.1444E-03  0.2927E-02  0.9516E-03
     -8.180  0.8447E-02  0.3187E-03  0.3319E-02  0.9664E-03
     -8.134  0.6620E-02  0.1192E-02  0.3626E-02  0.1022E-02
     -8.087  0.4411E-02  0.2458E-02  0.3831E-02  0.1136E-02
     -8.041  0.2391E-02  0.3970E-02  0.3942E-02  0.1320E-02
     -7.994  0.1097E-02  0.5514E-02  0.3993E-02  0.1576E-02
     -7.948  0.8687E-03  0.6886E-02  0.4033E-02  0.1895E-02
     -7.902  0.1768E-02  0.7925E-02  0.4115E-02  0.2263E-02
     -7.855  0.3577E-02  0.8481E-02  0.4281E-02  0.2656E-02
     -7.809  0.5864E-02  0.8400E-02  0.4553E-02  0.3046E-02
     -7.762  0.8095E-02  0.7579E-02  0.4929E-02  0.3398E-02
     -7.716  0.9766E-02  0.6076E-02  0.5382E-02  0.3680E-02
     -7.670  0.1058E-01  0.4162E-02  0.5872E-02  0.3873E-02
     -7.623  0.1056E-01  0.2246E-02  0.6362E-02  0.3977E-02
     -7.577  0.1008E-01  0.7301E-03  0.6830E-02  0.4011E-02
     -7.531  0.9682E-02 -0.1130E-03  0.7279E-02  0.4006E-02
     -7.484  0.9793E-02 -0.1710E-03  0.7734E-02  0.3998E-02
     -7.438  0.1056E-01  0.5318E-03  0.8224E-02  0.4022E-02
     -7.391  0.1183E-01  0.1857E-02  0.8773E-02  0.4109E-02
     -7.345  0.1327E-01  0.3557E-02  0.9388E-02  0.4274E-02
     -7.299  0.1450E-01  0.5311E-02  0.1006E-01  0.4520E-02
     -7.252  0.1518E-01  0.6797E-02  0.1077E-01  0.4835E-02
     -7.206  0.1506E-01  0.7774E-02  0.1146E-01  0.5196E-02
     -7.159  0.1411E-01  0.8128E-02  0.1212E-01  0.5573E-02
     -7.113  0.1257E-01  0.7871E-02  0.1270E-01  0.5938E-02
     -7.067  0.1089E-01  0.7133E-02  0.1321E-01  0.6269E-02
     -7.020  0.9579E-02  0.6173E-02  0.1365E-01  0.6556E-02
     -6.974  0.8940E-02  0.5356E-02  0.1407E-01  0.6804E-02
     -6.927  0.9047E-02  0.5040E-02  0.1449E-01  0.7038E-02
     -6.881  0.9780E-02  0.5420E-02  0.1494E-01  0.7290E-02
     -6.835  0.1092E-01  0.6436E-02  0.1545E-01  0.7588E-02
     -6.788  0.1224E-01  0.7858E-02  0.1601E-01  0.7953E-02
     -6.742  0.1347E-01  0.9467E-02  0.1664E-01  0.8392E-02
     -6.695  0.1440E-01  0.1117E-01  0.1731E-01  0.8910E-02
     -6.649  0.1480E-01  0.1292E-01  0.1799E-01  0.9509E-02
     -6.603  0.1451E-01  0.1458E-01  0.1867E-01  0.1019E-01
     -6.556  0.1348E-01  0.1580E-01  0.1929E-01  0.1092E-01
     -6.510  0.1183E-01  0.1622E-01  0.1984E-01  0.1167E-01
     -6.463  0.9967E-02  0.1564E-01  0.2030E-01  0.1240E-01
     -6.417  0.8525E-02  0.1433E-01  0.2070E-01  0.1306E-01
     -6.371  0.8086E-02  0.1292E-01  0.2107E-01  0.1366E-01
     -6.324  0.8815E-02  0.1215E-01  0.2148E-01  0.1422E-01
     -6.278  0.1025E-01  0.1248E-01  0.2196E-01  0.1480E-01
     -6.231  0.1152E-01  0.1384E-01  0.2249E-01  0.1545E-01
     -6.185  0.1184E-01  0.1561E-01  0.2304E-01  0.1617E-01
     -6.139  0.1100E-01  0.1690E-01  0.2355E-01  0.1695E-01
     -6.092  0.9459E-02  0.1698E-01  0.2399E-01  0.1774E-01
     -6.046  0.8031E-02  0.1563E-01  0.2436E-01  0.1847E-01
     -5.999  0.7403E-02  0.1320E-01  0.2471E-01  0.1908E-01
     -5.953  0.7859E-02  0.1050E-01  0.2507E-01  0.1957E-01
     -5.907  0.9235E-02  0.8339E-02  0.2550E-01  0.1995E-01
     -5.860  0.1106E-01  0.7205E-02  0.2601E-01  0.2029E-01
     -5.814  0.1279E-01  0.7074E-02  0.2661E-01  0.2062E-01
     -5.767  0.1403E-01  0.7513E-02  0.2726E-01  0.2097E-01
     -5.721  0.1471E-01  0.7978E-02  0.2794E-01  0.2134E-01
     -5.675  0.1515E-01  0.8125E-02  0.2864E-01  0.2171E-01
     -5.628  0.1586E-01  0.7966E-02  0.2938E-01  0.2208E-01
     -5.582  0.1726E-01  0.7801E-02  0.3018E-01  0.2244E-01
     -5.535  0.1950E-01  0.8028E-02  0.3109E-01  0.2282E-01
     -5.489  0.2232E-01  0.8901E-02  0.3212E-01  0.2323E-01
     -5.443  0.2524E-01  0.1040E-01  0.3329E-01  0.2371E-01
     -5.396  0.2774E-01  0.1224E-01  0.3458E-01  0.2428E-01
     -5.350  0.2934E-01  0.1405E-01  0.3594E-01  0.2493E-01
     -5.303  0.2981E-01  0.1552E-01  0.3732E-01  0.2565E-01
     -5.257  0.2924E-01  0.1653E-01  0.3868E-01  0.2642E-01
     -5.211  0.2805E-01  0.1712E-01  0.3998E-01  0.2721E-01
     -5.164  0.2683E-01  0.1738E-01  0.4123E-01  0.2802E-01
     -5.118  0.2602E-01  0.1738E-01  0.4243E-01  0.2883E-01
     -5.071  0.2571E-01  0.1721E-01  0.4363E-01  0.2962E-01
     -5.025  0.2564E-01  0.1695E-01  0.4482E-01  0.3041E-01
     -4.979  0.2537E-01  0.1658E-01  0.4599E-01  0.3118E-01
     -4.932  0.2457E-01  0.1604E-01  0.4713E-01  0.3192E-01
     -4.886  0.2315E-01  0.1528E-01  0.4821E-01  0.3263E-01
     -4.839  0.2128E-01  0.1436E-01  0.4920E-01  0.3330E-01
     -4.793  0.1922E-01  0.1360E-01  0.5009E-01  0.3393E-01
     -4.747  0.1714E-01  0.1347E-01  0.5088E-01  0.3456E-01
     -4.700  0.1505E-01  0.1437E-01  0.5158E-01  0.3522E-01
     -4.654  0.1294E-01  0.1626E-01  0.5218E-01  0.3598E-01
     -4.607  0.1083E-01  0.1863E-01  0.5268E-01  0.3684E-01
     -4.561  0.8827E-02  0.2064E-01  0.5309E-01  0.3780E-01
     -4.515  0.7022E-02  0.2165E-01  0.5342E-01  0.3880E-01
     -4.468  0.5401E-02  0.2155E-01  0.5367E-01  0.3980E-01
     -4.422  0.3904E-02  0.2067E-01  0.5385E-01  0.4076E-01
     -4.376  0.2519E-02  0.1959E-01  0.5397E-01  0.4167E-01
     -4.329  0.1326E-02  0.1872E-01  0.5403E-01  0.4254E-01
     -4.283  0.4415E-03  0.1827E-01  0.5405E-01  0.4339E-01
     -4.236 -0.7931E-04  0.1831E-01  0.5405E-01  0.4424E-01
     -4.190 -0.2835E-03  0.1887E-01  0.5403E-01  0.4511E-01
     -4.144 -0.2862E-03  0.1994E-01  0.5402E-01  0.4604E-01
     -4.097 -0.2057E-03  0.2144E-01  0.5401E-01  0.4703E-01
     -4.051 -0.1194E-03  0.2308E-01  0.5400E-01  0.4810E-01
     -4.004 -0.5854E-04  0.2438E-01  0.5400E-01  0.4923E-01
     -3.958 -0.2472E-04  0.2474E-01  0.5400E-01  0.5038E-01
     -3.912 -0.9104E-05  0.2361E-01  0.5400E-01  0.5148E-01
     -3.865 -0.2943E-05  0.2074E-01  0.5400E-01  0.5244E-01
     -3.819 -0.8413E-06  0.1636E-01  0.5400E-01  0.5320E-01
     -3.772 -0.2228E-06  0.1125E-01  0.5400E-01  0.5372E-01
     -3.726 -0.1015E-06  0.6392E-02  0.5400E-01  0.5402E-01
     -3.680 -0.2485E-06  0.2626E-02  0.5400E-01  0.5414E-01
     -3.633 -0.9412E-06  0.2974E-03  0.5400E-01  0.5415E-01
     -3.587 -0.3269E-05 -0.7452E-03  0.5400E-01  0.5412E-01
     -3.540 -0.1004E-04 -0.9384E-03  0.5400E-01  0.5407E-01
     -3.494 -0.2707E-04 -0.7385E-03  0.5400E-01  0.5404E-01
     -3.448 -0.6362E-04 -0.4577E-03  0.5400E-01  0.5402E-01
     -3.401 -0.1287E-03 -0.2384E-03  0.5399E-01  0.5401E-01
     -3.355 -0.2188E-03 -0.1083E-03  0.5398E-01  0.5400E-01
     -3.308 -0.2967E-03 -0.4694E-04  0.5397E-01  0.5400E-01
     -3.262 -0.2702E-03 -0.2915E-04  0.5395E-01  0.5400E-01
     -3.216  0.3892E-05 -0.4155E-04  0.5395E-01  0.5400E-01
     -3.169  0.6708E-03 -0.8228E-04  0.5398E-01  0.5399E-01
     -3.123  0.1791E-02 -0.1505E-03  0.5407E-01  0.5399E-01
     -3.076  0.3264E-02 -0.2273E-03  0.5422E-01  0.5398E-01
     -3.030  0.4831E-02 -0.2540E-03  0.5444E-01  0.5396E-01
     -2.984  0.6173E-02 -0.1255E-03  0.5473E-01  0.5396E-01
     -2.937  0.7050E-02  0.2798E-03  0.5506E-01  0.5397E-01
     -2.891  0.7391E-02  0.1030E-02  0.5540E-01  0.5402E-01
     -2.844  0.7282E-02  0.2072E-02  0.5574E-01  0.5412E-01
     -2.798  0.6884E-02  0.3244E-02  0.5606E-01  0.5427E-01
     -2.752  0.6359E-02  0.4370E-02  0.5635E-01  0.5447E-01
     -2.705  0.5838E-02  0.5377E-02  0.5662E-01  0.5472E-01
     -2.659  0.5424E-02  0.6303E-02  0.5687E-01  0.5501E-01
     -2.612  0.5153E-02  0.7158E-02  0.5711E-01  0.5534E-01
     -2.566  0.4943E-02  0.7787E-02  0.5734E-01  0.5570E-01
     -2.520  0.4602E-02  0.7902E-02  0.5756E-01  0.5607E-01
     -2.473  0.3937E-02  0.7308E-02  0.5774E-01  0.5641E-01
     -2.427  0.2902E-02  0.6132E-02  0.5787E-01  0.5669E-01
     -2.380  0.1667E-02  0.4833E-02  0.5795E-01  0.5692E-01
     -2.334  0.5627E-03  0.3919E-02  0.5798E-01  0.5710E-01
     -2.288 -0.4984E-04  0.3610E-02  0.5797E-01  0.5727E-01
     -2.241  0.1180E-03  0.3700E-02  0.5798E-01  0.5744E-01
     -2.195  0.1197E-02  0.3725E-02  0.5804E-01  0.5761E-01
     -2.148  0.3066E-02  0.3313E-02  0.5818E-01  0.5777E-01
     -2.102  0.5292E-02  0.2434E-02  0.5842E-01  0.5788E-01
     -2.056  0.7190E-02  0.1412E-02  0.5876E-01  0.5794E-01
     -2.009  0.8084E-02  0.7276E-03  0.5913E-01  0.5798E-01
     -1.963  0.7642E-02  0.7768E-03  0.5949E-01  0.5801E-01
     -1.916  0.6056E-02  0.1694E-02  0.5977E-01  0.5809E-01
     -1.870  0.3930E-02  0.3296E-02  0.5995E-01  0.5825E-01
     -1.824  0.1945E-02  0.5135E-02  0.6004E-01  0.5848E-01
     -1.777  0.5422E-03  0.6640E-02  0.6007E-01  0.5879E-01
     -1.731 -0.1872E-03  0.7322E-02  0.6006E-01  0.5913E-01
     -1.684 -0.4077E-03  0.6966E-02  0.6004E-01  0.5945E-01
     -1.638 -0.3607E-03  0.5708E-02  0.6002E-01  0.5972E-01
     -1.592 -0.2345E-03  0.3964E-02  0.6001E-01  0.5990E-01
     -1.545 -0.1249E-03  0.2230E-02  0.6000E-01  0.6001E-01
     -1.499 -0.5758E-04  0.8845E-03  0.6000E-01  0.6005E-01
     -1.452 -0.2644E-04  0.7123E-04  0.6000E-01  0.6005E-01
     -1.406 -0.2068E-04 -0.2748E-03  0.6000E-01  0.6004E-01
     -1.360 -0.3655E-04 -0.3248E-03  0.6000E-01  0.6002E-01
     -1.313 -0.7836E-04 -0.2487E-03  0.5999E-01  0.6001E-01
     -1.267 -0.1513E-03 -0.1585E-03  0.5999E-01  0.6000E-01
     -1.221 -0.2449E-03 -0.1058E-03  0.5998E-01  0.6000E-01
     -1.174 -0.3083E-03 -0.1056E-03  0.5996E-01  0.5999E-01
     -1.128 -0.2319E-03 -0.1546E-03  0.5995E-01  0.5999E-01
     -1.081  0.1400E-03 -0.2316E-03  0.5996E-01  0.5998E-01
     -1.035  0.9463E-03 -0.2796E-03  0.6000E-01  0.5996E-01
     -0.989  0.2212E-02 -0.1916E-03  0.6010E-01  0.5996E-01
     -0.942  0.3774E-02  0.1743E-03  0.6028E-01  0.5996E-01
     -0.896  0.5302E-02  0.9335E-03  0.6052E-01  0.6001E-01
     -0.849  0.6422E-02  0.2090E-02  0.6082E-01  0.6010E-01
     -0.803  0.6896E-02  0.3484E-02  0.6114E-01  0.6027E-01
     -0.757  0.6741E-02  0.4828E-02  0.6146E-01  0.6049E-01
     -0.710  0.6222E-02  0.5810E-02  0.6174E-01  0.6076E-01
     -0.664  0.5722E-02  0.6229E-02  0.6201E-01  0.6105E-01
     -0.617  0.5575E-02  0.6079E-02  0.6227E-01  0.6133E-01
     -0.571  0.5942E-02  0.5557E-02  0.6254E-01  0.6159E-01
     -0.525  0.6776E-02  0.5006E-02  0.6286E-01  0.6182E-01
     -0.478  0.7840E-02  0.4788E-02  0.6322E-01  0.6204E-01
     -0.432  0.8788E-02  0.5128E-02  0.6363E-01  0.6228E-01
     -0.385  0.9289E-02  0.6014E-02  0.6406E-01  0.6256E-01
     -0.339  0.9167E-02  0.7204E-02  0.6449E-01  0.6289E-01
     -0.293  0.8469E-02  0.8347E-02  0.6488E-01  0.6328E-01
     -0.246  0.7392E-02  0.9121E-02  0.6522E-01  0.6370E-01
     -0.200  0.6131E-02  0.9351E-02  0.6551E-01  0.6414E-01
     -0.153  0.4789E-02  0.9038E-02  0.6573E-01  0.6456E-01
     -0.107  0.3421E-02  0.8296E-02  0.6589E-01  0.6494E-01
     -0.061  0.2119E-02  0.7262E-02  0.6599E-01  0.6528E-01
     -0.014  0.1024E-02  0.6022E-02  0.6603E-01  0.6556E-01
      0.032  0.2608E-03  0.4632E-02  0.6605E-01  0.6577E-01
      0.079 -0.1460E-03  0.3184E-02  0.6604E-01  0.6592E-01
      0.125 -0.2726E-03  0.1839E-02  0.6603E-01  0.6601E-01
      0.171 -0.2421E-03  0.7746E-03  0.6601E-01  0.6604E-01
      0.218 -0.1606E-03  0.9314E-04  0.6601E-01  0.6605E-01
      0.264 -0.8727E-04 -0.2239E-03  0.6600E-01  0.6604E-01
      0.311 -0.4029E-04 -0.2870E-03  0.6600E-01  0.6602E-01
      0.357 -0.1608E-04 -0.2271E-03  0.6600E-01  0.6601E-01
      0.403 -0.5608E-05 -0.1403E-03  0.6600E-01  0.6601E-01
      0.450 -0.1719E-05 -0.7222E-04  0.6600E-01  0.6600E-01
      0.496 -0.4655E-06 -0.3183E-04  0.6600E-01  0.6600E-01
      0.543 -0.1116E-06 -0.1218E-04  0.6600E-01  0.6600E-01
      0.589 -0.2378E-07 -0.4085E-05  0.6600E-01  0.6600E-01
      0.635 -0.4505E-08 -0.1207E-05  0.6600E-01  0.6600E-01
      0.682 -0.7603E-09 -0.3153E-06  0.6600E-01  0.6600E-01
      0.728 -0.1145E-09 -0.7306E-07  0.6600E-01  0.6600E-01
      0.775 -0.1538E-10 -0.1504E-07  0.6600E-01  0.6600E-01
      0.821 -0.1846E-11 -0.2757E-08  0.6600E-01  0.6600E-01
      0.867 -0.1981E-12 -0.4504E-09  0.6600E-01  0.6600E-01
      0.914 -0.1900E-13 -0.6563E-10  0.6600E-01  0.6600E-01
      0.960 -0.1637E-14 -0.8540E-11  0.6600E-01  0.6600E-01
      1.007 -0.1244E-15 -0.9930E-12  0.6600E-01  0.6600E-01
      1.053 -0.9571E-17 -0.1032E-12  0.6600E-01  0.6600E-01
      1.099  0.0000E+00 -0.9595E-14  0.6600E-01  0.6600E-01
      1.146  0.0000E+00 -0.7992E-15  0.6600E-01  0.6600E-01
      1.192  0.0000E+00 -0.5743E-16  0.6600E-01  0.6600E-01
      1.239  0.0000E+00 -0.4786E-17  0.6600E-01  0.6600E-01
      1.285  0.0000E+00  0.0000E+00  0.6600E-01  0.6600E-01
      1.331  0.0000E+00  0.0000E+00  0.6600E-01  0.6600E-01
      1.378  0.0000E+00  0.0000E+00  0.6600E-01  0.6600E-01
      1.424  0.0000E+00  0.0000E+00  0.6600E-01  0.6600E-01
      1.471  0.0000E+00  0.0000E+00  0.6600E-01  0.6600E-01
      1.517  0.0000E+00  0.0000E+00  0.6600E-01  0.6600E-01
      1.563  0.0000E+00  0.0000E+00  0.6600E-01  0.6600E-01
      1.610  0.0000E+00  0.0000E+00  0.6600E-01  0.6600E-01
      1.656  0.0000E+00  0.0000E+00  0.6600E-01  0.6600E-01
      1.703  0.0000E+00  0.0000E+00  0.6600E-01  0.6600E-01
      1.749  0.0000E+00  0.0000E+00  0.6600E-01  0.6600E-01
      1.795  0.0000E+00  0.0000E+00  0.6600E-01  0.6600E-01
      1.842  0.0000E+00  0.0000E+00  0.6600E-01  0.6600E-01
      1.888  0.0000E+00  0.0000E+00  0.6600E-01  0.6600E-01
      1.934  0.0000E+00  0.0000E+00  0.6600E-01  0.6600E-01
      1.981  0.0000E+00  0.0000E+00  0.6600E-01  0.6600E-01
