   10   10 1000    2
  0.1159636E+04  0.2208998E-08  0.2168723E-08  0.2420596E-08  0.5000000E-15
   1.0000000000000000E-004
  CAR 
 unknown system                          
    100      1     66
 
  0.1262379E-14  0.1262379E-14  0.1262379E-14  0.1000000E+01
    1       -9.938230     -9.856657   1.000000   1.000000
    2       -8.376453     -8.007736   1.000000   1.000000
    3       -8.267420     -7.862410   1.000000   1.000000
    4       -8.174479     -7.761314   1.000000   1.000000
    5       -7.806542     -7.296435   1.000000   1.000000
    6       -7.682883     -7.171102   1.000000   1.000000
    7       -7.652592     -7.046557   1.000000   1.000000
    8       -7.499537     -6.831838   1.000000   1.000000
    9       -7.397807     -6.742432   1.000000   1.000000
   10       -7.347452     -6.632048   1.000000   1.000000
   11       -7.241344     -6.576273   1.000000   1.000000
   12       -7.215199     -6.512170   1.000000   1.000000
   13       -7.158527     -6.482377   1.000000   1.000000
   14       -7.034046     -6.403846   1.000000   1.000000
   15       -6.920048     -6.289483   1.000000   1.000000
   16       -6.825802     -6.202893   1.000000   1.000000
   17       -6.728664     -6.148453   1.000000   1.000000
   18       -6.703088     -6.114236   1.000000   1.000000
   19       -6.599357     -6.069254   1.000000   1.000000
   20       -6.555080     -5.979100   1.000000   1.000000
   21       -6.466558     -5.802292   1.000000   1.000000
   22       -6.269433     -5.712729   1.000000   1.000000
   23       -6.222840     -5.585568   1.000000   1.000000
   24       -6.195902     -5.443186   1.000000   1.000000
   25       -6.026682     -5.364224   1.000000   1.000000
   26       -5.884789     -5.336123   1.000000   1.000000
   27       -5.822023     -5.240698   1.000000   1.000000
   28       -5.748713     -5.192365   1.000000   1.000000
   29       -5.712253     -5.146000   1.000000   1.000000
   30       -5.620753     -5.083433   1.000000   1.000000
   31       -5.538728     -5.005218   1.000000   1.000000
   32       -5.505033     -4.971869   1.000000   1.000000
   33       -5.494130     -4.890267   1.000000   1.000001
   34       -5.421679     -4.835287   1.000000   1.000006
   35       -5.388386     -4.771564   1.000000   1.000045
   36       -5.364313     -4.645800   1.000000   1.001172
   37       -5.332862     -4.603426   1.000000   1.002860
   38       -5.292195     -4.573530   1.000000   1.005028
   39       -5.276792     -4.546733   1.000000   1.007944
   40       -5.251863     -4.496934   1.000000   1.016302
   41       -5.199676     -4.441882   1.000000   1.028632
   42       -5.128662     -4.376353   1.000000   1.034509
   43       -5.113043     -4.340145   1.000000   1.021609
   44       -5.087730     -4.261883   1.000000   0.909771
   45       -5.024887     -4.242278   1.000000   0.858750
   46       -4.998439     -4.163109   1.000000   0.570694
   47       -4.943214     -4.100917   1.000000   0.313201
   48       -4.928986     -4.074747   1.000000   0.217521
   49       -4.890988     -4.036327   1.000001   0.103661
   50       -4.824556     -3.989960   1.000009   0.014734
   51       -4.753874     -3.929170   1.000076  -0.031895
   52       -4.712482     -3.909182   1.000233  -0.035211
   53       -4.638242     -3.882711   1.001385  -0.034278
   54       -4.486236     -3.836125   1.018569  -0.025330
   55       -3.015781     -2.755763  -0.000000  -0.000000
   56       -2.884579     -2.568076  -0.000000  -0.000000
   57       -2.728867     -2.486844  -0.000000  -0.000000
   58       -2.523159     -2.214058  -0.000000  -0.000000
   59       -2.053300     -1.804065  -0.000000  -0.000000
   60       -1.997320     -1.692817  -0.000000  -0.000000
   61       -0.893292     -0.753472  -0.000000  -0.000000
   62       -0.766479     -0.600805  -0.000000  -0.000000
   63       -0.575234     -0.383680  -0.000000  -0.000000
   64       -0.417796     -0.258564  -0.000000  -0.000000
   65       -0.365458     -0.173396  -0.000000  -0.000000
   66       -0.191572     -0.019114  -0.000000  -0.000000
