       N       E                     dE             d eps       ncg     rms          rms(c)
DAV:   1     0.723941491079E+03    0.72394E+03   -0.16054E+04   264   0.695E+02
DAV:   2     0.251384763942E+03   -0.47256E+03   -0.43677E+03   472   0.122E+02
DAV:   3     0.254722867154E+02   -0.22591E+03   -0.21279E+03   368   0.126E+02
DAV:   4    -0.354383620573E+02   -0.60911E+02   -0.52391E+02   408   0.559E+01
DAV:   5    -0.433638624991E+02   -0.79255E+01   -0.69441E+01   312   0.266E+01    0.273E+01
DAV:   6    -0.610935823785E+02   -0.17730E+02   -0.10031E+02   300   0.162E+02    0.551E+01
DAV:   7    -0.356639201761E+02    0.25430E+02   -0.45619E+01   298   0.797E+01    0.238E+01
DAV:   8    -0.415778131535E+02   -0.59139E+01   -0.29248E+01   350   0.903E+01    0.432E+01
DAV:   9    -0.401932379640E+02    0.13846E+01   -0.27787E+01   342   0.640E+01    0.407E+01
DAV:  10    -0.367980925133E+02    0.33951E+01   -0.17067E+01   384   0.425E+01    0.271E+01
DAV:  11    -0.353933323810E+02    0.14048E+01   -0.67959E+00   342   0.380E+01    0.211E+01
DAV:  12    -0.360876258481E+02   -0.69429E+00   -0.53348E+00   366   0.266E+01    0.234E+01
DAV:  13    -0.357008483896E+02    0.38678E+00   -0.38575E+00   318   0.292E+01    0.163E+01
DAV:  14    -0.360282828307E+02   -0.32743E+00   -0.26203E+00   382   0.212E+01    0.197E+01
DAV:  15    -0.356324381300E+02    0.39584E+00   -0.87089E-01   384   0.127E+01    0.105E+01
DAV:  16    -0.358391541682E+02   -0.20672E+00   -0.37915E-01   390   0.586E+00    0.152E+01
DAV:  17    -0.357665084473E+02    0.72646E-01   -0.96943E-02   376   0.390E+00    0.116E+01
DAV:  18    -0.357994023282E+02   -0.32894E-01   -0.93309E-01   340   0.115E+01    0.805E+00
DAV:  19    -0.359896183540E+02   -0.19022E+00   -0.15076E-01   350   0.360E+00    0.821E+00
DAV:  20    -0.360565352503E+02   -0.66917E-01   -0.41409E-02   344   0.292E+00    0.663E+00
DAV:  21    -0.361732406158E+02   -0.11671E+00   -0.92894E-02   412   0.440E+00    0.269E+00
DAV:  22    -0.362927111736E+02   -0.11947E+00   -0.36796E-02   336   0.167E+00    0.132E+00
DAV:  23    -0.364512186095E+02   -0.15851E+00   -0.15209E-02   356   0.114E+00    0.132E+00
DAV:  24    -0.365407711739E+02   -0.89553E-01   -0.10707E-02   342   0.133E+00    0.636E-01
DAV:  25    -0.366553402457E+02   -0.11457E+00   -0.80596E-03   348   0.796E-01    0.549E-01
DAV:  26    -0.367611494453E+02   -0.10581E+00   -0.46220E-03   330   0.607E-01    0.307E-01
DAV:  27    -0.368668239325E+02   -0.10567E+00   -0.43065E-03   284   0.344E-01    0.303E-01
DAV:  28    -0.369612298929E+02   -0.94406E-01   -0.37305E-03   322   0.450E-01    0.291E-01
DAV:  29    -0.370334583826E+02   -0.72228E-01   -0.26666E-03   298   0.287E-01    0.216E-01
DAV:  30    -0.370791508261E+02   -0.45692E-01   -0.11724E-03   276   0.196E-01    0.144E-01
DAV:  31    -0.371188435180E+02   -0.39693E-01   -0.95840E-04   260   0.215E-01    0.152E-01
DAV:  32    -0.371471555618E+02   -0.28312E-01   -0.69593E-04   276   0.220E-01    0.811E-02
DAV:  33    -0.371662664158E+02   -0.19111E-01   -0.46146E-04   252   0.137E-01    0.699E-02
DAV:  34    -0.371807164426E+02   -0.14450E-01   -0.20997E-04   206   0.108E-01    0.366E-02
DAV:  35    -0.371887858206E+02   -0.80694E-02   -0.16018E-04   202   0.537E-02    0.295E-02
DAV:  36    -0.371934321069E+02   -0.46463E-02   -0.83315E-05   206   0.484E-02    0.458E-02
DAV:  37    -0.371970933613E+02   -0.36613E-02   -0.63256E-05   178   0.615E-02    0.288E-02
DAV:  38    -0.371997330406E+02   -0.26397E-02   -0.68773E-05   190   0.487E-02    0.150E-02
DAV:  39    -0.372012710603E+02   -0.15380E-02   -0.44764E-05   190   0.280E-02    0.103E-02
DAV:  40    -0.372022605477E+02   -0.98949E-03   -0.28199E-05   182   0.231E-02    0.138E-02
DAV:  41    -0.372030742736E+02   -0.81373E-03   -0.21910E-05   174   0.199E-02    0.925E-03
DAV:  42    -0.372037178832E+02   -0.64361E-03   -0.19828E-05   182   0.163E-02    0.960E-03
DAV:  43    -0.372041192919E+02   -0.40141E-03   -0.13644E-05   182   0.153E-02    0.717E-03
DAV:  44    -0.372044343144E+02   -0.31502E-03   -0.10565E-05   174   0.127E-02    0.483E-03
DAV:  45    -0.372046414232E+02   -0.20711E-03   -0.62926E-06   192   0.992E-03    0.280E-03
DAV:  46    -0.372048060735E+02   -0.16465E-03   -0.45326E-06   166   0.749E-03    0.262E-03
DAV:  47    -0.372049474494E+02   -0.14138E-03   -0.31944E-06   190   0.774E-03    0.356E-03
DAV:  48    -0.372050372440E+02   -0.89795E-04   -0.21197E-06   184   0.525E-03
   1 F= -.37205037E+02 E0= -.37185930E+02  d E =-.372050E+02  mag=     8.0438
       N       E                     dE             d eps       ncg     rms          rms(c)
DAV:   1    -0.373228695846E+02   -0.11792E+00   -0.81084E+01   264   0.326E+01    0.378E+00
DAV:   2    -0.389170543254E+02   -0.15942E+01   -0.59337E+00   388   0.335E+01    0.249E+01
DAV:   3    -0.375163525546E+02    0.14007E+01   -0.38329E+00   334   0.299E+01    0.887E+00
DAV:   4    -0.374786830598E+02    0.37669E-01   -0.11609E+00   400   0.146E+01    0.683E+00
DAV:   5    -0.374621524833E+02    0.16531E-01   -0.46855E-01   350   0.105E+01    0.472E+00
DAV:   6    -0.374949656989E+02   -0.32813E-01   -0.37603E-01   366   0.741E+00    0.665E+00
DAV:   7    -0.374256875657E+02    0.69278E-01   -0.20870E-01   334   0.579E+00    0.160E+00
DAV:   8    -0.374491241420E+02   -0.23437E-01   -0.68346E-02   392   0.340E+00    0.294E+00
DAV:   9    -0.374439357281E+02    0.51884E-02   -0.46890E-02   390   0.294E+00    0.195E+00
DAV:  10    -0.374430519597E+02    0.88377E-03   -0.26822E-02   342   0.267E+00    0.178E+00
DAV:  11    -0.374414600963E+02    0.15919E-02   -0.22889E-02   398   0.193E+00    0.721E-01
DAV:  12    -0.374434506368E+02   -0.19905E-02   -0.78487E-03   390   0.979E-01    0.817E-01
DAV:  13    -0.374428432847E+02    0.60735E-03   -0.45547E-03   384   0.813E-01    0.297E-01
DAV:  14    -0.374435478973E+02   -0.70461E-03   -0.10741E-03   328   0.389E-01    0.203E-01
DAV:  15    -0.374439627588E+02   -0.41486E-03   -0.53435E-04   192   0.302E-01    0.144E-01
DAV:  16    -0.374443314630E+02   -0.36870E-03   -0.20413E-04   192   0.174E-01    0.736E-02
DAV:  17    -0.374446322473E+02   -0.30078E-03   -0.10532E-04   176   0.117E-01    0.531E-02
DAV:  18    -0.374448867770E+02   -0.25453E-03   -0.73860E-05   184   0.725E-02    0.428E-02
DAV:  19    -0.374450842832E+02   -0.19751E-03   -0.39444E-05   184   0.434E-02    0.296E-02
DAV:  20    -0.374452429795E+02   -0.15870E-03   -0.16298E-05   176   0.277E-02    0.196E-02
DAV:  21    -0.374453800866E+02   -0.13711E-03   -0.11786E-05   176   0.286E-02    0.129E-02
DAV:  22    -0.374454739668E+02   -0.93880E-04   -0.86517E-06   184   0.239E-02
   2 F= -.37445474E+02 E0= -.37430581E+02  d E =-.240437E+00  mag=     8.0424
       N       E                     dE             d eps       ncg     rms          rms(c)
DAV:   1    -0.374076475039E+02    0.37733E-01   -0.66367E+01   264   0.294E+01    0.318E+00
DAV:   2    -0.384983153355E+02   -0.10907E+01   -0.45261E+00   396   0.281E+01    0.208E+01
DAV:   3    -0.375262516124E+02    0.97206E+00   -0.23121E+00   332   0.257E+01    0.618E+00
DAV:   4    -0.375228754669E+02    0.33761E-02   -0.73036E-01   374   0.122E+01    0.485E+00
DAV:   5    -0.375385545343E+02   -0.15679E-01   -0.35733E-01   340   0.883E+00    0.482E+00
DAV:   6    -0.375212629188E+02    0.17292E-01   -0.20027E-01   334   0.551E+00    0.379E+00
DAV:   7    -0.375031566973E+02    0.18106E-01   -0.82428E-02   366   0.333E+00    0.101E+00
DAV:   8    -0.375201094197E+02   -0.16953E-01   -0.48878E-02   390   0.303E+00    0.258E+00
DAV:   9    -0.375094240044E+02    0.10685E-01   -0.39032E-02   356   0.290E+00    0.124E+00
DAV:  10    -0.375184882568E+02   -0.90643E-02   -0.35370E-02   356   0.253E+00    0.247E+00
DAV:  11    -0.375086412911E+02    0.98470E-02   -0.33646E-02   364   0.261E+00    0.744E-01
DAV:  12    -0.375114553128E+02   -0.28140E-02   -0.64884E-03   380   0.973E-01    0.628E-01
DAV:  13    -0.375110785774E+02    0.37674E-03   -0.26927E-03   366   0.661E-01    0.196E-01
DAV:  14    -0.375115069163E+02   -0.42834E-03   -0.64865E-04   214   0.309E-01    0.178E-01
DAV:  15    -0.375117126818E+02   -0.20577E-03   -0.40589E-04   190   0.272E-01    0.660E-02
DAV:  16    -0.375119464567E+02   -0.23377E-03   -0.10373E-04   184   0.941E-02    0.427E-02
DAV:  17    -0.375121351220E+02   -0.18867E-03   -0.52798E-05   174   0.645E-02    0.291E-02
DAV:  18    -0.375123058287E+02   -0.17071E-03   -0.31857E-05   176   0.413E-02    0.315E-02
DAV:  19    -0.375124323542E+02   -0.12653E-03   -0.18322E-05   176   0.391E-02    0.223E-02
DAV:  20    -0.375125421043E+02   -0.10975E-03   -0.97551E-06   176   0.308E-02    0.106E-02
DAV:  21    -0.375126533949E+02   -0.11129E-03   -0.90065E-06   176   0.213E-02    0.117E-02
DAV:  22    -0.375127191210E+02   -0.65726E-04   -0.47633E-06   176   0.157E-02
   3 F= -.37512719E+02 E0= -.37498815E+02  d E =-.307682E+00  mag=     8.0415
       N       E                     dE             d eps       ncg     rms          rms(c)
DAV:   1    -0.375321590328E+02   -0.19506E-01   -0.19440E+01   264   0.161E+01    0.222E+00
DAV:   2    -0.383522544913E+02   -0.82010E+00   -0.22421E+00   366   0.230E+01    0.220E+01
DAV:   3    -0.375616578390E+02    0.79060E+00   -0.16822E+00   324   0.191E+01    0.697E+00
DAV:   4    -0.375384659786E+02    0.23192E-01   -0.39833E-01   396   0.877E+00    0.231E+00
DAV:   5    -0.375955005520E+02   -0.57035E-01   -0.22164E-01   358   0.572E+00    0.548E+00
DAV:   6    -0.375505772058E+02    0.44923E-01   -0.15664E-01   350   0.499E+00    0.136E+00
DAV:   7    -0.375592356055E+02   -0.86584E-02   -0.28450E-02   382   0.254E+00    0.124E+00
DAV:   8    -0.375588881564E+02    0.34745E-03   -0.16537E-02   380   0.180E+00    0.866E-01
DAV:   9    -0.375606637201E+02   -0.17756E-02   -0.10628E-02   356   0.153E+00    0.113E+00
DAV:  10    -0.375592446974E+02    0.14190E-02   -0.85927E-03   356   0.148E+00    0.686E-01
DAV:  11    -0.375596037718E+02   -0.35907E-03   -0.21411E-03   382   0.627E-01    0.335E-01
DAV:  12    -0.375602349965E+02   -0.63122E-03   -0.15438E-03   228   0.409E-01    0.256E-01
DAV:  13    -0.375603428567E+02   -0.10786E-03   -0.43174E-04   190   0.297E-01    0.951E-02
DAV:  14    -0.375605491005E+02   -0.20624E-03   -0.19327E-04   188   0.157E-01    0.976E-02
DAV:  15    -0.375606598688E+02   -0.11077E-03   -0.13059E-04   184   0.157E-01    0.615E-02
DAV:  16    -0.375607150208E+02   -0.55152E-04   -0.33437E-05   176   0.578E-02
   4 F= -.37560715E+02 E0= -.37549004E+02  d E =-.479959E-01  mag=     8.0397
       N       E                     dE             d eps       ncg     rms          rms(c)
DAV:   1    -0.375022522697E+02    0.58408E-01   -0.54594E+01   264   0.273E+01    0.348E+00
DAV:   2    -0.392047935981E+02   -0.17025E+01   -0.51637E+00   374   0.353E+01    0.287E+01
DAV:   3    -0.377143467079E+02    0.14904E+01   -0.28333E+00   340   0.274E+01    0.109E+01
DAV:   4    -0.375533239399E+02    0.16102E+00   -0.10593E+00   380   0.148E+01    0.356E+00
DAV:   5    -0.376510454759E+02   -0.97722E-01   -0.52146E-01   372   0.886E+00    0.730E+00
DAV:   6    -0.375819372735E+02    0.69108E-01   -0.31880E-01   326   0.749E+00    0.282E+00
DAV:   7    -0.375844458337E+02   -0.25086E-02   -0.90904E-02   372   0.426E+00    0.194E+00
DAV:   8    -0.375842243796E+02    0.22145E-03   -0.38458E-02   396   0.278E+00    0.136E+00
DAV:   9    -0.375871931737E+02   -0.29688E-02   -0.22895E-02   356   0.220E+00    0.153E+00
DAV:  10    -0.375848511556E+02    0.23420E-02   -0.20428E-02   372   0.227E+00    0.110E+00
DAV:  11    -0.375847157361E+02    0.13542E-03   -0.63373E-03   380   0.107E+00    0.436E-01
DAV:  12    -0.375863455763E+02   -0.16298E-02   -0.30007E-03   374   0.551E-01    0.427E-01
DAV:  13    -0.375864893904E+02   -0.14381E-03   -0.15453E-03   308   0.594E-01    0.199E-01
DAV:  14    -0.375868706274E+02   -0.38124E-03   -0.52159E-04   204   0.266E-01    0.156E-01
DAV:  15    -0.375870709736E+02   -0.20035E-03   -0.20381E-04   174   0.229E-01    0.128E-01
DAV:  16    -0.375871701490E+02   -0.99175E-04   -0.91673E-05   184   0.128E-01
   5 F= -.37587170E+02 E0= -.37577583E+02  d E =-.744510E-01  mag=     8.0366
       N       E                     dE             d eps       ncg     rms          rms(c)
DAV:   1    -0.375824866184E+02    0.45844E-02   -0.16231E+01   264   0.151E+01    0.187E+00
DAV:   2    -0.380538342999E+02   -0.47135E+00   -0.14653E+00   380   0.178E+01    0.171E+01
DAV:   3    -0.375849199537E+02    0.46891E+00   -0.11259E+00   300   0.154E+01    0.521E+00
DAV:   4    -0.376007734844E+02   -0.15854E-01   -0.34746E-01   388   0.785E+00    0.272E+00
DAV:   5    -0.376146346632E+02   -0.13861E-01   -0.13065E-01   374   0.507E+00    0.266E+00
DAV:   6    -0.376112881445E+02    0.33465E-02   -0.97478E-02   358   0.359E+00    0.242E+00
DAV:   7    -0.376020828727E+02    0.92053E-02   -0.34960E-02   374   0.253E+00    0.404E-01
DAV:   8    -0.376087250756E+02   -0.66422E-02   -0.13571E-02   392   0.149E+00    0.132E+00
DAV:   9    -0.376061236248E+02    0.26015E-02   -0.99594E-03   332   0.151E+00    0.610E-01
DAV:  10    -0.376068346747E+02   -0.71105E-03   -0.20931E-03   348   0.550E-01    0.374E-01
DAV:  11    -0.376076732368E+02   -0.83856E-03   -0.21009E-03   334   0.562E-01    0.357E-01
DAV:  12    -0.376076905440E+02   -0.17307E-04   -0.17563E-03   288   0.630E-01    0.378E-01
DAV:  13    -0.376076152676E+02    0.75276E-04   -0.78516E-04   230   0.486E-01
   6 F= -.37607615E+02 E0= -.37598590E+02  d E =-.204451E-01  mag=     8.0341
       N       E                     dE             d eps       ncg     rms          rms(c)
DAV:   1    -0.376002175354E+02    0.74730E-02   -0.73087E+00   264   0.101E+01    0.121E+00
DAV:   2    -0.377793982005E+02   -0.17918E+00   -0.56843E-01   388   0.111E+01    0.105E+01
DAV:   3    -0.375838698749E+02    0.19553E+00   -0.63505E-01   308   0.102E+01    0.281E+00
DAV:   4    -0.376121593122E+02   -0.28289E-01   -0.13485E-01   388   0.486E+00    0.227E+00
DAV:   5    -0.376127944962E+02   -0.63518E-03   -0.58734E-02   374   0.341E+00    0.180E+00
DAV:   6    -0.376112762368E+02    0.15183E-02   -0.36951E-02   350   0.224E+00    0.135E+00
DAV:   7    -0.376089159974E+02    0.23602E-02   -0.10392E-02   374   0.150E+00    0.283E-01
DAV:   8    -0.376116127866E+02   -0.26968E-02   -0.55705E-03   382   0.104E+00    0.839E-01
DAV:   9    -0.376108701789E+02    0.74261E-03   -0.47544E-03   326   0.103E+00    0.520E-01
DAV:  10    -0.376116022732E+02   -0.73209E-03   -0.31566E-03   332   0.739E-01    0.642E-01
DAV:  11    -0.376109639590E+02    0.63831E-03   -0.26828E-03   312   0.760E-01    0.247E-01
DAV:  12    -0.376117405979E+02   -0.77664E-03   -0.94318E-04   206   0.375E-01    0.229E-01
DAV:  13    -0.376118169883E+02   -0.76390E-04   -0.20973E-04   184   0.246E-01
   7 F= -.37611817E+02 E0= -.37604070E+02  d E =-.246468E-01  mag=     8.0319
       N       E                     dE             d eps       ncg     rms          rms(c)
DAV:   1    -0.376099973033E+02    0.17433E-02   -0.60072E+00   264   0.893E+00    0.108E+00
DAV:   2    -0.377609647846E+02   -0.15097E+00   -0.51208E-01   388   0.104E+01    0.911E+00
DAV:   3    -0.375968981337E+02    0.16407E+00   -0.47292E-01   324   0.970E+00    0.258E+00
DAV:   4    -0.376203844087E+02   -0.23486E-01   -0.10458E-01   398   0.410E+00    0.210E+00
DAV:   5    -0.376210439459E+02   -0.65954E-03   -0.51565E-02   358   0.285E+00    0.173E+00
DAV:   6    -0.376178423987E+02    0.32015E-02   -0.30728E-02   342   0.200E+00    0.849E-01
DAV:   7    -0.376179614971E+02   -0.11910E-03   -0.61526E-03   366   0.124E+00    0.309E-01
DAV:   8    -0.376193583712E+02   -0.13969E-02   -0.48018E-03   382   0.881E-01    0.678E-01
DAV:   9    -0.376190322205E+02    0.32615E-03   -0.35263E-03   318   0.898E-01    0.431E-01
DAV:  10    -0.376196602498E+02   -0.62803E-03   -0.13782E-03   276   0.523E-01    0.438E-01
DAV:  11    -0.376196510128E+02    0.92370E-05   -0.21253E-03   302   0.730E-01    0.381E-01
DAV:  12    -0.376198567162E+02   -0.20570E-03   -0.14376E-03   262   0.550E-01    0.239E-01
DAV:  13    -0.376200110907E+02   -0.15437E-03   -0.15048E-04   184   0.210E-01    0.937E-02
DAV:  14    -0.376201519371E+02   -0.14085E-03   -0.86892E-05   184   0.987E-02    0.339E-02
DAV:  15    -0.376202792102E+02   -0.12727E-03   -0.42912E-05   176   0.725E-02    0.321E-02
DAV:  16    -0.376203443855E+02   -0.65175E-04   -0.15733E-05   176   0.409E-02
   8 F= -.37620344E+02 E0= -.37614131E+02  d E =-.852740E-02  mag=     8.0303
       N       E                     dE             d eps       ncg     rms          rms(c)
DAV:   1    -0.376203452328E+02   -0.66023E-04   -0.66755E-01   264   0.298E+00    0.367E-01
DAV:   2    -0.376384227599E+02   -0.18078E-01   -0.57305E-02   396   0.358E+00    0.327E+00
DAV:   3    -0.376152117376E+02    0.23211E-01   -0.49082E-02   324   0.341E+00    0.750E-01
DAV:   4    -0.376211855131E+02   -0.59738E-02   -0.10703E-02   388   0.135E+00    0.782E-01
DAV:   5    -0.376212031076E+02   -0.17594E-04   -0.61510E-03   358   0.961E-01    0.565E-01
DAV:   6    -0.376208772842E+02    0.32582E-03   -0.31130E-03   278   0.639E-01    0.229E-01
DAV:   7    -0.376211033834E+02   -0.22610E-03   -0.54664E-04   222   0.379E-01    0.982E-02
DAV:   8    -0.376212869839E+02   -0.18360E-03   -0.40863E-04   166   0.265E-01    0.188E-01
DAV:   9    -0.376212879450E+02   -0.96103E-06   -0.37048E-04   174   0.296E-01
   9 F= -.37621288E+02 E0= -.37615506E+02  d E =-.947096E-02  mag=     8.0300
       N       E                     dE             d eps       ncg     rms          rms(c)
DAV:   1    -0.376200474736E+02    0.12395E-02   -0.29343E+00   264   0.613E+00    0.654E-01
DAV:   2    -0.376691920372E+02   -0.49145E-01   -0.20858E-01   398   0.581E+00    0.541E+00
DAV:   3    -0.376158708394E+02    0.53321E-01   -0.18063E-01   318   0.562E+00    0.169E+00
DAV:   4    -0.376248835958E+02   -0.90128E-02   -0.41916E-02   396   0.251E+00    0.134E+00
DAV:   5    -0.376239719265E+02    0.91167E-03   -0.10045E-02   356   0.146E+00    0.591E-01
DAV:   6    -0.376240822786E+02   -0.11035E-03   -0.42746E-03   310   0.899E-01    0.433E-01
DAV:   7    -0.376242823538E+02   -0.20008E-03   -0.14514E-03   286   0.566E-01    0.180E-01
DAV:   8    -0.376250567902E+02   -0.77444E-03   -0.19957E-03   296   0.563E-01    0.482E-01
DAV:   9    -0.376247980630E+02    0.25873E-03   -0.23572E-03   294   0.640E-01    0.367E-01
DAV:  10    -0.376249849167E+02   -0.18685E-03   -0.83539E-04   222   0.488E-01    0.317E-01
DAV:  11    -0.376250151749E+02   -0.30258E-04   -0.93151E-04   270   0.527E-01
  10 F= -.37625015E+02 E0= -.37620941E+02  d E =-.372723E-02  mag=     8.0304
       N       E                     dE             d eps       ncg     rms          rms(c)
DAV:   1    -0.376199834141E+02    0.50015E-02   -0.39877E+00   264   0.714E+00    0.859E-01
DAV:   2    -0.377218544729E+02   -0.10187E+00   -0.43436E-01   398   0.836E+00    0.773E+00
DAV:   3    -0.376139159550E+02    0.10794E+00   -0.34246E-01   308   0.782E+00    0.256E+00
DAV:   4    -0.376231376270E+02   -0.92217E-02   -0.68000E-02   396   0.331E+00    0.117E+00
DAV:   5    -0.376266556296E+02   -0.35180E-02   -0.14886E-02   366   0.168E+00    0.959E-01
DAV:   6    -0.376249631294E+02    0.16925E-02   -0.81825E-03   324   0.133E+00    0.435E-01
DAV:   7    -0.376256036153E+02   -0.64049E-03   -0.20111E-03   360   0.756E-01    0.376E-01
DAV:   8    -0.376258166565E+02   -0.21304E-03   -0.24154E-03   318   0.728E-01    0.347E-01
DAV:   9    -0.376261467210E+02   -0.33006E-03   -0.11959E-03   302   0.565E-01    0.300E-01
DAV:  10    -0.376263344443E+02   -0.18772E-03   -0.11497E-03   262   0.477E-01    0.371E-01
DAV:  11    -0.376262160896E+02    0.11835E-03   -0.17188E-03   248   0.512E-01    0.277E-01
DAV:  12    -0.376263868719E+02   -0.17078E-03   -0.65703E-04   190   0.348E-01    0.149E-01
DAV:  13    -0.376265039792E+02   -0.11711E-03   -0.10411E-04   182   0.137E-01    0.775E-02
DAV:  14    -0.376265622577E+02   -0.58278E-04   -0.64849E-05   176   0.871E-02
  11 F= -.37626562E+02 E0= -.37624221E+02  d E =-.527431E-02  mag=     8.0314
       N       E                     dE             d eps       ncg     rms          rms(c)
DAV:   1    -0.376266820018E+02   -0.17802E-03   -0.10976E+00   264   0.374E+00    0.416E-01
DAV:   2    -0.376504937530E+02   -0.23812E-01   -0.98919E-02   382   0.399E+00    0.384E+00
DAV:   3    -0.376217808525E+02    0.28713E-01   -0.90602E-02   332   0.376E+00    0.964E-01
DAV:   4    -0.376277681701E+02   -0.59873E-02   -0.14128E-02   388   0.158E+00    0.772E-01
DAV:   5    -0.376282212801E+02   -0.45311E-03   -0.46990E-03   358   0.981E-01    0.495E-01
DAV:   6    -0.376279055979E+02    0.31568E-03   -0.19765E-03   286   0.643E-01    0.194E-01
DAV:   7    -0.376281425344E+02   -0.23694E-03   -0.43213E-04   208   0.344E-01    0.106E-01
DAV:   8    -0.376284364842E+02   -0.29395E-03   -0.67525E-04   166   0.310E-01    0.269E-01
DAV:   9    -0.376282820111E+02    0.15447E-03   -0.57031E-04   166   0.330E-01    0.198E-01
DAV:  10    -0.376284633028E+02   -0.18129E-03   -0.39701E-04   166   0.298E-01    0.231E-01
DAV:  11    -0.376284115576E+02    0.51745E-04   -0.28244E-04   160   0.292E-01
  12 F= -.37628412E+02 E0= -.37627012E+02  d E =-.184930E-02  mag=     8.0320
       N       E                     dE             d eps       ncg     rms          rms(c)
DAV:   1    -0.376155184221E+02    0.12945E-01   -0.98953E+00   264   0.113E+01    0.125E+00
DAV:   2    -0.378329990299E+02   -0.21748E+00   -0.84912E-01   382   0.120E+01    0.115E+01
DAV:   3    -0.376130713823E+02    0.21993E+00   -0.63447E-01   310   0.108E+01    0.344E+00
DAV:   4    -0.376275957813E+02   -0.14524E-01   -0.13311E-01   406   0.496E+00    0.187E+00
DAV:   5    -0.376356764419E+02   -0.80807E-02   -0.49872E-02   374   0.314E+00    0.188E+00
DAV:   6    -0.376292261533E+02    0.64503E-02   -0.29696E-02   334   0.245E+00    0.743E-01
DAV:   7    -0.376300126861E+02   -0.78653E-03   -0.54623E-03   368   0.121E+00    0.426E-01
DAV:   8    -0.376308084422E+02   -0.79576E-03   -0.50356E-03   360   0.995E-01    0.510E-01
DAV:   9    -0.376310907778E+02   -0.28234E-03   -0.27137E-03   344   0.772E-01    0.484E-01
DAV:  10    -0.376316035510E+02   -0.51277E-03   -0.37049E-03   320   0.782E-01    0.687E-01
DAV:  11    -0.376309870449E+02    0.61651E-03   -0.23781E-03   288   0.674E-01    0.169E-01
DAV:  12    -0.376316393761E+02   -0.65233E-03   -0.60335E-04   190   0.278E-01    0.192E-01
DAV:  13    -0.376317233802E+02   -0.84004E-04   -0.22206E-04   184   0.215E-01
  13 F= -.37631723E+02 E0= -.37632395E+02  d E =-.516112E-02  mag=     8.0335
       N       E                     dE             d eps       ncg     rms          rms(c)
DAV:   1    -0.376331075636E+02   -0.14682E-02   -0.98447E-01   266   0.352E+00    0.333E-01
DAV:   2    -0.376461677525E+02   -0.13060E-01   -0.62518E-02   398   0.288E+00    0.277E+00
DAV:   3    -0.376295315506E+02    0.16636E-01   -0.55636E-02   342   0.292E+00    0.407E-01
DAV:   4    -0.376363596702E+02   -0.68281E-02   -0.11929E-02   380   0.138E+00    0.115E+00
DAV:   5    -0.376338955730E+02    0.24641E-02   -0.70458E-03   342   0.115E+00    0.300E-01
DAV:   6    -0.376344672604E+02   -0.57169E-03   -0.88346E-04   244   0.450E-01    0.179E-01
DAV:   7    -0.376346481987E+02   -0.18094E-03   -0.50666E-04   184   0.289E-01    0.150E-01
DAV:   8    -0.376347633646E+02   -0.11517E-03   -0.38152E-04   166   0.276E-01    0.187E-01
DAV:   9    -0.376348421031E+02   -0.78738E-04   -0.31332E-04   182   0.262E-01
  14 F= -.37634842E+02 E0= -.37635791E+02  d E =-.311872E-02  mag=     8.0340
       N       E                     dE             d eps       ncg     rms          rms(c)
DAV:   1    -0.376307809128E+02    0.39825E-02   -0.40025E+00   264   0.713E+00    0.634E-01
DAV:   2    -0.376695025980E+02   -0.38722E-01   -0.18054E-01   398   0.505E+00    0.459E+00
DAV:   3    -0.376267056376E+02    0.42797E-01   -0.17402E-01   340   0.518E+00    0.101E+00
DAV:   4    -0.376433192812E+02   -0.16614E-01   -0.45439E-02   388   0.274E+00    0.208E+00
DAV:   5    -0.376359559621E+02    0.73633E-02   -0.25260E-02   340   0.224E+00    0.700E-01
DAV:   6    -0.376368122443E+02   -0.85628E-03   -0.48301E-03   364   0.978E-01    0.357E-01
DAV:   7    -0.376371309254E+02   -0.31868E-03   -0.18769E-03   286   0.569E-01    0.303E-01
DAV:   8    -0.376373868160E+02   -0.25589E-03   -0.19240E-03   262   0.597E-01    0.355E-01
DAV:   9    -0.376374977724E+02   -0.11096E-03   -0.13911E-03   270   0.572E-01    0.368E-01
DAV:  10    -0.376375681053E+02   -0.70333E-04   -0.15315E-03   260   0.602E-01    0.372E-01
DAV:  11    -0.376374357073E+02    0.13240E-03   -0.82191E-04   254   0.479E-01    0.141E-01
DAV:  12    -0.376376861888E+02   -0.25048E-03   -0.33666E-04   172   0.202E-01    0.140E-01
DAV:  13    -0.376377014035E+02   -0.15215E-04   -0.12779E-04   174   0.145E-01
  15 F= -.37637701E+02 E0= -.37639142E+02  d E =-.597802E-02  mag=     8.0345
       N       E                     dE             d eps       ncg     rms          rms(c)
DAV:   1    -0.376372304717E+02    0.45572E-03   -0.18057E+00   264   0.471E+00    0.374E-01
DAV:   2    -0.376479647139E+02   -0.10734E-01   -0.64990E-02   398   0.275E+00    0.234E+00
DAV:   3    -0.376360665366E+02    0.11898E-01   -0.49698E-02   332   0.288E+00    0.538E-01
DAV:   4    -0.376413532836E+02   -0.52867E-02   -0.11210E-02   380   0.126E+00    0.932E-01
DAV:   5    -0.376395277565E+02    0.18255E-02   -0.75560E-03   332   0.110E+00    0.332E-01
DAV:   6    -0.376400411549E+02   -0.51340E-03   -0.11233E-03   308   0.574E-01    0.225E-01
DAV:   7    -0.376400831170E+02   -0.41962E-04   -0.72117E-04   232   0.434E-01
  16 F= -.37640083E+02 E0= -.37641549E+02  d E =-.238171E-02  mag=     8.0347
       N       E                     dE             d eps       ncg     rms          rms(c)
DAV:   1    -0.376305498007E+02    0.94914E-02   -0.65993E+00   264   0.902E+00    0.688E-01
DAV:   2    -0.376614787852E+02   -0.30929E-01   -0.18683E-01   400   0.459E+00    0.371E+00
DAV:   3    -0.376336695989E+02    0.27809E-01   -0.13758E-01   326   0.498E+00    0.109E+00
DAV:   4    -0.376437509712E+02   -0.10081E-01   -0.26932E-02   364   0.219E+00    0.119E+00
DAV:   5    -0.376411632993E+02    0.25877E-02   -0.20301E-02   352   0.182E+00    0.783E-01
DAV:   6    -0.376413530690E+02   -0.18977E-03   -0.58117E-03   358   0.117E+00    0.470E-01
DAV:   7    -0.376414151400E+02   -0.62071E-04   -0.34551E-03   368   0.876E-01    0.339E-01
DAV:   8    -0.376417247114E+02   -0.30957E-03   -0.20703E-03   342   0.567E-01    0.349E-01
DAV:   9    -0.376419238089E+02   -0.19910E-03   -0.22834E-03   288   0.664E-01    0.468E-01
DAV:  10    -0.376417137240E+02    0.21008E-03   -0.12652E-03   272   0.527E-01    0.176E-01
DAV:  11    -0.376420456846E+02   -0.33196E-03   -0.77849E-04   190   0.395E-01    0.243E-01
DAV:  12    -0.376419798145E+02    0.65870E-04   -0.44640E-04   176   0.339E-01
  17 F= -.37641980E+02 E0= -.37644092E+02  d E =-.427841E-02  mag=     8.0354
       N       E                     dE             d eps       ncg     rms          rms(c)
DAV:   1    -0.376397776102E+02    0.22681E-02   -0.24470E+00   264   0.547E+00    0.456E-01
DAV:   2    -0.376612988220E+02   -0.21521E-01   -0.10582E-01   396   0.370E+00    0.330E+00
DAV:   3    -0.376362602734E+02    0.25039E-01   -0.78919E-02   332   0.378E+00    0.392E-01
DAV:   4    -0.376445925537E+02   -0.83323E-02   -0.88977E-03   372   0.122E+00    0.715E-01
DAV:   5    -0.376437868058E+02    0.80575E-03   -0.65605E-03   308   0.111E+00    0.501E-01
DAV:   6    -0.376437226800E+02    0.64126E-04   -0.24544E-03   294   0.644E-01    0.265E-01
DAV:   7    -0.376438538096E+02   -0.13113E-03   -0.86623E-04   232   0.461E-01    0.175E-01
DAV:   8    -0.376441304584E+02   -0.27665E-03   -0.88675E-04   182   0.372E-01    0.284E-01
DAV:   9    -0.376440070022E+02    0.12346E-03   -0.57903E-04   184   0.345E-01    0.228E-01
DAV:  10    -0.376441087418E+02   -0.10174E-03   -0.28513E-04   182   0.275E-01    0.171E-01
DAV:  11    -0.376441386139E+02   -0.29872E-04   -0.33056E-04   166   0.275E-01
  18 F= -.37644139E+02 E0= -.37646264E+02  d E =-.215880E-02  mag=     8.0361
       N       E                     dE             d eps       ncg     rms          rms(c)
DAV:   1    -0.376361721322E+02    0.79366E-02   -0.53333E+00   264   0.808E+00    0.676E-01
DAV:   2    -0.376812517801E+02   -0.45080E-01   -0.22260E-01   396   0.538E+00    0.467E+00
DAV:   3    -0.376318236211E+02    0.49428E-01   -0.17082E-01   332   0.557E+00    0.673E-01
DAV:   4    -0.376466734023E+02   -0.14850E-01   -0.20150E-02   380   0.194E+00    0.987E-01
DAV:   5    -0.376450690856E+02    0.16043E-02   -0.13037E-02   332   0.169E+00    0.739E-01
DAV:   6    -0.376446865323E+02    0.38255E-03   -0.50196E-03   332   0.101E+00    0.378E-01
DAV:   7    -0.376449168415E+02   -0.23031E-03   -0.19951E-03   326   0.662E-01    0.304E-01
DAV:   8    -0.376453577229E+02   -0.44088E-03   -0.27464E-03   276   0.589E-01    0.463E-01
DAV:   9    -0.376450265874E+02    0.33114E-03   -0.15463E-03   252   0.544E-01    0.302E-01
DAV:  10    -0.376451915195E+02   -0.16493E-03   -0.59851E-04   198   0.391E-01    0.265E-01
DAV:  11    -0.376451607400E+02    0.30779E-04   -0.75305E-04   208   0.417E-01
  19 F= -.37645161E+02 E0= -.37647256E+02  d E =-.318093E-02  mag=     8.0372
       N       E                     dE             d eps       ncg     rms          rms(c)
DAV:   1    -0.376419409642E+02    0.32506E-02   -0.29055E+00   264   0.600E+00    0.507E-01
DAV:   2    -0.376667489389E+02   -0.24808E-01   -0.14291E-01   398   0.388E+00    0.367E+00
DAV:   3    -0.376390255336E+02    0.27723E-01   -0.12156E-01   342   0.410E+00    0.705E-01
DAV:   4    -0.376496745391E+02   -0.10649E-01   -0.22017E-02   372   0.204E+00    0.142E+00
DAV:   5    -0.376460739217E+02    0.36006E-02   -0.15387E-02   340   0.181E+00    0.562E-01
DAV:   6    -0.376466266961E+02   -0.55277E-03   -0.30993E-03   324   0.848E-01    0.293E-01
DAV:   7    -0.376467094437E+02   -0.82748E-04   -0.12610E-03   302   0.561E-01    0.181E-01
DAV:   8    -0.376469971267E+02   -0.28768E-03   -0.74018E-04   192   0.357E-01    0.250E-01
DAV:   9    -0.376469587519E+02    0.38375E-04   -0.63330E-04   190   0.395E-01
  20 F= -.37646959E+02 E0= -.37649573E+02  d E =-.179801E-02  mag=     8.0382
       N       E                     dE             d eps       ncg     rms          rms(c)
DAV:   1    -0.376465271767E+02    0.46995E-03   -0.34411E-01   264   0.210E+00    0.239E-01
DAV:   2    -0.376548441832E+02   -0.83170E-02   -0.25503E-02   412   0.238E+00    0.208E+00
DAV:   3    -0.376445879156E+02    0.10256E-01   -0.21068E-02   364   0.232E+00    0.308E-01
DAV:   4    -0.376472041206E+02   -0.26162E-02   -0.46117E-03   378   0.787E-01    0.469E-01
DAV:   5    -0.376470236316E+02    0.18049E-03   -0.25143E-03   270   0.615E-01    0.225E-01
DAV:   6    -0.376471523704E+02   -0.12874E-03   -0.53623E-04   180   0.357E-01    0.160E-01
DAV:   7    -0.376471818215E+02   -0.29451E-04   -0.25553E-04   164   0.245E-01
  21 F= -.37647182E+02 E0= -.37649839E+02  d E =-.202108E-02  mag=     8.0387
       N       E                     dE             d eps       ncg     rms          rms(c)
DAV:   1    -0.376455521200E+02    0.16003E-02   -0.15020E+00   264   0.428E+00    0.358E-01
DAV:   2    -0.376569667608E+02   -0.11415E-01   -0.60471E-02   398   0.273E+00    0.244E+00
DAV:   3    -0.376441766943E+02    0.12790E-01   -0.42944E-02   334   0.293E+00    0.555E-01
DAV:   4    -0.376495614311E+02   -0.53847E-02   -0.11551E-02   372   0.150E+00    0.105E+00
DAV:   5    -0.376471199168E+02    0.24415E-02   -0.63792E-03   332   0.126E+00    0.255E-01
DAV:   6    -0.376479101367E+02   -0.79022E-03   -0.19302E-03   286   0.525E-01    0.293E-01
DAV:   7    -0.376478318872E+02    0.78249E-04   -0.94148E-04   230   0.388E-01
  22 F= -.37647832E+02 E0= -.37650619E+02  d E =-.650066E-03  mag=     8.0392
       N       E                     dE             d eps       ncg     rms          rms(c)
DAV:   1    -0.376477940800E+02    0.11606E-03   -0.17704E-01   266   0.149E+00    0.209E-01
DAV:   2    -0.376550490502E+02   -0.72550E-02   -0.21714E-02   422   0.220E+00    0.201E+00
DAV:   3    -0.376458546040E+02    0.91944E-02   -0.20091E-02   332   0.212E+00    0.230E-01
DAV:   4    -0.376480037637E+02   -0.21492E-02   -0.27105E-03   356   0.643E-01    0.331E-01
DAV:   5    -0.376480773790E+02   -0.73615E-04   -0.17013E-03   246   0.499E-01    0.278E-01
DAV:   6    -0.376479990025E+02    0.78376E-04   -0.56568E-04   168   0.336E-01
  23 F= -.37647999E+02 E0= -.37650850E+02  d E =-.817181E-03  mag=     8.0396
