<?xml version="1.0" encoding="ISO-8859-1"?>
<modeling>
 <generator>
  <i name="program" type="string">vasp </i>
  <i name="version" type="string">6.1.2  </i>
  <i name="subversion" type="string">22Jul20 (build Aug  2 2021 21:04:21) gamma-only                       parallel </i>
  <i name="platform" type="string">LinuxPGI </i>
  <i name="date" type="string">2021 12 22 </i>
  <i name="time" type="string">05:09:58 </i>
 </generator>
 <incar>
  <i type="int" name="ISPIN">     2</i>
  <i type="int" name="IBRION">     2</i>
  <i type="int" name="NSW">  1000</i>
  <i type="int" name="ISIF">     0</i>
  <i type="int" name="ISYM">     0</i>
  <i name="ENCUT">    400.00000000</i>
  <i type="logical" name="LREAL"> F  </i>
  <i type="int" name="ISMEAR">     1</i>
  <i name="SIGMA">      0.20000000</i>
  <i type="logical" name="LWAVE"> F  </i>
  <i type="logical" name="LCHARG"> F  </i>
  <i type="int" name="KPAR">     1</i>
  <i type="int" name="NCORE">     8</i>
  <i type="string" name="GGA"> PE</i>
  <i type="int" name="ISPIN">     2</i>
 </incar>
 <structure name="primitive_cell" >
  <crystal>
   <varray name="basis" >
    <v>      22.08998130       0.00000000       0.00000000 </v>
    <v>       0.00000000      21.68723485       0.00000000 </v>
    <v>       0.00000000       0.00000000      24.20595698 </v>
   </varray>
   <i name="volume">  11596.36263072 </i>
   <varray name="rec_basis" >
    <v>       0.04526939       0.00000000       0.00000000 </v>
    <v>       0.00000000       0.04611007       0.00000000 </v>
    <v>       0.00000000       0.00000000       0.04131214 </v>
   </varray>
  </crystal>
  <varray name="positions" >
   <v>       0.52404612       0.52598112       0.52211459 </v>
   <v>       0.45135552       0.58512299       0.57610016 </v>
   <v>       0.49231032       0.49073355       0.61837026 </v>
   <v>       0.42028116       0.48230351       0.54270725 </v>
   <v>       0.51085788       0.41660767       0.54283077 </v>
   <v>       0.43129248       0.56600211       0.47704232 </v>
   <v>       0.55983626       0.58159797       0.60619177 </v>
   <v>       0.59743971       0.47371075       0.58577611 </v>
   <v>       0.47060377       0.45893246       0.45229455 </v>
   <v>       0.52415913       0.55535890       0.42288004 </v>
  </varray>
 </structure>
 <varray name="primitive_index" >
  <v type="int" >        1 </v>
  <v type="int" >        2 </v>
  <v type="int" >        3 </v>
  <v type="int" >        4 </v>
  <v type="int" >        5 </v>
  <v type="int" >        6 </v>
  <v type="int" >        7 </v>
  <v type="int" >        8 </v>
  <v type="int" >        9 </v>
  <v type="int" >       10 </v>
 </varray>
 <kpoints>
  <generation param="Gamma">
   <v type="int" name="divisions">       1        1        1 </v>
   <v name="usershift">      0.00000000       0.00000000       0.00000000 </v>
   <v name="genvec1">      1.00000000       0.00000000       0.00000000 </v>
   <v name="genvec2">      0.00000000       1.00000000       0.00000000 </v>
   <v name="genvec3">      0.00000000       0.00000000       1.00000000 </v>
   <v name="shift">      0.00000000       0.00000000       0.00000000 </v>
  </generation>
  <varray name="kpointlist" >
   <v>       0.00000000       0.00000000       0.00000000 </v>
  </varray>
  <varray name="weights" >
   <v>       1.00000000 </v>
  </varray>
 </kpoints>
 <parameters>
  <separator name="general" >
   <i type="string" name="SYSTEM">unknown system</i>
   <i type="logical" name="LCOMPAT"> F  </i>
  </separator>
  <separator name="electronic" >
   <i type="string" name="PREC">normal</i>
   <i name="ENMAX">    400.00000000</i>
   <i name="ENAUG">    544.56500000</i>
   <i name="EDIFF">      0.00010000</i>
   <i type="int" name="IALGO">    38</i>
   <i type="int" name="IWAVPR">    11</i>
   <i type="int" name="NBANDS">    66</i>
   <i type="int" name="NBANDSLOW">    -1</i>
   <i type="int" name="NBANDSHIGH">    -1</i>
   <i name="NELECT">    100.00000000</i>
   <i type="int" name="TURBO">     0</i>
   <i type="int" name="IRESTART">     0</i>
   <i type="int" name="NREBOOT">     0</i>
   <i type="int" name="NMIN">     0</i>
   <i name="EREF">      0.00000000</i>
   <separator name="electronic smearing" >
    <i type="int" name="ISMEAR">     1</i>
    <i name="SIGMA">      0.20000000</i>
    <i name="KSPACING">      0.50000000</i>
    <i type="logical" name="KGAMMA"> T  </i>
    <i type="logical" name="KBLOWUP"> T  </i>
   </separator>
   <separator name="electronic projectors" >
    <i type="logical" name="LREAL"> F  </i>
    <v name="ROPT">      0.00000000      0.00000000</v>
    <i type="int" name="LMAXPAW">  -100</i>
    <i type="int" name="LMAXMIX">     2</i>
    <i type="logical" name="NLSPLINE"> F  </i>
   </separator>
   <separator name="electronic startup" >
    <i type="int" name="ISTART">     0</i>
    <i type="int" name="ICHARG">     2</i>
    <i type="int" name="INIWAV">     1</i>
   </separator>
   <separator name="electronic spin" >
    <i type="int" name="ISPIN">     2</i>
    <i type="logical" name="LNONCOLLINEAR"> F  </i>
    <v name="MAGMOM">      1.00000000      1.00000000      1.00000000      1.00000000      1.00000000      1.00000000      1.00000000      1.00000000      1.00000000      1.00000000</v>
    <i name="NUPDOWN">     -1.00000000</i>
    <i type="logical" name="LSORBIT"> F  </i>
    <v name="SAXIS">      0.00000000      0.00000000      1.00000000</v>
    <i type="logical" name="LSPIRAL"> F  </i>
    <v name="QSPIRAL">      0.00000000      0.00000000      0.00000000</v>
    <i type="logical" name="LZEROZ"> F  </i>
   </separator>
   <separator name="electronic exchange-correlation" >
    <i type="logical" name="LASPH"> F  </i>
    <i type="logical" name="LMETAGGA"> F  </i>
   </separator>
   <separator name="electronic convergence" >
    <i type="int" name="NELM">    60</i>
    <i type="int" name="NELMDL">     0</i>
    <i type="int" name="NELMIN">     2</i>
    <i name="ENINI">    400.00000000</i>
    <separator name="electronic convergence detail" >
     <i type="logical" name="LDIAG"> T  </i>
     <i type="logical" name="LSUBROT"> F  </i>
     <i name="WEIMIN">      0.00100000</i>
     <i name="EBREAK">      0.00000038</i>
     <i name="DEPER">      0.30000000</i>
     <i type="int" name="NRMM">     4</i>
     <i name="TIME">      0.40000000</i>
    </separator>
   </separator>
   <separator name="electronic mixer" >
    <i name="AMIX">      0.40000000</i>
    <i name="BMIX">      1.00000000</i>
    <i name="AMIN">      0.10000000</i>
    <i name="AMIX_MAG">      1.60000000</i>
    <i name="BMIX_MAG">      1.00000000</i>
    <separator name="electronic mixer details" >
     <i type="int" name="IMIX">     4</i>
     <i type="logical" name="MIXFIRST"> F  </i>
     <i type="int" name="MAXMIX">   -45</i>
     <i name="WC">    100.00000000</i>
     <i type="int" name="INIMIX">     1</i>
     <i type="int" name="MIXPRE">     1</i>
     <i type="int" name="MREMOVE">     5</i>
    </separator>
   </separator>
   <separator name="electronic dipolcorrection" >
    <i type="logical" name="LDIPOL"> F  </i>
    <i type="logical" name="LMONO"> F  </i>
    <i type="int" name="IDIPOL">     0</i>
    <i name="EPSILON">      1.00000000</i>
    <v name="DIPOL">   -100.00000000   -100.00000000   -100.00000000</v>
    <i name="EFIELD">      0.00000000</i>
   </separator>
  </separator>
  <separator name="grids" >
   <i type="int" name="NGX">   108</i>
   <i type="int" name="NGY">   108</i>
   <i type="int" name="NGZ">   120</i>
   <i type="int" name="NGXF">   216</i>
   <i type="int" name="NGYF">   216</i>
   <i type="int" name="NGZF">   240</i>
   <i type="logical" name="ADDGRID"> F  </i>
  </separator>
  <separator name="ionic" >
   <i type="int" name="NSW">  1000</i>
   <i type="int" name="IBRION">     2</i>
   <i type="int" name="MDALGO">     0</i>
   <i type="int" name="ISIF">     0</i>
   <i name="PSTRESS">      0.00000000</i>
   <i name="EDIFFG">      0.00100000</i>
   <i type="int" name="NFREE">     1</i>
   <i name="POTIM">      0.50000000</i>
   <i name="SMASS">     -3.00000000</i>
   <i name="SCALEE">      1.00000000</i>
  </separator>
  <separator name="ionic md" >
   <i name="TEBEG">      0.00010000</i>
   <i name="TEEND">      0.00010000</i>
   <i type="int" name="NBLOCK">     1</i>
   <i type="int" name="KBLOCK">  1000</i>
   <i type="int" name="NPACO">   256</i>
   <i name="APACO">     16.00000000</i>
  </separator>
  <separator name="symmetry" >
   <i type="int" name="ISYM">     0</i>
   <i name="SYMPREC">      0.00001000</i>
  </separator>
  <separator name="dos" >
   <i type="int" name="LORBIT">     0</i>
   <v name="RWIGS">     -1.00000000     -1.00000000</v>
   <i type="int" name="NEDOS">   301</i>
   <i name="EMIN">     10.00000000</i>
   <i name="EMAX">    -10.00000000</i>
   <i name="EFERMI">      0.00000000</i>
  </separator>
  <separator name="writing" >
   <i type="int" name="NWRITE">     2</i>
   <i type="logical" name="LWAVE"> F  </i>
   <i type="logical" name="LDOWNSAMPLE"> F  </i>
   <i type="logical" name="LCHARG"> F  </i>
   <i type="logical" name="LPARD"> F  </i>
   <i type="logical" name="LVTOT"> F  </i>
   <i type="logical" name="LVHAR"> F  </i>
   <i type="logical" name="LELF"> F  </i>
   <i type="logical" name="LOPTICS"> F  </i>
   <v name="STM">      0.00000000      0.00000000      0.00000000      0.00000000      0.00000000      0.00000000      0.00000000</v>
  </separator>
  <separator name="performance" >
   <i type="int" name="NPAR">     2</i>
   <i type="int" name="NSIM">     4</i>
   <i type="int" name="NBLK">    -1</i>
   <i type="logical" name="LPLANE"> T  </i>
   <i type="logical" name="LSCALAPACK"> T  </i>
   <i type="logical" name="LSCAAWARE"> F  </i>
   <i type="logical" name="LSCALU"> F  </i>
   <i type="logical" name="LASYNC"> F  </i>
   <i type="logical" name="LORBITALREAL"> F  </i>
  </separator>
  <separator name="miscellaneous" >
   <i type="int" name="IDIOT">     3</i>
   <i type="int" name="PHON_NSTRUCT">    -1</i>
   <i type="logical" name="LMUSIC"> F  </i>
   <v name="POMASS">     58.69000000    106.42000000</v>
   <v name="DARWINR">      0.00000000      0.00000000</v>
   <v name="DARWINV">      1.00000000      1.00000000</v>
   <i type="logical" name="LCORR"> T  </i>
  </separator>
  <i type="logical" name="GGA_COMPAT"> T  </i>
  <i type="logical" name="LBERRY"> F  </i>
  <i type="int" name="ICORELEVEL">     0</i>
  <i type="logical" name="LDAU"> F  </i>
  <i type="int" name="I_CONSTRAINED_M">     0</i>
  <separator name="electronic exchange-correlation" >
   <i type="string" name="GGA">PE</i>
   <i type="int" name="VOSKOWN">     0</i>
   <i type="logical" name="LHFCALC"> F  </i>
   <i type="string" name="PRECFOCK"></i>
   <i type="logical" name="LSYMGRAD"> F  </i>
   <i type="logical" name="LHFONE"> F  </i>
   <i type="logical" name="LRHFCALC"> F  </i>
   <i type="logical" name="LTHOMAS"> F  </i>
   <i type="logical" name="LMODELHF"> F  </i>
   <i type="logical" name="LFOCKACE"> F  </i>
   <i name="ENCUT4O">     -1.00000000</i>
   <i type="int" name="EXXOEP">     0</i>
   <i type="int" name="FOURORBIT">     0</i>
   <i name="AEXX">      0.00000000</i>
   <i name="HFALPHA">      0.00000000</i>
   <i name="MCALPHA">      0.00000000</i>
   <i name="ALDAX">      1.00000000</i>
   <i name="AGGAX">      1.00000000</i>
   <i name="ALDAC">      1.00000000</i>
   <i name="AGGAC">      1.00000000</i>
   <i type="int" name="NKREDX">     1</i>
   <i type="int" name="NKREDY">     1</i>
   <i type="int" name="NKREDZ">     1</i>
   <i type="logical" name="SHIFTRED"> F  </i>
   <i type="logical" name="ODDONLY"> F  </i>
   <i type="logical" name="EVENONLY"> F  </i>
   <i type="int" name="LMAXFOCK">     0</i>
   <i type="int" name="NMAXFOCKAE">     0</i>
   <i type="logical" name="LFOCKAEDFT"> F  </i>
   <i name="HFSCREEN">      0.00000000</i>
   <i name="HFSCREENC">      0.00000000</i>
   <i type="int" name="NBANDSGWLOW">     0</i>
  </separator>
  <separator name="vdW DFT" >
   <i type="logical" name="LUSE_VDW"> F  </i>
   <i name="Zab_VDW">     -0.84910000</i>
   <i name="PARAM1">      0.12340000</i>
   <i name="PARAM2">      1.00000000</i>
   <i name="PARAM3">      0.00000000</i>
  </separator>
  <separator name="model GW" >
   <i type="int" name="MODEL_GW">     0</i>
   <i name="MODEL_EPS0">    695.78175784</i>
   <i name="MODEL_ALPHA">      1.00000000</i>
  </separator>
  <separator name="linear response parameters" >
   <i type="logical" name="LEPSILON"> F  </i>
   <i type="logical" name="LRPA"> F  </i>
   <i type="logical" name="LNABLA"> F  </i>
   <i type="logical" name="LVEL"> F  </i>
   <i type="int" name="KINTER">     0</i>
   <i name="CSHIFT">      0.10000000</i>
   <i name="OMEGAMAX">     -1.00000000</i>
   <i name="DEG_THRESHOLD">      0.00200000</i>
   <i name="RTIME">     -0.10000000</i>
   <i name="WPLASMAI">      0.00000000</i>
   <v name="DFIELD">      0.00000000      0.00000000      0.00000000</v>
   <v name="WPLASMA">      0.00000000      0.00000000      0.00000000      0.00000000      0.00000000      0.00000000      0.00000000      0.00000000      0.00000000</v>
  </separator>
  <separator name="orbital magnetization" >
   <i type="logical" name="NUCIND"> F  </i>
   <v name="MAGPOS">      0.00000000      0.00000000      0.00000000</v>
   <i type="logical" name="LNICSALL"> T  </i>
   <i type="logical" name="ORBITALMAG"> F  </i>
   <i type="logical" name="LMAGBLOCH"> F  </i>
   <i type="logical" name="LCHIMAG"> F  </i>
   <i type="logical" name="LGAUGE"> T  </i>
   <i type="int" name="MAGATOM">     0</i>
   <v name="MAGDIPOL">      0.00000000      0.00000000      0.00000000</v>
   <v name="AVECCONST">      0.00000000      0.00000000      0.00000000</v>
  </separator>
  <separator name="response functions" >
   <i type="logical" name="LFINITE_TEMPERATURE"> F  </i>
   <i type="logical" name="LADDER"> F  </i>
   <i type="logical" name="LRPAFORCE"> F  </i>
   <i type="logical" name="LFXC"> F  </i>
   <i type="logical" name="LHARTREE"> T  </i>
   <i type="int" name="IBSE">     0</i>
   <v type="int" name="KPOINT">    -1     0     0     0</v>
   <i type="logical" name="LTCTC"> F  </i>
   <i type="logical" name="LTCTE"> F  </i>
   <i type="logical" name="LTETE"> F  </i>
   <i type="logical" name="LTRIPLET"> F  </i>
   <i type="logical" name="LFXCEPS"> F  </i>
   <i type="logical" name="LFXHEG"> F  </i>
   <i type="int" name="NATURALO">     2</i>
   <i type="logical" name="LHOLEGF"> F  </i>
   <i type="logical" name="L2ORDER"> F  </i>
   <i type="logical" name="LDMP1"> F  </i>
   <i type="logical" name="LMP2LT"> F  </i>
   <i type="logical" name="LSMP2LT"> F  </i>
   <i type="logical" name="LGWLF"> F  </i>
   <i name="ENCUTGW">     -2.00000000</i>
   <i name="ENCUTGWSOFT">     -2.00000000</i>
   <i name="ENCUTLF">     -1.00000000</i>
   <i type="logical" name="LESF_SPLINES"> F  </i>
   <i type="int" name="LMAXMP2">    -1</i>
   <i name="SCISSOR">      0.00000000</i>
   <i type="int" name="NOMEGA">     0</i>
   <i type="int" name="NOMEGAR">     0</i>
   <i type="int" name="NBANDSGW">    -1</i>
   <i type="int" name="NBANDSO">    -1</i>
   <i type="int" name="NBANDSV">    -1</i>
   <i type="int" name="NELM">     1</i>
   <i type="int" name="NELMHF">     1</i>
   <i type="int" name="DIM">     3</i>
   <i type="int" name="IESPILON">     4</i>
   <i type="int" name="ANTIRES">     0</i>
   <i name="OMEGAMAX">    -30.00000000</i>
   <i name="OMEGAMIN">    -30.00000000</i>
   <i name="OMEGATL">   -200.00000000</i>
   <i type="int" name="OMEGAGRID">     0</i>
   <i name="CSHIFT">     -0.10000000</i>
   <i type="logical" name="LSELFENERGY"> F  </i>
   <i type="logical" name="LSPECTRAL"> F  </i>
   <i type="logical" name="LSPECTRALGW"> F  </i>
   <i type="logical" name="LSINGLES"> F  </i>
   <i type="logical" name="LFERMIGW"> F  </i>
   <i type="logical" name="ODDONLYGW"> F  </i>
   <i type="logical" name="EVENONLYGW"> F  </i>
   <i type="int" name="NKREDLFX">     1</i>
   <i type="int" name="NKREDLFY">     1</i>
   <i type="int" name="NKREDLFZ">     1</i>
   <i type="int" name="MAXMEM">  2800</i>
   <i type="int" name="TELESCOPE">     0</i>
   <i type="int" name="NTAUPAR">    -1</i>
   <i type="int" name="NOMEGAPAR">    -1</i>
   <i name="LAMBDA">      1.00000000</i>
  </separator>
  <separator name="External order field" >
   <i name="OFIELD_KAPPA">      0.00000000</i>
   <v name="OFIELD_K">      0.00000000      0.00000000      0.00000000</v>
   <i name="OFIELD_Q6_NEAR">      0.00000000</i>
   <i name="OFIELD_Q6_FAR">      0.00000000</i>
   <i name="OFIELD_A">      0.00000000</i>
  </separator>
 </parameters>
 <atominfo>
  <atoms>      10 </atoms>
  <types>       2 </types>
  <array name="atoms" >
   <dimension dim="1">ion</dimension>
   <field type="string">element</field>
   <field type="int">atomtype</field>
   <set>
    <rc><c>Ni</c><c>   1</c></rc>
    <rc><c>Ni</c><c>   1</c></rc>
    <rc><c>Ni</c><c>   1</c></rc>
    <rc><c>Ni</c><c>   1</c></rc>
    <rc><c>Ni</c><c>   1</c></rc>
    <rc><c>Ni</c><c>   1</c></rc>
    <rc><c>Pd</c><c>   2</c></rc>
    <rc><c>Pd</c><c>   2</c></rc>
    <rc><c>Pd</c><c>   2</c></rc>
    <rc><c>Pd</c><c>   2</c></rc>
   </set>
  </array>
  <array name="atomtypes" >
   <dimension dim="1">type</dimension>
   <field type="int">atomspertype</field>
   <field type="string">element</field>
   <field>mass</field>
   <field>valence</field>
   <field type="string">pseudopotential</field>
   <set>
    <rc><c>   6</c><c>Ni</c><c>     58.69000000</c><c>     10.00000000</c><c>  PAW_PBE Ni 02Aug2007                  </c></rc>
    <rc><c>   4</c><c>Pd</c><c>    106.42000000</c><c>     10.00000000</c><c>  PAW_PBE Pd 04Jan2005                  </c></rc>
   </set>
  </array>
 </atominfo>
 <structure name="initialpos" >
  <crystal>
   <varray name="basis" >
    <v>      22.08998130       0.00000000       0.00000000 </v>
    <v>       0.00000000      21.68723485       0.00000000 </v>
    <v>       0.00000000       0.00000000      24.20595698 </v>
   </varray>
   <i name="volume">  11596.36263072 </i>
   <varray name="rec_basis" >
    <v>       0.04526939       0.00000000       0.00000000 </v>
    <v>       0.00000000       0.04611007       0.00000000 </v>
    <v>       0.00000000       0.00000000       0.04131214 </v>
   </varray>
  </crystal>
  <varray name="positions" >
   <v>       0.52404612       0.52598112       0.52211459 </v>
   <v>       0.45135552       0.58512299       0.57610016 </v>
   <v>       0.49231032       0.49073355       0.61837026 </v>
   <v>       0.42028116       0.48230351       0.54270725 </v>
   <v>       0.51085788       0.41660767       0.54283077 </v>
   <v>       0.43129248       0.56600211       0.47704232 </v>
   <v>       0.55983626       0.58159797       0.60619177 </v>
   <v>       0.59743971       0.47371075       0.58577611 </v>
   <v>       0.47060377       0.45893246       0.45229455 </v>
   <v>       0.52415913       0.55535890       0.42288004 </v>
  </varray>
 </structure>
 <calculation>
  <scstep>
   <time name="dav">    5.54    5.55</time>
   <time name="total">    7.91    7.93</time>
   <energy>
    <i name="alphaZ">      4.88685396 </i>
    <i name="ewald">  12616.49404108 </i>
    <i name="hartreedc"> -21597.18355827 </i>
    <i name="XCdc">     62.67242020 </i>
    <i name="pawpsdc">   9003.59075477 </i>
    <i name="pawaedc">  -9155.75339974 </i>
    <i name="eentropy">     -0.05136097 </i>
    <i name="bandstr">     84.32714697 </i>
    <i name="atom">   9704.95859309 </i>
    <i name="e_fr_energy">    723.94149108 </i>
    <i name="e_wo_entrp">    723.99285205 </i>
    <i name="e_0_energy">    723.95861140 </i>
   </energy>
  </scstep>
  <scstep>
   <time name="dav">    8.64    8.66</time>
   <time name="total">    8.64    8.66</time>
   <energy>
    <i name="e_fr_energy">    251.38476394 </i>
    <i name="e_wo_entrp">    251.40046497 </i>
    <i name="e_0_energy">    251.38999762 </i>
   </energy>
  </scstep>
  <scstep>
   <time name="dav">    7.08    7.08</time>
   <time name="total">    7.08    7.08</time>
   <energy>
    <i name="e_fr_energy">     25.47228672 </i>
    <i name="e_wo_entrp">     25.48295934 </i>
    <i name="e_0_energy">     25.47584426 </i>
   </energy>
  </scstep>
  <scstep>
   <time name="dav">    7.65    7.67</time>
   <time name="total">    7.65    7.67</time>
   <energy>
    <i name="e_fr_energy">    -35.43836206 </i>
    <i name="e_wo_entrp">    -35.39485364 </i>
    <i name="e_0_energy">    -35.42385925 </i>
   </energy>
  </scstep>
  <scstep>
   <time name="dav">    6.21    6.22</time>
   <time name="total">    6.84    6.86</time>
   <energy>
    <i name="e_fr_energy">    -43.36386250 </i>
    <i name="e_wo_entrp">    -43.30763197 </i>
    <i name="e_0_energy">    -43.34511899 </i>
   </energy>
  </scstep>
  <scstep>
   <time name="dav">    6.06    6.07</time>
   <time name="total">    9.04    9.05</time>
   <energy>
    <i name="e_fr_energy">    -61.09358238 </i>
    <i name="e_wo_entrp">    -61.08771712 </i>
    <i name="e_0_energy">    -61.09162729 </i>
   </energy>
  </scstep>
  <scstep>
   <time name="dav">    6.02    6.03</time>
   <time name="total">    9.00    9.01</time>
   <energy>
    <i name="e_fr_energy">    -35.66392018 </i>
    <i name="e_wo_entrp">    -35.63538144 </i>
    <i name="e_0_energy">    -35.65440726 </i>
   </energy>
  </scstep>
  <scstep>
   <time name="dav">    6.76    6.77</time>
   <time name="total">    9.75    9.77</time>
   <energy>
    <i name="e_fr_energy">    -41.57781315 </i>
    <i name="e_wo_entrp">    -41.60549209 </i>
    <i name="e_0_energy">    -41.58703947 </i>
   </energy>
  </scstep>
  <scstep>
   <time name="dav">    6.65    6.66</time>
   <time name="total">    9.68    9.70</time>
   <energy>
    <i name="e_fr_energy">    -40.19323796 </i>
    <i name="e_wo_entrp">    -40.15014265 </i>
    <i name="e_0_energy">    -40.17887286 </i>
   </energy>
  </scstep>
  <scstep>
   <time name="dav">    7.30    7.31</time>
   <time name="total">   10.27   10.29</time>
   <energy>
    <i name="e_fr_energy">    -36.79809251 </i>
    <i name="e_wo_entrp">    -36.75008821 </i>
    <i name="e_0_energy">    -36.78209108 </i>
   </energy>
  </scstep>
  <scstep>
   <time name="dav">    6.65    6.66</time>
   <time name="total">    9.67    9.68</time>
   <energy>
    <i name="e_fr_energy">    -35.39333238 </i>
    <i name="e_wo_entrp">    -35.42979870 </i>
    <i name="e_0_energy">    -35.40548782 </i>
   </energy>
  </scstep>
  <scstep>
   <time name="dav">    7.04    7.05</time>
   <time name="total">   10.06   10.08</time>
   <energy>
    <i name="e_fr_energy">    -36.08762585 </i>
    <i name="e_wo_entrp">    -36.09987579 </i>
    <i name="e_0_energy">    -36.09170916 </i>
   </energy>
  </scstep>
  <scstep>
   <time name="dav">    6.30    6.32</time>
   <time name="total">    9.32    9.34</time>
   <energy>
    <i name="e_fr_energy">    -35.70084839 </i>
    <i name="e_wo_entrp">    -35.67513727 </i>
    <i name="e_0_energy">    -35.69227801 </i>
   </energy>
  </scstep>
  <scstep>
   <time name="dav">    7.28    7.29</time>
   <time name="total">   10.26   10.28</time>
   <energy>
    <i name="e_fr_energy">    -36.02828283 </i>
    <i name="e_wo_entrp">    -36.01721526 </i>
    <i name="e_0_energy">    -36.02459364 </i>
   </energy>
  </scstep>
  <scstep>
   <time name="dav">    7.61    8.11</time>
   <time name="total">   10.63   11.14</time>
   <energy>
    <i name="e_fr_energy">    -35.63243813 </i>
    <i name="e_wo_entrp">    -35.57045658 </i>
    <i name="e_0_energy">    -35.61177761 </i>
   </energy>
  </scstep>
  <scstep>
   <time name="dav">    7.38    7.39</time>
   <time name="total">   10.41   10.43</time>
   <energy>
    <i name="e_fr_energy">    -35.83915417 </i>
    <i name="e_wo_entrp">    -35.79798464 </i>
    <i name="e_0_energy">    -35.82543099 </i>
   </energy>
  </scstep>
  <scstep>
   <time name="dav">    7.17    7.18</time>
   <time name="total">   10.21   10.22</time>
   <energy>
    <i name="e_fr_energy">    -35.76650845 </i>
    <i name="e_wo_entrp">    -35.71710052 </i>
    <i name="e_0_energy">    -35.75003914 </i>
   </energy>
  </scstep>
  <scstep>
   <time name="dav">    6.62    6.63</time>
   <time name="total">    9.67    9.69</time>
   <energy>
    <i name="e_fr_energy">    -35.79940233 </i>
    <i name="e_wo_entrp">    -35.75550986 </i>
    <i name="e_0_energy">    -35.78477150 </i>
   </energy>
  </scstep>
  <scstep>
   <time name="dav">    6.79    6.80</time>
   <time name="total">    9.82    9.84</time>
   <energy>
    <i name="e_fr_energy">    -35.98961835 </i>
    <i name="e_wo_entrp">    -35.94499815 </i>
    <i name="e_0_energy">    -35.97474495 </i>
   </energy>
  </scstep>
  <scstep>
   <time name="dav">    6.72    6.73</time>
   <time name="total">    9.76    9.77</time>
   <energy>
    <i name="e_fr_energy">    -36.05653525 </i>
    <i name="e_wo_entrp">    -36.00443349 </i>
    <i name="e_0_energy">    -36.03916800 </i>
   </energy>
  </scstep>
  <scstep>
   <time name="dav">    7.60    7.61</time>
   <time name="total">   10.68   10.70</time>
   <energy>
    <i name="e_fr_energy">    -36.17324062 </i>
    <i name="e_wo_entrp">    -36.11746126 </i>
    <i name="e_0_energy">    -36.15464750 </i>
   </energy>
  </scstep>
  <scstep>
   <time name="dav">    6.50    6.50</time>
   <time name="total">    9.57    9.58</time>
   <energy>
    <i name="e_fr_energy">    -36.29271117 </i>
    <i name="e_wo_entrp">    -36.23555910 </i>
    <i name="e_0_energy">    -36.27366048 </i>
   </energy>
  </scstep>
  <scstep>
   <time name="dav">    6.77    6.78</time>
   <time name="total">    9.83    9.84</time>
   <energy>
    <i name="e_fr_energy">    -36.45121861 </i>
    <i name="e_wo_entrp">    -36.39219118 </i>
    <i name="e_0_energy">    -36.43154280 </i>
   </energy>
  </scstep>
  <scstep>
   <time name="dav">    6.63    6.64</time>
   <time name="total">    9.71    9.73</time>
   <energy>
    <i name="e_fr_energy">    -36.54077117 </i>
    <i name="e_wo_entrp">    -36.48253906 </i>
    <i name="e_0_energy">    -36.52136047 </i>
   </energy>
  </scstep>
  <scstep>
   <time name="dav">    6.72    6.73</time>
   <time name="total">    9.80    9.81</time>
   <energy>
    <i name="e_fr_energy">    -36.65534025 </i>
    <i name="e_wo_entrp">    -36.59619213 </i>
    <i name="e_0_energy">    -36.63562421 </i>
   </energy>
  </scstep>
  <scstep>
   <time name="dav">    6.40    6.41</time>
   <time name="total">    9.50    9.51</time>
   <energy>
    <i name="e_fr_energy">    -36.76114945 </i>
    <i name="e_wo_entrp">    -36.70280713 </i>
    <i name="e_0_energy">    -36.74170201 </i>
   </energy>
  </scstep>
  <scstep>
   <time name="dav">    5.77    5.78</time>
   <time name="total">    8.87    8.88</time>
   <energy>
    <i name="e_fr_energy">    -36.86682393 </i>
    <i name="e_wo_entrp">    -36.80913206 </i>
    <i name="e_0_energy">    -36.84759331 </i>
   </energy>
  </scstep>
  <scstep>
   <time name="dav">    6.32    6.33</time>
   <time name="total">    9.47    9.49</time>
   <energy>
    <i name="e_fr_energy">    -36.96122989 </i>
    <i name="e_wo_entrp">    -36.90407731 </i>
    <i name="e_0_energy">    -36.94217903 </i>
   </energy>
  </scstep>
  <scstep>
   <time name="dav">    5.98    5.99</time>
   <time name="total">    9.12    9.14</time>
   <energy>
    <i name="e_fr_energy">    -37.03345838 </i>
    <i name="e_wo_entrp">    -36.97583997 </i>
    <i name="e_0_energy">    -37.01425224 </i>
   </energy>
  </scstep>
  <scstep>
   <time name="dav">    5.67    5.68</time>
   <time name="total">    8.83    8.84</time>
   <energy>
    <i name="e_fr_energy">    -37.07915083 </i>
    <i name="e_wo_entrp">    -37.02151488 </i>
    <i name="e_0_energy">    -37.05993884 </i>
   </energy>
  </scstep>
  <scstep>
   <time name="dav">    5.43    5.43</time>
   <time name="total">    8.62    8.64</time>
   <energy>
    <i name="e_fr_energy">    -37.11884352 </i>
    <i name="e_wo_entrp">    -37.06123871 </i>
    <i name="e_0_energy">    -37.09964191 </i>
   </energy>
  </scstep>
  <scstep>
   <time name="dav">    5.66    5.67</time>
   <time name="total">    8.86    8.88</time>
   <energy>
    <i name="e_fr_energy">    -37.14715556 </i>
    <i name="e_wo_entrp">    -37.09009688 </i>
    <i name="e_0_energy">    -37.12813600 </i>
   </energy>
  </scstep>
  <scstep>
   <time name="dav">    5.32    5.33</time>
   <time name="total">    8.53    8.54</time>
   <energy>
    <i name="e_fr_energy">    -37.16626642 </i>
    <i name="e_wo_entrp">    -37.10884127 </i>
    <i name="e_0_energy">    -37.14712470 </i>
   </energy>
  </scstep>
  <scstep>
   <time name="dav">    4.57    4.59</time>
   <time name="total">    7.77    7.78</time>
   <energy>
    <i name="e_fr_energy">    -37.18071644 </i>
    <i name="e_wo_entrp">    -37.12344906 </i>
    <i name="e_0_energy">    -37.16162731 </i>
   </energy>
  </scstep>
  <scstep>
   <time name="dav">    4.53    4.54</time>
   <time name="total">    7.73    7.74</time>
   <energy>
    <i name="e_fr_energy">    -37.18878582 </i>
    <i name="e_wo_entrp">    -37.13158010 </i>
    <i name="e_0_energy">    -37.16971725 </i>
   </energy>
  </scstep>
  <scstep>
   <time name="dav">    4.62    4.63</time>
   <time name="total">    7.83    7.84</time>
   <energy>
    <i name="e_fr_energy">    -37.19343211 </i>
    <i name="e_wo_entrp">    -37.13628396 </i>
    <i name="e_0_energy">    -37.17438272 </i>
   </energy>
  </scstep>
  <scstep>
   <time name="dav">    4.19    4.20</time>
   <time name="total">    7.42    7.43</time>
   <energy>
    <i name="e_fr_energy">    -37.19709336 </i>
    <i name="e_wo_entrp">    -37.13984085 </i>
    <i name="e_0_energy">    -37.17800919 </i>
   </energy>
  </scstep>
  <scstep>
   <time name="dav">    4.36    4.36</time>
   <time name="total">    7.62    7.63</time>
   <energy>
    <i name="e_fr_energy">    -37.19973304 </i>
    <i name="e_wo_entrp">    -37.14249980 </i>
    <i name="e_0_energy">    -37.18065529 </i>
   </energy>
  </scstep>
  <scstep>
   <time name="dav">    4.35    4.35</time>
   <time name="total">    7.63    7.64</time>
   <energy>
    <i name="e_fr_energy">    -37.20127106 </i>
    <i name="e_wo_entrp">    -37.14399548 </i>
    <i name="e_0_energy">    -37.18217920 </i>
   </energy>
  </scstep>
  <scstep>
   <time name="dav">    4.24    4.24</time>
   <time name="total">    7.52    7.53</time>
   <energy>
    <i name="e_fr_energy">    -37.20226055 </i>
    <i name="e_wo_entrp">    -37.14498377 </i>
    <i name="e_0_energy">    -37.18316829 </i>
   </energy>
  </scstep>
  <scstep>
   <time name="dav">    4.14    4.14</time>
   <time name="total">    7.48    7.50</time>
   <energy>
    <i name="e_fr_energy">    -37.20307427 </i>
    <i name="e_wo_entrp">    -37.14576726 </i>
    <i name="e_0_energy">    -37.18397194 </i>
   </energy>
  </scstep>
  <scstep>
   <time name="dav">    4.23    4.23</time>
   <time name="total">    7.60    7.62</time>
   <energy>
    <i name="e_fr_energy">    -37.20371788 </i>
    <i name="e_wo_entrp">    -37.14642144 </i>
    <i name="e_0_energy">    -37.18461907 </i>
   </energy>
  </scstep>
  <scstep>
   <time name="dav">    4.22    4.23</time>
   <time name="total">    7.62    7.63</time>
   <energy>
    <i name="e_fr_energy">    -37.20411929 </i>
    <i name="e_wo_entrp">    -37.14680282 </i>
    <i name="e_0_energy">    -37.18501380 </i>
   </energy>
  </scstep>
  <scstep>
   <time name="dav">    4.14    4.15</time>
   <time name="total">    7.54    7.56</time>
   <energy>
    <i name="e_fr_energy">    -37.20443431 </i>
    <i name="e_wo_entrp">    -37.14711496 </i>
    <i name="e_0_energy">    -37.18532786 </i>
   </energy>
  </scstep>
  <scstep>
   <time name="dav">    4.41    4.42</time>
   <time name="total">    7.81    7.83</time>
   <energy>
    <i name="e_fr_energy">    -37.20464142 </i>
    <i name="e_wo_entrp">    -37.14732211 </i>
    <i name="e_0_energy">    -37.18553499 </i>
   </energy>
  </scstep>
  <scstep>
   <time name="dav">    4.04    4.05</time>
   <time name="total">    7.48    7.50</time>
   <energy>
    <i name="e_fr_energy">    -37.20480607 </i>
    <i name="e_wo_entrp">    -37.14748628 </i>
    <i name="e_0_energy">    -37.18569948 </i>
   </energy>
  </scstep>
  <scstep>
   <time name="dav">    4.39    4.40</time>
   <time name="total">    7.84    7.85</time>
   <energy>
    <i name="e_fr_energy">    -37.20494745 </i>
    <i name="e_wo_entrp">    -37.14762891 </i>
    <i name="e_0_energy">    -37.18584127 </i>
   </energy>
  </scstep>
  <scstep>
   <time name="dav">    4.32    4.32</time>
   <time name="total">    6.65    6.66</time>
   <energy>
    <i name="alphaZ">      4.88685396 </i>
    <i name="ewald">  12616.49404108 </i>
    <i name="hartreedc"> -21672.79596274 </i>
    <i name="XCdc">     59.94986723 </i>
    <i name="pawpsdc">  10057.72964026 </i>
    <i name="pawaedc"> -10221.40255175 </i>
    <i name="eentropy">     -0.05732027 </i>
    <i name="bandstr">   -586.96819809 </i>
    <i name="atom">   9704.95859309 </i>
    <i name="e_fr_energy">    -37.20503724 </i>
    <i name="e_wo_entrp">    -37.14771697 </i>
    <i name="e_0_energy">    -37.18593049 </i>
   </energy>
  </scstep>
  <structure>
   <crystal>
    <varray name="basis" >
     <v>      22.08998130       0.00000000       0.00000000 </v>
     <v>       0.00000000      21.68723485       0.00000000 </v>
     <v>       0.00000000       0.00000000      24.20595698 </v>
    </varray>
    <i name="volume">  11596.36263072 </i>
    <varray name="rec_basis" >
     <v>       0.04526939       0.00000000       0.00000000 </v>
     <v>       0.00000000       0.04611007       0.00000000 </v>
     <v>       0.00000000       0.00000000       0.04131214 </v>
    </varray>
   </crystal>
   <varray name="positions" >
    <v>       0.52404612       0.52598112       0.52211459 </v>
    <v>       0.45135552       0.58512299       0.57610016 </v>
    <v>       0.49231032       0.49073355       0.61837026 </v>
    <v>       0.42028116       0.48230351       0.54270725 </v>
    <v>       0.51085788       0.41660767       0.54283077 </v>
    <v>       0.43129248       0.56600211       0.47704232 </v>
    <v>       0.55983626       0.58159797       0.60619177 </v>
    <v>       0.59743971       0.47371075       0.58577611 </v>
    <v>       0.47060377       0.45893246       0.45229455 </v>
    <v>       0.52415913       0.55535890       0.42288004 </v>
   </varray>
  </structure>
  <varray name="forces" >
   <v>      -0.25753399       0.14164862       0.06500555 </v>
   <v>       0.05337002      -0.78380571      -0.50399207 </v>
   <v>      -0.22543818       0.09969291      -0.93837003 </v>
   <v>       0.53190182       0.35735957       0.29751231 </v>
   <v>      -0.36368450       0.63179898       0.13880222 </v>
   <v>       0.44751194      -0.26232186       0.78570227 </v>
   <v>      -0.38078578       0.84538263       0.18496048 </v>
   <v>       0.23814507      -0.87201291      -0.22789240 </v>
   <v>      -0.31362022      -0.74721625       0.26302424 </v>
   <v>       0.27013382       0.58947399      -0.06475257 </v>
  </varray>
  <energy>
   <i name="e_fr_energy">    -37.20503724 </i>
   <i name="e_wo_entrp">    -37.14771697 </i>
   <i name="e_0_energy">    -37.18593049 </i>
  </energy>
  <time name="totalsc">  429.95  431.24</time>
 </calculation>
 <calculation>
  <scstep>
   <time name="dav">    5.47    5.48</time>
   <time name="total">    8.47    8.49</time>
   <energy>
    <i name="alphaZ">      4.88685396 </i>
    <i name="ewald">  12738.19274474 </i>
    <i name="hartreedc"> -21793.23062402 </i>
    <i name="XCdc">     60.17375789 </i>
    <i name="pawpsdc">  10057.72706101 </i>
    <i name="pawaedc"> -10221.40021934 </i>
    <i name="eentropy">     -0.05064222 </i>
    <i name="bandstr">   -588.58039469 </i>
    <i name="atom">   9704.95859309 </i>
    <i name="e_fr_energy">    -37.32286958 </i>
    <i name="e_wo_entrp">    -37.27222737 </i>
    <i name="e_0_energy">    -37.30598884 </i>
   </energy>
  </scstep>
  <scstep>
   <time name="dav">    7.32    7.33</time>
   <time name="total">   10.25   10.27</time>
   <energy>
    <i name="e_fr_energy">    -38.91705433 </i>
    <i name="e_wo_entrp">    -38.92238370 </i>
    <i name="e_0_energy">    -38.91883078 </i>
   </energy>
  </scstep>
  <scstep>
   <time name="dav">    6.50    6.51</time>
   <time name="total">    9.46    9.48</time>
   <energy>
    <i name="e_fr_energy">    -37.51635255 </i>
    <i name="e_wo_entrp">    -37.49412786 </i>
    <i name="e_0_energy">    -37.50894432 </i>
   </energy>
  </scstep>
  <scstep>
   <time name="dav">    7.54    7.56</time>
   <time name="total">   10.49   10.51</time>
   <energy>
    <i name="e_fr_energy">    -37.47868306 </i>
    <i name="e_wo_entrp">    -37.43496847 </i>
    <i name="e_0_energy">    -37.46411153 </i>
   </energy>
  </scstep>
  <scstep>
   <time name="dav">    6.78    6.79</time>
   <time name="total">    9.73    9.74</time>
   <energy>
    <i name="e_fr_energy">    -37.46215248 </i>
    <i name="e_wo_entrp">    -37.40837648 </i>
    <i name="e_0_energy">    -37.44422715 </i>
   </energy>
  </scstep>
  <scstep>
   <time name="dav">    7.04    7.05</time>
   <time name="total">   10.04   10.05</time>
   <energy>
    <i name="e_fr_energy">    -37.49496570 </i>
    <i name="e_wo_entrp">    -37.44290922 </i>
    <i name="e_0_energy">    -37.47761354 </i>
   </energy>
  </scstep>
  <scstep>
   <time name="dav">    6.51    6.51</time>
   <time name="total">    9.50    9.51</time>
   <energy>
    <i name="e_fr_energy">    -37.42568757 </i>
    <i name="e_wo_entrp">    -37.38024448 </i>
    <i name="e_0_energy">    -37.41053987 </i>
   </energy>
  </scstep>
  <scstep>
   <time name="dav">    7.36    7.37</time>
   <time name="total">   10.34   10.36</time>
   <energy>
    <i name="e_fr_energy">    -37.44912414 </i>
    <i name="e_wo_entrp">    -37.40567612 </i>
    <i name="e_0_energy">    -37.43464147 </i>
   </energy>
  </scstep>
  <scstep>
   <time name="dav">    7.32    7.33</time>
   <time name="total">   10.29   10.31</time>
   <energy>
    <i name="e_fr_energy">    -37.44393573 </i>
    <i name="e_wo_entrp">    -37.40087012 </i>
    <i name="e_0_energy">    -37.42958053 </i>
   </energy>
  </scstep>
  <scstep>
   <time name="dav">    6.60    6.61</time>
   <time name="total">    9.58    9.60</time>
   <energy>
    <i name="e_fr_energy">    -37.44305196 </i>
    <i name="e_wo_entrp">    -37.40178802 </i>
    <i name="e_0_energy">    -37.42929731 </i>
   </energy>
  </scstep>
  <scstep>
   <time name="dav">    7.46    7.48</time>
   <time name="total">   10.49   10.50</time>
   <energy>
    <i name="e_fr_energy">    -37.44146010 </i>
    <i name="e_wo_entrp">    -37.39694350 </i>
    <i name="e_0_energy">    -37.42662123 </i>
   </energy>
  </scstep>
  <scstep>
   <time name="dav">    7.32    7.33</time>
   <time name="total">   10.35   10.37</time>
   <energy>
    <i name="e_fr_energy">    -37.44345064 </i>
    <i name="e_wo_entrp">    -37.39587490 </i>
    <i name="e_0_energy">    -37.42759206 </i>
   </energy>
  </scstep>
  <scstep>
   <time name="dav">    7.21    7.22</time>
   <time name="total">   10.24   10.26</time>
   <energy>
    <i name="e_fr_energy">    -37.44284328 </i>
    <i name="e_wo_entrp">    -37.39645573 </i>
    <i name="e_0_energy">    -37.42738077 </i>
   </energy>
  </scstep>
  <scstep>
   <time name="dav">    6.42    6.43</time>
   <time name="total">    9.48    9.50</time>
   <energy>
    <i name="e_fr_energy">    -37.44354790 </i>
    <i name="e_wo_entrp">    -37.39809911 </i>
    <i name="e_0_energy">    -37.42839830 </i>
   </energy>
  </scstep>
  <scstep>
   <time name="dav">    4.40    4.41</time>
   <time name="total">    7.45    7.46</time>
   <energy>
    <i name="e_fr_energy">    -37.44396276 </i>
    <i name="e_wo_entrp">    -37.39875005 </i>
    <i name="e_0_energy">    -37.42889186 </i>
   </energy>
  </scstep>
  <scstep>
   <time name="dav">    4.41    4.42</time>
   <time name="total">    7.49    7.50</time>
   <energy>
    <i name="e_fr_energy">    -37.44433146 </i>
    <i name="e_wo_entrp">    -37.39970252 </i>
    <i name="e_0_energy">    -37.42945515 </i>
   </energy>
  </scstep>
  <scstep>
   <time name="dav">    4.20    4.20</time>
   <time name="total">    7.29    7.30</time>
   <energy>
    <i name="e_fr_energy">    -37.44463225 </i>
    <i name="e_wo_entrp">    -37.39984596 </i>
    <i name="e_0_energy">    -37.42970349 </i>
   </energy>
  </scstep>
  <scstep>
   <time name="dav">    4.30    4.31</time>
   <time name="total">    7.39    7.40</time>
   <energy>
    <i name="e_fr_energy">    -37.44488678 </i>
    <i name="e_wo_entrp">    -37.40007747 </i>
    <i name="e_0_energy">    -37.42995034 </i>
   </energy>
  </scstep>
  <scstep>
   <time name="dav">    4.29    4.30</time>
   <time name="total">    7.40    7.41</time>
   <energy>
    <i name="e_fr_energy">    -37.44508428 </i>
    <i name="e_wo_entrp">    -37.40029055 </i>
    <i name="e_0_energy">    -37.43015304 </i>
   </energy>
  </scstep>
  <scstep>
   <time name="dav">    4.15    4.16</time>
   <time name="total">    7.24    7.26</time>
   <energy>
    <i name="e_fr_energy">    -37.44524298 </i>
    <i name="e_wo_entrp">    -37.40053899 </i>
    <i name="e_0_energy">    -37.43034165 </i>
   </energy>
  </scstep>
  <scstep>
   <time name="dav">    4.16    4.17</time>
   <time name="total">    7.27    7.28</time>
   <energy>
    <i name="e_fr_energy">    -37.44538009 </i>
    <i name="e_wo_entrp">    -37.40074075 </i>
    <i name="e_0_energy">    -37.43050031 </i>
   </energy>
  </scstep>
  <scstep>
   <time name="dav">    4.31    4.31</time>
   <time name="total">    6.65    6.67</time>
   <energy>
    <i name="alphaZ">      4.88685396 </i>
    <i name="ewald">  12738.19274474 </i>
    <i name="hartreedc"> -21790.97262382 </i>
    <i name="XCdc">     60.04617187 </i>
    <i name="pawpsdc">  10087.04156964 </i>
    <i name="pawaedc"> -10250.93342562 </i>
    <i name="eentropy">     -0.04467743 </i>
    <i name="bandstr">   -590.62068039 </i>
    <i name="atom">   9704.95859309 </i>
    <i name="e_fr_energy">    -37.44547397 </i>
    <i name="e_wo_entrp">    -37.40079653 </i>
    <i name="e_0_energy">    -37.43058149 </i>
   </energy>
  </scstep>
  <structure>
   <crystal>
    <varray name="basis" >
     <v>      22.08998130       0.00000000       0.00000000 </v>
     <v>       0.00000000      21.68723485       0.00000000 </v>
     <v>       0.00000000       0.00000000      24.20595698 </v>
    </varray>
    <i name="volume">  11596.36263072 </i>
    <varray name="rec_basis" >
     <v>       0.04526939       0.00000000       0.00000000 </v>
     <v>       0.00000000       0.04611007       0.00000000 </v>
     <v>       0.00000000       0.00000000       0.04131214 </v>
    </varray>
   </crystal>
   <varray name="positions" >
    <v>       0.52348369       0.52629622       0.52224414 </v>
    <v>       0.45147208       0.58337944       0.57509570 </v>
    <v>       0.49181799       0.49095531       0.61650008 </v>
    <v>       0.42144279       0.48309844       0.54330020 </v>
    <v>       0.51006363       0.41801309       0.54310740 </v>
    <v>       0.43226981       0.56541859       0.47860823 </v>
    <v>       0.55900466       0.58347850       0.60656040 </v>
    <v>       0.59795980       0.47177098       0.58532192 </v>
    <v>       0.46991885       0.45727030       0.45281876 </v>
    <v>       0.52474908       0.55667017       0.42275099 </v>
   </varray>
  </structure>
  <varray name="forces" >
   <v>       0.08355432       0.18239622      -0.02003737 </v>
   <v>       0.01323990      -0.38409260      -0.29415717 </v>
   <v>       0.04391130       0.09043656      -0.57181905 </v>
   <v>       0.07674528       0.10001904       0.17922441 </v>
   <v>      -0.21769913       0.36933120       0.10428408 </v>
   <v>       0.41460267      -0.20731882       0.47026457 </v>
   <v>      -0.25583750       0.34020512       0.07800096 </v>
   <v>      -0.03365885      -0.36469898      -0.15095959 </v>
   <v>      -0.13301675      -0.32563143       0.05415993 </v>
   <v>       0.00815876       0.19935369       0.15103923 </v>
  </varray>
  <energy>
   <i name="e_fr_energy">    -37.44547397 </i>
   <i name="e_wo_entrp">    -37.40079653 </i>
   <i name="e_0_energy">    -37.43058149 </i>
  </energy>
  <time name="totalsc">  205.84  206.23</time>
 </calculation>
 <calculation>
  <scstep>
   <time name="dav">    5.50    5.50</time>
   <time name="total">    8.46    8.48</time>
   <energy>
    <i name="alphaZ">      4.88685396 </i>
    <i name="ewald">  12853.52110730 </i>
    <i name="hartreedc"> -21904.32744901 </i>
    <i name="XCdc">     60.28978839 </i>
    <i name="pawpsdc">  10087.02867717 </i>
    <i name="pawaedc"> -10250.91906647 </i>
    <i name="eentropy">     -0.04776286 </i>
    <i name="bandstr">   -592.79838908 </i>
    <i name="atom">   9704.95859309 </i>
    <i name="e_fr_energy">    -37.40764750 </i>
    <i name="e_wo_entrp">    -37.35988465 </i>
    <i name="e_0_energy">    -37.39172655 </i>
   </energy>
  </scstep>
  <scstep>
   <time name="dav">    7.47    7.48</time>
   <time name="total">   11.10   11.42</time>
   <energy>
    <i name="e_fr_energy">    -38.49831534 </i>
    <i name="e_wo_entrp">    -38.49976651 </i>
    <i name="e_0_energy">    -38.49879906 </i>
   </energy>
  </scstep>
  <scstep>
   <time name="dav">    6.45    6.46</time>
   <time name="total">    9.42    9.44</time>
   <energy>
    <i name="e_fr_energy">    -37.52625161 </i>
    <i name="e_wo_entrp">    -37.50424028 </i>
    <i name="e_0_energy">    -37.51891450 </i>
   </energy>
  </scstep>
  <scstep>
   <time name="dav">    7.09    7.10</time>
   <time name="total">   10.06   10.08</time>
   <energy>
    <i name="e_fr_energy">    -37.52287547 </i>
    <i name="e_wo_entrp">    -37.48683002 </i>
    <i name="e_0_energy">    -37.51086032 </i>
   </energy>
  </scstep>
  <scstep>
   <time name="dav">    6.60    6.61</time>
   <time name="total">    9.57    9.59</time>
   <energy>
    <i name="e_fr_energy">    -37.53855453 </i>
    <i name="e_wo_entrp">    -37.48481977 </i>
    <i name="e_0_energy">    -37.52064295 </i>
   </energy>
  </scstep>
  <scstep>
   <time name="dav">    6.53    6.55</time>
   <time name="total">    9.47    9.49</time>
   <energy>
    <i name="e_fr_energy">    -37.52126292 </i>
    <i name="e_wo_entrp">    -37.47498877 </i>
    <i name="e_0_energy">    -37.50583820 </i>
   </energy>
  </scstep>
  <scstep>
   <time name="dav">    7.02    7.03</time>
   <time name="total">    9.98   10.00</time>
   <energy>
    <i name="e_fr_energy">    -37.50315670 </i>
    <i name="e_wo_entrp">    -37.46163073 </i>
    <i name="e_0_energy">    -37.48931471 </i>
   </energy>
  </scstep>
  <scstep>
   <time name="dav">    7.37    7.39</time>
   <time name="total">   10.35   10.38</time>
   <energy>
    <i name="e_fr_energy">    -37.52010942 </i>
    <i name="e_wo_entrp">    -37.47908783 </i>
    <i name="e_0_energy">    -37.50643556 </i>
   </energy>
  </scstep>
  <scstep>
   <time name="dav">    6.88    6.89</time>
   <time name="total">    9.87    9.89</time>
   <energy>
    <i name="e_fr_energy">    -37.50942400 </i>
    <i name="e_wo_entrp">    -37.47025362 </i>
    <i name="e_0_energy">    -37.49636721 </i>
   </energy>
  </scstep>
  <scstep>
   <time name="dav">    6.85    6.85</time>
   <time name="total">    9.85    9.87</time>
   <energy>
    <i name="e_fr_energy">    -37.51848826 </i>
    <i name="e_wo_entrp">    -37.48213536 </i>
    <i name="e_0_energy">    -37.50637063 </i>
   </energy>
  </scstep>
  <scstep>
   <time name="dav">    6.97    6.98</time>
   <time name="total">    9.98   10.01</time>
   <energy>
    <i name="e_fr_energy">    -37.50864129 </i>
    <i name="e_wo_entrp">    -37.46650275 </i>
    <i name="e_0_energy">    -37.49459511 </i>
   </energy>
  </scstep>
  <scstep>
   <time name="dav">    7.25    7.26</time>
   <time name="total">   10.27   10.29</time>
   <energy>
    <i name="e_fr_energy">    -37.51145531 </i>
    <i name="e_wo_entrp">    -37.46799645 </i>
    <i name="e_0_energy">    -37.49696902 </i>
   </energy>
  </scstep>
  <scstep>
   <time name="dav">    7.03    7.04</time>
   <time name="total">   10.09   10.11</time>
   <energy>
    <i name="e_fr_energy">    -37.51107858 </i>
    <i name="e_wo_entrp">    -37.46852199 </i>
    <i name="e_0_energy">    -37.49689305 </i>
   </energy>
  </scstep>
  <scstep>
   <time name="dav">    4.77    4.78</time>
   <time name="total">    7.83    7.85</time>
   <energy>
    <i name="e_fr_energy">    -37.51150692 </i>
    <i name="e_wo_entrp">    -37.46956310 </i>
    <i name="e_0_energy">    -37.49752565 </i>
   </energy>
  </scstep>
  <scstep>
   <time name="dav">    4.43    4.44</time>
   <time name="total">    7.49    7.51</time>
   <energy>
    <i name="e_fr_energy">    -37.51171268 </i>
    <i name="e_wo_entrp">    -37.46990196 </i>
    <i name="e_0_energy">    -37.49777577 </i>
   </energy>
  </scstep>
  <scstep>
   <time name="dav">    4.33    4.34</time>
   <time name="total">    7.38    7.39</time>
   <energy>
    <i name="e_fr_energy">    -37.51194646 </i>
    <i name="e_wo_entrp">    -37.47029145 </i>
    <i name="e_0_energy">    -37.49806146 </i>
   </energy>
  </scstep>
  <scstep>
   <time name="dav">    4.14    4.15</time>
   <time name="total">    7.19    7.20</time>
   <energy>
    <i name="e_fr_energy">    -37.51213512 </i>
    <i name="e_wo_entrp">    -37.47041491 </i>
    <i name="e_0_energy">    -37.49822839 </i>
   </energy>
  </scstep>
  <scstep>
   <time name="dav">    4.17    4.18</time>
   <time name="total">    7.26    7.27</time>
   <energy>
    <i name="e_fr_energy">    -37.51230583 </i>
    <i name="e_wo_entrp">    -37.47054712 </i>
    <i name="e_0_energy">    -37.49838626 </i>
   </energy>
  </scstep>
  <scstep>
   <time name="dav">    4.16    4.17</time>
   <time name="total">    7.25    7.26</time>
   <energy>
    <i name="e_fr_energy">    -37.51243235 </i>
    <i name="e_wo_entrp">    -37.47064090 </i>
    <i name="e_0_energy">    -37.49850187 </i>
   </energy>
  </scstep>
  <scstep>
   <time name="dav">    4.17    4.18</time>
   <time name="total">    7.23    7.26</time>
   <energy>
    <i name="e_fr_energy">    -37.51254210 </i>
    <i name="e_wo_entrp">    -37.47081044 </i>
    <i name="e_0_energy">    -37.49863155 </i>
   </energy>
  </scstep>
  <scstep>
   <time name="dav">    4.18    4.18</time>
   <time name="total">    7.28    7.30</time>
   <energy>
    <i name="e_fr_energy">    -37.51265339 </i>
    <i name="e_wo_entrp">    -37.47095179 </i>
    <i name="e_0_energy">    -37.49875286 </i>
   </energy>
  </scstep>
  <scstep>
   <time name="dav">    4.17    4.18</time>
   <time name="total">    6.53    6.55</time>
   <energy>
    <i name="alphaZ">      4.88685396 </i>
    <i name="ewald">  12853.52110730 </i>
    <i name="hartreedc"> -21902.27677517 </i>
    <i name="XCdc">     60.17929345 </i>
    <i name="pawpsdc">  10129.20117281 </i>
    <i name="pawaedc"> -10293.47630496 </i>
    <i name="eentropy">     -0.04171099 </i>
    <i name="bandstr">   -594.46494862 </i>
    <i name="atom">   9704.95859309 </i>
    <i name="e_fr_energy">    -37.51271912 </i>
    <i name="e_wo_entrp">    -37.47100813 </i>
    <i name="e_0_energy">    -37.49881546 </i>
   </energy>
  </scstep>
  <structure>
   <crystal>
    <varray name="basis" >
     <v>      22.08998130       0.00000000       0.00000000 </v>
     <v>       0.00000000      21.68723485       0.00000000 </v>
     <v>       0.00000000       0.00000000      24.20595698 </v>
    </varray>
    <i name="volume">  11596.36263072 </i>
    <varray name="rec_basis" >
     <v>       0.04526939       0.00000000       0.00000000 </v>
     <v>       0.00000000       0.04611007       0.00000000 </v>
     <v>       0.00000000       0.00000000       0.04131214 </v>
    </varray>
   </crystal>
   <varray name="positions" >
    <v>       0.52297467       0.52658138       0.52236140 </v>
    <v>       0.45157756       0.58180147       0.57418664 </v>
    <v>       0.49137240       0.49115601       0.61480751 </v>
    <v>       0.42249409       0.48381788       0.54383683 </v>
    <v>       0.50934480       0.41928504       0.54335776 </v>
    <v>       0.43315432       0.56489048       0.48002543 </v>
    <v>       0.55825203       0.58518044       0.60689402 </v>
    <v>       0.59843049       0.47001543       0.58491086 </v>
    <v>       0.46929898       0.45576599       0.45329319 </v>
    <v>       0.52528300       0.55785691       0.42263419 </v>
   </varray>
  </structure>
  <varray name="forces" >
   <v>       0.47205302       0.21392327      -0.12464975 </v>
   <v>      -0.02627486       0.12162446      -0.01991314 </v>
   <v>       0.34957405       0.08246450      -0.08572796 </v>
   <v>      -0.45095377      -0.21941421      -0.00641232 </v>
   <v>      -0.05574200       0.06210146       0.03530801 </v>
   <v>       0.32895113      -0.13452356       0.09354631 </v>
   <v>      -0.18997355      -0.00631604       0.00006188 </v>
   <v>      -0.22335846      -0.02229747      -0.09768828 </v>
   <v>      -0.02888695      -0.04246058      -0.10980636 </v>
   <v>      -0.17538861      -0.05510183       0.31528161 </v>
  </varray>
  <energy>
   <i name="e_fr_energy">    -37.51271912 </i>
   <i name="e_wo_entrp">    -37.47100813 </i>
   <i name="e_0_energy">    -37.49881546 </i>
  </energy>
  <time name="totalsc">  202.88  203.64</time>
 </calculation>
 <calculation>
  <scstep>
   <time name="dav">    5.47    5.47</time>
   <time name="total">    8.48    8.50</time>
   <energy>
    <i name="alphaZ">      4.88685396 </i>
    <i name="ewald">  12888.87457507 </i>
    <i name="hartreedc"> -21937.46172189 </i>
    <i name="XCdc">     60.27336753 </i>
    <i name="pawpsdc">  10129.20236912 </i>
    <i name="pawaedc"> -10293.47693153 </i>
    <i name="eentropy">     -0.03276085 </i>
    <i name="bandstr">   -594.75650354 </i>
    <i name="atom">   9704.95859309 </i>
    <i name="e_fr_energy">    -37.53215903 </i>
    <i name="e_wo_entrp">    -37.49939819 </i>
    <i name="e_0_energy">    -37.52123875 </i>
   </energy>
  </scstep>
  <scstep>
   <time name="dav">    7.02    7.03</time>
   <time name="total">    9.94    9.96</time>
   <energy>
    <i name="e_fr_energy">    -38.35225449 </i>
    <i name="e_wo_entrp">    -38.34685373 </i>
    <i name="e_0_energy">    -38.35045424 </i>
   </energy>
  </scstep>
  <scstep>
   <time name="dav">    6.39    6.40</time>
   <time name="total">    9.36    9.38</time>
   <energy>
    <i name="e_fr_energy">    -37.56165784 </i>
    <i name="e_wo_entrp">    -37.53578820 </i>
    <i name="e_0_energy">    -37.55303462 </i>
   </energy>
  </scstep>
  <scstep>
   <time name="dav">    7.47    7.49</time>
   <time name="total">   10.45   10.48</time>
   <energy>
    <i name="e_fr_energy">    -37.53846598 </i>
    <i name="e_wo_entrp">    -37.50820435 </i>
    <i name="e_0_energy">    -37.52837877 </i>
   </energy>
  </scstep>
  <scstep>
   <time name="dav">    6.91    6.92</time>
   <time name="total">    9.89    9.92</time>
   <energy>
    <i name="e_fr_energy">    -37.59550055 </i>
    <i name="e_wo_entrp">    -37.55605161 </i>
    <i name="e_0_energy">    -37.58235090 </i>
   </energy>
  </scstep>
  <scstep>
   <time name="dav">    6.79    6.81</time>
   <time name="total">    9.76    9.78</time>
   <energy>
    <i name="e_fr_energy">    -37.55057721 </i>
    <i name="e_wo_entrp">    -37.51477536 </i>
    <i name="e_0_energy">    -37.53864326 </i>
   </energy>
  </scstep>
  <scstep>
   <time name="dav">    7.21    7.22</time>
   <time name="total">   10.18   10.19</time>
   <energy>
    <i name="e_fr_energy">    -37.55923561 </i>
    <i name="e_wo_entrp">    -37.52355906 </i>
    <i name="e_0_energy">    -37.54734342 </i>
   </energy>
  </scstep>
  <scstep>
   <time name="dav">    7.20    7.21</time>
   <time name="total">   10.19   10.21</time>
   <energy>
    <i name="e_fr_energy">    -37.55888816 </i>
    <i name="e_wo_entrp">    -37.52629370 </i>
    <i name="e_0_energy">    -37.54802334 </i>
   </energy>
  </scstep>
  <scstep>
   <time name="dav">    6.79    6.81</time>
   <time name="total">    9.77    9.79</time>
   <energy>
    <i name="e_fr_energy">    -37.56066372 </i>
    <i name="e_wo_entrp">    -37.52628548 </i>
    <i name="e_0_energy">    -37.54920431 </i>
   </energy>
  </scstep>
  <scstep>
   <time name="dav">    6.78    6.79</time>
   <time name="total">    9.76    9.78</time>
   <energy>
    <i name="e_fr_energy">    -37.55924470 </i>
    <i name="e_wo_entrp">    -37.52275090 </i>
    <i name="e_0_energy">    -37.54708010 </i>
   </energy>
  </scstep>
  <scstep>
   <time name="dav">    7.21    7.22</time>
   <time name="total">   10.21   10.23</time>
   <energy>
    <i name="e_fr_energy">    -37.55960377 </i>
    <i name="e_wo_entrp">    -37.52404063 </i>
    <i name="e_0_energy">    -37.54774939 </i>
   </energy>
  </scstep>
  <scstep>
   <time name="dav">    4.92    4.94</time>
   <time name="total">    7.96    7.98</time>
   <energy>
    <i name="e_fr_energy">    -37.56023500 </i>
    <i name="e_wo_entrp">    -37.52423517 </i>
    <i name="e_0_energy">    -37.54823505 </i>
   </energy>
  </scstep>
  <scstep>
   <time name="dav">    4.37    4.39</time>
   <time name="total">    7.37    7.40</time>
   <energy>
    <i name="e_fr_energy">    -37.56034286 </i>
    <i name="e_wo_entrp">    -37.52448143 </i>
    <i name="e_0_energy">    -37.54838905 </i>
   </energy>
  </scstep>
  <scstep>
   <time name="dav">    4.34    4.35</time>
   <time name="total">    7.36    7.38</time>
   <energy>
    <i name="e_fr_energy">    -37.56054910 </i>
    <i name="e_wo_entrp">    -37.52508290 </i>
    <i name="e_0_energy">    -37.54872703 </i>
   </energy>
  </scstep>
  <scstep>
   <time name="dav">    4.30    4.31</time>
   <time name="total">    7.31    7.32</time>
   <energy>
    <i name="e_fr_energy">    -37.56065987 </i>
    <i name="e_wo_entrp">    -37.52554095 </i>
    <i name="e_0_energy">    -37.54895356 </i>
   </energy>
  </scstep>
  <scstep>
   <time name="dav">    4.18    4.18</time>
   <time name="total">    6.51    6.53</time>
   <energy>
    <i name="alphaZ">      4.88685396 </i>
    <i name="ewald">  12888.87457507 </i>
    <i name="hartreedc"> -21936.65066231 </i>
    <i name="XCdc">     60.23350864 </i>
    <i name="pawpsdc">  10142.10301821 </i>
    <i name="pawaedc"> -10306.56206615 </i>
    <i name="eentropy">     -0.03513295 </i>
    <i name="bandstr">   -595.36940258 </i>
    <i name="atom">   9704.95859309 </i>
    <i name="e_fr_energy">    -37.56071502 </i>
    <i name="e_wo_entrp">    -37.52558207 </i>
    <i name="e_0_energy">    -37.54900404 </i>
   </energy>
  </scstep>
  <structure>
   <crystal>
    <varray name="basis" >
     <v>      22.08998130       0.00000000       0.00000000 </v>
     <v>       0.00000000      21.68723485       0.00000000 </v>
     <v>       0.00000000       0.00000000      24.20595698 </v>
    </varray>
    <i name="volume">  11596.36263072 </i>
    <varray name="rec_basis" >
     <v>       0.04526939       0.00000000       0.00000000 </v>
     <v>       0.00000000       0.04611007       0.00000000 </v>
     <v>       0.00000000       0.00000000       0.04131214 </v>
    </varray>
   </crystal>
   <varray name="positions" >
    <v>       0.52406590       0.52721414       0.52209709 </v>
    <v>       0.45153597       0.58172947       0.57391421 </v>
    <v>       0.49216348       0.49142246       0.61418577 </v>
    <v>       0.42159183       0.48341996       0.54395488 </v>
    <v>       0.50902268       0.41976377       0.54350299 </v>
    <v>       0.43422222       0.56440603       0.48059724 </v>
    <v>       0.55757531       0.58558612       0.60697694 </v>
    <v>       0.59797119       0.46952127       0.58457894 </v>
    <v>       0.46907068       0.45528120       0.45315244 </v>
    <v>       0.52496311       0.55800660       0.42334731 </v>
   </varray>
  </structure>
  <varray name="forces" >
   <v>       0.38365818       0.09438312      -0.04145711 </v>
   <v>      -0.06004005       0.09577068       0.00565919 </v>
   <v>       0.19870693       0.07947315      -0.05139847 </v>
   <v>      -0.33627607      -0.17263813      -0.00612825 </v>
   <v>      -0.11005496       0.01539490      -0.05305403 </v>
   <v>       0.17552229      -0.12069725       0.08801206 </v>
   <v>      -0.09136383       0.02921798       0.02302738 </v>
   <v>      -0.08509269       0.02263401      -0.08069366 </v>
   <v>      -0.01738173      -0.00275000      -0.03151571 </v>
   <v>      -0.05767808      -0.04078846       0.14754861 </v>
  </varray>
  <energy>
   <i name="e_fr_energy">    -37.56071502 </i>
   <i name="e_wo_entrp">    -37.52558207 </i>
   <i name="e_0_energy">    -37.54900404 </i>
  </energy>
  <time name="totalsc">  153.43  153.78</time>
 </calculation>
 <calculation>
  <scstep>
   <time name="dav">    5.45    5.47</time>
   <time name="total">    8.43    8.46</time>
   <energy>
    <i name="alphaZ">      4.88685396 </i>
    <i name="ewald">  12947.90686213 </i>
    <i name="hartreedc"> -21995.22966398 </i>
    <i name="XCdc">     60.41194213 </i>
    <i name="pawpsdc">  10142.14239038 </i>
    <i name="pawaedc"> -10306.60575718 </i>
    <i name="eentropy">     -0.02708870 </i>
    <i name="bandstr">   -595.94638410 </i>
    <i name="atom">   9704.95859309 </i>
    <i name="e_fr_energy">    -37.50225227 </i>
    <i name="e_wo_entrp">    -37.47516357 </i>
    <i name="e_0_energy">    -37.49322270 </i>
   </energy>
  </scstep>
  <scstep>
   <time name="dav">    7.13    7.14</time>
   <time name="total">   10.05   10.06</time>
   <energy>
    <i name="e_fr_energy">    -39.20479360 </i>
    <i name="e_wo_entrp">    -39.24461644 </i>
    <i name="e_0_energy">    -39.21806788 </i>
   </energy>
  </scstep>
  <scstep>
   <time name="dav">    6.61    6.62</time>
   <time name="total">    9.56    9.58</time>
   <energy>
    <i name="e_fr_energy">    -37.71434671 </i>
    <i name="e_wo_entrp">    -37.68992597 </i>
    <i name="e_0_energy">    -37.70620646 </i>
   </energy>
  </scstep>
  <scstep>
   <time name="dav">    7.21    7.22</time>
   <time name="total">   10.16   10.19</time>
   <energy>
    <i name="e_fr_energy">    -37.55332394 </i>
    <i name="e_wo_entrp">    -37.53556554 </i>
    <i name="e_0_energy">    -37.54740447 </i>
   </energy>
  </scstep>
  <scstep>
   <time name="dav">    7.10    7.11</time>
   <time name="total">   10.04   10.06</time>
   <energy>
    <i name="e_fr_energy">    -37.65104548 </i>
    <i name="e_wo_entrp">    -37.62083102 </i>
    <i name="e_0_energy">    -37.64097399 </i>
   </energy>
  </scstep>
  <scstep>
   <time name="dav">    6.41    6.42</time>
   <time name="total">    9.37    9.39</time>
   <energy>
    <i name="e_fr_energy">    -37.58193727 </i>
    <i name="e_wo_entrp">    -37.55075134 </i>
    <i name="e_0_energy">    -37.57154196 </i>
   </energy>
  </scstep>
  <scstep>
   <time name="dav">    7.05    7.06</time>
   <time name="total">   10.03   10.05</time>
   <energy>
    <i name="e_fr_energy">    -37.58444583 </i>
    <i name="e_wo_entrp">    -37.55414210 </i>
    <i name="e_0_energy">    -37.57434459 </i>
   </energy>
  </scstep>
  <scstep>
   <time name="dav">    7.43    7.44</time>
   <time name="total">   10.42   10.43</time>
   <energy>
    <i name="e_fr_energy">    -37.58422438 </i>
    <i name="e_wo_entrp">    -37.55968297 </i>
    <i name="e_0_energy">    -37.57604391 </i>
   </energy>
  </scstep>
  <scstep>
   <time name="dav">    6.82    6.83</time>
   <time name="total">    9.80    9.82</time>
   <energy>
    <i name="e_fr_energy">    -37.58719317 </i>
    <i name="e_wo_entrp">    -37.56035859 </i>
    <i name="e_0_energy">    -37.57824831 </i>
   </energy>
  </scstep>
  <scstep>
   <time name="dav">    7.11    7.12</time>
   <time name="total">   10.08   10.11</time>
   <energy>
    <i name="e_fr_energy">    -37.58485116 </i>
    <i name="e_wo_entrp">    -37.55503408 </i>
    <i name="e_0_energy">    -37.57491213 </i>
   </energy>
  </scstep>
  <scstep>
   <time name="dav">    7.16    7.18</time>
   <time name="total">   10.15   10.17</time>
   <energy>
    <i name="e_fr_energy">    -37.58471574 </i>
    <i name="e_wo_entrp">    -37.55591768 </i>
    <i name="e_0_energy">    -37.57511639 </i>
   </energy>
  </scstep>
  <scstep>
   <time name="dav">    7.08    7.09</time>
   <time name="total">   10.08   10.10</time>
   <energy>
    <i name="e_fr_energy">    -37.58634558 </i>
    <i name="e_wo_entrp">    -37.55586774 </i>
    <i name="e_0_energy">    -37.57618630 </i>
   </energy>
  </scstep>
  <scstep>
   <time name="dav">    6.10    6.11</time>
   <time name="total">    9.10    9.12</time>
   <energy>
    <i name="e_fr_energy">    -37.58648939 </i>
    <i name="e_wo_entrp">    -37.55630334 </i>
    <i name="e_0_energy">    -37.57642737 </i>
   </energy>
  </scstep>
  <scstep>
   <time name="dav">    4.59    4.61</time>
   <time name="total">    7.62    7.64</time>
   <energy>
    <i name="e_fr_energy">    -37.58687063 </i>
    <i name="e_wo_entrp">    -37.55747290 </i>
    <i name="e_0_energy">    -37.57707139 </i>
   </energy>
  </scstep>
  <scstep>
   <time name="dav">    4.17    4.18</time>
   <time name="total">    7.19    7.21</time>
   <energy>
    <i name="e_fr_energy">    -37.58707097 </i>
    <i name="e_wo_entrp">    -37.55820209 </i>
    <i name="e_0_energy">    -37.57744801 </i>
   </energy>
  </scstep>
  <scstep>
   <time name="dav">    4.31    4.32</time>
   <time name="total">    6.64    6.66</time>
   <energy>
    <i name="alphaZ">      4.88685396 </i>
    <i name="ewald">  12947.90686213 </i>
    <i name="hartreedc"> -21993.49626305 </i>
    <i name="XCdc">     60.33651644 </i>
    <i name="pawpsdc">  10168.42390360 </i>
    <i name="pawaedc"> -10333.26696780 </i>
    <i name="eentropy">     -0.02876002 </i>
    <i name="bandstr">   -597.30790851 </i>
    <i name="atom">   9704.95859309 </i>
    <i name="e_fr_energy">    -37.58717015 </i>
    <i name="e_wo_entrp">    -37.55841013 </i>
    <i name="e_0_energy">    -37.57758348 </i>
   </energy>
  </scstep>
  <structure>
   <crystal>
    <varray name="basis" >
     <v>      22.08998130       0.00000000       0.00000000 </v>
     <v>       0.00000000      21.68723485       0.00000000 </v>
     <v>       0.00000000       0.00000000      24.20595698 </v>
    </varray>
    <i name="volume">  11596.36263072 </i>
    <varray name="rec_basis" >
     <v>       0.04526939       0.00000000       0.00000000 </v>
     <v>       0.00000000       0.04611007       0.00000000 </v>
     <v>       0.00000000       0.00000000       0.04131214 </v>
    </varray>
   </crystal>
   <varray name="positions" >
    <v>       0.52589167       0.52827282       0.52165488 </v>
    <v>       0.45146637       0.58160901       0.57345841 </v>
    <v>       0.49348704       0.49186824       0.61314553 </v>
    <v>       0.42008224       0.48275419       0.54415240 </v>
    <v>       0.50848373       0.42056476       0.54374597 </v>
    <v>       0.43600895       0.56359550       0.48155396 </v>
    <v>       0.55644307       0.58626488       0.60711568 </v>
    <v>       0.59720272       0.46869449       0.58402359 </v>
    <v>       0.46868869       0.45447008       0.45291696 </v>
    <v>       0.52442789       0.55825705       0.42454044 </v>
   </varray>
  </structure>
  <varray name="forces" >
   <v>       0.23486573      -0.12655890       0.12077338 </v>
   <v>      -0.12246346       0.06980938       0.09095497 </v>
   <v>      -0.08777153       0.08744678       0.03011494 </v>
   <v>      -0.15122913      -0.09829406      -0.00006176 </v>
   <v>      -0.20602917      -0.07478280      -0.22285318 </v>
   <v>      -0.12583439      -0.09674761       0.05930063 </v>
   <v>       0.07931136       0.10074540       0.06766242 </v>
   <v>       0.20335853       0.08325363      -0.03676385 </v>
   <v>       0.00941936       0.06581453       0.08608567 </v>
   <v>       0.16637270      -0.01068636      -0.19521322 </v>
  </varray>
  <energy>
   <i name="e_fr_energy">    -37.58717015 </i>
   <i name="e_wo_entrp">    -37.55841013 </i>
   <i name="e_0_energy">    -37.57758348 </i>
  </energy>
  <time name="totalsc">  157.66  158.02</time>
 </calculation>
 <calculation>
  <scstep>
   <time name="dav">    5.49    5.50</time>
   <time name="total">    8.51    8.53</time>
   <energy>
    <i name="alphaZ">      4.88685396 </i>
    <i name="ewald">  12902.17264360 </i>
    <i name="hartreedc"> -21948.85462525 </i>
    <i name="XCdc">     60.22078241 </i>
    <i name="pawpsdc">  10168.47533005 </i>
    <i name="pawaedc"> -10333.32605271 </i>
    <i name="eentropy">     -0.02553042 </i>
    <i name="bandstr">   -596.09048135 </i>
    <i name="atom">   9704.95859309 </i>
    <i name="e_fr_energy">    -37.58248662 </i>
    <i name="e_wo_entrp">    -37.55695620 </i>
    <i name="e_0_energy">    -37.57397648 </i>
   </energy>
  </scstep>
  <scstep>
   <time name="dav">    7.22    7.23</time>
   <time name="total">   10.14   10.17</time>
   <energy>
    <i name="e_fr_energy">    -38.05383430 </i>
    <i name="e_wo_entrp">    -38.03827570 </i>
    <i name="e_0_energy">    -38.04864810 </i>
   </energy>
  </scstep>
  <scstep>
   <time name="dav">    6.03    6.04</time>
   <time name="total">    8.96    8.98</time>
   <energy>
    <i name="e_fr_energy">    -37.58491995 </i>
    <i name="e_wo_entrp">    -37.56599807 </i>
    <i name="e_0_energy">    -37.57861266 </i>
   </energy>
  </scstep>
  <scstep>
   <time name="dav">    7.39    7.40</time>
   <time name="total">   10.34   10.36</time>
   <energy>
    <i name="e_fr_energy">    -37.60077348 </i>
    <i name="e_wo_entrp">    -37.58200311 </i>
    <i name="e_0_energy">    -37.59451669 </i>
   </energy>
  </scstep>
  <scstep>
   <time name="dav">    7.16    7.18</time>
   <time name="total">   10.11   10.13</time>
   <energy>
    <i name="e_fr_energy">    -37.61463466 </i>
    <i name="e_wo_entrp">    -37.58262095 </i>
    <i name="e_0_energy">    -37.60396343 </i>
   </energy>
  </scstep>
  <scstep>
   <time name="dav">    6.90    6.90</time>
   <time name="total">    9.88    9.89</time>
   <energy>
    <i name="e_fr_energy">    -37.61128814 </i>
    <i name="e_wo_entrp">    -37.58452894 </i>
    <i name="e_0_energy">    -37.60236841 </i>
   </energy>
  </scstep>
  <scstep>
   <time name="dav">    7.11    7.12</time>
   <time name="total">   10.08   10.10</time>
   <energy>
    <i name="e_fr_energy">    -37.60208287 </i>
    <i name="e_wo_entrp">    -37.57706435 </i>
    <i name="e_0_energy">    -37.59374337 </i>
   </energy>
  </scstep>
  <scstep>
   <time name="dav">    7.39    7.40</time>
   <time name="total">   10.36   10.38</time>
   <energy>
    <i name="e_fr_energy">    -37.60872508 </i>
    <i name="e_wo_entrp">    -37.58464755 </i>
    <i name="e_0_energy">    -37.60069923 </i>
   </energy>
  </scstep>
  <scstep>
   <time name="dav">    6.53    6.54</time>
   <time name="total">    9.52    9.53</time>
   <energy>
    <i name="e_fr_energy">    -37.60612362 </i>
    <i name="e_wo_entrp">    -37.58037997 </i>
    <i name="e_0_energy">    -37.59754241 </i>
   </energy>
  </scstep>
  <scstep>
   <time name="dav">    6.76    6.78</time>
   <time name="total">    9.78    9.80</time>
   <energy>
    <i name="e_fr_energy">    -37.60683467 </i>
    <i name="e_wo_entrp">    -37.58042921 </i>
    <i name="e_0_energy">    -37.59803285 </i>
   </energy>
  </scstep>
  <scstep>
   <time name="dav">    6.53    6.55</time>
   <time name="total">    9.52    9.55</time>
   <energy>
    <i name="e_fr_energy">    -37.60767324 </i>
    <i name="e_wo_entrp">    -37.57961393 </i>
    <i name="e_0_energy">    -37.59832013 </i>
   </energy>
  </scstep>
  <scstep>
   <time name="dav">    5.83    5.84</time>
   <time name="total">    8.83    8.85</time>
   <energy>
    <i name="e_fr_energy">    -37.60769054 </i>
    <i name="e_wo_entrp">    -37.58110087 </i>
    <i name="e_0_energy">    -37.59882732 </i>
   </energy>
  </scstep>
  <scstep>
   <time name="dav">    4.98    4.98</time>
   <time name="total">    7.32    7.34</time>
   <energy>
    <i name="alphaZ">      4.88685396 </i>
    <i name="ewald">  12902.17264360 </i>
    <i name="hartreedc"> -21948.61683060 </i>
    <i name="XCdc">     60.23366734 </i>
    <i name="pawpsdc">  10146.38992621 </i>
    <i name="pawaedc"> -10310.97907348 </i>
    <i name="eentropy">     -0.02707466 </i>
    <i name="bandstr">   -596.62632073 </i>
    <i name="atom">   9704.95859309 </i>
    <i name="e_fr_energy">    -37.60761527 </i>
    <i name="e_wo_entrp">    -37.58054061 </i>
    <i name="e_0_energy">    -37.59859038 </i>
   </energy>
  </scstep>
  <structure>
   <crystal>
    <varray name="basis" >
     <v>      22.08998130       0.00000000       0.00000000 </v>
     <v>       0.00000000      21.68723485       0.00000000 </v>
     <v>       0.00000000       0.00000000      24.20595698 </v>
    </varray>
    <i name="volume">  11596.36263072 </i>
    <varray name="rec_basis" >
     <v>       0.04526939       0.00000000       0.00000000 </v>
     <v>       0.00000000       0.04611007       0.00000000 </v>
     <v>       0.00000000       0.00000000       0.04131214 </v>
    </varray>
   </crystal>
   <varray name="positions" >
    <v>       0.52735179       0.52820694       0.52187645 </v>
    <v>       0.45101998       0.58181078       0.57358146 </v>
    <v>       0.49365730       0.49233396       0.61286886 </v>
    <v>       0.41902286       0.48217192       0.54422271 </v>
    <v>       0.50758216       0.42058844       0.54313263 </v>
    <v>       0.43621350       0.56296700       0.48208171 </v>
    <v>       0.55631197       0.58686038       0.60737775 </v>
    <v>       0.59762846       0.46869130       0.58370988 </v>
    <v>       0.46858478       0.45441134       0.45310334 </v>
    <v>       0.52480957       0.55830897       0.42435305 </v>
   </varray>
  </structure>
  <varray name="forces" >
   <v>       0.03641402      -0.12633742       0.07186251 </v>
   <v>      -0.07577194      -0.01349608       0.06264921 </v>
   <v>      -0.07741751       0.05120943      -0.08189056 </v>
   <v>      -0.04692106      -0.01223084       0.04150445 </v>
   <v>      -0.07985825       0.01864991      -0.08567552 </v>
   <v>      -0.00862018      -0.08964474       0.04586436 </v>
   <v>       0.05603222       0.06268617       0.03761230 </v>
   <v>       0.10003665       0.06001917      -0.02911453 </v>
   <v>       0.01696429       0.11627557       0.01631043 </v>
   <v>       0.07914176      -0.06713118      -0.07912263 </v>
  </varray>
  <energy>
   <i name="e_fr_energy">    -37.60761527 </i>
   <i name="e_wo_entrp">    -37.58054061 </i>
   <i name="e_0_energy">    -37.59859038 </i>
  </energy>
  <time name="totalsc">  132.26  132.55</time>
 </calculation>
 <calculation>
  <scstep>
   <time name="dav">    5.50    5.51</time>
   <time name="total">    8.47    8.49</time>
   <energy>
    <i name="alphaZ">      4.88685396 </i>
    <i name="ewald">  12871.50254824 </i>
    <i name="hartreedc"> -21918.63235340 </i>
    <i name="XCdc">     60.15776588 </i>
    <i name="pawpsdc">  10145.72138806 </i>
    <i name="pawaedc"> -10310.31290685 </i>
    <i name="eentropy">     -0.02374869 </i>
    <i name="bandstr">   -595.85835783 </i>
    <i name="atom">   9704.95859309 </i>
    <i name="e_fr_energy">    -37.60021754 </i>
    <i name="e_wo_entrp">    -37.57646885 </i>
    <i name="e_0_energy">    -37.59230131 </i>
   </energy>
  </scstep>
  <scstep>
   <time name="dav">    7.36    7.37</time>
   <time name="total">   10.32   10.34</time>
   <energy>
    <i name="e_fr_energy">    -37.77939820 </i>
    <i name="e_wo_entrp">    -37.75174052 </i>
    <i name="e_0_energy">    -37.77017897 </i>
   </energy>
  </scstep>
  <scstep>
   <time name="dav">    6.19    6.20</time>
   <time name="total">    9.17    9.18</time>
   <energy>
    <i name="e_fr_energy">    -37.58386987 </i>
    <i name="e_wo_entrp">    -37.56372860 </i>
    <i name="e_0_energy">    -37.57715612 </i>
   </energy>
  </scstep>
  <scstep>
   <time name="dav">    7.37    7.39</time>
   <time name="total">   10.35   10.37</time>
   <energy>
    <i name="e_fr_energy">    -37.61215931 </i>
    <i name="e_wo_entrp">    -37.59345968 </i>
    <i name="e_0_energy">    -37.60592610 </i>
   </energy>
  </scstep>
  <scstep>
   <time name="dav">    7.15    7.16</time>
   <time name="total">   10.14   10.16</time>
   <energy>
    <i name="e_fr_energy">    -37.61279450 </i>
    <i name="e_wo_entrp">    -37.58665453 </i>
    <i name="e_0_energy">    -37.60408117 </i>
   </energy>
  </scstep>
  <scstep>
   <time name="dav">    6.77    6.78</time>
   <time name="total">    9.73    9.75</time>
   <energy>
    <i name="e_fr_energy">    -37.61127624 </i>
    <i name="e_wo_entrp">    -37.58720404 </i>
    <i name="e_0_energy">    -37.60325217 </i>
   </energy>
  </scstep>
  <scstep>
   <time name="dav">    7.12    7.14</time>
   <time name="total">   10.11   10.13</time>
   <energy>
    <i name="e_fr_energy">    -37.60891600 </i>
    <i name="e_wo_entrp">    -37.58656518 </i>
    <i name="e_0_energy">    -37.60146573 </i>
   </energy>
  </scstep>
  <scstep>
   <time name="dav">    7.26    7.27</time>
   <time name="total">   10.22   10.25</time>
   <energy>
    <i name="e_fr_energy">    -37.61161279 </i>
    <i name="e_wo_entrp">    -37.59073270 </i>
    <i name="e_0_energy">    -37.60465276 </i>
   </energy>
  </scstep>
  <scstep>
   <time name="dav">    6.41    6.42</time>
   <time name="total">    9.41    9.43</time>
   <energy>
    <i name="e_fr_energy">    -37.61087018 </i>
    <i name="e_wo_entrp">    -37.58788452 </i>
    <i name="e_0_energy">    -37.60320829 </i>
   </energy>
  </scstep>
  <scstep>
   <time name="dav">    6.51    6.52</time>
   <time name="total">    9.48    9.50</time>
   <energy>
    <i name="e_fr_energy">    -37.61160227 </i>
    <i name="e_wo_entrp">    -37.58705850 </i>
    <i name="e_0_energy">    -37.60342102 </i>
   </energy>
  </scstep>
  <scstep>
   <time name="dav">    6.19    6.20</time>
   <time name="total">    9.19    9.21</time>
   <energy>
    <i name="e_fr_energy">    -37.61096396 </i>
    <i name="e_wo_entrp">    -37.58770406 </i>
    <i name="e_0_energy">    -37.60321066 </i>
   </energy>
  </scstep>
  <scstep>
   <time name="dav">    4.61    4.62</time>
   <time name="total">    7.64    7.66</time>
   <energy>
    <i name="e_fr_energy">    -37.61174060 </i>
    <i name="e_wo_entrp">    -37.58836631 </i>
    <i name="e_0_energy">    -37.60394917 </i>
   </energy>
  </scstep>
  <scstep>
   <time name="dav">    4.28    4.29</time>
   <time name="total">    6.63    6.64</time>
   <energy>
    <i name="alphaZ">      4.88685396 </i>
    <i name="ewald">  12871.50254824 </i>
    <i name="hartreedc"> -21918.42593485 </i>
    <i name="XCdc">     60.16748576 </i>
    <i name="pawpsdc">  10131.63025971 </i>
    <i name="pawaedc"> -10296.05511176 </i>
    <i name="eentropy">     -0.02323951 </i>
    <i name="bandstr">   -596.25327163 </i>
    <i name="atom">   9704.95859309 </i>
    <i name="e_fr_energy">    -37.61181699 </i>
    <i name="e_wo_entrp">    -37.58857748 </i>
    <i name="e_0_energy">    -37.60407049 </i>
   </energy>
  </scstep>
  <structure>
   <crystal>
    <varray name="basis" >
     <v>      22.08998130       0.00000000       0.00000000 </v>
     <v>       0.00000000      21.68723485       0.00000000 </v>
     <v>       0.00000000       0.00000000      24.20595698 </v>
    </varray>
    <i name="volume">  11596.36263072 </i>
    <varray name="rec_basis" >
     <v>       0.04526939       0.00000000       0.00000000 </v>
     <v>       0.00000000       0.04611007       0.00000000 </v>
[...]
       <r>    -1.6381    -0.3607    60.0208 </r>
       <r>    -1.5917    -0.2345    60.0099 </r>
       <r>    -1.5453    -0.1249    60.0041 </r>
       <r>    -1.4989    -0.0576    60.0014 </r>
       <r>    -1.4525    -0.0264    60.0002 </r>
       <r>    -1.4061    -0.0207    59.9992 </r>
       <r>    -1.3597    -0.0365    59.9976 </r>
       <r>    -1.3133    -0.0784    59.9939 </r>
       <r>    -1.2669    -0.1513    59.9869 </r>
       <r>    -1.2205    -0.2449    59.9755 </r>
       <r>    -1.1741    -0.3083    59.9612 </r>
       <r>    -1.1277    -0.2319    59.9505 </r>
       <r>    -1.0813     0.1400    59.9570 </r>
       <r>    -1.0349     0.9463    60.0009 </r>
       <r>    -0.9885     2.2118    60.1035 </r>
       <r>    -0.9421     3.7741    60.2786 </r>
       <r>    -0.8957     5.3017    60.5246 </r>
       <r>    -0.8493     6.4220    60.8225 </r>
       <r>    -0.8029     6.8963    61.1425 </r>
       <r>    -0.7565     6.7413    61.4553 </r>
       <r>    -0.7101     6.2217    61.7440 </r>
       <r>    -0.6637     5.7216    62.0094 </r>
       <r>    -0.6173     5.5746    62.2681 </r>
       <r>    -0.5710     5.9424    62.5438 </r>
       <r>    -0.5246     6.7758    62.8582 </r>
       <r>    -0.4782     7.8397    63.2219 </r>
       <r>    -0.4318     8.7881    63.6296 </r>
       <r>    -0.3854     9.2889    64.0606 </r>
       <r>    -0.3390     9.1667    64.4859 </r>
       <r>    -0.2926     8.4689    64.8789 </r>
       <r>    -0.2462     7.3923    65.2218 </r>
       <r>    -0.1998     6.1309    65.5063 </r>
       <r>    -0.1534     4.7889    65.7285 </r>
       <r>    -0.1070     3.4211    65.8872 </r>
       <r>    -0.0606     2.1187    65.9855 </r>
       <r>    -0.0142     1.0244    66.0330 </r>
       <r>     0.0322     0.2608    66.0451 </r>
       <r>     0.0786    -0.1460    66.0384 </r>
       <r>     0.1250    -0.2726    66.0257 </r>
       <r>     0.1714    -0.2421    66.0145 </r>
       <r>     0.2178    -0.1606    66.0070 </r>
       <r>     0.2642    -0.0873    66.0030 </r>
       <r>     0.3106    -0.0403    66.0011 </r>
       <r>     0.3570    -0.0161    66.0004 </r>
       <r>     0.4034    -0.0056    66.0001 </r>
       <r>     0.4498    -0.0017    66.0000 </r>
       <r>     0.4962    -0.0005    66.0000 </r>
       <r>     0.5426    -0.0001    66.0000 </r>
       <r>     0.5890    -0.0000    66.0000 </r>
       <r>     0.6354    -0.0000    66.0000 </r>
       <r>     0.6818    -0.0000    66.0000 </r>
       <r>     0.7282    -0.0000    66.0000 </r>
       <r>     0.7746    -0.0000    66.0000 </r>
       <r>     0.8210    -0.0000    66.0000 </r>
       <r>     0.8674    -0.0000    66.0000 </r>
       <r>     0.9138    -0.0000    66.0000 </r>
       <r>     0.9602    -0.0000    66.0000 </r>
       <r>     1.0065    -0.0000    66.0000 </r>
       <r>     1.0529    -0.0000    66.0000 </r>
       <r>     1.0993     0.0000    66.0000 </r>
       <r>     1.1457     0.0000    66.0000 </r>
       <r>     1.1921     0.0000    66.0000 </r>
       <r>     1.2385     0.0000    66.0000 </r>
       <r>     1.2849     0.0000    66.0000 </r>
       <r>     1.3313     0.0000    66.0000 </r>
       <r>     1.3777     0.0000    66.0000 </r>
       <r>     1.4241     0.0000    66.0000 </r>
       <r>     1.4705     0.0000    66.0000 </r>
       <r>     1.5169     0.0000    66.0000 </r>
       <r>     1.5633     0.0000    66.0000 </r>
       <r>     1.6097     0.0000    66.0000 </r>
       <r>     1.6561     0.0000    66.0000 </r>
       <r>     1.7025     0.0000    66.0000 </r>
       <r>     1.7489     0.0000    66.0000 </r>
       <r>     1.7953     0.0000    66.0000 </r>
       <r>     1.8417     0.0000    66.0000 </r>
       <r>     1.8881     0.0000    66.0000 </r>
       <r>     1.9345     0.0000    66.0000 </r>
       <r>     1.9809     0.0000    66.0000 </r>
      </set>
      <set comment="spin 2">
       <r>   -11.9382     0.0000     0.0000 </r>
       <r>   -11.8918     0.0000     0.0000 </r>
       <r>   -11.8454     0.0000     0.0000 </r>
       <r>   -11.7990     0.0000     0.0000 </r>
       <r>   -11.7526     0.0000     0.0000 </r>
       <r>   -11.7062     0.0000     0.0000 </r>
       <r>   -11.6598     0.0000     0.0000 </r>
       <r>   -11.6135     0.0000     0.0000 </r>
       <r>   -11.5671     0.0000     0.0000 </r>
       <r>   -11.5207     0.0000     0.0000 </r>
       <r>   -11.4743    -0.0000    -0.0000 </r>
       <r>   -11.4279    -0.0000    -0.0000 </r>
       <r>   -11.3815    -0.0000    -0.0000 </r>
       <r>   -11.3351    -0.0000    -0.0000 </r>
       <r>   -11.2887    -0.0000    -0.0000 </r>
       <r>   -11.2423    -0.0000    -0.0000 </r>
       <r>   -11.1959    -0.0000    -0.0000 </r>
       <r>   -11.1495    -0.0000    -0.0000 </r>
       <r>   -11.1031    -0.0000    -0.0000 </r>
       <r>   -11.0567    -0.0000    -0.0000 </r>
       <r>   -11.0103    -0.0000    -0.0000 </r>
       <r>   -10.9639    -0.0000    -0.0000 </r>
       <r>   -10.9175    -0.0000    -0.0000 </r>
       <r>   -10.8711    -0.0000    -0.0000 </r>
       <r>   -10.8247    -0.0000    -0.0000 </r>
       <r>   -10.7783    -0.0000    -0.0000 </r>
       <r>   -10.7319    -0.0000    -0.0000 </r>
       <r>   -10.6855    -0.0000    -0.0000 </r>
       <r>   -10.6391    -0.0000    -0.0000 </r>
       <r>   -10.5927    -0.0000    -0.0000 </r>
       <r>   -10.5463    -0.0001    -0.0000 </r>
       <r>   -10.4999    -0.0004    -0.0000 </r>
       <r>   -10.4535    -0.0016    -0.0001 </r>
       <r>   -10.4071    -0.0053    -0.0003 </r>
       <r>   -10.3607    -0.0153    -0.0011 </r>
       <r>   -10.3143    -0.0382    -0.0028 </r>
       <r>   -10.2679    -0.0821    -0.0066 </r>
       <r>   -10.2215    -0.1482    -0.0135 </r>
       <r>   -10.1751    -0.2135    -0.0234 </r>
       <r>   -10.1287    -0.2090    -0.0331 </r>
       <r>   -10.0823    -0.0155    -0.0338 </r>
       <r>   -10.0360     0.4969    -0.0108 </r>
       <r>    -9.9896     1.3777     0.0531 </r>
       <r>    -9.9432     2.5013     0.1692 </r>
       <r>    -9.8968     3.5528     0.3340 </r>
       <r>    -9.8504     4.1508     0.5266 </r>
       <r>    -9.8040     4.0517     0.7146 </r>
       <r>    -9.7576     3.2971     0.8676 </r>
       <r>    -9.7112     2.1877     0.9691 </r>
       <r>    -9.6648     1.1057     1.0204 </r>
       <r>    -9.6184     0.3210     1.0353 </r>
       <r>    -9.5720    -0.0947     1.0309 </r>
       <r>    -9.5256    -0.2232     1.0205 </r>
       <r>    -9.4792    -0.1988     1.0113 </r>
       <r>    -9.4328    -0.1287     1.0053 </r>
       <r>    -9.3864    -0.0677     1.0022 </r>
       <r>    -9.3400    -0.0302     1.0008 </r>
       <r>    -9.2936    -0.0116     1.0003 </r>
       <r>    -9.2472    -0.0039     1.0001 </r>
       <r>    -9.2008    -0.0012     1.0000 </r>
       <r>    -9.1544    -0.0003     1.0000 </r>
       <r>    -9.1080    -0.0001     1.0000 </r>
       <r>    -9.0616    -0.0000     1.0000 </r>
       <r>    -9.0152    -0.0000     1.0000 </r>
       <r>    -8.9688    -0.0000     1.0000 </r>
       <r>    -8.9224    -0.0000     1.0000 </r>
       <r>    -8.8760    -0.0000     1.0000 </r>
       <r>    -8.8296    -0.0000     1.0000 </r>
       <r>    -8.7832    -0.0000     1.0000 </r>
       <r>    -8.7368    -0.0000     1.0000 </r>
       <r>    -8.6904    -0.0001     1.0000 </r>
       <r>    -8.6440    -0.0005     1.0000 </r>
       <r>    -8.5976    -0.0020     0.9999 </r>
       <r>    -8.5512    -0.0064     0.9996 </r>
       <r>    -8.5048    -0.0181     0.9987 </r>
       <r>    -8.4585    -0.0450     0.9966 </r>
       <r>    -8.4121    -0.0965     0.9922 </r>
       <r>    -8.3657    -0.1760     0.9840 </r>
       <r>    -8.3193    -0.2629     0.9718 </r>
       <r>    -8.2729    -0.2915     0.9583 </r>
       <r>    -8.2265    -0.1444     0.9516 </r>
       <r>    -8.1801     0.3187     0.9664 </r>
       <r>    -8.1337     1.1925     1.0217 </r>
       <r>    -8.0873     2.4584     1.1358 </r>
       <r>    -8.0409     3.9705     1.3200 </r>
       <r>    -7.9945     5.5139     1.5758 </r>
       <r>    -7.9481     6.8857     1.8953 </r>
       <r>    -7.9017     7.9246     2.2630 </r>
       <r>    -7.8553     8.4811     2.6565 </r>
       <r>    -7.8089     8.3998     3.0462 </r>
       <r>    -7.7625     7.5787     3.3978 </r>
       <r>    -7.7161     6.0762     3.6797 </r>
       <r>    -7.6697     4.1621     3.8728 </r>
       <r>    -7.6233     2.2462     3.9771 </r>
       <r>    -7.5769     0.7301     4.0109 </r>
       <r>    -7.5305    -0.1130     4.0057 </r>
       <r>    -7.4841    -0.1710     3.9978 </r>
       <r>    -7.4377     0.5318     4.0224 </r>
       <r>    -7.3913     1.8565     4.1086 </r>
       <r>    -7.3449     3.5570     4.2736 </r>
       <r>    -7.2985     5.3114     4.5200 </r>
       <r>    -7.2521     6.7968     4.8354 </r>
       <r>    -7.2057     7.7737     5.1961 </r>
       <r>    -7.1593     8.1283     5.5732 </r>
       <r>    -7.1129     7.8711     5.9384 </r>
       <r>    -7.0665     7.1327     6.2693 </r>
       <r>    -7.0201     6.1726     6.5557 </r>
       <r>    -6.9737     5.3556     6.8042 </r>
       <r>    -6.9273     5.0404     7.0381 </r>
       <r>    -6.8810     5.4200     7.2895 </r>
       <r>    -6.8346     6.4356     7.5881 </r>
       <r>    -6.7882     7.8576     7.9527 </r>
       <r>    -6.7418     9.4666     8.3919 </r>
       <r>    -6.6954    11.1667     8.9100 </r>
       <r>    -6.6490    12.9189     9.5094 </r>
       <r>    -6.6026    14.5756    10.1857 </r>
       <r>    -6.5562    15.8033    10.9189 </r>
       <r>    -6.5098    16.2150    11.6712 </r>
       <r>    -6.4634    15.6406    12.3969 </r>
       <r>    -6.4170    14.3301    13.0618 </r>
       <r>    -6.3706    12.9201    13.6612 </r>
       <r>    -6.3242    12.1498    14.2250 </r>
       <r>    -6.2778    12.4821    14.8041 </r>
       <r>    -6.2314    13.8397    15.4462 </r>
       <r>    -6.1850    15.6058    16.1703 </r>
       <r>    -6.1386    16.8976    16.9543 </r>
       <r>    -6.0922    16.9826    17.7422 </r>
       <r>    -6.0458    15.6274    18.4673 </r>
       <r>    -5.9994    13.2039    19.0799 </r>
       <r>    -5.9530    10.5001    19.5671 </r>
       <r>    -5.9066     8.3387    19.9540 </r>
       <r>    -5.8602     7.2053    20.2883 </r>
       <r>    -5.8138     7.0745    20.6165 </r>
       <r>    -5.7674     7.5129    20.9651 </r>
       <r>    -5.7210     7.9777    21.3352 </r>
       <r>    -5.6746     8.1255    21.7122 </r>
       <r>    -5.6282     7.9655    22.0818 </r>
       <r>    -5.5818     7.8014    22.4438 </r>
       <r>    -5.5354     8.0276    22.8162 </r>
       <r>    -5.4890     8.9009    23.2292 </r>
       <r>    -5.4426    10.4004    23.7117 </r>
       <r>    -5.3962    12.2449    24.2799 </r>
       <r>    -5.3498    14.0504    24.9318 </r>
       <r>    -5.3035    15.5193    25.6518 </r>
       <r>    -5.2571    16.5345    26.4190 </r>
       <r>    -5.2107    17.1244    27.2135 </r>
       <r>    -5.1643    17.3753    28.0197 </r>
       <r>    -5.1179    17.3776    28.8259 </r>
       <r>    -5.0715    17.2149    29.6246 </r>
       <r>    -5.0251    16.9480    30.4110 </r>
       <r>    -4.9787    16.5791    31.1802 </r>
       <r>    -4.9323    16.0435    31.9246 </r>
       <r>    -4.8859    15.2793    32.6335 </r>
       <r>    -4.8395    14.3618    33.2998 </r>
       <r>    -4.7931    13.6000    33.9308 </r>
       <r>    -4.7467    13.4729    34.5559 </r>
       <r>    -4.7003    14.3676    35.2226 </r>
       <r>    -4.6539    16.2648    35.9772 </r>
       <r>    -4.6075    18.6269    36.8414 </r>
       <r>    -4.5611    20.6375    37.7989 </r>
       <r>    -4.5147    21.6547    38.8037 </r>
       <r>    -4.4683    21.5464    39.8033 </r>
       <r>    -4.4219    20.6729    40.7625 </r>
       <r>    -4.3755    19.5855    41.6712 </r>
       <r>    -4.3291    18.7159    42.5396 </r>
       <r>    -4.2827    18.2703    43.3873 </r>
       <r>    -4.2363    18.3115    44.2369 </r>
       <r>    -4.1899    18.8679    45.1123 </r>
       <r>    -4.1435    19.9439    46.0376 </r>
       <r>    -4.0971    21.4405    47.0324 </r>
       <r>    -4.0507    23.0766    48.1031 </r>
       <r>    -4.0043    24.3751    49.2340 </r>
       <r>    -3.9579    24.7368    50.3817 </r>
       <r>    -3.9115    23.6102    51.4772 </r>
       <r>    -3.8651    20.7366    52.4393 </r>
       <r>    -3.8187    16.3622    53.1985 </r>
       <r>    -3.7723    11.2467    53.7203 </r>
       <r>    -3.7260     6.3922    54.0168 </r>
       <r>    -3.6796     2.6262    54.1387 </r>
       <r>    -3.6332     0.2974    54.1525 </r>
       <r>    -3.5868    -0.7452    54.1179 </r>
       <r>    -3.5404    -0.9384    54.0744 </r>
       <r>    -3.4940    -0.7385    54.0401 </r>
       <r>    -3.4476    -0.4577    54.0189 </r>
       <r>    -3.4012    -0.2384    54.0078 </r>
       <r>    -3.3548    -0.1083    54.0028 </r>
       <r>    -3.3084    -0.0469    54.0006 </r>
       <r>    -3.2620    -0.0292    53.9993 </r>
       <r>    -3.2156    -0.0415    53.9973 </r>
       <r>    -3.1692    -0.0823    53.9935 </r>
       <r>    -3.1228    -0.1505    53.9865 </r>
       <r>    -3.0764    -0.2273    53.9760 </r>
       <r>    -3.0300    -0.2540    53.9642 </r>
       <r>    -2.9836    -0.1255    53.9584 </r>
       <r>    -2.9372     0.2798    53.9714 </r>
       <r>    -2.8908     1.0296    54.0191 </r>
       <r>    -2.8444     2.0724    54.1153 </r>
       <r>    -2.7980     3.2445    54.2658 </r>
       <r>    -2.7516     4.3701    54.4686 </r>
       <r>    -2.7052     5.3773    54.7181 </r>
       <r>    -2.6588     6.3027    55.0105 </r>
       <r>    -2.6124     7.1576    55.3426 </r>
       <r>    -2.5660     7.7872    55.7039 </r>
       <r>    -2.5196     7.9024    56.0705 </r>
       <r>    -2.4732     7.3077    56.4096 </r>
       <r>    -2.4268     6.1325    56.6941 </r>
       <r>    -2.3804     4.8329    56.9184 </r>
       <r>    -2.3340     3.9188    57.1002 </r>
       <r>    -2.2876     3.6103    57.2677 </r>
       <r>    -2.2412     3.6998    57.4394 </r>
       <r>    -2.1948     3.7252    57.6122 </r>
       <r>    -2.1485     3.3132    57.7659 </r>
       <r>    -2.1021     2.4341    57.8789 </r>
       <r>    -2.0557     1.4115    57.9443 </r>
       <r>    -2.0093     0.7276    57.9781 </r>
       <r>    -1.9629     0.7768    58.0141 </r>
       <r>    -1.9165     1.6938    58.0927 </r>
       <r>    -1.8701     3.2961    58.2457 </r>
       <r>    -1.8237     5.1350    58.4839 </r>
       <r>    -1.7773     6.6397    58.7920 </r>
       <r>    -1.7309     7.3221    59.1317 </r>
       <r>    -1.6845     6.9659    59.4549 </r>
       <r>    -1.6381     5.7082    59.7197 </r>
       <r>    -1.5917     3.9637    59.9036 </r>
       <r>    -1.5453     2.2303    60.0071 </r>
       <r>    -1.4989     0.8845    60.0482 </r>
       <r>    -1.4525     0.0712    60.0515 </r>
       <r>    -1.4061    -0.2748    60.0387 </r>
       <r>    -1.3597    -0.3248    60.0237 </r>
       <r>    -1.3133    -0.2487    60.0121 </r>
       <r>    -1.2669    -0.1585    60.0048 </r>
       <r>    -1.2205    -0.1058    59.9999 </r>
       <r>    -1.1741    -0.1056    59.9950 </r>
       <r>    -1.1277    -0.1546    59.9878 </r>
       <r>    -1.0813    -0.2316    59.9770 </r>
       <r>    -1.0349    -0.2796    59.9641 </r>
       <r>    -0.9885    -0.1916    59.9552 </r>
       <r>    -0.9421     0.1743    59.9633 </r>
       <r>    -0.8957     0.9335    60.0066 </r>
       <r>    -0.8493     2.0899    60.1035 </r>
       <r>    -0.8029     3.4844    60.2652 </r>
       <r>    -0.7565     4.8276    60.4892 </r>
       <r>    -0.7101     5.8097    60.7587 </r>
       <r>    -0.6637     6.2294    61.0478 </r>
       <r>    -0.6173     6.0788    61.3298 </r>
       <r>    -0.5710     5.5566    61.5876 </r>
       <r>    -0.5246     5.0062    61.8199 </r>
       <r>    -0.4782     4.7881    62.0420 </r>
       <r>    -0.4318     5.1280    62.2800 </r>
       <r>    -0.3854     6.0135    62.5590 </r>
       <r>    -0.3390     7.2044    62.8932 </r>
       <r>    -0.2926     8.3466    63.2805 </r>
       <r>    -0.2462     9.1205    63.7037 </r>
       <r>    -0.1998     9.3515    64.1375 </r>
       <r>    -0.1534     9.0379    64.5569 </r>
       <r>    -0.1070     8.2963    64.9418 </r>
       <r>    -0.0606     7.2620    65.2787 </r>
       <r>    -0.0142     6.0222    65.5581 </r>
       <r>     0.0322     4.6323    65.7731 </r>
       <r>     0.0786     3.1844    65.9208 </r>
       <r>     0.1250     1.8394    66.0061 </r>
       <r>     0.1714     0.7746    66.0421 </r>
       <r>     0.2178     0.0931    66.0464 </r>
       <r>     0.2642    -0.2239    66.0360 </r>
       <r>     0.3106    -0.2870    66.0227 </r>
       <r>     0.3570    -0.2271    66.0122 </r>
       <r>     0.4034    -0.1403    66.0057 </r>
       <r>     0.4498    -0.0722    66.0023 </r>
       <r>     0.4962    -0.0318    66.0008 </r>
       <r>     0.5426    -0.0122    66.0003 </r>
       <r>     0.5890    -0.0041    66.0001 </r>
       <r>     0.6354    -0.0012    66.0000 </r>
       <r>     0.6818    -0.0003    66.0000 </r>
       <r>     0.7282    -0.0001    66.0000 </r>
       <r>     0.7746    -0.0000    66.0000 </r>
       <r>     0.8210    -0.0000    66.0000 </r>
       <r>     0.8674    -0.0000    66.0000 </r>
       <r>     0.9138    -0.0000    66.0000 </r>
       <r>     0.9602    -0.0000    66.0000 </r>
       <r>     1.0065    -0.0000    66.0000 </r>
       <r>     1.0529    -0.0000    66.0000 </r>
       <r>     1.0993    -0.0000    66.0000 </r>
       <r>     1.1457    -0.0000    66.0000 </r>
       <r>     1.1921    -0.0000    66.0000 </r>
       <r>     1.2385    -0.0000    66.0000 </r>
       <r>     1.2849     0.0000    66.0000 </r>
       <r>     1.3313     0.0000    66.0000 </r>
       <r>     1.3777     0.0000    66.0000 </r>
       <r>     1.4241     0.0000    66.0000 </r>
       <r>     1.4705     0.0000    66.0000 </r>
       <r>     1.5169     0.0000    66.0000 </r>
       <r>     1.5633     0.0000    66.0000 </r>
       <r>     1.6097     0.0000    66.0000 </r>
       <r>     1.6561     0.0000    66.0000 </r>
       <r>     1.7025     0.0000    66.0000 </r>
       <r>     1.7489     0.0000    66.0000 </r>
       <r>     1.7953     0.0000    66.0000 </r>
       <r>     1.8417     0.0000    66.0000 </r>
       <r>     1.8881     0.0000    66.0000 </r>
       <r>     1.9345     0.0000    66.0000 </r>
       <r>     1.9809     0.0000    66.0000 </r>
      </set>
     </set>
    </array>
   </total>
  </dos>
 </calculation>
 <structure name="finalpos" >
  <crystal>
   <varray name="basis" >
    <v>      22.08998130       0.00000000       0.00000000 </v>
    <v>       0.00000000      21.68723485       0.00000000 </v>
    <v>       0.00000000       0.00000000      24.20595698 </v>
   </varray>
   <i name="volume">  11596.36263072 </i>
   <varray name="rec_basis" >
    <v>       0.04526939       0.00000000       0.00000000 </v>
    <v>       0.00000000       0.04611007       0.00000000 </v>
    <v>       0.00000000       0.00000000       0.04131214 </v>
   </varray>
  </crystal>
  <varray name="positions" >
   <v>       0.52979137       0.52520413       0.52213457 </v>
   <v>       0.44649286       0.58178727       0.57747394 </v>
   <v>       0.49400049       0.49302254       0.61102321 </v>
   <v>       0.41857498       0.48191199       0.54452562 </v>
   <v>       0.50878986       0.42199012       0.53963949 </v>
   <v>       0.43968499       0.56366095       0.48528689 </v>
   <v>       0.55411974       0.58925504       0.60463602 </v>
   <v>       0.59891048       0.46896953       0.58553301 </v>
   <v>       0.46442166       0.45584204       0.45141111 </v>
   <v>       0.52739593       0.55470742       0.42464395 </v>
  </varray>
 </structure>
</modeling>
