unknown system                          
            1
    22.089981    0.000000    0.000000
     0.000000   21.687235    0.000000
     0.000000    0.000000   24.205957
   Ni   Pd
     6     4
Direct configuration=     1
   0.52404612  0.52598112  0.52211459
   0.45135552  0.58512299  0.57610016
   0.49231032  0.49073355  0.61837026
   0.42028116  0.48230351  0.54270725
   0.51085788  0.41660767  0.54283077
   0.43129248  0.56600211  0.47704232
   0.55983626  0.58159797  0.60619177
   0.59743971  0.47371075  0.58577611
   0.47060377  0.45893246  0.45229455
   0.52415913  0.55535890  0.42288004
Direct configuration=     2
   0.52348369  0.52629622  0.52224414
   0.45147208  0.58337944  0.57509570
   0.49181799  0.49095531  0.61650008
   0.42144279  0.48309844  0.54330020
   0.51006363  0.41801309  0.54310740
   0.43226981  0.56541859  0.47860823
   0.55900466  0.58347850  0.60656040
   0.59795980  0.47177098  0.58532192
   0.46991885  0.45727030  0.45281876
   0.52474908  0.55667017  0.42275099
Direct configuration=     3
   0.52297467  0.52658138  0.52236140
   0.45157756  0.58180147  0.57418664
   0.49137240  0.49115601  0.61480751
   0.42249409  0.48381788  0.54383683
   0.50934480  0.41928504  0.54335776
   0.43315432  0.56489048  0.48002543
   0.55825203  0.58518044  0.60689402
   0.59843049  0.47001543  0.58491086
   0.46929898  0.45576599  0.45329319
   0.52528300  0.55785691  0.42263419
Direct configuration=     4
   0.52406590  0.52721414  0.52209709
   0.45153597  0.58172947  0.57391421
   0.49216348  0.49142246  0.61418577
   0.42159183  0.48341996  0.54395488
   0.50902268  0.41976377  0.54350299
   0.43422222  0.56440603  0.48059724
   0.55757531  0.58558612  0.60697694
   0.59797119  0.46952127  0.58457894
   0.46907068  0.45528120  0.45315244
   0.52496311  0.55800660  0.42334731
Direct configuration=     5
   0.52589167  0.52827282  0.52165488
   0.45146637  0.58160901  0.57345841
   0.49348704  0.49186824  0.61314553
   0.42008224  0.48275419  0.54415240
   0.50848373  0.42056476  0.54374597
   0.43600895  0.56359550  0.48155396
   0.55644307  0.58626488  0.60711568
   0.59720272  0.46869449  0.58402359
   0.46868869  0.45447008  0.45291696
   0.52442789  0.55825705  0.42454044
Direct configuration=     6
   0.52735179  0.52820694  0.52187645
   0.45101998  0.58181078  0.57358146
   0.49365730  0.49233396  0.61286886
   0.41902286  0.48217192  0.54422271
   0.50758216  0.42058844  0.54313263
   0.43621350  0.56296700  0.48208171
   0.55631197  0.58686038  0.60737775
   0.59762846  0.46869130  0.58370988
   0.46858478  0.45441134  0.45310334
   0.52480957  0.55830897  0.42435305
Direct configuration=     7
   0.52833266  0.52816268  0.52202529
   0.45072010  0.58194633  0.57366411
   0.49377168  0.49264682  0.61268300
   0.41831120  0.48178077  0.54426994
   0.50697650  0.42060435  0.54272060
   0.43635091  0.56254478  0.48243624
   0.55622390  0.58726041  0.60755380
   0.59791446  0.46868916  0.58349915
   0.46851497  0.45437188  0.45322854
   0.52506597  0.55834384  0.42422716
Direct configuration=     8
   0.52840609  0.52760900  0.52218634
   0.45040045  0.58177121  0.57389317
   0.49355778  0.49289163  0.61204544
   0.41811954  0.48178949  0.54453347
   0.50676586  0.42090634  0.54258826
   0.43664648  0.56207214  0.48271655
   0.55630922  0.58753233  0.60766498
   0.59815522  0.46886532  0.58335428
   0.46856078  0.45496026  0.45314850
   0.52526096  0.55795332  0.42417684
Direct configuration=     9
   0.52843059  0.52742428  0.52224007
   0.45029380  0.58171278  0.57396958
   0.49348641  0.49297331  0.61183273
   0.41805560  0.48179239  0.54462140
   0.50669558  0.42100709  0.54254411
   0.43674508  0.56191445  0.48281006
   0.55633768  0.58762304  0.60770207
   0.59823554  0.46892409  0.58330595
   0.46857606  0.45515656  0.45312179
   0.52532601  0.55782303  0.42416006
Direct configuration=    10
   0.52847968  0.52707759  0.52225341
   0.45001291  0.58188281  0.57429387
   0.49358284  0.49310950  0.61157820
   0.41775133  0.48177844  0.54478823
   0.50695264  0.42096356  0.54254276
   0.43688347  0.56198841  0.48297189
   0.55622039  0.58756967  0.60757371
   0.59828276  0.46914044  0.58333466
   0.46843841  0.45534754  0.45273903
   0.52557795  0.55749306  0.42423206
Direct configuration=    11
   0.52853690  0.52667347  0.52226895
   0.44968548  0.58208101  0.57467188
   0.49369525  0.49326825  0.61128150
   0.41739664  0.48176217  0.54498271
   0.50725228  0.42091283  0.54254120
   0.43704477  0.56207463  0.48316053
   0.55608367  0.58750745  0.60742408
   0.59833779  0.46939264  0.58336813
   0.46827795  0.45557016  0.45229284
   0.52587162  0.55710842  0.42431600
Direct configuration=    12
   0.52854385  0.52645704  0.52219281
   0.44943863  0.58219629  0.57485097
   0.49368577  0.49329789  0.61116828
   0.41733065  0.48177361  0.54499958
   0.50732854  0.42092142  0.54241945
   0.43717156  0.56211371  0.48336266
   0.55601030  0.58754670  0.60731030
   0.59847720  0.46949388  0.58343391
   0.46813177  0.45563640  0.45218278
   0.52606410  0.55691408  0.42438709
Direct configuration=    13
   0.52856471  0.52580774  0.52196441
   0.44869810  0.58254215  0.57538822
   0.49365733  0.49338681  0.61082861
   0.41713268  0.48180792  0.54505020
   0.50755732  0.42094719  0.54205420
   0.43755192  0.56223096  0.48396906
   0.55579016  0.58766447  0.60696897
   0.59889542  0.46979760  0.58363123
   0.46769322  0.45583512  0.45185258
   0.52664151  0.55633106  0.42460035
Direct configuration=    14
   0.52866058  0.52574893  0.52199067
   0.44855099  0.58252603  0.57549279
   0.49359552  0.49332944  0.61081131
   0.41734028  0.48182951  0.54492967
   0.50749466  0.42105771  0.54184391
   0.43767091  0.56227697  0.48412060
   0.55567912  0.58775470  0.60678026
   0.59896242  0.46978490  0.58370632
   0.46748031  0.45573643  0.45200479
   0.52674759  0.55630640  0.42462751
Direct configuration=    15
   0.52885373  0.52563043  0.52204360
   0.44825458  0.58249354  0.57570348
   0.49347100  0.49321385  0.61077643
   0.41775857  0.48187301  0.54468683
   0.50736840  0.42128039  0.54142019
   0.43791067  0.56236970  0.48442594
   0.55545538  0.58793650  0.60640004
   0.59909742  0.46975932  0.58385762
   0.46705131  0.45553758  0.45231147
   0.52696132  0.55625669  0.42468223
Direct configuration=    16
   0.52909089  0.52565571  0.52207368
   0.44808140  0.58244531  0.57592271
   0.49354127  0.49315754  0.61087411
   0.41786767  0.48185948  0.54460682
   0.50753355  0.42133583  0.54125840
   0.43816422  0.56258495  0.48444268
   0.55524159  0.58804451  0.60609372
   0.59898701  0.46967772  0.58397985
   0.46670963  0.45542194  0.45226375
   0.52696513  0.55616802  0.42479211
Direct configuration=    17
   0.52954395  0.52570401  0.52213114
   0.44775058  0.58235318  0.57634150
   0.49367551  0.49304996  0.61106069
   0.41807608  0.48183363  0.54445397
   0.50784904  0.42144173  0.54094935
   0.43864859  0.56299616  0.48447466
   0.55483317  0.58825086  0.60550856
   0.59877609  0.46952184  0.58421336
   0.46605693  0.45520101  0.45217259
   0.52697242  0.55599864  0.42500201
Direct configuration=    18
   0.52957488  0.52564425  0.52207349
   0.44746588  0.58216916  0.57650931
   0.49367779  0.49299511  0.61111389
   0.41823791  0.48192764  0.54444745
   0.50809518  0.42152813  0.54075925
   0.43896002  0.56318011  0.48466622
   0.55469163  0.58854316  0.60526939
   0.59878574  0.46932587  0.58444638
   0.46567875  0.45523285  0.45200161
   0.52701459  0.55580473  0.42502084
Direct configuration=    19
   0.52962053  0.52555608  0.52198842
   0.44704580  0.58189763  0.57675691
   0.49368114  0.49291418  0.61119238
   0.41847670  0.48206636  0.54443782
   0.50845837  0.42165562  0.54047875
   0.43941953  0.56345154  0.48494888
   0.55448279  0.58897447  0.60491649
   0.59879997  0.46903671  0.58479021
   0.46512072  0.45527984  0.45174934
   0.52707682  0.55551861  0.42504861
Direct configuration=    20
   0.52966370  0.52530038  0.52216068
   0.44678942  0.58174383  0.57702872
   0.49379671  0.49296003  0.61109306
   0.41860289  0.48207173  0.54447723
   0.50864377  0.42186879  0.54016632
   0.43952365  0.56359527  0.48514856
   0.55432437  0.58915860  0.60474055
   0.59880710  0.46894944  0.58509189
   0.46477926  0.45546381  0.45159210
   0.52725149  0.55523913  0.42480871
Direct configuration=    21
   0.52967854  0.52521252  0.52221988
   0.44670131  0.58169098  0.57712213
   0.49383643  0.49297579  0.61105892
   0.41864625  0.48207357  0.54449077
   0.50870749  0.42194205  0.54005895
   0.43955943  0.56364467  0.48521718
   0.55426993  0.58922187  0.60468009
   0.59880955  0.46891945  0.58519556
   0.46466192  0.45552702  0.45153807
   0.52731151  0.55514309  0.42472627
Direct configuration=    22
   0.52976256  0.52520627  0.52215635
   0.44654607  0.58176269  0.57738413
   0.49395861  0.49301060  0.61103233
   0.41859318  0.48195324  0.54451673
   0.50876883  0.42197785  0.53974657
   0.43965294  0.56365679  0.48526909
   0.55415808  0.58924657  0.60464727
   0.59888472  0.46895675  0.58544687
   0.46448300  0.45576162  0.45144352
   0.52737438  0.55481864  0.42466497
Direct configuration=    23
   0.52979137  0.52520413  0.52213457
   0.44649286  0.58178727  0.57747394
   0.49400049  0.49302254  0.61102321
   0.41857498  0.48191199  0.54452562
   0.50878986  0.42199012  0.53963949
   0.43968499  0.56366095  0.48528689
   0.55411974  0.58925504  0.60463602
   0.59891048  0.46896953  0.58553301
   0.46442166  0.45584204  0.45141111
   0.52739593  0.55470742  0.42464395
