   8   8   0   0
  0.1470863E+04  0.2264185E-08  0.2429443E-08  0.2139161E-08  0.5000000E-15
   1.0000000000000000E-004
  CAR 
 unknown system                          
      1.97770722    -12.86635454  301     -5.41474307      1.00000000
    -12.866  0.0000E+00  0.0000E+00  0.0000E+00  0.0000E+00
    -12.817  0.0000E+00  0.0000E+00  0.0000E+00  0.0000E+00
    -12.767  0.0000E+00  0.0000E+00  0.0000E+00  0.0000E+00
    -12.718  0.0000E+00  0.0000E+00  0.0000E+00  0.0000E+00
    -12.668  0.0000E+00  0.0000E+00  0.0000E+00  0.0000E+00
    -12.619  0.0000E+00  0.0000E+00  0.0000E+00  0.0000E+00
    -12.569  0.0000E+00  0.0000E+00  0.0000E+00  0.0000E+00
    -12.520  0.0000E+00  0.0000E+00  0.0000E+00  0.0000E+00
    -12.471 -0.5256E-29 -0.5256E-29 -0.2601E-30 -0.2601E-30
    -12.421 -0.2483E-27 -0.2483E-27 -0.1255E-28 -0.1255E-28
    -12.372 -0.1056E-25 -0.1056E-25 -0.5349E-27 -0.5349E-27
    -12.322 -0.3966E-24 -0.3966E-24 -0.2016E-25 -0.2016E-25
    -12.273 -0.1316E-22 -0.1316E-22 -0.6713E-24 -0.6713E-24
    -12.223 -0.3857E-21 -0.3857E-21 -0.1976E-22 -0.1976E-22
    -12.174 -0.9984E-20 -0.9985E-20 -0.5138E-21 -0.5138E-21
    -12.124 -0.2282E-18 -0.2282E-18 -0.1180E-19 -0.1180E-19
    -12.075 -0.4604E-17 -0.4604E-17 -0.2396E-18 -0.2396E-18
    -12.025 -0.7973E-16 -0.7973E-16 -0.4184E-17 -0.4184E-17
    -11.976 -0.1246E-14 -0.1246E-14 -0.6585E-16 -0.6585E-16
    -11.926 -0.1721E-13 -0.1721E-13 -0.9176E-15 -0.9176E-15
    -11.877 -0.2095E-12 -0.2096E-12 -0.1129E-13 -0.1129E-13
    -11.827 -0.2247E-11 -0.2247E-11 -0.1225E-12 -0.1225E-12
    -11.778 -0.2120E-10 -0.2120E-10 -0.1172E-11 -0.1172E-11
    -11.728 -0.1760E-09 -0.1760E-09 -0.9880E-11 -0.9880E-11
    -11.679 -0.1284E-08 -0.1284E-08 -0.7340E-10 -0.7340E-10
    -11.629 -0.8217E-08 -0.8217E-08 -0.4800E-09 -0.4800E-09
    -11.580 -0.4609E-07 -0.4609E-07 -0.2761E-08 -0.2761E-08
    -11.530 -0.2261E-06 -0.2261E-06 -0.1395E-07 -0.1395E-07
    -11.481 -0.9674E-06 -0.9674E-06 -0.6182E-07 -0.6182E-07
    -11.431 -0.3597E-05 -0.3597E-05 -0.2398E-06 -0.2398E-06
    -11.382 -0.1156E-04 -0.1156E-04 -0.8116E-06 -0.8116E-06
    -11.332 -0.3183E-04 -0.3183E-04 -0.2387E-05 -0.2387E-05
    -11.283 -0.7413E-04 -0.7413E-04 -0.6055E-05 -0.6055E-05
    -11.234 -0.1423E-03 -0.1423E-03 -0.1309E-04 -0.1309E-04
    -11.184 -0.2124E-03 -0.2124E-03 -0.2360E-04 -0.2360E-04
    -11.135 -0.2038E-03 -0.2038E-03 -0.3369E-04 -0.3369E-04
    -11.085  0.2788E-04  0.2788E-04 -0.3231E-04 -0.3231E-04
    -11.036  0.6341E-03  0.6341E-03 -0.9330E-06 -0.9328E-06
    -10.986  0.1647E-02  0.1647E-02  0.8054E-04  0.8054E-04
    -10.937  0.2859E-02  0.2859E-02  0.2220E-03  0.2220E-03
    -10.887  0.3850E-02  0.3850E-02  0.4125E-03  0.4125E-03
    -10.838  0.4193E-02  0.4193E-02  0.6200E-03  0.6200E-03
    -10.788  0.3727E-02  0.3727E-02  0.8044E-03  0.8044E-03
    -10.739  0.2668E-02  0.2668E-02  0.9364E-03  0.9364E-03
    -10.689  0.1463E-02  0.1463E-02  0.1009E-02  0.1009E-02
    -10.640  0.5082E-03  0.5082E-03  0.1034E-02  0.1034E-02
    -10.590 -0.3261E-04 -0.3262E-04  0.1032E-02  0.1032E-02
    -10.541 -0.2220E-03 -0.2220E-03  0.1021E-02  0.1021E-02
    -10.491 -0.2232E-03 -0.2232E-03  0.1010E-02  0.1010E-02
    -10.442 -0.1842E-03 -0.1842E-03  0.1001E-02  0.1001E-02
    -10.392 -0.1923E-03 -0.1923E-03  0.9917E-03  0.9917E-03
    -10.343 -0.2740E-03 -0.2740E-03  0.9781E-03  0.9781E-03
    -10.293 -0.3887E-03 -0.3887E-03  0.9589E-03  0.9589E-03
    -10.244 -0.3969E-03 -0.3969E-03  0.9393E-03  0.9393E-03
    -10.194 -0.4459E-04 -0.4459E-04  0.9371E-03  0.9371E-03
    -10.145  0.9577E-03  0.9577E-03  0.9845E-03  0.9845E-03
    -10.095  0.2728E-02  0.2728E-02  0.1119E-02  0.1119E-02
    -10.046  0.4984E-02  0.4984E-02  0.1366E-02  0.1366E-02
     -9.997  0.7013E-02  0.7013E-02  0.1713E-02  0.1713E-02
     -9.947  0.7981E-02  0.7981E-02  0.2108E-02  0.2108E-02
     -9.898  0.7438E-02  0.7438E-02  0.2476E-02  0.2476E-02
     -9.848  0.5657E-02  0.5657E-02  0.2756E-02  0.2756E-02
     -9.799  0.3505E-02  0.3505E-02  0.2929E-02  0.2929E-02
     -9.749  0.1955E-02  0.1955E-02  0.3026E-02  0.3026E-02
     -9.700  0.1580E-02  0.1580E-02  0.3104E-02  0.3104E-02
     -9.650  0.2340E-02  0.2340E-02  0.3220E-02  0.3220E-02
     -9.601  0.3737E-02  0.3737E-02  0.3405E-02  0.3405E-02
     -9.551  0.5132E-02  0.5132E-02  0.3659E-02  0.3659E-02
     -9.502  0.6022E-02  0.6022E-02  0.3957E-02  0.3957E-02
     -9.452  0.6152E-02  0.6152E-02  0.4261E-02  0.4261E-02
     -9.403  0.5511E-02  0.5511E-02  0.4534E-02  0.4534E-02
     -9.353  0.4323E-02  0.4323E-02  0.4748E-02  0.4748E-02
     -9.304  0.3015E-02  0.3015E-02  0.4897E-02  0.4897E-02
     -9.254  0.2104E-02  0.2104E-02  0.5001E-02  0.5001E-02
     -9.205  0.1937E-02  0.1937E-02  0.5097E-02  0.5097E-02
     -9.155  0.2465E-02  0.2465E-02  0.5219E-02  0.5219E-02
     -9.106  0.3233E-02  0.3233E-02  0.5379E-02  0.5379E-02
     -9.056  0.3683E-02  0.3683E-02  0.5561E-02  0.5561E-02
     -9.007  0.3549E-02  0.3549E-02  0.5737E-02  0.5737E-02
     -8.957  0.3036E-02  0.3036E-02  0.5887E-02  0.5887E-02
     -8.908  0.2621E-02  0.2621E-02  0.6017E-02  0.6017E-02
     -8.858  0.2683E-02  0.2683E-02  0.6149E-02  0.6149E-02
     -8.809  0.3276E-02  0.3276E-02  0.6312E-02  0.6312E-02
     -8.759  0.4238E-02  0.4238E-02  0.6521E-02  0.6521E-02
     -8.710  0.5424E-02  0.5424E-02  0.6790E-02  0.6790E-02
     -8.661  0.6764E-02  0.6764E-02  0.7124E-02  0.7124E-02
     -8.611  0.8099E-02  0.8099E-02  0.7525E-02  0.7525E-02
     -8.562  0.9084E-02  0.9084E-02  0.7975E-02  0.7975E-02
     -8.512  0.9388E-02  0.9388E-02  0.8439E-02  0.8439E-02
     -8.463  0.9053E-02  0.9053E-02  0.8887E-02  0.8887E-02
     -8.413  0.8613E-02  0.8613E-02  0.9313E-02  0.9313E-02
     -8.364  0.8766E-02  0.8766E-02  0.9747E-02  0.9747E-02
     -8.314  0.9819E-02  0.9819E-02  0.1023E-01  0.1023E-01
     -8.265  0.1134E-01  0.1134E-01  0.1079E-01  0.1079E-01
     -8.215  0.1236E-01  0.1236E-01  0.1141E-01  0.1141E-01
     -8.166  0.1206E-01  0.1206E-01  0.1200E-01  0.1200E-01
     -8.116  0.1042E-01  0.1042E-01  0.1252E-01  0.1252E-01
     -8.067  0.8302E-02  0.8302E-02  0.1293E-01  0.1293E-01
     -8.017  0.6849E-02  0.6849E-02  0.1327E-01  0.1327E-01
     -7.968  0.6721E-02  0.6721E-02  0.1360E-01  0.1360E-01
     -7.918  0.7701E-02  0.7701E-02  0.1398E-01  0.1398E-01
     -7.869  0.8889E-02  0.8889E-02  0.1442E-01  0.1442E-01
     -7.819  0.9307E-02  0.9307E-02  0.1488E-01  0.1488E-01
     -7.770  0.8524E-02  0.8524E-02  0.1530E-01  0.1530E-01
     -7.720  0.6969E-02  0.6969E-02  0.1565E-01  0.1565E-01
     -7.671  0.5704E-02  0.5704E-02  0.1593E-01  0.1593E-01
     -7.621  0.5766E-02  0.5766E-02  0.1622E-01  0.1622E-01
     -7.572  0.7507E-02  0.7507E-02  0.1659E-01  0.1659E-01
     -7.522  0.1040E-01  0.1040E-01  0.1710E-01  0.1710E-01
     -7.473  0.1340E-01  0.1340E-01  0.1776E-01  0.1776E-01
     -7.424  0.1555E-01  0.1555E-01  0.1853E-01  0.1853E-01
     -7.374  0.1635E-01  0.1635E-01  0.1934E-01  0.1934E-01
     -7.325  0.1579E-01  0.1579E-01  0.2012E-01  0.2012E-01
     -7.275  0.1414E-01  0.1414E-01  0.2082E-01  0.2082E-01
     -7.226  0.1192E-01  0.1192E-01  0.2141E-01  0.2141E-01
     -7.176  0.9766E-02  0.9766E-02  0.2190E-01  0.2190E-01
     -7.127  0.8304E-02  0.8304E-02  0.2231E-01  0.2231E-01
     -7.077  0.7900E-02  0.7900E-02  0.2270E-01  0.2270E-01
     -7.028  0.8591E-02  0.8591E-02  0.2312E-01  0.2312E-01
     -6.978  0.1021E-01  0.1021E-01  0.2363E-01  0.2363E-01
     -6.929  0.1259E-01  0.1259E-01  0.2425E-01  0.2425E-01
     -6.879  0.1561E-01  0.1561E-01  0.2502E-01  0.2502E-01
     -6.830  0.1916E-01  0.1916E-01  0.2597E-01  0.2597E-01
     -6.780  0.2308E-01  0.2308E-01  0.2711E-01  0.2711E-01
     -6.731  0.2703E-01  0.2703E-01  0.2845E-01  0.2845E-01
     -6.681  0.3044E-01  0.3044E-01  0.2996E-01  0.2996E-01
     -6.632  0.3253E-01  0.3253E-01  0.3157E-01  0.3157E-01
     -6.582  0.3271E-01  0.3271E-01  0.3319E-01  0.3319E-01
     -6.533  0.3087E-01  0.3087E-01  0.3471E-01  0.3471E-01
     -6.483  0.2751E-01  0.2751E-01  0.3607E-01  0.3607E-01
     -6.434  0.2343E-01  0.2343E-01  0.3723E-01  0.3723E-01
     -6.384  0.1935E-01  0.1935E-01  0.3819E-01  0.3819E-01
     -6.335  0.1572E-01  0.1572E-01  0.3897E-01  0.3897E-01
     -6.285  0.1268E-01  0.1268E-01  0.3960E-01  0.3960E-01
     -6.236  0.1013E-01  0.1013E-01  0.4010E-01  0.4010E-01
     -6.187  0.7784E-02  0.7784E-02  0.4048E-01  0.4048E-01
     -6.137  0.5448E-02  0.5448E-02  0.4075E-01  0.4075E-01
     -6.088  0.3198E-02  0.3198E-02  0.4091E-01  0.4091E-01
     -6.038  0.1412E-02  0.1412E-02  0.4098E-01  0.4098E-01
     -5.989  0.5858E-03  0.5858E-03  0.4101E-01  0.4101E-01
     -5.939  0.1047E-02  0.1047E-02  0.4106E-01  0.4106E-01
     -5.890  0.2716E-02  0.2716E-02  0.4120E-01  0.4120E-01
     -5.840  0.5042E-02  0.5042E-02  0.4144E-01  0.4144E-01
     -5.791  0.7196E-02  0.7196E-02  0.4180E-01  0.4180E-01
     -5.741  0.8465E-02  0.8465E-02  0.4222E-01  0.4222E-01
     -5.692  0.8604E-02  0.8604E-02  0.4265E-01  0.4265E-01
     -5.642  0.7860E-02  0.7860E-02  0.4303E-01  0.4303E-01
     -5.593  0.6672E-02  0.6672E-02  0.4336E-01  0.4336E-01
     -5.543  0.5341E-02  0.5341E-02  0.4363E-01  0.4363E-01
     -5.494  0.3964E-02  0.3964E-02  0.4382E-01  0.4382E-01
     -5.444  0.2592E-02  0.2592E-02  0.4395E-01  0.4395E-01
     -5.395  0.1362E-02  0.1362E-02  0.4402E-01  0.4402E-01
     -5.345  0.4449E-03  0.4450E-03  0.4404E-01  0.4404E-01
     -5.296 -0.7477E-04 -0.7475E-04  0.4404E-01  0.4404E-01
     -5.246 -0.2559E-03 -0.2559E-03  0.4403E-01  0.4403E-01
     -5.197 -0.2394E-03 -0.2394E-03  0.4401E-01  0.4401E-01
     -5.147 -0.1566E-03 -0.1566E-03  0.4401E-01  0.4401E-01
     -5.098 -0.8161E-04 -0.8161E-04  0.4400E-01  0.4400E-01
     -5.048 -0.3630E-04 -0.3630E-04  0.4400E-01  0.4400E-01
     -4.999 -0.1722E-04 -0.1722E-04  0.4400E-01  0.4400E-01
     -4.950 -0.1774E-04 -0.1774E-04  0.4400E-01  0.4400E-01
     -4.900 -0.3790E-04 -0.3789E-04  0.4400E-01  0.4400E-01
     -4.851 -0.8356E-04 -0.8356E-04  0.4399E-01  0.4399E-01
     -4.801 -0.1545E-03 -0.1545E-03  0.4399E-01  0.4399E-01
     -4.752 -0.2193E-03 -0.2193E-03  0.4397E-01  0.4397E-01
     -4.702 -0.1864E-03 -0.1864E-03  0.4397E-01  0.4397E-01
     -4.653  0.9563E-04  0.9560E-04  0.4397E-01  0.4397E-01
     -4.603  0.7690E-03  0.7689E-03  0.4401E-01  0.4401E-01
     -4.554  0.1833E-02  0.1833E-02  0.4410E-01  0.4410E-01
     -4.504  0.3043E-02  0.3043E-02  0.4425E-01  0.4425E-01
     -4.455  0.3956E-02  0.3956E-02  0.4445E-01  0.4445E-01
     -4.405  0.4171E-02  0.4171E-02  0.4465E-01  0.4465E-01
     -4.356  0.3585E-02  0.3585E-02  0.4483E-01  0.4483E-01
     -4.306  0.2462E-02  0.2462E-02  0.4495E-01  0.4495E-01
     -4.257  0.1251E-02  0.1252E-02  0.4501E-01  0.4501E-01
     -4.207  0.3116E-03  0.3116E-03  0.4503E-01  0.4503E-01
     -4.158 -0.2350E-03 -0.2351E-03  0.4502E-01  0.4502E-01
     -4.108 -0.4424E-03 -0.4424E-03  0.4499E-01  0.4499E-01
     -4.059 -0.3789E-03 -0.3789E-03  0.4498E-01  0.4498E-01
     -4.009 -0.1959E-04 -0.1942E-04  0.4497E-01  0.4497E-01
     -3.960  0.7173E-03  0.7177E-03  0.4501E-01  0.4501E-01
     -3.910  0.1818E-02  0.1819E-02  0.4510E-01  0.4510E-01
     -3.861  0.3042E-02  0.3043E-02  0.4525E-01  0.4525E-01
     -3.811  0.3957E-02  0.3957E-02  0.4545E-01  0.4545E-01
     -3.762  0.4166E-02  0.4166E-02  0.4565E-01  0.4565E-01
     -3.713  0.3571E-02  0.3570E-02  0.4583E-01  0.4583E-01
     -3.663  0.2435E-02  0.2435E-02  0.4595E-01  0.4595E-01
     -3.614  0.1206E-02  0.1206E-02  0.4601E-01  0.4601E-01
     -3.564  0.2478E-03  0.2475E-03  0.4602E-01  0.4602E-01
     -3.515 -0.2947E-03 -0.2948E-03  0.4601E-01  0.4601E-01
     -3.465 -0.4263E-03 -0.4263E-03  0.4599E-01  0.4599E-01
     -3.416 -0.1624E-03 -0.1626E-03  0.4598E-01  0.4598E-01
     -3.366  0.5217E-03  0.5212E-03  0.4600E-01  0.4600E-01
     -3.317  0.1597E-02  0.1596E-02  0.4608E-01  0.4608E-01
     -3.267  0.2842E-02  0.2841E-02  0.4622E-01  0.4622E-01
     -3.218  0.3841E-02  0.3840E-02  0.4641E-01  0.4641E-01
     -3.168  0.4170E-02  0.4171E-02  0.4662E-01  0.4662E-01
     -3.119  0.3671E-02  0.3671E-02  0.4680E-01  0.4680E-01
     -3.069  0.2554E-02  0.2555E-02  0.4693E-01  0.4693E-01
     -3.020  0.1275E-02  0.1275E-02  0.4699E-01  0.4699E-01
     -2.970  0.2776E-03  0.2781E-03  0.4700E-01  0.4700E-01
     -2.921 -0.1589E-03 -0.1588E-03  0.4700E-01  0.4700E-01
     -2.871  0.6277E-04  0.6259E-04  0.4700E-01  0.4700E-01
     -2.822  0.8919E-03  0.8915E-03  0.4704E-01  0.4704E-01
     -2.772  0.2108E-02  0.2108E-02  0.4715E-01  0.4715E-01
     -2.723  0.3303E-02  0.3302E-02  0.4731E-01  0.4731E-01
     -2.673  0.3990E-02  0.3990E-02  0.4751E-01  0.4751E-01
     -2.624  0.3862E-02  0.3862E-02  0.4770E-01  0.4770E-01
     -2.574  0.3011E-02  0.3012E-02  0.4785E-01  0.4785E-01
     -2.525  0.1924E-02  0.1925E-02  0.4794E-01  0.4794E-01
     -2.476  0.1218E-02  0.1218E-02  0.4800E-01  0.4800E-01
     -2.426  0.1293E-02  0.1293E-02  0.4807E-01  0.4807E-01
     -2.377  0.2107E-02  0.2108E-02  0.4817E-01  0.4817E-01
     -2.327  0.3201E-02  0.3201E-02  0.4833E-01  0.4833E-01
     -2.278  0.3958E-02  0.3958E-02  0.4853E-01  0.4853E-01
     -2.228  0.3955E-02  0.3955E-02  0.4872E-01  0.4872E-01
     -2.179  0.3189E-02  0.3189E-02  0.4888E-01  0.4888E-01
     -2.129  0.2023E-02  0.2023E-02  0.4898E-01  0.4898E-01
     -2.080  0.9205E-03  0.9200E-03  0.4903E-01  0.4903E-01
     -2.030  0.1782E-03  0.1780E-03  0.4904E-01  0.4904E-01
     -1.981 -0.1621E-03 -0.1622E-03  0.4903E-01  0.4903E-01
     -1.931 -0.2283E-03 -0.2283E-03  0.4902E-01  0.4902E-01
     -1.882 -0.1803E-03 -0.1803E-03  0.4901E-01  0.4901E-01
     -1.832 -0.1286E-03 -0.1286E-03  0.4900E-01  0.4900E-01
     -1.783 -0.1233E-03 -0.1233E-03  0.4899E-01  0.4899E-01
     -1.733 -0.1713E-03 -0.1713E-03  0.4899E-01  0.4899E-01
     -1.684 -0.2411E-03 -0.2411E-03  0.4897E-01  0.4897E-01
     -1.634 -0.2475E-03 -0.2473E-03  0.4896E-01  0.4896E-01
     -1.585 -0.4700E-04 -0.4648E-04  0.4896E-01  0.4896E-01
     -1.535  0.5141E-03  0.5150E-03  0.4899E-01  0.4899E-01
     -1.486  0.1497E-02  0.1498E-02  0.4906E-01  0.4906E-01
     -1.436  0.2780E-02  0.2781E-02  0.4920E-01  0.4920E-01
     -1.387  0.4076E-02  0.4075E-02  0.4940E-01  0.4940E-01
     -1.337  0.5062E-02  0.5060E-02  0.4965E-01  0.4965E-01
     -1.288  0.5543E-02  0.5540E-02  0.4992E-01  0.4992E-01
     -1.239  0.5516E-02  0.5512E-02  0.5020E-01  0.5020E-01
     -1.189  0.5174E-02  0.5170E-02  0.5045E-01  0.5045E-01
     -1.140  0.4876E-02  0.4871E-02  0.5069E-01  0.5069E-01
     -1.090  0.5068E-02  0.5062E-02  0.5094E-01  0.5094E-01
     -1.041  0.6070E-02  0.6062E-02  0.5124E-01  0.5124E-01
     -0.991  0.7789E-02  0.7781E-02  0.5163E-01  0.5163E-01
     -0.942  0.9629E-02  0.9624E-02  0.5211E-01  0.5210E-01
     -0.892  0.1077E-01  0.1077E-01  0.5264E-01  0.5264E-01
     -0.843  0.1067E-01  0.1068E-01  0.5317E-01  0.5317E-01
     -0.793  0.9461E-02  0.9475E-02  0.5364E-01  0.5363E-01
     -0.744  0.7750E-02  0.7767E-02  0.5402E-01  0.5402E-01
     -0.694  0.6172E-02  0.6187E-02  0.5432E-01  0.5432E-01
     -0.645  0.4956E-02  0.4964E-02  0.5457E-01  0.5457E-01
     -0.595  0.3935E-02  0.3936E-02  0.5476E-01  0.5477E-01
     -0.546  0.2875E-02  0.2870E-02  0.5491E-01  0.5491E-01
     -0.496  0.1748E-02  0.1741E-02  0.5499E-01  0.5499E-01
     -0.447  0.7258E-03  0.7205E-03  0.5503E-01  0.5503E-01
     -0.397 -0.8876E-05 -0.1139E-04  0.5503E-01  0.5503E-01
     -0.348 -0.3962E-03 -0.3967E-03  0.5501E-01  0.5501E-01
     -0.298 -0.4632E-03 -0.4642E-03  0.5499E-01  0.5499E-01
     -0.249 -0.2121E-03 -0.2171E-03  0.5498E-01  0.5498E-01
     -0.199  0.4140E-03  0.4025E-03  0.5500E-01  0.5500E-01
     -0.150  0.1431E-02  0.1414E-02  0.5507E-01  0.5506E-01
     -0.100  0.2668E-02  0.2649E-02  0.5520E-01  0.5520E-01
     -0.051  0.3733E-02  0.3720E-02  0.5538E-01  0.5538E-01
     -0.002  0.4192E-02  0.4191E-02  0.5559E-01  0.5559E-01
      0.048  0.3839E-02  0.3850E-02  0.5578E-01  0.5578E-01
      0.097  0.2841E-02  0.2859E-02  0.5592E-01  0.5592E-01
      0.147  0.1628E-02  0.1647E-02  0.5600E-01  0.5600E-01
      0.196  0.6213E-03  0.6341E-03  0.5603E-01  0.5603E-01
      0.246  0.2165E-04  0.2788E-04  0.5603E-01  0.5603E-01
      0.295 -0.2053E-03 -0.2038E-03  0.5602E-01  0.5602E-01
      0.345 -0.2116E-03 -0.2124E-03  0.5601E-01  0.5601E-01
      0.394 -0.1411E-03 -0.1423E-03  0.5601E-01  0.5601E-01
      0.444 -0.7326E-04 -0.7413E-04  0.5600E-01  0.5600E-01
      0.493 -0.3137E-04 -0.3183E-04  0.5600E-01  0.5600E-01
      0.543 -0.1136E-04 -0.1156E-04  0.5600E-01  0.5600E-01
      0.592 -0.3527E-05 -0.3597E-05  0.5600E-01  0.5600E-01
      0.642 -0.9465E-06 -0.9674E-06  0.5600E-01  0.5600E-01
      0.691 -0.2208E-06 -0.2261E-06  0.5600E-01  0.5600E-01
      0.741 -0.4491E-07 -0.4609E-07  0.5600E-01  0.5600E-01
      0.790 -0.7989E-08 -0.8217E-08  0.5600E-01  0.5600E-01
      0.840 -0.1245E-08 -0.1284E-08  0.5600E-01  0.5600E-01
      0.889 -0.1704E-09 -0.1760E-09  0.5600E-01  0.5600E-01
      0.939 -0.2049E-10 -0.2120E-10  0.5600E-01  0.5600E-01
      0.988 -0.2166E-11 -0.2247E-11  0.5600E-01  0.5600E-01
      1.038 -0.2017E-12 -0.2095E-12  0.5600E-01  0.5600E-01
      1.087 -0.1653E-13 -0.1722E-13  0.5600E-01  0.5600E-01
      1.137 -0.1194E-14 -0.1243E-14  0.5600E-01  0.5600E-01
      1.186 -0.7629E-16 -0.8078E-16  0.5600E-01  0.5600E-01
      1.236 -0.4488E-17 -0.4488E-17  0.5600E-01  0.5600E-01
      1.285  0.0000E+00  0.0000E+00  0.5600E-01  0.5600E-01
      1.334  0.0000E+00  0.0000E+00  0.5600E-01  0.5600E-01
      1.384  0.0000E+00  0.0000E+00  0.5600E-01  0.5600E-01
      1.433  0.0000E+00  0.0000E+00  0.5600E-01  0.5600E-01
      1.483  0.0000E+00  0.0000E+00  0.5600E-01  0.5600E-01
      1.532  0.0000E+00  0.0000E+00  0.5600E-01  0.5600E-01
      1.582  0.0000E+00  0.0000E+00  0.5600E-01  0.5600E-01
      1.631  0.0000E+00  0.0000E+00  0.5600E-01  0.5600E-01
      1.681  0.0000E+00  0.0000E+00  0.5600E-01  0.5600E-01
      1.730  0.0000E+00  0.0000E+00  0.5600E-01  0.5600E-01
      1.780  0.0000E+00  0.0000E+00  0.5600E-01  0.5600E-01
      1.829  0.0000E+00  0.0000E+00  0.5600E-01  0.5600E-01
      1.879  0.0000E+00  0.0000E+00  0.5600E-01  0.5600E-01
      1.928  0.0000E+00  0.0000E+00  0.5600E-01  0.5600E-01
      1.978  0.0000E+00  0.0000E+00  0.5600E-01  0.5600E-01
