    8    8 1000    2
  0.1470863E+04  0.2264185E-08  0.2429443E-08  0.2139161E-08  0.5000000E-15
   1.0000000000000000E-004
  CAR 
 unknown system                          
     88      1     56
 
  0.1262379E-14  0.1262379E-14  0.1262379E-14  0.1000000E+01
    1      -10.866354    -10.866355   1.000000   1.000000
    2       -9.988059     -9.988059   1.000000   1.000000
    3       -9.935437     -9.935437   1.000000   1.000000
    4       -9.574987     -9.574987   1.000000   1.000000
    5       -9.414711     -9.414711   1.000000   1.000000
    6       -9.075265     -9.075265   1.000000   1.000000
    7       -8.774170     -8.774170   1.000000   1.000000
    8       -8.562594     -8.562594   1.000000   1.000000
    9       -8.557495     -8.557495   1.000000   1.000000
   10       -8.397019     -8.397019   1.000000   1.000000
   11       -8.225184     -8.225184   1.000000   1.000000
   12       -8.222782     -8.222782   1.000000   1.000000
   13       -8.175051     -8.175050   1.000000   1.000000
   14       -7.959774     -7.959774   1.000000   1.000000
   15       -7.819042     -7.819042   1.000000   1.000000
   16       -7.809341     -7.809341   1.000000   1.000000
   17       -7.546113     -7.546113   1.000000   1.000000
   18       -7.462198     -7.462198   1.000000   1.000000
   19       -7.459907     -7.459908   1.000000   1.000000
   20       -7.360655     -7.360655   1.000000   1.000000
   21       -7.285608     -7.285607   1.000000   1.000000
   22       -7.264157     -7.264157   1.000000   1.000000
   23       -7.087832     -7.087833   1.000000   1.000000
   24       -6.997904     -6.997904   1.000000   1.000000
   25       -6.902779     -6.902779   1.000000   1.000000
   26       -6.831231     -6.831232   1.000000   1.000000
   27       -6.804368     -6.804368   1.000000   1.000000
   28       -6.790453     -6.790453   1.000000   1.000000
   29       -6.711343     -6.711343   1.000000   1.000000
   30       -6.663076     -6.663076   1.000000   1.000000
   31       -6.651307     -6.651307   1.000000   1.000000
   32       -6.629077     -6.629076   1.000000   1.000000
   33       -6.609529     -6.609529   1.000000   1.000000
   34       -6.605562     -6.605562   1.000000   1.000000
   35       -6.565587     -6.565587   1.000000   1.000000
   36       -6.490618     -6.490618   1.000000   1.000000
   37       -6.461991     -6.461991   1.000000   1.000000
   38       -6.435813     -6.435812   1.000000   1.000000
   39       -6.380989     -6.380989   1.000000   1.000000
   40       -6.277580     -6.277580   1.000000   1.000000
   41       -6.187268     -6.187267   1.000000   1.000000
   42       -5.795951     -5.795952   1.010701   1.010701
   43       -5.742655     -5.742655   1.021248   1.021248
   44       -5.559592     -5.559589   0.968053   0.968048
   45       -4.441732     -4.441729  -0.000000  -0.000000
   46       -3.798833     -3.798851  -0.000000  -0.000000
   47       -3.197256     -3.197225  -0.000000  -0.000000
   48       -2.677648     -2.677630  -0.000000  -0.000000
   49       -2.282156     -2.282181  -0.000000  -0.000000
   50       -1.370018     -1.370058  -0.000000  -0.000000
   51       -1.193013     -1.192897  -0.000000  -0.000000
   52       -0.977650     -0.977380  -0.000000  -0.000000
   53       -0.890796     -0.890769  -0.000000  -0.000000
   54       -0.849232     -0.848968  -0.000000  -0.000000
   55       -0.641468     -0.641740  -0.000000  -0.000000
   56       -0.023072     -0.022293  -0.000000  -0.000000
