       N       E                     dE             d eps       ncg     rms          rms(c)
DAV:   1     0.734331565716E+03    0.73433E+03   -0.13189E+04   224   0.706E+02
DAV:   2     0.466482429796E+03   -0.26785E+03   -0.24955E+03   416   0.714E+01
DAV:   3     0.146702988487E+03   -0.31978E+03   -0.29911E+03   416   0.650E+01
DAV:   4     0.772162087291E+01   -0.13898E+03   -0.13245E+03   320   0.548E+01
DAV:   5    -0.147290004256E+02   -0.22451E+02   -0.20793E+02   288   0.216E+01    0.169E+01
DAV:   6    -0.850283397697E+01    0.62262E+01   -0.49386E+01   240   0.195E+01    0.129E+01
DAV:   7    -0.266003306086E+01    0.58428E+01   -0.45235E+00   256   0.101E+01    0.665E+00
DAV:   8    -0.574285336283E+01   -0.30828E+01   -0.13376E+00   248   0.431E+00    0.260E+00
DAV:   9    -0.950216772876E+01   -0.37593E+01   -0.11867E+00   256   0.353E+00    0.171E+00
DAV:  10    -0.119114872736E+02   -0.24093E+01   -0.67372E-01   256   0.224E+00    0.113E+00
DAV:  11    -0.139687283417E+02   -0.20572E+01   -0.63298E-01   240   0.202E+00    0.834E-01
DAV:  12    -0.148702237696E+02   -0.90150E+00   -0.19763E-01   232   0.110E+00    0.624E-01
DAV:  13    -0.159598567244E+02   -0.10896E+01   -0.35231E-01   224   0.141E+00    0.366E-01
DAV:  14    -0.162339864201E+02   -0.27413E+00   -0.26255E-02   256   0.453E-01    0.277E-01
DAV:  15    -0.165364370208E+02   -0.30245E+00   -0.18199E-02   232   0.393E-01    0.169E-01
DAV:  16    -0.167929070177E+02   -0.25647E+00   -0.95523E-03   240   0.290E-01    0.996E-02
DAV:  17    -0.169009552761E+02   -0.10805E+00   -0.36656E-03   256   0.168E-01    0.550E-02
DAV:  18    -0.169361274564E+02   -0.35172E-01   -0.85702E-04   216   0.755E-02    0.365E-02
DAV:  19    -0.169593964999E+02   -0.23269E-01   -0.47187E-04   216   0.498E-02    0.210E-02
DAV:  20    -0.169687096051E+02   -0.93131E-02   -0.75189E-05   176   0.233E-02    0.135E-02
DAV:  21    -0.169753377012E+02   -0.66281E-02   -0.47665E-05   168   0.153E-02    0.949E-03
DAV:  22    -0.169812147472E+02   -0.58770E-02   -0.22124E-05   168   0.119E-02    0.620E-03
DAV:  23    -0.169850636013E+02   -0.38489E-02   -0.21649E-05   168   0.121E-02    0.347E-03
DAV:  24    -0.169864376832E+02   -0.13741E-02   -0.10194E-05   184   0.784E-03    0.198E-03
DAV:  25    -0.169872405787E+02   -0.80290E-03   -0.42450E-06   168   0.560E-03    0.109E-03
DAV:  26    -0.169874737443E+02   -0.23317E-03   -0.17101E-06   160   0.346E-03    0.640E-04
DAV:  27    -0.169875786071E+02   -0.10486E-03   -0.72837E-07   160   0.232E-03    0.396E-04
DAV:  28    -0.169876384544E+02   -0.59847E-04   -0.44871E-07   160   0.172E-03
   1 F= -.16987638E+02 E0= -.16996670E+02  d E =-.169876E+02  mag=     0.0003
       N       E                     dE             d eps       ncg     rms          rms(c)
DAV:   1    -0.169878264377E+02   -0.24783E-03   -0.13090E-01   240   0.123E+00    0.632E-02
DAV:   2    -0.169879684621E+02   -0.14202E-03   -0.15683E-03   256   0.181E-01    0.353E-02
DAV:   3    -0.169879718977E+02   -0.34357E-05   -0.61140E-05   160   0.362E-02
   2 F= -.16987972E+02 E0= -.16997179E+02  d E =-.333443E-03  mag=     0.0002
       N       E                     dE             d eps       ncg     rms          rms(c)
DAV:   1    -0.169880049603E+02   -0.36498E-04   -0.45096E-03   248   0.230E-01    0.158E-02
DAV:   2    -0.169880109414E+02   -0.59811E-05   -0.52076E-05   128   0.336E-02
   3 F= -.16988011E+02 E0= -.16997269E+02  d E =-.372487E-03  mag=     0.0001
