 vasp.6.1.2 22Jul20 (build Aug  2 2021 21:04:21) gamma-only                      
 executed on             LinuxPGI date 2021.12.28  18:32:35
 running on    8 total cores
 distrk:  each k-point on    8 cores,    1 groups
 distr:  one band on NCORE=   8 cores,    1 groups


--------------------------------------------------------------------------------------------------------


 INCAR:
 POTCAR:    PAW_PBE Au 04Oct2007                  
 -----------------------------------------------------------------------------
|                                                                             |
|           W    W    AA    RRRRR   N    N  II  N    N   GGGG   !!!           |
|           W    W   A  A   R    R  NN   N  II  NN   N  G    G  !!!           |
|           W    W  A    A  R    R  N N  N  II  N N  N  G       !!!           |
|           W WW W  AAAAAA  RRRRR   N  N N  II  N  N N  G  GGG   !            |
|           WW  WW  A    A  R   R   N   NN  II  N   NN  G    G                |
|           W    W  A    A  R    R  N    N  II  N    N   GGGG   !!!           |
|                                                                             |
|     You use a magnetic or noncollinear calculation, but did not specify     |
|     the initial magnetic moment with the MAGMOM tag. Note that a            |
|     default of 1 will be used for all atoms. This ferromagnetic setup       |
|     may break the symmetry of the crystal, in particular it may rule        |
|     out finding an antiferromagnetic solution. Thence, we recommend         |
|     setting the initial magnetic moment manually or verifying carefully     |
|     that this magnetic setup is desired.                                    |
|                                                                             |
 -----------------------------------------------------------------------------

 -----------------------------------------------------------------------------
|                                                                             |
|           W    W    AA    RRRRR   N    N  II  N    N   GGGG   !!!           |
|           W    W   A  A   R    R  NN   N  II  NN   N  G    G  !!!           |
|           W    W  A    A  R    R  N N  N  II  N N  N  G       !!!           |
|           W WW W  AAAAAA  RRRRR   N  N N  II  N  N N  G  GGG   !            |
|           WW  WW  A    A  R   R   N   NN  II  N   NN  G    G                |
|           W    W  A    A  R    R  N    N  II  N    N   GGGG   !!!           |
|                                                                             |
|     For optimal performance we recommend to set                             |
|       NCORE = 4 - approx SQRT(number of cores).                             |
|     NCORE specifies how many cores store one orbital (NPAR=cpu/NCORE).      |
|     This setting can greatly improve the performance of VASP for DFT.       |
|     The default, NCORE=1 might be grossly inefficient on modern             |
|     multi-core architectures or massively parallel machines. Do your        |
|     own testing!!!!                                                         |
|     Unfortunately you need to use the default for GW and RPA                |
|     calculations (for HF NCORE is supported but not extensively tested      |
|     yet).                                                                   |
|                                                                             |
 -----------------------------------------------------------------------------

 POTCAR:    PAW_PBE Au 04Oct2007                  
   SHA256 =  d0044ae04e2bdce24051b198fc5c053d722a5bc6fe3c3b100514a13fc5d2db88 Au/POTCAR             
   COPYR  = (c) Copyright 04Oct2007 Georg Kresse                                                    
   COPYR  = This file is part of the software VASP. Any use, copying, and all other rights are regul
   COPYR  = If you do not have a valid VASP license, you may not use, copy or distribute this file. 
   VRHFIN =Au: s1d10                                                                                
   LEXCH  = PE                                                                                      
   EATOM  =   926.0867 eV,   68.0654 Ry                                                             
                                                                                                    
   TITEL  = PAW_PBE Au 04Oct2007                                                                    
   LULTRA =        F    use ultrasoft PP ?                                                          
   IUNSCR =        1    unscreen: 0-lin 1-nonlin 2-no                                               
   RPACOR =    2.330    partial core radius                                                         
   POMASS =  196.966; ZVAL   =   11.000    mass and valenz                                          
   RCORE  =    2.500    outmost cutoff radius                                                       
   RWIGS  =    2.840; RWIGS  =    1.503    wigner-seitz radius (au A)                               
   ENMAX  =  229.943; ENMIN  =  172.457 eV                                                          
   ICORE  =        3    local potential                                                             
   LCOR   =        T    correct aug charges                                                         
   LPAW   =        T    paw PP                                                                      
   EAUG   =  356.670                                                                                
   DEXC   =    0.000                                                                                
   RMAX   =    2.562    core radius for proj-oper                                                   
   RAUG   =    1.300    factor for augmentation sphere                                              
   RDEP   =    2.598    radius for radial grids                                                     
   RDEPT  =    2.193    core radius for aug-charge                                                  
                                                                                                    
   Atomic configuration                                                                             
   16 entries                                                                                       
     n  l   j            E        occ.                                                              
     1  0  0.50    -80748.5001   2.0000                                                             
     2  0  0.50    -14244.7466   2.0000                                                             
     2  1  1.50    -12310.9591   6.0000                                                             
     3  0  0.50     -3362.1768   2.0000                                                             
     3  1  1.50     -2801.5463   6.0000                                                             
     3  2  2.50     -2203.8206  10.0000                                                             
     4  0  0.50      -729.8168   2.0000                                                             
     4  1  1.50      -546.0527   6.0000                                                             
     4  2  2.50      -325.7302  10.0000                                                             
     4  3  3.50       -81.1472  14.0000                                                             
     5  0  0.50      -108.3201   2.0000                                                             
     5  1  1.50       -59.7479   6.0000                                                             
     5  2  2.50        -6.8783  10.0000                                                             
     6  0  0.50        -5.7602   1.0000                                                             
     6  1  1.50        -6.8029   0.0000                                                             
     5  3  2.50        -1.3606   0.0000                                                             
   Description                                                                                      
     l       E           TYP  RCUT    TYP  RCUT                                                     
     2     -6.8782861     23  2.500                                                                 
     2     -8.2388687     23  2.500                                                                 
     0     -5.7601759     23  2.500                                                                 
     0     -0.8493231     23  2.500                                                                 
     1     -2.7211652     23  2.500                                                                 
     1     27.2116520     23  2.500                                                                 
     3     -1.3605826     23  2.500                                                                 
  local pseudopotential read in
  partial core-charges read in
  partial kinetic energy density read in
  atomic valenz-charges read in
  non local Contribution for L=            2  read in
    real space projection operators read in
  non local Contribution for L=            2  read in
    real space projection operators read in
  non local Contribution for L=            0  read in
    real space projection operators read in
  non local Contribution for L=            0  read in
    real space projection operators read in
  non local Contribution for L=            1  read in
    real space projection operators read in
  non local Contribution for L=            1  read in
    real space projection operators read in
    PAW grid and wavefunctions read in
 
   number of l-projection  operators is LMAX  =            6
   number of lm-projection operators is LMMAX =           18
 
  PAW_PBE Au 04Oct2007                  :
 energy of atom  1       EATOM= -926.0867
 kinetic energy error for atom=    0.0062 (will be added to EATOM!!)
 
 
 POSCAR: Au
  positions in cartesian coordinates
  No initial velocities read in
 exchange correlation table for  LEXCH =        8
   RHO(1)=    0.500       N(1)  =     2000
   RHO(2)=  100.500       N(2)  =     4000
 


--------------------------------------------------------------------------------------------------------


 ion  position               nearest neighbor table
   1  0.429  0.600  0.447-   2 2.64   3 2.65   6 2.69
   2  0.363  0.579  0.545-   1 2.64   6 2.68
   3  0.529  0.550  0.420-   1 2.65   5 2.65   7 2.82   6 2.83
   4  0.501  0.446  0.605-   7 2.63   6 2.63
   5  0.628  0.494  0.404-   8 2.64   3 2.65   7 2.69
   6  0.463  0.522  0.528-   4 2.63   2 2.68   1 2.69   7 2.69   3 2.83
   7  0.565  0.469  0.506-   4 2.63   8 2.68   5 2.69   6 2.69   3 2.82
   8  0.667  0.417  0.481-   5 2.64   7 2.68
 

IMPORTANT INFORMATION: All symmetrisations will be switched off!
NOSYMM: (Re-)initialisation of all symmetry stuff for point group C_1.


----------------------------------------------------------------------------------------

                                     Primitive cell                                     

  volume of cell :   11766.9028

  direct lattice vectors                    reciprocal lattice vectors
    22.641849934  0.000000000  0.000000000     0.044166002  0.000000000  0.000000000
     0.000000000 24.294429838  0.000000000     0.000000000  0.041161699  0.000000000
     0.000000000  0.000000000 21.391613693     0.000000000  0.000000000  0.046747291

  length of vectors
    22.641849934 24.294429838 21.391613693     0.044166002  0.041161699  0.046747291

  position of ions in fractional coordinates (direct lattice)
     0.428574216  0.600363484  0.446605556
     0.362659516  0.578719381  0.545416458
     0.529231250  0.550214404  0.420222089
     0.500781740  0.445901216  0.605314087
     0.628415268  0.494225212  0.403974020
     0.463376147  0.522459999  0.527980085
     0.565106898  0.468600006  0.506281324
     0.667047106  0.416951633  0.480555444

  ion indices of the primitive-cell ions
   primitive index   ion index
                 1           1
                 2           2
                 3           3
                 4           4
                 5           5
                 6           6
                 7           7
                 8           8

----------------------------------------------------------------------------------------

 
 
 KPOINTS: KPOINTS created by Atomic Simulation Env

Automatic generation of k-mesh.
Space group operators:
 irot       det(A)        alpha          n_x          n_y          n_z        tau_x        tau_y        tau_z
    1     1.000000     0.000000     1.000000     0.000000     0.000000     0.000000     0.000000     0.000000
 
 Subroutine IBZKPT returns following result:
 ===========================================
 
 Found      1 irreducible k-points:
 
 Following reciprocal coordinates:
            Coordinates               Weight
  0.000000  0.000000  0.000000      1.000000
 
 Following cartesian coordinates:
            Coordinates               Weight
  0.000000  0.000000  0.000000      1.000000
 


--------------------------------------------------------------------------------------------------------




 Dimension of arrays:
   k-points           NKPTS =      1   k-points in BZ     NKDIM =      1   number of bands    NBANDS=     56
   number of dos      NEDOS =    301   number of ions     NIONS =      8
   non local maximal  LDIM  =      6   non local SUM 2l+1 LMDIM =     18
   total plane-waves  NPLWV = ******
   max r-space proj   IRMAX =      1   max aug-charges    IRDMAX=   7742
   dimension x,y,z NGX =   112 NGY =  120 NGZ =  108
   dimension x,y,z NGXF=   224 NGYF=  240 NGZF=  216
   support grid    NGXF=   224 NGYF=  240 NGZF=  216
   ions per type =               8
   NGX,Y,Z   is equivalent  to a cutoff of   8.22,  8.21,  8.39 a.u.
   NGXF,Y,Z  is equivalent  to a cutoff of  16.45, 16.42, 16.79 a.u.

 SYSTEM =  unknown system                          
 POSCAR =  Au                                      

 Startparameter for this run:
   NWRITE =      2    write-flag & timer
   PREC   = normal    normal or accurate (medium, high low for compatibility)
   ISTART =      0    job   : 0-new  1-cont  2-samecut
   ICHARG =      2    charge: 1-file 2-atom 10-const
   ISPIN  =      2    spin polarized calculation?
   LNONCOLLINEAR =      F non collinear calculations
   LSORBIT =      F    spin-orbit coupling
   INIWAV =      1    electr: 0-lowe 1-rand  2-diag
   LASPH  =      F    aspherical Exc in radial PAW
   METAGGA=      F    non-selfconsistent MetaGGA calc.

 Electronic Relaxation 1
   ENCUT  =  400.0 eV  29.40 Ry    5.42 a.u.  36.92 39.62 34.88*2*pi/ulx,y,z
   ENINI  =  400.0     initial cutoff
   ENAUG  =  356.7 eV  augmentation charge cutoff
   NELM   =     60;   NELMIN=  2; NELMDL=  0     # of ELM steps 
   EDIFF  = 0.1E-03   stopping-criterion for ELM
   LREAL  =      F    real-space projection
   NLSPLINE    = F    spline interpolate recip. space projectors
   LCOMPAT=      F    compatible to vasp.4.4
   GGA_COMPAT  = T    GGA compatible to vasp.4.4-vasp.4.6
   LMAXPAW     = -100 max onsite density
   LMAXMIX     =    2 max onsite mixed and CHGCAR
   VOSKOWN=      0    Vosko Wilk Nusair interpolation
   ROPT   =    0.00000
 Ionic relaxation
   EDIFFG = 0.1E-02   stopping-criterion for IOM
   NSW    =   1000    number of steps for IOM
   NBLOCK =      1;   KBLOCK =   1000    inner block; outer block 
   IBRION =      2    ionic relax: 0-MD 1-quasi-New 2-CG
   NFREE  =      1    steps in history (QN), initial steepest desc. (CG)
   ISIF   =      0    stress and relaxation
   IWAVPR =     11    prediction:  0-non 1-charg 2-wave 3-comb
   ISYM   =      0    0-nonsym 1-usesym 2-fastsym
   LCORR  =      T    Harris-Foulkes like correction to forces

   POTIM  = 0.5000    time-step for ionic-motion
   TEIN   =    0.0    initial temperature
   TEBEG  =    0.0;   TEEND  =   0.0 temperature during run
   SMASS  =  -3.00    Nose mass-parameter (am)
   estimated Nose-frequenzy (Omega)   =  0.10E-29 period in steps = 0.13E+47 mass=  -0.117E-25a.u.
   SCALEE = 1.0000    scale energy and forces
   NPACO  =    256;   APACO  = 16.0  distance and # of slots for P.C.
   PSTRESS=    0.0 pullay stress

  Mass of Ions in am
   POMASS = 196.97
  Ionic Valenz
   ZVAL   =  11.00
  Atomic Wigner-Seitz radii
   RWIGS  =  -1.00
  virtual crystal weights 
   VCA    =   1.00
   NELECT =      88.0000    total number of electrons
   NUPDOWN=      -1.0000    fix difference up-down

 DOS related values:
   EMIN   =  10.00;   EMAX   =-10.00  energy-range for DOS
   EFERMI =   0.00
   ISMEAR =     1;   SIGMA  =   0.20  broadening in eV -4-tet -1-fermi 0-gaus

 Electronic relaxation 2 (details)
   IALGO  =     38    algorithm
   LDIAG  =      T    sub-space diagonalisation (order eigenvalues)
   LSUBROT=      F    optimize rotation matrix (better conditioning)
   TURBO    =      0    0=normal 1=particle mesh
   IRESTART =      0    0=no restart 2=restart with 2 vectors
   NREBOOT  =      0    no. of reboots
   NMIN     =      0    reboot dimension
   EREF     =   0.00    reference energy to select bands
   IMIX   =      4    mixing-type and parameters
     AMIX     =   0.40;   BMIX     =  1.00
     AMIX_MAG =   1.60;   BMIX_MAG =  1.00
     AMIN     =   0.10
     WC   =   100.;   INIMIX=   1;  MIXPRE=   1;  MAXMIX= -45

 Intra band minimization:
   WEIMIN = 0.0010     energy-eigenvalue tresh-hold
   EBREAK =  0.45E-06  absolut break condition
   DEPER  =   0.30     relativ break condition  

   TIME   =   0.40     timestep for ELM

  volume/ion in A,a.u.               =    1470.86      9925.87
  Fermi-wavevector in a.u.,A,eV,Ry     =   0.320146  0.604989  1.394510  0.102494
  Thomas-Fermi vector in A             =   1.206502
 
 Write flags
   LWAVE        =      F    write WAVECAR
   LDOWNSAMPLE  =      F    k-point downsampling of WAVECAR
   LCHARG       =      F    write CHGCAR
   LVTOT        =      F    write LOCPOT, total local potential
   LVHAR        =      F    write LOCPOT, Hartree potential only
   LELF         =      F    write electronic localiz. function (ELF)
   LORBIT       =      0    0 simple, 1 ext, 2 COOP (PROOUT), +10 PAW based schemes


 Dipole corrections
   LMONO  =      F    monopole corrections only (constant potential shift)
   LDIPOL =      F    correct potential (dipole corrections)
   IDIPOL =      0    1-x, 2-y, 3-z, 4-all directions 
   EPSILON=  1.0000000 bulk dielectric constant

 Exchange correlation treatment:
   GGA     =    PE    GGA type
   LEXCH   =     8    internal setting for exchange type
   VOSKOWN=      0    Vosko Wilk Nusair interpolation
   LHFCALC =     F    Hartree Fock is set to
   LHFONE  =     F    Hartree Fock one center treatment
   AEXX    =    0.0000 exact exchange contribution

 Linear response parameters
   LEPSILON=     F    determine dielectric tensor
   LRPA    =     F    only Hartree local field effects (RPA)
   LNABLA  =     F    use nabla operator in PAW spheres
   LVEL    =     F    velocity operator in full k-point grid
   LINTERFAST=   F  fast interpolation
   KINTER  =     0    interpolate to denser k-point grid
   CSHIFT  =0.1000    complex shift for real part using Kramers Kronig
   OMEGAMAX=  -1.0    maximum frequency
   DEG_THRESHOLD= 0.2000000E-02 threshold for treating states as degnerate
   RTIME   =   -0.100 relaxation time in fs
  (WPLASMAI=    0.000 imaginary part of plasma frequency in eV, 0.658/RTIME)
   DFIELD  = 0.0000000 0.0000000 0.0000000 field for delta impulse in time
 
 Orbital magnetization related:
   ORBITALMAG=     F  switch on orbital magnetization
   LCHIMAG   =     F  perturbation theory with respect to B field
   DQ        =  0.001000  dq finite difference perturbation B field
   LLRAUG    =     F  two centre corrections for induced B field



--------------------------------------------------------------------------------------------------------


 conjugate gradient relaxation of ions
 charge density and potential will be updated during run
 spin polarized calculation
 Variant of blocked Davidson
 Davidson routine will perform the subspace rotation
 perform sub-space diagonalisation
    after iterative eigenvector-optimisation
 modified Broyden-mixing scheme, WC =      100.0
 initial mixing is a Kerker type mixing with AMIX =  0.4000 and BMIX =      1.0000
 Hartree-type preconditioning will be used
 using additional bands            12
 reciprocal scheme for non local part
 use partial core corrections
 calculate Harris-corrections to forces 
   (improved forces if not selfconsistent)
 use gradient corrections 
 use of overlap-Matrix (Vanderbilt PP)
 Methfessel and Paxton  Order N= 1 SIGMA  =   0.20


--------------------------------------------------------------------------------------------------------


  energy-cutoff  :      400.00
  volume of cell :    11766.90
      direct lattice vectors                 reciprocal lattice vectors
    22.641849934  0.000000000  0.000000000     0.044166002  0.000000000  0.000000000
     0.000000000 24.294429838  0.000000000     0.000000000  0.041161699  0.000000000
     0.000000000  0.000000000 21.391613693     0.000000000  0.000000000  0.046747291

  length of vectors
    22.641849934 24.294429838 21.391613693     0.044166002  0.041161699  0.046747291


 
 k-points in units of 2pi/SCALE and weight: KPOINTS created by Atomic Simulation Env
   0.00000000  0.00000000  0.00000000       1.000
 
 k-points in reciprocal lattice and weights: KPOINTS created by Atomic Simulation Env
   0.00000000  0.00000000  0.00000000       1.000
 
 position of ions in fractional coordinates (direct lattice) 
   0.42857422  0.60036348  0.44660556
   0.36265952  0.57871938  0.54541646
   0.52923125  0.55021440  0.42022209
   0.50078174  0.44590122  0.60531409
   0.62841527  0.49422521  0.40397402
   0.46337615  0.52246000  0.52798008
   0.56510690  0.46860001  0.50628132
   0.66704711  0.41695163  0.48055544
 
 position of ions in cartesian coordinates  (Angst):
   9.70371307 14.58548853  9.55361352
   8.21128233 14.05965739 11.66733817
  11.98277455 13.36714524  8.98922859
  11.33862500 10.83291581 12.94864512
  14.22848419 12.00691974  8.64165617
  10.49169319 12.69286779 11.29434601
  12.79506557 11.38436997 10.83017451
  15.10318048 10.12960218 10.27985641
 


--------------------------------------------------------------------------------------------------------


 use parallel FFT for orbitals z direction half grid
 k-point   1 :   0.0000 0.0000 0.0000  plane waves:  106884

 maximum and minimum number of plane-waves per node :     13365    13355

 maximum number of plane-waves:    106884
 maximum index in each direction: 
   IXMAX=   36   IYMAX=   39   IZMAX=   34
   IXMIN=  -36   IYMIN=  -39   IZMIN=    0


 parallel 3D FFT for wavefunctions:
    minimum data exchange during FFTs selected (reduces bandwidth)
 parallel 3D FFT for charge:
    minimum data exchange during FFTs selected (reduces bandwidth)


 total amount of memory used by VASP MPI-rank0   230434. kBytes
=======================================================================

   base      :      30000. kBytes
   nonl-proj :       3632. kBytes
   fftplans  :      53008. kBytes
   grid      :     119831. kBytes
   one-center:         15. kBytes
   wavefun   :      23948. kBytes
 
     INWAV:  cpu time    0.0000: real time    0.0000
 Broyden mixing: mesh for mixing (old mesh)
   NGX = 73   NGY = 79   NGZ = 69
  (NGX  =224   NGY  =240   NGZ  =216)
  gives a total of 397923 points

 initial charge density was supplied:
 charge density of overlapping atoms calculated
 number of electron      88.0000000 magnetization       8.0000000
 keeping initial charge density in first step


--------------------------------------------------------------------------------------------------------


 Maximum index for augmentation-charges           968 (set IRDMAX)


--------------------------------------------------------------------------------------------------------


 First call to EWALD:  gamma=   0.078
 Maximum number of real-space cells 3x 3x 3
 Maximum number of reciprocal cells 3x 3x 3

    FEWALD:  cpu time    0.0008: real time    0.0008


--------------------------------------- Iteration      1(   1)  ---------------------------------------


    POTLOK:  cpu time    2.9588: real time    2.9717
    SETDIJ:  cpu time    0.0166: real time    0.0167
     EDDAV:  cpu time    4.2940: real time    4.3303
       DOS:  cpu time    0.0010: real time    0.0010
    --------------------------------------------
      LOOP:  cpu time    7.2704: real time    7.3198

 eigenvalue-minimisations  :   224
 total energy-change (2. order) : 0.7343316E+03  (-0.1318890E+04)
 number of electron      88.0000000 magnetization       8.0000000
 augmentation part       88.0000000 magnetization       8.0000000

 Free energy of the ion-electron system (eV)
  ---------------------------------------------------
  alpha Z        PSCENC =         6.33530747
  Ewald energy   TEWEN  =      6634.01693882
  -Hartree energ DENC   =    -13725.33885059
  -exchange      EXHF   =         0.00000000
  -V(xc)+E(xc)   XCENC  =       116.57504556
  PAW double counting   =      6992.17180065    -6807.49900724
  entropy T*S    EENTRO =        -0.04668975
  eigenvalues    EBANDS =       109.47287065
  atomic energy  EATOM  =      7408.64415014
  Solvation  Ediel_sol  =         0.00000000
  ---------------------------------------------------
  free energy    TOTEN  =       734.33156572 eV

  energy without entropy =      734.37825547  energy(sigma->0) =      734.34712897


--------------------------------------------------------------------------------------------------------




--------------------------------------- Iteration      1(   2)  ---------------------------------------


     EDDAV:  cpu time    6.8293: real time    6.8568
       DOS:  cpu time    0.0018: real time    0.0018
    --------------------------------------------
      LOOP:  cpu time    6.8311: real time    6.8586

 eigenvalue-minimisations  :   416
 total energy-change (2. order) :-0.2678491E+03  (-0.2495454E+03)
 number of electron      88.0000000 magnetization       8.0000000
 augmentation part       88.0000000 magnetization       8.0000000

 Free energy of the ion-electron system (eV)
  ---------------------------------------------------
  alpha Z        PSCENC =         6.33530747
  Ewald energy   TEWEN  =      6634.01693882
  -Hartree energ DENC   =    -13725.33885059
  -exchange      EXHF   =         0.00000000
  -V(xc)+E(xc)   XCENC  =       116.57504556
  PAW double counting   =      6992.17180065    -6807.49900724
  entropy T*S    EENTRO =        -0.05844189
  eigenvalues    EBANDS =      -158.36451313
  atomic energy  EATOM  =      7408.64415014
  Solvation  Ediel_sol  =         0.00000000
  ---------------------------------------------------
  free energy    TOTEN  =       466.48242980 eV

  energy without entropy =      466.54087168  energy(sigma->0) =      466.50191043


--------------------------------------------------------------------------------------------------------




--------------------------------------- Iteration      1(   3)  ---------------------------------------


     EDDAV:  cpu time    6.7783: real time    6.8319
       DOS:  cpu time    0.0053: real time    0.0053
    --------------------------------------------
      LOOP:  cpu time    6.7837: real time    6.8373

 eigenvalue-minimisations  :   416
 total energy-change (2. order) :-0.3197794E+03  (-0.2991125E+03)
 number of electron      88.0000000 magnetization       8.0000000
 augmentation part       88.0000000 magnetization       8.0000000

 Free energy of the ion-electron system (eV)
  ---------------------------------------------------
  alpha Z        PSCENC =         6.33530747
  Ewald energy   TEWEN  =      6634.01693882
  -Hartree energ DENC   =    -13725.33885059
  -exchange      EXHF   =         0.00000000
  -V(xc)+E(xc)   XCENC  =       116.57504556
  PAW double counting   =      6992.17180065    -6807.49900724
  entropy T*S    EENTRO =         0.02424651
  eigenvalues    EBANDS =      -478.22664284
  atomic energy  EATOM  =      7408.64415014
  Solvation  Ediel_sol  =         0.00000000
  ---------------------------------------------------
  free energy    TOTEN  =       146.70298849 eV

  energy without entropy =      146.67874197  energy(sigma->0) =      146.69490631


--------------------------------------------------------------------------------------------------------




--------------------------------------- Iteration      1(   4)  ---------------------------------------


     EDDAV:  cpu time    5.5359: real time    5.5699
       DOS:  cpu time    0.0009: real time    0.0009
    --------------------------------------------
      LOOP:  cpu time    5.5368: real time    5.5709

 eigenvalue-minimisations  :   320
 total energy-change (2. order) :-0.1389814E+03  (-0.1324510E+03)
 number of electron      88.0000000 magnetization       8.0000000
 augmentation part       88.0000000 magnetization       8.0000000

 Free energy of the ion-electron system (eV)
  ---------------------------------------------------
  alpha Z        PSCENC =         6.33530747
  Ewald energy   TEWEN  =      6634.01693882
  -Hartree energ DENC   =    -13725.33885059
  -exchange      EXHF   =         0.00000000
  -V(xc)+E(xc)   XCENC  =       116.57504556
  PAW double counting   =      6992.17180065    -6807.49900724
  entropy T*S    EENTRO =         0.02278484
  eigenvalues    EBANDS =      -617.20654878
  atomic energy  EATOM  =      7408.64415014
  Solvation  Ediel_sol  =         0.00000000
  ---------------------------------------------------
  free energy    TOTEN  =         7.72162087 eV

  energy without entropy =        7.69883603  energy(sigma->0) =        7.71402593


--------------------------------------------------------------------------------------------------------




--------------------------------------- Iteration      1(   5)  ---------------------------------------


     EDDAV:  cpu time    5.1409: real time    5.1683
       DOS:  cpu time    0.0009: real time    0.0009
    CHARGE:  cpu time    0.5814: real time    0.5863
    MIXING:  cpu time    0.0487: real time    0.0489
    --------------------------------------------
      LOOP:  cpu time    5.7719: real time    5.8044

 eigenvalue-minimisations  :   288
 total energy-change (2. order) :-0.2245062E+02  (-0.2079294E+02)
 number of electron      87.9999994 magnetization       7.3938046
 augmentation part       30.8770525 magnetization       6.0819227

 Broyden mixing:
  rms(total) = 0.16902E+01    rms(broyden)= 0.16901E+01
  rms(prec ) = 0.17195E+01
  weight for this iteration     100.00

 Free energy of the ion-electron system (eV)
  ---------------------------------------------------
  alpha Z        PSCENC =         6.33530747
  Ewald energy   TEWEN  =      6634.01693882
  -Hartree energ DENC   =    -13725.33885059
  -exchange      EXHF   =         0.00000000
  -V(xc)+E(xc)   XCENC  =       116.57504556
  PAW double counting   =      6992.17180065    -6807.49900724
  entropy T*S    EENTRO =         0.00488376
  eigenvalues    EBANDS =      -639.63926900
  atomic energy  EATOM  =      7408.64415014
  Solvation  Ediel_sol  =         0.00000000
  ---------------------------------------------------
  free energy    TOTEN  =       -14.72900043 eV

  energy without entropy =      -14.73388418  energy(sigma->0) =      -14.73062834


--------------------------------------------------------------------------------------------------------




--------------------------------------- Iteration      1(   6)  ---------------------------------------


    POTLOK:  cpu time    2.9359: real time    2.9448
    SETDIJ:  cpu time    0.0167: real time    0.0167
     EDDAV:  cpu time    4.4627: real time    4.4743
       DOS:  cpu time    0.0031: real time    0.0031
    CHARGE:  cpu time    0.5460: real time    0.5510
    MIXING:  cpu time    0.0456: real time    0.0457
    --------------------------------------------
      LOOP:  cpu time    8.0100: real time    8.0356

 eigenvalue-minimisations  :   240
 total energy-change (2. order) : 0.6226166E+01  (-0.4938623E+01)
 number of electron      87.9999997 magnetization       6.7562642
 augmentation part       32.4308562 magnetization       6.4461711

 Broyden mixing:
  rms(total) = 0.12854E+01    rms(broyden)= 0.12853E+01
  rms(prec ) = 0.12969E+01
  weight for this iteration     100.00

 eigenvalues of (default mixing * dielectric matrix)
  average eigenvalue GAMMA=   0.7841
  0.7841

 Free energy of the ion-electron system (eV)
  ---------------------------------------------------
  alpha Z        PSCENC =         6.33530747
  Ewald energy   TEWEN  =      6634.01693882
  -Hartree energ DENC   =    -13663.05264544
  -exchange      EXHF   =         0.00000000
  -V(xc)+E(xc)   XCENC  =       120.11209978
  PAW double counting   =      7253.19524873    -7076.71638432
  entropy T*S    EENTRO =         0.02398366
  eigenvalues    EBANDS =      -691.06153283
  atomic energy  EATOM  =      7408.64415014
  Solvation  Ediel_sol  =         0.00000000
  ---------------------------------------------------
  free energy    TOTEN  =        -8.50283398 eV

  energy without entropy =       -8.52681764  energy(sigma->0) =       -8.51082853


--------------------------------------------------------------------------------------------------------




--------------------------------------- Iteration      1(   7)  ---------------------------------------


    POTLOK:  cpu time    2.9498: real time    2.9581
    SETDIJ:  cpu time    0.0186: real time    0.0186
     EDDAV:  cpu time    4.6621: real time    4.6802
       DOS:  cpu time    0.0029: real time    0.0029
    CHARGE:  cpu time    0.5434: real time    0.5485
    MIXING:  cpu time    0.0456: real time    0.0457
    --------------------------------------------
      LOOP:  cpu time    8.2224: real time    8.2540

 eigenvalue-minimisations  :   256
 total energy-change (2. order) : 0.5842801E+01  (-0.4523534E+00)
 number of electron      87.9999997 magnetization       5.6892528
 augmentation part       32.3645192 magnetization       5.2913678

 Broyden mixing:
  rms(total) = 0.66540E+00    rms(broyden)= 0.66540E+00
  rms(prec ) = 0.67064E+00
  weight for this iteration     100.00

 eigenvalues of (default mixing * dielectric matrix)
  average eigenvalue GAMMA=   1.0735
  1.4703  0.6767

 Free energy of the ion-electron system (eV)
  ---------------------------------------------------
  alpha Z        PSCENC =         6.33530747
  Ewald energy   TEWEN  =      6634.01693882
  -Hartree energ DENC   =    -13683.53380413
  -exchange      EXHF   =         0.00000000
  -V(xc)+E(xc)   XCENC  =       125.26320545
  PAW double counting   =      7453.49501785    -7279.21642655
  entropy T*S    EENTRO =         0.02483656
  eigenvalues    EBANDS =      -667.68925867
  atomic energy  EATOM  =      7408.64415014
  Solvation  Ediel_sol  =         0.00000000
  ---------------------------------------------------
  free energy    TOTEN  =        -2.66003306 eV

  energy without entropy =       -2.68486962  energy(sigma->0) =       -2.66831191


--------------------------------------------------------------------------------------------------------




--------------------------------------- Iteration      1(   8)  ---------------------------------------


    POTLOK:  cpu time    2.9280: real time    2.9376
    SETDIJ:  cpu time    0.0160: real time    0.0160
     EDDAV:  cpu time    4.5535: real time    4.5770
       DOS:  cpu time    0.0007: real time    0.0007
    CHARGE:  cpu time    0.5591: real time    0.5605
    MIXING:  cpu time    0.0513: real time    0.0514
    --------------------------------------------
      LOOP:  cpu time    8.1086: real time    8.1431

 eigenvalue-minimisations  :   248
 total energy-change (2. order) :-0.3082820E+01  (-0.1337622E+00)
 number of electron      87.9999997 magnetization       5.0217031
 augmentation part       32.1720986 magnetization       4.6254536

 Broyden mixing:
  rms(total) = 0.26021E+00    rms(broyden)= 0.26021E+00
  rms(prec ) = 0.26334E+00
  weight for this iteration     100.00

 eigenvalues of (default mixing * dielectric matrix)
  average eigenvalue GAMMA=   1.1209
  1.6370  1.0547  0.6711

 Free energy of the ion-electron system (eV)
  ---------------------------------------------------
  alpha Z        PSCENC =         6.33530747
  Ewald energy   TEWEN  =      6634.01693882
  -Hartree energ DENC   =    -13708.79821157
  -exchange      EXHF   =         0.00000000
  -V(xc)+E(xc)   XCENC  =       123.34124033
  PAW double counting   =      7724.84596983    -7553.17184662
  entropy T*S    EENTRO =         0.00856826
  eigenvalues    EBANDS =      -640.96497002
  atomic energy  EATOM  =      7408.64415014
  Solvation  Ediel_sol  =         0.00000000
  ---------------------------------------------------
  free energy    TOTEN  =        -5.74285336 eV

  energy without entropy =       -5.75142162  energy(sigma->0) =       -5.74570945


--------------------------------------------------------------------------------------------------------




--------------------------------------- Iteration      1(   9)  ---------------------------------------


    POTLOK:  cpu time    2.9255: real time    2.9308
    SETDIJ:  cpu time    0.0161: real time    0.0161
     EDDAV:  cpu time    4.6430: real time    4.6650
       DOS:  cpu time    0.0028: real time    0.0028
    CHARGE:  cpu time    0.5572: real time    0.5624
    MIXING:  cpu time    0.0562: real time    0.0563
    --------------------------------------------
      LOOP:  cpu time    8.2009: real time    8.2333

 eigenvalue-minimisations  :   256
 total energy-change (2. order) :-0.3759314E+01  (-0.1186741E+00)
 number of electron      87.9999997 magnetization       4.3646294
 augmentation part       32.1789961 magnetization       4.0732445

 Broyden mixing:
  rms(total) = 0.17061E+00    rms(broyden)= 0.17061E+00
  rms(prec ) = 0.17244E+00
  weight for this iteration     100.00

 eigenvalues of (default mixing * dielectric matrix)
  average eigenvalue GAMMA=   1.1635
  1.9619  1.2415  0.8142  0.6364

 Free energy of the ion-electron system (eV)
  ---------------------------------------------------
  alpha Z        PSCENC =         6.33530747
  Ewald energy   TEWEN  =      6634.01693882
  -Hartree energ DENC   =    -13709.70732467
  -exchange      EXHF   =         0.00000000
  -V(xc)+E(xc)   XCENC  =       120.49487108
  PAW double counting   =      7790.23672973    -7619.41321010
  entropy T*S    EENTRO =         0.00734740
  eigenvalues    EBANDS =      -640.11697760
  atomic energy  EATOM  =      7408.64415014
  Solvation  Ediel_sol  =         0.00000000
  ---------------------------------------------------
  free energy    TOTEN  =        -9.50216773 eV

  energy without entropy =       -9.50951513  energy(sigma->0) =       -9.50461686


--------------------------------------------------------------------------------------------------------




--------------------------------------- Iteration      1(  10)  ---------------------------------------


    POTLOK:  cpu time    2.9273: real time    2.9455
    SETDIJ:  cpu time    0.0158: real time    0.0159
     EDDAV:  cpu time    4.6440: real time    4.6617
       DOS:  cpu time    0.0028: real time    0.0028
    CHARGE:  cpu time    0.5637: real time    0.5688
    MIXING:  cpu time    0.0535: real time    0.0535
    --------------------------------------------
      LOOP:  cpu time    8.2070: real time    8.2482

 eigenvalue-minimisations  :   256
 total energy-change (2. order) :-0.2409320E+01  (-0.6737224E-01)
 number of electron      87.9999997 magnetization       3.5369127
 augmentation part       32.2112178 magnetization       3.3256960

 Broyden mixing:
  rms(total) = 0.11295E+00    rms(broyden)= 0.11295E+00
  rms(prec ) = 0.11415E+00
  weight for this iteration     100.00

 eigenvalues of (default mixing * dielectric matrix)
  average eigenvalue GAMMA=   1.2477
  2.4611  1.4267  0.8534  0.8534  0.6441

 Free energy of the ion-electron system (eV)
  ---------------------------------------------------
  alpha Z        PSCENC =         6.33530747
  Ewald energy   TEWEN  =      6634.01693882
  -Hartree energ DENC   =    -13707.80983400
  -exchange      EXHF   =         0.00000000
  -V(xc)+E(xc)   XCENC  =       118.57137643
  PAW double counting   =      7805.80119725    -7635.40698748
  entropy T*S    EENTRO =         0.01017492
  eigenvalues    EBANDS =      -642.07381082
  atomic energy  EATOM  =      7408.64415014
  Solvation  Ediel_sol  =         0.00000000
  ---------------------------------------------------
  free energy    TOTEN  =       -11.91148727 eV

  energy without entropy =      -11.92166219  energy(sigma->0) =      -11.91487891


--------------------------------------------------------------------------------------------------------




--------------------------------------- Iteration      1(  11)  ---------------------------------------


    POTLOK:  cpu time    2.9409: real time    2.9527
    SETDIJ:  cpu time    0.0159: real time    0.0159
     EDDAV:  cpu time    4.4685: real time    4.4911
       DOS:  cpu time    0.0029: real time    0.0030
    CHARGE:  cpu time    0.5379: real time    0.5427
    MIXING:  cpu time    0.0602: real time    0.0603
    --------------------------------------------
      LOOP:  cpu time    8.0264: real time    8.0656

 eigenvalue-minimisations  :   240
 total energy-change (2. order) :-0.2057241E+01  (-0.6329830E-01)
 number of electron      87.9999997 magnetization       2.9168423
 augmentation part       32.2474021 magnetization       2.7360302

 Broyden mixing:
  rms(total) = 0.83410E-01    rms(broyden)= 0.83409E-01
  rms(prec ) = 0.84285E-01
  weight for this iteration     100.00

 eigenvalues of (default mixing * dielectric matrix)
  average eigenvalue GAMMA=   1.2534
  2.6502  1.5818  0.9970  0.9970  0.6473  0.6473

 Free energy of the ion-electron system (eV)
  ---------------------------------------------------
  alpha Z        PSCENC =         6.33530747
  Ewald energy   TEWEN  =      6634.01693882
  -Hartree energ DENC   =    -13705.10167383
  -exchange      EXHF   =         0.00000000
  -V(xc)+E(xc)   XCENC  =       116.86432784
  PAW double counting   =      7795.87001708    -7625.61263801
  entropy T*S    EENTRO =         0.01750165
  eigenvalues    EBANDS =      -645.00265950
  atomic energy  EATOM  =      7408.64415014
  Solvation  Ediel_sol  =         0.00000000
  ---------------------------------------------------
  free energy    TOTEN  =       -13.96872834 eV

  energy without entropy =      -13.98623000  energy(sigma->0) =      -13.97456223


--------------------------------------------------------------------------------------------------------




--------------------------------------- Iteration      1(  12)  ---------------------------------------


    POTLOK:  cpu time    2.9253: real time    2.9371
    SETDIJ:  cpu time    0.0154: real time    0.0156
     EDDAV:  cpu time    4.3856: real time    4.4038
       DOS:  cpu time    0.0026: real time    0.0026
    CHARGE:  cpu time    0.5501: real time    0.5552
    MIXING:  cpu time    0.0624: real time    0.0626
    --------------------------------------------
      LOOP:  cpu time    7.9414: real time    7.9769

 eigenvalue-minimisations  :   232
 total energy-change (2. order) :-0.9014954E+00  (-0.1976255E-01)
 number of electron      87.9999997 magnetization       1.7536830
 augmentation part       32.2534779 magnetization       1.5846397

 Broyden mixing:
  rms(total) = 0.62380E-01    rms(broyden)= 0.62380E-01
  rms(prec ) = 0.63171E-01
  weight for this iteration     100.00

 eigenvalues of (default mixing * dielectric matrix)
  average eigenvalue GAMMA=   1.5028
  3.7402  2.3608  1.1644  1.1644  0.7934  0.6694  0.6273

 Free energy of the ion-electron system (eV)
  ---------------------------------------------------
  alpha Z        PSCENC =         6.33530747
  Ewald energy   TEWEN  =      6634.01693882
  -Hartree energ DENC   =    -13703.50879877
  -exchange      EXHF   =         0.00000000
  -V(xc)+E(xc)   XCENC  =       116.08991512
  PAW double counting   =      7778.66001375    -7608.25606356
  entropy T*S    EENTRO =         0.02196522
  eigenvalues    EBANDS =      -646.87365197
  atomic energy  EATOM  =      7408.64415014
  Solvation  Ediel_sol  =         0.00000000
  ---------------------------------------------------
  free energy    TOTEN  =       -14.87022377 eV

  energy without entropy =      -14.89218899  energy(sigma->0) =      -14.87754551


--------------------------------------------------------------------------------------------------------




--------------------------------------- Iteration      1(  13)  ---------------------------------------


    POTLOK:  cpu time    2.9363: real time    2.9538
    SETDIJ:  cpu time    0.0175: real time    0.0175
     EDDAV:  cpu time    4.2780: real time    4.3015
       DOS:  cpu time    0.0031: real time    0.0031
    CHARGE:  cpu time    0.5603: real time    0.5615
    MIXING:  cpu time    0.0647: real time    0.0649
    --------------------------------------------
      LOOP:  cpu time    7.8598: real time    7.9022

 eigenvalue-minimisations  :   224
 total energy-change (2. order) :-0.1089633E+01  (-0.3523103E-01)
 number of electron      87.9999997 magnetization       1.3289364
 augmentation part       32.2764684 magnetization       1.2119010

 Broyden mixing:
  rms(total) = 0.36584E-01    rms(broyden)= 0.36582E-01
  rms(prec ) = 0.37138E-01
  weight for this iteration     100.00

 eigenvalues of (default mixing * dielectric matrix)
  average eigenvalue GAMMA=   1.4844
  4.3207  2.3384  1.2399  1.1278  0.8729  0.7103  0.6325  0.6325

 Free energy of the ion-electron system (eV)
  ---------------------------------------------------
  alpha Z        PSCENC =         6.33530747
  Ewald energy   TEWEN  =      6634.01693882
  -Hartree energ DENC   =    -13699.61588040
  -exchange      EXHF   =         0.00000000
  -V(xc)+E(xc)   XCENC  =       115.04424176
  PAW double counting   =      7748.30736479    -7577.55316031
  entropy T*S    EENTRO =         0.02573807
  eigenvalues    EBANDS =      -651.16455706
  atomic energy  EATOM  =      7408.64415014
  Solvation  Ediel_sol  =         0.00000000
  ---------------------------------------------------
  free energy    TOTEN  =       -15.95985672 eV

  energy without entropy =      -15.98559480  energy(sigma->0) =      -15.96843608


--------------------------------------------------------------------------------------------------------




--------------------------------------- Iteration      1(  14)  ---------------------------------------


    POTLOK:  cpu time    2.9213: real time    2.9401
    SETDIJ:  cpu time    0.0159: real time    0.0159
     EDDAV:  cpu time    4.6677: real time    4.6877
       DOS:  cpu time    0.0032: real time    0.0032
    CHARGE:  cpu time    0.5530: real time    0.5541
    MIXING:  cpu time    0.0668: real time    0.0668
    --------------------------------------------
      LOOP:  cpu time    8.2278: real time    8.2678

 eigenvalue-minimisations  :   256
 total energy-change (2. order) :-0.2741297E+00  (-0.2625548E-02)
 number of electron      87.9999997 magnetization       0.8381215
 augmentation part       32.2706868 magnetization       0.7552043

 Broyden mixing:
  rms(total) = 0.27711E-01    rms(broyden)= 0.27710E-01
  rms(prec ) = 0.28175E-01
  weight for this iteration     100.00

 eigenvalues of (default mixing * dielectric matrix)
  average eigenvalue GAMMA=   1.5902
  5.2708  2.3923  1.5054  1.3121  1.0011  0.9362  0.7024  0.6083  0.5829

 Free energy of the ion-electron system (eV)
  ---------------------------------------------------
  alpha Z        PSCENC =         6.33530747
  Ewald energy   TEWEN  =      6634.01693882
  -Hartree energ DENC   =    -13698.87018464
  -exchange      EXHF   =         0.00000000
  -V(xc)+E(xc)   XCENC  =       114.77409530
  PAW double counting   =      7750.30971030    -7579.49893195
  entropy T*S    EENTRO =         0.02697452
  eigenvalues    EBANDS =      -651.97204638
  atomic energy  EATOM  =      7408.64415014
  Solvation  Ediel_sol  =         0.00000000
  ---------------------------------------------------
  free energy    TOTEN  =       -16.23398642 eV

  energy without entropy =      -16.26096094  energy(sigma->0) =      -16.24297793


--------------------------------------------------------------------------------------------------------




--------------------------------------- Iteration      1(  15)  ---------------------------------------


    POTLOK:  cpu time    2.9275: real time    2.9406
    SETDIJ:  cpu time    0.0161: real time    0.0161
     EDDAV:  cpu time    4.3467: real time    4.3643
       DOS:  cpu time    0.0029: real time    0.0029
    CHARGE:  cpu time    0.5608: real time    0.5686
    MIXING:  cpu time    0.0772: real time    0.0773
    --------------------------------------------
      LOOP:  cpu time    7.9313: real time    7.9699

 eigenvalue-minimisations  :   232
 total energy-change (2. order) :-0.3024506E+00  (-0.1819856E-02)
 number of electron      87.9999997 magnetization       0.4424289
 augmentation part       32.2775607 magnetization       0.4043911

 Broyden mixing:
  rms(total) = 0.16851E-01    rms(broyden)= 0.16850E-01
  rms(prec ) = 0.17271E-01
  weight for this iteration     100.00

 eigenvalues of (default mixing * dielectric matrix)
  average eigenvalue GAMMA=   1.7023
  6.3542  2.5170  2.1446  1.2039  1.2039  0.8479  0.8479  0.6988  0.6170  0.5877

 Free energy of the ion-electron system (eV)
  ---------------------------------------------------
  alpha Z        PSCENC =         6.33530747
  Ewald energy   TEWEN  =      6634.01693882
  -Hartree energ DENC   =    -13697.02942513
  -exchange      EXHF   =         0.00000000
  -V(xc)+E(xc)   XCENC  =       114.44511691
  PAW double counting   =      7755.77167457    -7584.91961259
  entropy T*S    EENTRO =         0.02716692
  eigenvalues    EBANDS =      -653.82775413
  atomic energy  EATOM  =      7408.64415014
  Solvation  Ediel_sol  =         0.00000000
  ---------------------------------------------------
  free energy    TOTEN  =       -16.53643702 eV

  energy without entropy =      -16.56360394  energy(sigma->0) =      -16.54549266


--------------------------------------------------------------------------------------------------------




--------------------------------------- Iteration      1(  16)  ---------------------------------------


    POTLOK:  cpu time    2.9287: real time    2.9428
    SETDIJ:  cpu time    0.0158: real time    0.0158
     EDDAV:  cpu time    4.9825: real time    4.9978
       DOS:  cpu time    0.0015: real time    0.0015
    CHARGE:  cpu time    0.5594: real time    0.5639
    MIXING:  cpu time    0.0773: real time    0.0773
    --------------------------------------------
      LOOP:  cpu time    8.5651: real time    8.5990

 eigenvalue-minimisations  :   240
 total energy-change (2. order) :-0.2564700E+00  (-0.9552273E-03)
 number of electron      87.9999997 magnetization       0.2436130
 augmentation part       32.2759762 magnetization       0.2318615

 Broyden mixing:
  rms(total) = 0.99572E-02    rms(broyden)= 0.99560E-02
  rms(prec ) = 0.10312E-01
  weight for this iteration     100.00

 eigenvalues of (default mixing * dielectric matrix)
  average eigenvalue GAMMA=   1.8616
  7.9435  2.9785  2.3471  1.4838  1.1919  0.9587  0.9587  0.7522  0.6738  0.6236
  0.5657

 Free energy of the ion-electron system (eV)
  ---------------------------------------------------
  alpha Z        PSCENC =         6.33530747
  Ewald energy   TEWEN  =      6634.01693882
  -Hartree energ DENC   =    -13695.76966809
  -exchange      EXHF   =         0.00000000
  -V(xc)+E(xc)   XCENC  =       114.17834315
  PAW double counting   =      7763.48083083    -7592.61826498
  entropy T*S    EENTRO =         0.02745368
  eigenvalues    EBANDS =      -655.08799804
  atomic energy  EATOM  =      7408.64415014
  Solvation  Ediel_sol  =         0.00000000
  ---------------------------------------------------
  free energy    TOTEN  =       -16.79290702 eV

  energy without entropy =      -16.82036070  energy(sigma->0) =      -16.80205824


--------------------------------------------------------------------------------------------------------




--------------------------------------- Iteration      1(  17)  ---------------------------------------


    POTLOK:  cpu time    2.9573: real time    2.9601
    SETDIJ:  cpu time    0.0162: real time    0.0162
     EDDAV:  cpu time    4.8629: real time    4.9043
       DOS:  cpu time    0.0030: real time    0.0030
    CHARGE:  cpu time    0.5473: real time    0.5478
    MIXING:  cpu time    0.0812: real time    0.0813
    --------------------------------------------
      LOOP:  cpu time    8.4678: real time    8.5127

 eigenvalue-minimisations  :   256
 total energy-change (2. order) :-0.1080483E+00  (-0.3665650E-03)
 number of electron      87.9999997 magnetization       0.1534467
 augmentation part       32.2771709 magnetization       0.1516197

 Broyden mixing:
  rms(total) = 0.54972E-02    rms(broyden)= 0.54963E-02
  rms(prec ) = 0.58417E-02
  weight for this iteration     100.00

 eigenvalues of (default mixing * dielectric matrix)
  average eigenvalue GAMMA=   1.8803
  8.6250  3.2441  2.3884  1.6759  1.0732  1.0732  0.9442  0.9442  0.7513  0.6591
  0.6222  0.5626

 Free energy of the ion-electron system (eV)
  ---------------------------------------------------
  alpha Z        PSCENC =         6.33530747
  Ewald energy   TEWEN  =      6634.01693882
  -Hartree energ DENC   =    -13694.94182329
  -exchange      EXHF   =         0.00000000
  -V(xc)+E(xc)   XCENC  =       114.06513114
  PAW double counting   =      7766.01561801    -7595.16283347
  entropy T*S    EENTRO =         0.02735763
  eigenvalues    EBANDS =      -655.90080174
  atomic energy  EATOM  =      7408.64415014
  Solvation  Ediel_sol  =         0.00000000
  ---------------------------------------------------
  free energy    TOTEN  =       -16.90095528 eV

  energy without entropy =      -16.92831291  energy(sigma->0) =      -16.91007449


--------------------------------------------------------------------------------------------------------




--------------------------------------- Iteration      1(  18)  ---------------------------------------


    POTLOK:  cpu time    2.9245: real time    2.9349
    SETDIJ:  cpu time    0.0159: real time    0.0159
     EDDAV:  cpu time    4.1569: real time    4.1815
       DOS:  cpu time    0.0031: real time    0.0031
    CHARGE:  cpu time    0.5538: real time    0.5544
    MIXING:  cpu time    0.0905: real time    0.0906
    --------------------------------------------
      LOOP:  cpu time    7.7447: real time    7.7804

 eigenvalue-minimisations  :   216
 total energy-change (2. order) :-0.3517218E-01  (-0.8570193E-04)
 number of electron      87.9999997 magnetization       0.0790121
 augmentation part       32.2773682 magnetization       0.0797205

 Broyden mixing:
  rms(total) = 0.36519E-02    rms(broyden)= 0.36517E-02
  rms(prec ) = 0.39277E-02
  weight for this iteration     100.00

 eigenvalues of (default mixing * dielectric matrix)
  average eigenvalue GAMMA=   1.9498
  9.1537  3.7989  2.3212  2.2144  1.4630  1.0568  0.9751  0.9751  0.8538  0.7031
  0.6493  0.6188  0.5647

 Free energy of the ion-electron system (eV)
  ---------------------------------------------------
  alpha Z        PSCENC =         6.33530747
  Ewald energy   TEWEN  =      6634.01693882
  -Hartree energ DENC   =    -13694.47342218
  -exchange      EXHF   =         0.00000000
  -V(xc)+E(xc)   XCENC  =       114.02883331
  PAW double counting   =      7765.84035234    -7594.99694330
  entropy T*S    EENTRO =         0.02727604
  eigenvalues    EBANDS =      -656.35862010
  atomic energy  EATOM  =      7408.64415014
  Solvation  Ediel_sol  =         0.00000000
  ---------------------------------------------------
  free energy    TOTEN  =       -16.93612746 eV

  energy without entropy =      -16.96340350  energy(sigma->0) =      -16.94521947


--------------------------------------------------------------------------------------------------------




--------------------------------------- Iteration      1(  19)  ---------------------------------------


    POTLOK:  cpu time    2.9111: real time    2.9135
    SETDIJ:  cpu time    0.0158: real time    0.0158
     EDDAV:  cpu time    4.7431: real time    4.7524
       DOS:  cpu time    0.0017: real time    0.0017
    CHARGE:  cpu time    0.5590: real time    0.5636
    MIXING:  cpu time    0.0945: real time    0.0986
    --------------------------------------------
      LOOP:  cpu time    8.3252: real time    8.3456

 eigenvalue-minimisations  :   216
 total energy-change (2. order) :-0.2326904E-01  (-0.4718674E-04)
 number of electron      87.9999997 magnetization       0.0522240
 augmentation part       32.2773191 magnetization       0.0525832

 Broyden mixing:
  rms(total) = 0.20977E-02    rms(broyden)= 0.20976E-02
  rms(prec ) = 0.22928E-02
  weight for this iteration     100.00

 eigenvalues of (default mixing * dielectric matrix)
  average eigenvalue GAMMA=   1.9606
  9.3956  4.1628  2.5927  2.3940  1.6236  1.0189  1.0189  1.0434  0.9045  0.8036
  0.5645  0.6788  0.6150  0.6318

 Free energy of the ion-electron system (eV)
  ---------------------------------------------------
  alpha Z        PSCENC =         6.33530747
  Ewald energy   TEWEN  =      6634.01693882
  -Hartree energ DENC   =    -13694.00400165
  -exchange      EXHF   =         0.00000000
  -V(xc)+E(xc)   XCENC  =       114.00527185
  PAW double counting   =      7765.06235359    -7594.22354200
  entropy T*S    EENTRO =         0.02721647
  eigenvalues    EBANDS =      -656.82309118
  atomic energy  EATOM  =      7408.64415014
  Solvation  Ediel_sol  =         0.00000000
  ---------------------------------------------------
  free energy    TOTEN  =       -16.95939650 eV

  energy without entropy =      -16.98661297  energy(sigma->0) =      -16.96846866


--------------------------------------------------------------------------------------------------------




--------------------------------------- Iteration      1(  20)  ---------------------------------------


    POTLOK:  cpu time    2.9335: real time    2.9479
    SETDIJ:  cpu time    0.0155: real time    0.0156
     EDDAV:  cpu time    3.6648: real time    3.6775
       DOS:  cpu time    0.0012: real time    0.0012
    CHARGE:  cpu time    0.5519: real time    0.5565
    MIXING:  cpu time    0.1009: real time    0.1010
    --------------------------------------------
      LOOP:  cpu time    7.2679: real time    7.2995

 eigenvalue-minimisations  :   176
 total energy-change (2. order) :-0.9313105E-02  (-0.7518875E-05)
 number of electron      87.9999997 magnetization       0.0345106
 augmentation part       32.2774003 magnetization       0.0342673

 Broyden mixing:
  rms(total) = 0.13485E-02    rms(broyden)= 0.13485E-02
  rms(prec ) = 0.14981E-02
  weight for this iteration     100.00

 eigenvalues of (default mixing * dielectric matrix)
  average eigenvalue GAMMA=   1.9683
  9.5457  4.6267  2.8535  2.3625  1.7800  1.2810  1.0407  1.0407  0.8955  0.8955
  0.7135  0.6799  0.5639  0.6312  0.6137

 Free energy of the ion-electron system (eV)
  ---------------------------------------------------
  alpha Z        PSCENC =         6.33530747
  Ewald energy   TEWEN  =      6634.01693882
  -Hartree energ DENC   =    -13693.73938984
  -exchange      EXHF   =         0.00000000
  -V(xc)+E(xc)   XCENC  =       113.99448748
  PAW double counting   =      7764.38246699    -7593.54290277
  entropy T*S    EENTRO =         0.02715992
  eigenvalues    EBANDS =      -657.08692782
  atomic energy  EATOM  =      7408.64415014
  Solvation  Ediel_sol  =         0.00000000
  ---------------------------------------------------
  free energy    TOTEN  =       -16.96870961 eV

  energy without entropy =      -16.99586953  energy(sigma->0) =      -16.97776291


--------------------------------------------------------------------------------------------------------




--------------------------------------- Iteration      1(  21)  ---------------------------------------


    POTLOK:  cpu time    2.9506: real time    2.9622
    SETDIJ:  cpu time    0.0161: real time    0.0201
     EDDAV:  cpu time    3.5701: real time    3.5862
       DOS:  cpu time    0.0027: real time    0.0027
    CHARGE:  cpu time    0.5646: real time    0.5652
    MIXING:  cpu time    0.1108: real time    0.1110
    --------------------------------------------
      LOOP:  cpu time    7.2150: real time    7.2474

 eigenvalue-minimisations  :   168
 total energy-change (2. order) :-0.6628096E-02  (-0.4766479E-05)
 number of electron      87.9999997 magnetization       0.0205225
 augmentation part       32.2776577 magnetization       0.0201127

 Broyden mixing:
  rms(total) = 0.94907E-03    rms(broyden)= 0.94907E-03
  rms(prec ) = 0.10452E-02
  weight for this iteration     100.00

 eigenvalues of (default mixing * dielectric matrix)
  average eigenvalue GAMMA=   1.9833
  9.6318  5.0868  2.9223  2.3930  2.1870  1.4608  1.0320  1.0320  0.9797  0.9797
  0.8539  0.7119  0.5646  0.6127  0.6425  0.6425

 Free energy of the ion-electron system (eV)
  ---------------------------------------------------
  alpha Z        PSCENC =         6.33530747
  Ewald energy   TEWEN  =      6634.01693882
  -Hartree energ DENC   =    -13693.50801245
  -exchange      EXHF   =         0.00000000
  -V(xc)+E(xc)   XCENC  =       113.98569257
  PAW double counting   =      7764.15418386    -7593.31366378
  entropy T*S    EENTRO =         0.02712487
  eigenvalues    EBANDS =      -657.31705919
  atomic energy  EATOM  =      7408.64415014
  Solvation  Ediel_sol  =         0.00000000
  ---------------------------------------------------
  free energy    TOTEN  =       -16.97533770 eV

  energy without entropy =      -17.00246257  energy(sigma->0) =      -16.98437932


--------------------------------------------------------------------------------------------------------




--------------------------------------- Iteration      1(  22)  ---------------------------------------


    POTLOK:  cpu time    2.9599: real time    2.9797
    SETDIJ:  cpu time    0.0159: real time    0.0159
     EDDAV:  cpu time    3.5706: real time    3.5823
       DOS:  cpu time    0.0022: real time    0.0022
    CHARGE:  cpu time    0.5600: real time    0.5645
    MIXING:  cpu time    0.1154: real time    0.1155
    --------------------------------------------
      LOOP:  cpu time    7.2239: real time    7.2601

 eigenvalue-minimisations  :   168
 total energy-change (2. order) :-0.5877046E-02  (-0.2212356E-05)
 number of electron      87.9999997 magnetization       0.0094825
 augmentation part       32.2777394 magnetization       0.0088696

 Broyden mixing:
  rms(total) = 0.62027E-03    rms(broyden)= 0.62026E-03
  rms(prec ) = 0.67259E-03
  weight for this iteration     100.00

 eigenvalues of (default mixing * dielectric matrix)
  average eigenvalue GAMMA=   2.0294
  9.7004  5.6474  3.3572  2.6152  2.3788  1.6794  1.1898  1.0750  1.0750  0.9000
  0.9000  0.8069  0.7129  0.5647  0.6143  0.6415  0.6415

 Free energy of the ion-electron system (eV)
  ---------------------------------------------------
  alpha Z        PSCENC =         6.33530747
  Ewald energy   TEWEN  =      6634.01693882
  -Hartree energ DENC   =    -13693.31049769
  -exchange      EXHF   =         0.00000000
  -V(xc)+E(xc)   XCENC  =       113.97770161
  PAW double counting   =      7764.31407557    -7593.47207246
  entropy T*S    EENTRO =         0.02711315
  eigenvalues    EBANDS =      -657.51393136
  atomic energy  EATOM  =      7408.64415014
  Solvation  Ediel_sol  =         0.00000000
  ---------------------------------------------------
  free energy    TOTEN  =       -16.98121475 eV

  energy without entropy =      -17.00832790  energy(sigma->0) =      -16.99025246


--------------------------------------------------------------------------------------------------------




--------------------------------------- Iteration      1(  23)  ---------------------------------------


    POTLOK:  cpu time    2.8996: real time    2.9221
    SETDIJ:  cpu time    0.0157: real time    0.0157
     EDDAV:  cpu time    3.4997: real time    3.5433
       DOS:  cpu time    0.0014: real time    0.0014
    CHARGE:  cpu time    0.5585: real time    0.5590
    MIXING:  cpu time    0.1334: real time    0.1335
    --------------------------------------------
      LOOP:  cpu time    7.1083: real time    7.1751

 eigenvalue-minimisations  :   168
 total energy-change (2. order) :-0.3848854E-02  (-0.2164898E-05)
 number of electron      87.9999997 magnetization       0.0050923
 augmentation part       32.2779168 magnetization       0.0046190

 Broyden mixing:
  rms(total) = 0.34743E-03    rms(broyden)= 0.34740E-03
  rms(prec ) = 0.37276E-03
  weight for this iteration     100.00

 eigenvalues of (default mixing * dielectric matrix)
  average eigenvalue GAMMA=   2.0725
  9.7721  6.5183  3.9001  2.5577  2.5577  1.8688  1.3436  1.0474  1.0474  0.9777
  0.9777  0.8578  0.5643  0.7179  0.6892  0.6633  0.6222  0.6222

 Free energy of the ion-electron system (eV)
  ---------------------------------------------------
  alpha Z        PSCENC =         6.33530747
  Ewald energy   TEWEN  =      6634.01693882
  -Hartree energ DENC   =    -13693.14513529
  -exchange      EXHF   =         0.00000000
  -V(xc)+E(xc)   XCENC  =       113.97192525
  PAW double counting   =      7764.49839890    -7593.65572963
  entropy T*S    EENTRO =         0.02708713
  eigenvalues    EBANDS =      -657.67800638
  atomic energy  EATOM  =      7408.64415014
  Solvation  Ediel_sol  =         0.00000000
  ---------------------------------------------------
  free energy    TOTEN  =       -16.98506360 eV

  energy without entropy =      -17.01215074  energy(sigma->0) =      -16.99409265


--------------------------------------------------------------------------------------------------------




--------------------------------------- Iteration      1(  24)  ---------------------------------------


    POTLOK:  cpu time    2.9455: real time    2.9664
    SETDIJ:  cpu time    0.0163: real time    0.0163
     EDDAV:  cpu time    3.8083: real time    3.8244
       DOS:  cpu time    0.0016: real time    0.0016
    CHARGE:  cpu time    0.5534: real time    0.5540
    MIXING:  cpu time    0.1424: real time    0.1426
    --------------------------------------------
      LOOP:  cpu time    7.4675: real time    7.5053

 eigenvalue-minimisations  :   184
 total energy-change (2. order) :-0.1374082E-02  (-0.1019445E-05)
 number of electron      87.9999997 magnetization       0.0024606
 augmentation part       32.2778928 magnetization       0.0021229

 Broyden mixing:
  rms(total) = 0.19814E-03    rms(broyden)= 0.19812E-03
  rms(prec ) = 0.21725E-03
  weight for this iteration     100.00

 eigenvalues of (default mixing * dielectric matrix)
  average eigenvalue GAMMA=   2.1066
  9.8585  7.2461  4.1652  2.6511  2.6511  2.1127  1.5338  1.0905  1.0905  1.0890
  0.9055  0.9055  0.8593  0.7288  0.5643  0.6707  0.6707  0.6156  0.6156

 Free energy of the ion-electron system (eV)
  ---------------------------------------------------
  alpha Z        PSCENC =         6.33530747
  Ewald energy   TEWEN  =      6634.01693882
  -Hartree energ DENC   =    -13693.09427756
  -exchange      EXHF   =         0.00000000
  -V(xc)+E(xc)   XCENC  =       113.97035000
  PAW double counting   =      7764.62848422    -7593.78633992
  entropy T*S    EENTRO =         0.02708381
  eigenvalues    EBANDS =      -657.72813466
  atomic energy  EATOM  =      7408.64415014
  Solvation  Ediel_sol  =         0.00000000
  ---------------------------------------------------
  free energy    TOTEN  =       -16.98643768 eV

  energy without entropy =      -17.01352149  energy(sigma->0) =      -16.99546562


--------------------------------------------------------------------------------------------------------




--------------------------------------- Iteration      1(  25)  ---------------------------------------


    POTLOK:  cpu time    2.9136: real time    2.9173
    SETDIJ:  cpu time    0.0154: real time    0.0154
     EDDAV:  cpu time    3.5232: real time    3.5390
       DOS:  cpu time    0.0018: real time    0.0018
    CHARGE:  cpu time    0.5670: real time    0.5675
    MIXING:  cpu time    0.1449: real time    0.1451
    --------------------------------------------
      LOOP:  cpu time    7.1659: real time    7.1862

 eigenvalue-minimisations  :   168
 total energy-change (2. order) :-0.8028954E-03  (-0.4244958E-06)
 number of electron      87.9999997 magnetization       0.0013605
 augmentation part       32.2778015 magnetization       0.0011792

 Broyden mixing:
  rms(total) = 0.10936E-03    rms(broyden)= 0.10934E-03
  rms(prec ) = 0.12191E-03
  weight for this iteration     100.00

 eigenvalues of (default mixing * dielectric matrix)
  average eigenvalue GAMMA=   2.1171
  9.9860  7.8093  4.4510  2.8645  2.4186  2.4186  1.5607  1.3903  1.0614  1.0614
  0.9197  0.9197  0.8941  0.7254  0.7254  0.5643  0.6764  0.6625  0.6160  0.6160

 Free energy of the ion-electron system (eV)
  ---------------------------------------------------
  alpha Z        PSCENC =         6.33530747
  Ewald energy   TEWEN  =      6634.01693882
  -Hartree energ DENC   =    -13693.07911396
  -exchange      EXHF   =         0.00000000
  -V(xc)+E(xc)   XCENC  =       113.96979686
  PAW double counting   =      7764.71260834    -7593.87069270
  entropy T*S    EENTRO =         0.02709345
  eigenvalues    EBANDS =      -657.74332900
  atomic energy  EATOM  =      7408.64415014
  Solvation  Ediel_sol  =         0.00000000
  ---------------------------------------------------
  free energy    TOTEN  =       -16.98724058 eV

  energy without entropy =      -17.01433403  energy(sigma->0) =      -16.99627173


--------------------------------------------------------------------------------------------------------




--------------------------------------- Iteration      1(  26)  ---------------------------------------


    POTLOK:  cpu time    2.8970: real time    2.8995
    SETDIJ:  cpu time    0.0158: real time    0.0158
     EDDAV:  cpu time    3.5041: real time    3.5198
       DOS:  cpu time    0.0009: real time    0.0009
    CHARGE:  cpu time    0.5669: real time    0.5674
    MIXING:  cpu time    0.1531: real time    0.1533
    --------------------------------------------
      LOOP:  cpu time    7.1378: real time    7.1566

 eigenvalue-minimisations  :   160
 total energy-change (2. order) :-0.2331656E-03  (-0.1710089E-06)
 number of electron      87.9999997 magnetization       0.0008147
 augmentation part       32.2778091 magnetization       0.0007357

 Broyden mixing:
  rms(total) = 0.63962E-04    rms(broyden)= 0.63953E-04
  rms(prec ) = 0.75832E-04
  weight for this iteration     100.00

 eigenvalues of (default mixing * dielectric matrix)
  average eigenvalue GAMMA=   2.1056
 10.0485  8.0047  4.5807  2.9206  2.4727  2.4727  1.7031  1.5367  1.1211  1.0725
  1.0725  0.9224  0.9224  0.7888  0.7888  0.5644  0.6792  0.6792  0.6391  0.6133
  0.6133

 Free energy of the ion-electron system (eV)
  ---------------------------------------------------
  alpha Z        PSCENC =         6.33530747
  Ewald energy   TEWEN  =      6634.01693882
  -Hartree energ DENC   =    -13693.06945937
  -exchange      EXHF   =         0.00000000
  -V(xc)+E(xc)   XCENC  =       113.96953939
  PAW double counting   =      7764.69039690    -7593.84836336
  entropy T*S    EENTRO =         0.02709448
  eigenvalues    EBANDS =      -657.75307822
  atomic energy  EATOM  =      7408.64415014
  Solvation  Ediel_sol  =         0.00000000
  ---------------------------------------------------
  free energy    TOTEN  =       -16.98747374 eV

  energy without entropy =      -17.01456823  energy(sigma->0) =      -16.99650524


--------------------------------------------------------------------------------------------------------




--------------------------------------- Iteration      1(  27)  ---------------------------------------


    POTLOK:  cpu time    2.8788: real time    2.8811
    SETDIJ:  cpu time    0.0156: real time    0.0157
     EDDAV:  cpu time    3.4410: real time    3.4529
       DOS:  cpu time    0.0010: real time    0.0010
    CHARGE:  cpu time    0.5630: real time    0.5635
    MIXING:  cpu time    0.1623: real time    0.1625
    --------------------------------------------
      LOOP:  cpu time    7.0618: real time    7.0767

 eigenvalue-minimisations  :   160
 total energy-change (2. order) :-0.1048628E-03  (-0.7283730E-07)
 number of electron      87.9999997 magnetization       0.0004654
 augmentation part       32.2778153 magnetization       0.0004257

 Broyden mixing:
  rms(total) = 0.39631E-04    rms(broyden)= 0.39623E-04
  rms(prec ) = 0.49331E-04
  weight for this iteration     100.00

 eigenvalues of (default mixing * dielectric matrix)
  average eigenvalue GAMMA=   2.0926
 10.0871  8.0992  4.6886  2.8747  2.7299  2.4968  2.0059  1.5146  1.3092  1.0628
  1.0628  0.9331  0.9331  0.8545  0.8545  0.7302  0.7183  0.5644  0.6559  0.6391
  0.6113  0.6113

 Free energy of the ion-electron system (eV)
  ---------------------------------------------------
  alpha Z        PSCENC =         6.33530747
  Ewald energy   TEWEN  =      6634.01693882
  -Hartree energ DENC   =    -13693.06620324
  -exchange      EXHF   =         0.00000000
  -V(xc)+E(xc)   XCENC  =       113.96947580
  PAW double counting   =      7764.65910432    -7593.81714267
  entropy T*S    EENTRO =         0.02709488
  eigenvalues    EBANDS =      -657.75630414
  atomic energy  EATOM  =      7408.64415014
  Solvation  Ediel_sol  =         0.00000000
  ---------------------------------------------------
  free energy    TOTEN  =       -16.98757861 eV

  energy without entropy =      -17.01467349  energy(sigma->0) =      -16.99661024


--------------------------------------------------------------------------------------------------------




--------------------------------------- Iteration      1(  28)  ---------------------------------------


    POTLOK:  cpu time    2.9210: real time    2.9256
    SETDIJ:  cpu time    0.0170: real time    0.0170
     EDDAV:  cpu time    3.4628: real time    3.4668
       DOS:  cpu time    0.0014: real time    0.0014
    --------------------------------------------
      LOOP:  cpu time    6.4022: real time    6.4109

 eigenvalue-minimisations  :   160
 total energy-change (2. order) :-0.5984729E-04  (-0.4487050E-07)
 number of electron      87.9999997 magnetization       0.0004654
 augmentation part       32.2778153 magnetization       0.0004257

 Free energy of the ion-electron system (eV)
  ---------------------------------------------------
  alpha Z        PSCENC =         6.33530747
  Ewald energy   TEWEN  =      6634.01693882
  -Hartree energ DENC   =    -13693.06608657
  -exchange      EXHF   =         0.00000000
  -V(xc)+E(xc)   XCENC  =       113.96950721
  PAW double counting   =      7764.64894955    -7593.80712518
  entropy T*S    EENTRO =         0.02709581
  eigenvalues    EBANDS =      -657.75637571
  atomic energy  EATOM  =      7408.64415014
  Solvation  Ediel_sol  =         0.00000000
  ---------------------------------------------------
  free energy    TOTEN  =       -16.98763845 eV

  energy without entropy =      -17.01473426  energy(sigma->0) =      -16.99667039


--------------------------------------------------------------------------------------------------------




 average (electrostatic) potential at core
  the test charge radii are     1.2098
  (the norm of the test charge is              1.0000)
       1 -77.0859       2 -76.6417       3 -76.7999       4 -76.9388       5 -77.0849
       6 -77.3918       7 -77.3933       8 -76.6429
 
 
 
 E-fermi :  -5.4141     XC(G=0):  -0.3370     alpha+bet : -0.1614


 spin component 1

 k-point     1 :       0.0000    0.0000    0.0000
  band No.  band energies     occupation 
      1     -10.8596      1.00000
      2      -9.9869      1.00000
      3      -9.9290      1.00000
      4      -9.5745      1.00000
      5      -9.4076      1.00000
      6      -9.0670      1.00000
      7      -8.7698      1.00000
      8      -8.5579      1.00000
      9      -8.5497      1.00000
     10      -8.3958      1.00000
     11      -8.2233      1.00000
     12      -8.2218      1.00000
     13      -8.1699      1.00000
     14      -7.9566      1.00000
     15      -7.8185      1.00000
     16      -7.8029      1.00000
     17      -7.5453      1.00000
     18      -7.4607      1.00000
     19      -7.4591      1.00000
     20      -7.3600      1.00000
     21      -7.2873      1.00000
     22      -7.2625      1.00000
     23      -7.0871      1.00000
     24      -6.9959      1.00000
     25      -6.9040      1.00000
     26      -6.8326      1.00000
     27      -6.8055      1.00000
     28      -6.7901      1.00000
     29      -6.7119      1.00000
     30      -6.6639      1.00000
     31      -6.6514      1.00000
     32      -6.6294      1.00000
     33      -6.6119      1.00000
     34      -6.6050      1.00000
     35      -6.5679      1.00000
     36      -6.4927      1.00000
     37      -6.4637      1.00000
     38      -6.4374      1.00000
     39      -6.3814      1.00000
     40      -6.2788      1.00000
     41      -6.1900      1.00000
     42      -5.7983      1.01023
     43      -5.7474      1.02002
     44      -5.5600      0.96976
     45      -4.4457     -0.00000
     46      -3.8028     -0.00000
     47      -3.1976     -0.00000
     48      -2.6812     -0.00000
     49      -2.2818     -0.00000
     50      -1.3719     -0.00000
     51      -1.1923     -0.00000
     52      -0.9801     -0.00000
     53      -0.8936     -0.00000
     54      -0.8510     -0.00000
     55      -0.6429     -0.00000
     56      -0.0242     -0.00000

 spin component 2

 k-point     1 :       0.0000    0.0000    0.0000
  band No.  band energies     occupation 
      1     -10.8596      1.00000
      2      -9.9869      1.00000
      3      -9.9290      1.00000
      4      -9.5745      1.00000
      5      -9.4076      1.00000
      6      -9.0670      1.00000
      7      -8.7698      1.00000
      8      -8.5579      1.00000
      9      -8.5497      1.00000
     10      -8.3958      1.00000
     11      -8.2233      1.00000
     12      -8.2219      1.00000
     13      -8.1699      1.00000
     14      -7.9566      1.00000
     15      -7.8185      1.00000
     16      -7.8029      1.00000
     17      -7.5453      1.00000
     18      -7.4607      1.00000
     19      -7.4591      1.00000
     20      -7.3600      1.00000
     21      -7.2873      1.00000
     22      -7.2625      1.00000
     23      -7.0871      1.00000
     24      -6.9959      1.00000
     25      -6.9040      1.00000
     26      -6.8326      1.00000
     27      -6.8055      1.00000
     28      -6.7901      1.00000
     29      -6.7119      1.00000
     30      -6.6639      1.00000
     31      -6.6514      1.00000
     32      -6.6294      1.00000
     33      -6.6119      1.00000
     34      -6.6050      1.00000
     35      -6.5679      1.00000
     36      -6.4927      1.00000
     37      -6.4637      1.00000
     38      -6.4374      1.00000
     39      -6.3814      1.00000
[...]
  -Hartree energ DENC   =    -13698.63987657
  -exchange      EXHF   =         0.00000000
  -V(xc)+E(xc)   XCENC  =       113.98906331
  PAW double counting   =      7767.74377212    -7596.93013202
  entropy T*S    EENTRO =         0.02773017
  eigenvalues    EBANDS =      -657.86732969
  atomic energy  EATOM  =      7408.64415014
  Solvation  Ediel_sol  =         0.00000000
  ---------------------------------------------------
  free energy    TOTEN  =       -16.98800496 eV

  energy without entropy =      -17.01573514  energy(sigma->0) =      -16.99724835


--------------------------------------------------------------------------------------------------------




--------------------------------------- Iteration      3(   2)  ---------------------------------------


    POTLOK:  cpu time    2.9024: real time    2.9074
    SETDIJ:  cpu time    0.0162: real time    0.0162
     EDDAV:  cpu time    2.9963: real time    3.0035
       DOS:  cpu time    0.0010: real time    0.0010
    --------------------------------------------
      LOOP:  cpu time    5.9159: real time    5.9280

 eigenvalue-minimisations  :   128
 total energy-change (2. order) :-0.5981114E-05  (-0.5207645E-05)
 number of electron      87.9999992 magnetization       0.0001582
 augmentation part       32.2762124 magnetization       0.0001543

 Free energy of the ion-electron system (eV)
  ---------------------------------------------------
  alpha Z        PSCENC =         6.33530747
  Ewald energy   TEWEN  =      6639.70931010
  -Hartree energ DENC   =    -13698.65474989
  -exchange      EXHF   =         0.00000000
  -V(xc)+E(xc)   XCENC  =       113.98873413
  PAW double counting   =      7768.07064190    -7597.25952752
  entropy T*S    EENTRO =         0.02777528
  eigenvalues    EBANDS =      -657.84965254
  atomic energy  EATOM  =      7408.64415014
  Solvation  Ediel_sol  =         0.00000000
  ---------------------------------------------------
  free energy    TOTEN  =       -16.98801094 eV

  energy without entropy =      -17.01578622  energy(sigma->0) =      -16.99726937


--------------------------------------------------------------------------------------------------------




 average (electrostatic) potential at core
  the test charge radii are     1.2098
  (the norm of the test charge is              1.0000)
       1 -77.0863       2 -76.6454       3 -76.7964       4 -76.9393       5 -77.0856
       6 -77.3905       7 -77.3921       8 -76.6451
 
 
 
 E-fermi :  -5.4147     XC(G=0):  -0.3353     alpha+bet : -0.1614


 spin component 1

 k-point     1 :       0.0000    0.0000    0.0000
  band No.  band energies     occupation 
      1     -10.8664      1.00000
      2      -9.9881      1.00000
      3      -9.9354      1.00000
      4      -9.5750      1.00000
      5      -9.4147      1.00000
      6      -9.0753      1.00000
      7      -8.7742      1.00000
      8      -8.5626      1.00000
      9      -8.5575      1.00000
     10      -8.3970      1.00000
     11      -8.2252      1.00000
     12      -8.2228      1.00000
     13      -8.1751      1.00000
     14      -7.9598      1.00000
     15      -7.8190      1.00000
     16      -7.8093      1.00000
     17      -7.5461      1.00000
     18      -7.4622      1.00000
     19      -7.4599      1.00000
     20      -7.3607      1.00000
     21      -7.2856      1.00000
     22      -7.2642      1.00000
     23      -7.0878      1.00000
     24      -6.9979      1.00000
     25      -6.9028      1.00000
     26      -6.8312      1.00000
     27      -6.8044      1.00000
     28      -6.7905      1.00000
     29      -6.7113      1.00000
     30      -6.6631      1.00000
     31      -6.6513      1.00000
     32      -6.6291      1.00000
     33      -6.6095      1.00000
     34      -6.6056      1.00000
     35      -6.5656      1.00000
     36      -6.4906      1.00000
     37      -6.4620      1.00000
     38      -6.4358      1.00000
     39      -6.3810      1.00000
     40      -6.2776      1.00000
     41      -6.1873      1.00000
     42      -5.7960      1.01070
     43      -5.7427      1.02125
     44      -5.5596      0.96805
     45      -4.4417     -0.00000
     46      -3.7988     -0.00000
     47      -3.1973     -0.00000
     48      -2.6776     -0.00000
     49      -2.2822     -0.00000
     50      -1.3700     -0.00000
     51      -1.1930     -0.00000
     52      -0.9776     -0.00000
     53      -0.8908     -0.00000
     54      -0.8492     -0.00000
     55      -0.6415     -0.00000
     56      -0.0231     -0.00000

 spin component 2

 k-point     1 :       0.0000    0.0000    0.0000
  band No.  band energies     occupation 
      1     -10.8664      1.00000
      2      -9.9881      1.00000
      3      -9.9354      1.00000
      4      -9.5750      1.00000
      5      -9.4147      1.00000
      6      -9.0753      1.00000
      7      -8.7742      1.00000
      8      -8.5626      1.00000
      9      -8.5575      1.00000
     10      -8.3970      1.00000
     11      -8.2252      1.00000
     12      -8.2228      1.00000
     13      -8.1751      1.00000
     14      -7.9598      1.00000
     15      -7.8190      1.00000
     16      -7.8093      1.00000
     17      -7.5461      1.00000
     18      -7.4622      1.00000
     19      -7.4599      1.00000
     20      -7.3607      1.00000
     21      -7.2856      1.00000
     22      -7.2642      1.00000
     23      -7.0878      1.00000
     24      -6.9979      1.00000
     25      -6.9028      1.00000
     26      -6.8312      1.00000
     27      -6.8044      1.00000
     28      -6.7905      1.00000
     29      -6.7113      1.00000
     30      -6.6631      1.00000
     31      -6.6513      1.00000
     32      -6.6291      1.00000
     33      -6.6095      1.00000
     34      -6.6056      1.00000
     35      -6.5656      1.00000
     36      -6.4906      1.00000
     37      -6.4620      1.00000
     38      -6.4358      1.00000
     39      -6.3810      1.00000
     40      -6.2776      1.00000
     41      -6.1873      1.00000
     42      -5.7960      1.01070
     43      -5.7427      1.02125
     44      -5.5596      0.96805
     45      -4.4417     -0.00000
     46      -3.7989     -0.00000
     47      -3.1972     -0.00000
     48      -2.6776     -0.00000
     49      -2.2822     -0.00000
     50      -1.3701     -0.00000
     51      -1.1929     -0.00000
     52      -0.9774     -0.00000
     53      -0.8908     -0.00000
     54      -0.8490     -0.00000
     55      -0.6417     -0.00000
     56      -0.0223     -0.00000


--------------------------------------------------------------------------------------------------------


 soft charge-density along one line, spin component            1
         0         1         2         3         4         5         6         7         8         9
 total charge-density along one line
 
 soft charge-density along one line, spin component            2
         0         1         2         3         4         5         6         7         8         9
 total charge-density along one line
 
 pseudopotential strength for first ion, spin component:            1
 -9.362   0.015  -0.030   0.031   0.003  -9.481   0.014  -0.029
  0.015  -9.376   0.024   0.026  -0.038   0.014  -9.494   0.023
 -0.030   0.024  -9.377   0.010   0.007  -0.029   0.023  -9.495
  0.031   0.026   0.010  -9.384   0.024   0.030   0.025   0.010
  0.003  -0.038   0.007   0.024  -9.362   0.003  -0.037   0.007
 -9.481   0.014  -0.029   0.030   0.003  -9.584   0.014  -0.029
  0.014  -9.494   0.023   0.025  -0.037   0.014  -9.597   0.023
 -0.029   0.023  -9.495   0.010   0.007  -0.029   0.023  -9.598
  0.030   0.025   0.010  -9.502   0.024   0.029   0.025   0.010
  0.003  -0.037   0.007   0.024  -9.480   0.003  -0.036   0.007
 -0.016  -0.022   0.006  -0.017   0.006  -0.016  -0.022   0.006
 -0.023  -0.032   0.009  -0.025   0.009  -0.023  -0.032   0.009
 -0.006  -0.021  -0.012   0.000  -0.022  -0.006  -0.021  -0.012
  0.000   0.021  -0.025  -0.007  -0.000   0.000   0.020  -0.024
  0.020   0.000   0.003  -0.021  -0.006   0.020   0.000   0.003
 -0.006  -0.025  -0.014   0.000  -0.025  -0.006  -0.024  -0.013
  0.000   0.024  -0.029  -0.008   0.000   0.000   0.023  -0.028
  0.023   0.000   0.003  -0.025  -0.007   0.022   0.000   0.003
 pseudopotential strength for first ion, spin component:            2
 -9.362   0.015  -0.030   0.031   0.003  -9.481   0.014  -0.029
  0.015  -9.376   0.024   0.026  -0.038   0.014  -9.494   0.023
 -0.030   0.024  -9.377   0.010   0.007  -0.029   0.023  -9.495
  0.031   0.026   0.010  -9.384   0.024   0.030   0.025   0.010
  0.003  -0.038   0.007   0.024  -9.362   0.003  -0.037   0.007
 -9.481   0.014  -0.029   0.030   0.003  -9.584   0.014  -0.029
  0.014  -9.494   0.023   0.025  -0.037   0.014  -9.597   0.023
 -0.029   0.023  -9.495   0.010   0.007  -0.029   0.023  -9.598
  0.030   0.025   0.010  -9.502   0.024   0.029   0.025   0.010
  0.003  -0.037   0.007   0.024  -9.480   0.003  -0.036   0.007
 -0.016  -0.022   0.006  -0.017   0.006  -0.016  -0.022   0.006
 -0.023  -0.032   0.009  -0.025   0.009  -0.023  -0.032   0.009
 -0.006  -0.021  -0.012   0.000  -0.022  -0.006  -0.021  -0.012
  0.000   0.021  -0.025  -0.007  -0.000   0.000   0.020  -0.024
  0.020   0.000   0.003  -0.021  -0.006   0.020   0.000   0.003
 -0.006  -0.025  -0.014   0.000  -0.025  -0.006  -0.024  -0.013
  0.000   0.024  -0.029  -0.008   0.000   0.000   0.023  -0.028
  0.023   0.000   0.003  -0.025  -0.007   0.022   0.000   0.003
 total augmentation occupancy for first ion, spin component:            1
  3.465  -0.113   0.360  -0.309   0.017  -1.399   0.122  -0.442   0.315   0.025   0.719  -0.153  -0.102  -0.063   0.225  -0.002
 -0.113   3.259  -0.160   0.043   0.067   0.123  -1.258   0.243   0.058  -0.195   0.896  -0.217  -0.103   0.157  -0.031  -0.013
  0.360  -0.160   3.442  -0.335  -0.083  -0.443   0.243  -1.351   0.344   0.133  -0.240   0.047  -0.045  -0.168   0.166  -0.012
 -0.309   0.043  -0.335   3.383  -0.098   0.315   0.058   0.343  -1.447   0.264   0.779  -0.093   0.012   0.074  -0.156   0.000
  0.017   0.067  -0.083  -0.098   3.079   0.026  -0.195   0.134   0.264  -1.045  -0.306   0.017  -0.048   0.014  -0.031  -0.020
 -1.399   0.123  -0.443   0.315   0.026   1.305  -0.128   0.507  -0.318  -0.060  -0.648   0.150   0.122   0.056  -0.254  -0.005
  0.122  -1.258   0.243   0.058  -0.195  -0.128   1.212  -0.307  -0.140   0.297  -0.745   0.185   0.140  -0.200   0.031  -0.007
 -0.442   0.243  -1.351   0.343   0.134   0.507  -0.307   1.235  -0.348  -0.171   0.179  -0.037   0.054   0.199  -0.173   0.001
  0.315   0.058   0.344  -1.447   0.264  -0.318  -0.140  -0.348   1.458  -0.397  -0.692   0.112  -0.006  -0.063   0.164  -0.001
  0.025  -0.195   0.133   0.264  -1.045  -0.060   0.297  -0.171  -0.397   0.978   0.294  -0.038   0.069  -0.021   0.048  -0.001
  0.719   0.896  -0.240   0.779  -0.306  -0.648  -0.745   0.179  -0.692   0.294   2.125  -0.382  -0.192   0.184   0.073   0.012
 -0.153  -0.217   0.047  -0.093   0.017   0.150   0.185  -0.037   0.112  -0.038  -0.382   0.088   0.046  -0.045  -0.016  -0.002
 -0.102  -0.103  -0.045   0.012  -0.048   0.122   0.140   0.054  -0.006   0.069  -0.192   0.046   0.047  -0.012  -0.023  -0.003
 -0.063   0.157  -0.168   0.074   0.014   0.056  -0.200   0.199  -0.063  -0.021   0.184  -0.045  -0.012   0.078  -0.043   0.001
  0.225  -0.031   0.166  -0.156  -0.031  -0.254   0.031  -0.173   0.164   0.048   0.073  -0.016  -0.023  -0.043   0.098   0.001
 -0.002  -0.013  -0.012   0.000  -0.020  -0.005  -0.007   0.001  -0.001  -0.001   0.012  -0.002  -0.003   0.001   0.001   0.001
 -0.001   0.012  -0.018  -0.011  -0.001   0.000   0.009  -0.005   0.003   0.001  -0.011   0.002   0.001  -0.003   0.001  -0.000
  0.013  -0.001  -0.001  -0.017  -0.007   0.007   0.000   0.005  -0.003  -0.001  -0.005   0.001   0.001   0.001  -0.003  -0.000
 total augmentation occupancy for first ion, spin component:            2
  0.000  -0.000   0.000   0.000  -0.000  -0.000   0.000  -0.000  -0.000   0.000   0.000   0.000  -0.000  -0.000   0.000  -0.000
 -0.000   0.000   0.000   0.000  -0.000   0.000  -0.000  -0.000  -0.000   0.000  -0.000  -0.000   0.000  -0.000  -0.000  -0.000
  0.000   0.000   0.000  -0.000   0.000   0.000  -0.000   0.000   0.000  -0.000   0.000  -0.000  -0.000  -0.000   0.000  -0.000
  0.000   0.000  -0.000   0.000  -0.000  -0.000  -0.000   0.000  -0.000   0.000   0.000  -0.000  -0.000   0.000  -0.000   0.000
 -0.000  -0.000   0.000  -0.000   0.000   0.000   0.000  -0.000   0.000  -0.000   0.000  -0.000   0.000  -0.000   0.000   0.000
 -0.000   0.000   0.000  -0.000   0.000  -0.000  -0.000  -0.000   0.000  -0.000  -0.000  -0.000   0.000   0.000  -0.000   0.000
  0.000  -0.000  -0.000  -0.000   0.000  -0.000   0.000   0.000   0.000  -0.000   0.000  -0.000  -0.000   0.000   0.000   0.000
 -0.000  -0.000   0.000   0.000  -0.000  -0.000   0.000  -0.000   0.000   0.000  -0.000   0.000   0.000   0.000  -0.000   0.000
 -0.000  -0.000   0.000  -0.000   0.000   0.000   0.000   0.000   0.000  -0.000   0.000   0.000   0.000  -0.000   0.000  -0.000
  0.000   0.000  -0.000   0.000  -0.000  -0.000  -0.000   0.000  -0.000   0.000   0.000   0.000  -0.000   0.000   0.000  -0.000
  0.000  -0.000   0.000   0.000   0.000  -0.000   0.000  -0.000   0.000   0.000  -0.000   0.000   0.000  -0.000   0.000  -0.000
  0.000  -0.000  -0.000  -0.000  -0.000  -0.000  -0.000   0.000   0.000   0.000   0.000   0.000   0.000   0.000   0.000   0.000
 -0.000   0.000  -0.000  -0.000   0.000   0.000  -0.000   0.000   0.000  -0.000   0.000   0.000  -0.000   0.000  -0.000   0.000
 -0.000  -0.000  -0.000   0.000  -0.000   0.000   0.000   0.000  -0.000   0.000  -0.000   0.000   0.000   0.000  -0.000   0.000
  0.000  -0.000   0.000  -0.000   0.000  -0.000   0.000  -0.000   0.000   0.000   0.000   0.000  -0.000  -0.000   0.000  -0.000
 -0.000  -0.000  -0.000   0.000   0.000   0.000   0.000   0.000  -0.000  -0.000  -0.000   0.000   0.000   0.000  -0.000  -0.000
  0.000   0.000   0.000  -0.000   0.000  -0.000  -0.000  -0.000   0.000  -0.000   0.000   0.000  -0.000  -0.000   0.000  -0.000
 -0.000  -0.000  -0.000   0.000  -0.000   0.000   0.000   0.000  -0.000   0.000  -0.000   0.000   0.000   0.000  -0.000   0.000


------------------------ aborting loop because EDIFF is reached ----------------------------------------


    CHARGE:  cpu time    0.5557: real time    0.5642
    FORLOC:  cpu time    0.0789: real time    0.0790
    FORNL :  cpu time    1.9656: real time    1.9750
    FORCOR:  cpu time    3.1042: real time    3.1186
    FORHAR:  cpu time    0.3436: real time    0.3480
    MIXING:  cpu time    0.0454: real time    0.0454
    OFIELD:  cpu time    0.0000: real time    0.0000

 VOLUME and BASIS-vectors are now :
 -----------------------------------------------------------------------------
  energy-cutoff  :      400.00
  volume of cell :    11766.90
      direct lattice vectors                 reciprocal lattice vectors
    22.641849934  0.000000000  0.000000000     0.044166002  0.000000000  0.000000000
     0.000000000 24.294429838  0.000000000     0.000000000  0.041161699  0.000000000
     0.000000000  0.000000000 21.391613693     0.000000000  0.000000000  0.046747291

  length of vectors
    22.641849934 24.294429838 21.391613693     0.044166002  0.041161699  0.046747291


 FORCES acting on ions
    electron-ion (+dipol)            ewald-force                    non-local-force                 convergence-correction
 -----------------------------------------------------------------------------------------------
   0.288E+03 -.483E+03 0.356E+03   -.287E+03 0.480E+03 -.352E+03   -.161E+01 0.392E+01 -.363E+01   -.105E-02 0.489E-03 0.197E-03
   0.556E+03 -.190E+03 -.285E+03   -.551E+03 0.189E+03 0.281E+03   -.493E+01 0.788E+00 0.366E+01   -.545E-03 -.121E-02 0.195E-02
   -.763E+02 -.301E+03 0.464E+03   0.762E+02 0.300E+03 -.464E+03   0.129E+00 0.526E+00 -.811E+00   0.390E-03 -.125E-02 0.125E-02
   0.938E+02 0.372E+03 -.575E+03   -.928E+02 -.368E+03 0.569E+03   -.102E+01 -.403E+01 0.631E+01   0.690E-04 0.780E-04 -.255E-03
   -.429E+03 -.692E+02 0.500E+03   0.426E+03 0.679E+02 -.495E+03   0.296E+01 0.131E+01 -.455E+01   0.792E-03 -.235E-03 -.215E-03
   0.238E+03 0.847E+01 -.236E+03   -.237E+03 -.908E+01 0.237E+03   -.679E+00 0.612E+00 -.171E+00   -.159E-03 -.687E-03 0.638E-03
   -.173E+03 0.244E+03 -.154E+03   0.173E+03 -.244E+03 0.155E+03   0.778E+00 -.213E+00 -.458E+00   0.380E-03 -.601E-03 0.632E-03
   -.497E+03 0.420E+03 -.723E+02   0.493E+03 -.416E+03 0.705E+02   0.402E+01 -.433E+01 0.186E+01   0.305E-03 -.196E-02 0.230E-02
 -----------------------------------------------------------------------------------------------
   0.352E+00 0.142E+01 -.223E+01   0.568E-13 -.568E-13 -.568E-13   -.351E+00 -.141E+01 0.222E+01   0.184E-03 -.538E-02 0.650E-02
 
 
 POSITION                                       TOTAL-FORCE (eV/Angst)
 -----------------------------------------------------------------------------------
      9.70305     14.58436      9.55569         0.009389     -0.007160     -0.000161
      8.21251     14.06026     11.66533        -0.002510      0.006426     -0.006566
     11.98357     13.36660      8.98917        -0.002769      0.000303      0.001995
     11.33880     10.83368     12.94746        -0.000907     -0.000403      0.001279
     14.22764     12.00589      8.64367        -0.007812      0.000686      0.004259
     10.49199     12.69268     11.29468         0.004647     -0.002165      0.003098
     12.79456     11.38415     10.83072        -0.005082     -0.003779      0.006915
     15.10272     10.13135     10.27814         0.005044      0.006091     -0.010819
 -----------------------------------------------------------------------------------
    total drift:                                0.001188      0.001174      0.000949


--------------------------------------------------------------------------------------------------------



  FREE ENERGIE OF THE ION-ELECTRON SYSTEM (eV)
  ---------------------------------------------------
  free  energy   TOTEN  =       -16.98801094 eV

  energy  without entropy=      -17.01578622  energy(sigma->0) =      -16.99726937
 
 d Force = 0.1039987E-04[ 0.949E-05, 0.113E-04]  d Energy = 0.3904365E-04-0.286E-04
 d Force =-0.8679619E+00[-0.868E+00,-0.868E+00]  d Ewald  =-0.8679619E+00-0.856E-08


--------------------------------------------------------------------------------------------------------


    POTLOK:  cpu time    2.9135: real time    2.9345


--------------------------------------------------------------------------------------------------------




--------------------------------------------------------------------------------------------------------


  
 reached required accuracy - stopping structural energy minimisation
     LOOP+:  cpu time   23.0021: real time   23.1014
    4ORBIT:  cpu time    0.0000: real time    0.0000

 total amount of memory used by VASP MPI-rank0   230434. kBytes
=======================================================================

   base      :      30000. kBytes
   nonl-proj :       3632. kBytes
   fftplans  :      53008. kBytes
   grid      :     119831. kBytes
   one-center:         15. kBytes
   wavefun   :      23948. kBytes
 
  
  
 General timing and accounting informations for this job:
 ========================================================
  
                  Total CPU time used (sec):      279.309
                            User time (sec):      275.644
                          System time (sec):        3.665
                         Elapsed time (sec):      281.405
  
                   Maximum memory used (kb):      444100.
                   Average memory used (kb):           0.
  
                          Minor page faults:      1847608
                          Major page faults:         5234
                 Voluntary context switches:         4352
