unknown system                          
            1
    22.641850    0.000000    0.000000
     0.000000   24.294430    0.000000
     0.000000    0.000000   21.391614
   Au
     8
Direct configuration=     1
   0.42857422  0.60036348  0.44660556
   0.36265952  0.57871938  0.54541646
   0.52923125  0.55021440  0.42022209
   0.50078174  0.44590122  0.60531409
   0.62841527  0.49422521  0.40397402
   0.46337615  0.52246000  0.52798008
   0.56510690  0.46860001  0.50628132
   0.66704711  0.41695163  0.48055544
Direct configuration=     2
   0.42854922  0.60032426  0.44668771
   0.36270535  0.57874040  0.54533697
   0.52926086  0.55019553  0.42021996
   0.50078821  0.44592777  0.60526707
   0.62838351  0.49418923  0.40405394
   0.46338727  0.52245342  0.52799317
   0.56508801  0.46859225  0.50630278
   0.66702971  0.41701246  0.48048745
Direct configuration=     3
   0.42854473  0.60031721  0.44670248
   0.36271359  0.57874418  0.54532268
   0.52926618  0.55019214  0.42021958
   0.50078937  0.44593254  0.60525862
   0.62837781  0.49418276  0.40406831
   0.46338927  0.52245224  0.52799553
   0.56508462  0.46859086  0.50630663
   0.66702658  0.41702340  0.48047522
