   7   7   0   0
  0.1727611E+04  0.2286043E-08  0.2357239E-08  0.2244170E-08  0.5000000E-15
   1.0000000000000000E-004
  CAR 
 unknown system                          
      1.20159182    -14.34875957  301     -4.03901372      1.00000000
    -14.349  0.0000E+00  0.0000E+00  0.0000E+00  0.0000E+00
    -14.297  0.0000E+00  0.0000E+00  0.0000E+00  0.0000E+00
    -14.245  0.0000E+00  0.0000E+00  0.0000E+00  0.0000E+00
    -14.193  0.0000E+00  0.0000E+00  0.0000E+00  0.0000E+00
    -14.141  0.0000E+00  0.0000E+00  0.0000E+00  0.0000E+00
    -14.090  0.0000E+00  0.0000E+00  0.0000E+00  0.0000E+00
    -14.038  0.0000E+00  0.0000E+00  0.0000E+00  0.0000E+00
    -13.986 -0.3532E-30  0.0000E+00 -0.1831E-31  0.0000E+00
    -13.934 -0.2191E-28  0.0000E+00 -0.1154E-29  0.0000E+00
    -13.882 -0.1203E-26 -0.1922E-30 -0.6353E-28 -0.9965E-32
    -13.830 -0.5770E-25 -0.1216E-28 -0.3054E-26 -0.6405E-30
    -13.779 -0.2415E-23 -0.6813E-27 -0.1282E-24 -0.3596E-28
    -13.727 -0.8821E-22 -0.3332E-25 -0.4701E-23 -0.1763E-26
    -13.675 -0.2812E-20 -0.1422E-23 -0.1504E-21 -0.7547E-25
    -13.623 -0.7818E-19 -0.5297E-22 -0.4203E-20 -0.2821E-23
    -13.571 -0.1896E-17 -0.1722E-20 -0.1025E-18 -0.9207E-22
    -13.519 -0.3903E-16 -0.4883E-19 -0.2126E-17 -0.2623E-20
    -13.468 -0.7158E-15 -0.1208E-17 -0.3923E-16 -0.6523E-19
    -13.416 -0.1147E-13 -0.2498E-16 -0.6335E-15 -0.1360E-17
    -13.364 -0.1598E-12 -0.4750E-15 -0.8919E-14 -0.2598E-16
    -13.312 -0.1939E-11 -0.7754E-14 -0.1094E-12 -0.4279E-15
    -13.260 -0.2045E-10 -0.1103E-12 -0.1170E-11 -0.6145E-14
    -13.208 -0.1874E-09 -0.1365E-11 -0.1088E-10 -0.7690E-13
    -13.157 -0.1490E-08 -0.1469E-10 -0.8811E-10 -0.8384E-12
    -13.105 -0.1026E-07 -0.1374E-09 -0.6201E-09 -0.7959E-11
    -13.053 -0.6116E-07 -0.1115E-08 -0.3790E-08 -0.6575E-10
    -13.001 -0.3145E-06 -0.7842E-08 -0.2009E-07 -0.4722E-09
    -12.949 -0.1391E-05 -0.4772E-07 -0.9218E-07 -0.2946E-08
    -12.897 -0.5265E-05 -0.2507E-06 -0.3651E-06 -0.1594E-07
    -12.846 -0.1694E-04 -0.1133E-05 -0.1243E-05 -0.7468E-07
    -12.794 -0.4585E-04 -0.4389E-05 -0.3620E-05 -0.3022E-06
    -12.742 -0.1022E-03 -0.1447E-04 -0.8919E-05 -0.1052E-05
    -12.690 -0.1803E-03 -0.4017E-04 -0.1827E-04 -0.3134E-05
    -12.638 -0.2249E-03 -0.9228E-04 -0.2992E-04 -0.7918E-05
    -12.586 -0.1026E-03 -0.1691E-03 -0.3524E-04 -0.1668E-04
    -12.535  0.3693E-03 -0.2247E-03 -0.1610E-04 -0.2833E-04
    -12.483  0.1297E-02 -0.1375E-03  0.5112E-04 -0.3546E-04
    -12.431  0.2542E-02  0.2738E-03  0.1829E-03 -0.2127E-04
    -12.379  0.3677E-02  0.1137E-02  0.3735E-03  0.3766E-04
    -12.327  0.4189E-02  0.2356E-02  0.5906E-03  0.1598E-03
    -12.275  0.3819E-02  0.3541E-02  0.7885E-03  0.3433E-03
    -12.224  0.2755E-02  0.4168E-02  0.9314E-03  0.5594E-03
    -12.172  0.1493E-02  0.3924E-02  0.1009E-02  0.7628E-03
    -12.120  0.4937E-03  0.2934E-02  0.1034E-02  0.9149E-03
    -12.068 -0.5230E-04  0.1667E-02  0.1032E-02  0.1001E-02
    -12.016 -0.2208E-03  0.6108E-03  0.1020E-02  0.1033E-02
    -11.964 -0.1928E-03 -0.6924E-06  0.1010E-02  0.1033E-02
    -11.913 -0.1146E-03 -0.2129E-03  0.1004E-02  0.1022E-02
    -11.861 -0.5324E-04 -0.2025E-03  0.1002E-02  0.1011E-02
    -11.809 -0.2030E-04 -0.1256E-03  0.1000E-02  0.1005E-02
    -11.757 -0.6487E-05 -0.6023E-04  0.1000E-02  0.1002E-02
    -11.705 -0.1760E-05 -0.2358E-04  0.1000E-02  0.1001E-02
    -11.653 -0.4084E-06 -0.7725E-05  0.1000E-02  0.1000E-02
    -11.602 -0.8146E-07 -0.2145E-05  0.1000E-02  0.1000E-02
    -11.550 -0.1401E-07 -0.5089E-06  0.1000E-02  0.1000E-02
    -11.498 -0.2084E-08 -0.1037E-06  0.1000E-02  0.1000E-02
    -11.446 -0.2685E-09 -0.1822E-07  0.1000E-02  0.1000E-02
    -11.394 -0.3001E-10 -0.2767E-08  0.1000E-02  0.1000E-02
    -11.342 -0.2914E-11 -0.3639E-09  0.1000E-02  0.1000E-02
    -11.291 -0.2459E-12 -0.4151E-10  0.1000E-02  0.1000E-02
    -11.239 -0.1806E-13 -0.4113E-11  0.1000E-02  0.1000E-02
    -11.187 -0.1152E-14 -0.3542E-12  0.1000E-02  0.1000E-02
    -11.135 -0.6426E-16 -0.2653E-13  0.1000E-02  0.1000E-02
    -11.083 -0.4284E-17 -0.1731E-14  0.1000E-02  0.1000E-02
    -11.031 -0.5803E-20 -0.9853E-16  0.1000E-02  0.1000E-02
    -10.980 -0.1567E-18 -0.4284E-17  0.1000E-02  0.1000E-02
    -10.928 -0.3691E-17 -0.1886E-23  0.1000E-02  0.1000E-02
    -10.876 -0.7365E-16 -0.6952E-22  0.1000E-02  0.1000E-02
    -10.824 -0.1313E-14 -0.2236E-20  0.1000E-02  0.1000E-02
    -10.772 -0.2041E-13 -0.6276E-19  0.1000E-02  0.1000E-02
    -10.720 -0.2762E-12 -0.1536E-17  0.1000E-02  0.1000E-02
    -10.669 -0.3252E-11 -0.3172E-16  0.1000E-02  0.1000E-02
    -10.617 -0.3328E-10 -0.5909E-15  0.1000E-02  0.1000E-02
    -10.565 -0.2958E-09 -0.9553E-14  0.1000E-02  0.1000E-02
    -10.513 -0.2281E-08 -0.1344E-12  0.1000E-02  0.1000E-02
    -10.461 -0.1524E-07 -0.1646E-11  0.1000E-02  0.1000E-02
    -10.409 -0.8799E-07 -0.1753E-10  0.1000E-02  0.1000E-02
    -10.358 -0.4382E-06 -0.1621E-09  0.1000E-02  0.1000E-02
    -10.306 -0.1875E-05 -0.1301E-08  0.9999E-03  0.1000E-02
    -10.254 -0.6860E-05 -0.9054E-08  0.9995E-03  0.1000E-02
    -10.202 -0.2130E-04 -0.5448E-07  0.9984E-03  0.1000E-02
    -10.150 -0.5539E-04 -0.2830E-06  0.9955E-03  0.1000E-02
    -10.098 -0.1180E-03 -0.1264E-05  0.9894E-03  0.9999E-03
    -10.046 -0.1960E-03 -0.4838E-05  0.9793E-03  0.9997E-03
     -9.995 -0.2187E-03 -0.1574E-04  0.9679E-03  0.9988E-03
     -9.943 -0.3680E-04 -0.4312E-04  0.9660E-03  0.9966E-03
     -9.891  0.5299E-03 -0.9751E-04  0.9935E-03  0.9916E-03
     -9.839  0.1548E-02 -0.1751E-03  0.1074E-02  0.9825E-03
     -9.787  0.2813E-02 -0.2252E-03  0.1220E-02  0.9708E-03
     -9.735  0.3854E-02 -0.1198E-03  0.1419E-02  0.9646E-03
     -9.684  0.4184E-02  0.3234E-03  0.1636E-02  0.9814E-03
     -9.632  0.3635E-02  0.1221E-02  0.1825E-02  0.1045E-02
     -9.580  0.2483E-02  0.2455E-02  0.1953E-02  0.1172E-02
     -9.528  0.1244E-02  0.3615E-02  0.2018E-02  0.1359E-02
     -9.476  0.3346E-03  0.4181E-02  0.2035E-02  0.1576E-02
     -9.424 -0.1265E-03  0.3867E-02  0.2029E-02  0.1776E-02
     -9.373 -0.2632E-03  0.2827E-02  0.2015E-02  0.1923E-02
     -9.321 -0.2774E-03  0.1534E-02  0.2001E-02  0.2002E-02
     -9.269 -0.3181E-03  0.4427E-03  0.1984E-02  0.2025E-02
     -9.217 -0.4188E-03 -0.2549E-03  0.1962E-02  0.2012E-02
     -9.165 -0.4593E-03 -0.5994E-03  0.1939E-02  0.1981E-02
     -9.113 -0.1478E-03 -0.6390E-03  0.1931E-02  0.1948E-02
     -9.062  0.8871E-03 -0.2361E-03  0.1977E-02  0.1936E-02
     -9.010  0.2825E-02  0.8987E-03  0.2123E-02  0.1982E-02
     -8.958  0.5331E-02  0.2910E-02  0.2400E-02  0.2133E-02
     -8.906  0.7512E-02  0.5442E-02  0.2789E-02  0.2415E-02
     -8.854  0.8369E-02  0.7591E-02  0.3223E-02  0.2809E-02
     -8.802  0.7466E-02  0.8372E-02  0.3610E-02  0.3243E-02
     -8.751  0.5260E-02  0.7390E-02  0.3882E-02  0.3626E-02
     -8.699  0.2761E-02  0.5143E-02  0.4026E-02  0.3892E-02
     -8.647  0.8474E-03  0.2652E-02  0.4069E-02  0.4030E-02
     -8.595 -0.1595E-03  0.7770E-03  0.4061E-02  0.4070E-02
     -8.543 -0.4446E-03 -0.1886E-03  0.4038E-02  0.4060E-02
     -8.491 -0.3707E-03 -0.4476E-03  0.4019E-02  0.4037E-02
     -8.440 -0.2150E-03 -0.3640E-03  0.4008E-02  0.4018E-02
     -8.388 -0.9816E-04 -0.2081E-03  0.4003E-02  0.4007E-02
     -8.336 -0.3687E-04 -0.9398E-04  0.4001E-02  0.4003E-02
     -8.284 -0.1163E-04 -0.3495E-04  0.4000E-02  0.4001E-02
     -8.232 -0.3118E-05 -0.1092E-04  0.4000E-02  0.4000E-02
     -8.180 -0.7154E-06 -0.2903E-05  0.4000E-02  0.4000E-02
     -8.129 -0.1412E-06 -0.6602E-06  0.4000E-02  0.4000E-02
     -8.077 -0.2404E-07 -0.1292E-06  0.4000E-02  0.4000E-02
     -8.025 -0.3542E-08 -0.2181E-07  0.4000E-02  0.4000E-02
     -7.973 -0.4522E-09 -0.3185E-08  0.4000E-02  0.4000E-02
     -7.921 -0.5011E-10 -0.4031E-09  0.4000E-02  0.4000E-02
     -7.869 -0.4824E-11 -0.4428E-10  0.4000E-02  0.4000E-02
     -7.818 -0.4040E-12 -0.4226E-11  0.4000E-02  0.4000E-02
     -7.766 -0.3123E-13 -0.3507E-12  0.4000E-02  0.4000E-02
     -7.714 -0.2949E-13 -0.2532E-13  0.4000E-02  0.4000E-02
     -7.662 -0.3681E-12 -0.1594E-14  0.4000E-02  0.4000E-02
     -7.610 -0.4264E-11 -0.8997E-16  0.4000E-02  0.4000E-02
     -7.558 -0.4295E-10 -0.4501E-17  0.4000E-02  0.4000E-02
     -7.507 -0.3757E-09 -0.5041E-17  0.4000E-02  0.4000E-02
     -7.455 -0.2850E-08 -0.9888E-16  0.4000E-02  0.4000E-02
     -7.403 -0.1873E-07 -0.1743E-14  0.4000E-02  0.4000E-02
     -7.351 -0.1064E-06 -0.2673E-13  0.4000E-02  0.4000E-02
     -7.299 -0.5207E-06 -0.3567E-12  0.4000E-02  0.4000E-02
     -7.247 -0.2190E-05 -0.4140E-11  0.4000E-02  0.4000E-02
     -7.196 -0.7867E-05 -0.4177E-10  0.3999E-02  0.4000E-02
     -7.144 -0.2396E-04 -0.3660E-09  0.3998E-02  0.4000E-02
     -7.092 -0.6100E-04 -0.2782E-08  0.3995E-02  0.4000E-02
     -7.040 -0.1268E-03 -0.1831E-07  0.3988E-02  0.4000E-02
     -6.988 -0.2034E-03 -0.1042E-06  0.3978E-02  0.4000E-02
     -6.936 -0.2119E-03 -0.5111E-06  0.3967E-02  0.4000E-02
     -6.885  0.5220E-05 -0.2153E-05  0.3967E-02  0.4000E-02
     -6.833  0.6237E-03 -0.7751E-05  0.4000E-02  0.3999E-02
     -6.781  0.1686E-02 -0.2365E-04  0.4087E-02  0.3998E-02
     -6.729  0.2952E-02 -0.6038E-04  0.4240E-02  0.3995E-02
     -6.677  0.3934E-02 -0.1258E-03  0.4444E-02  0.3989E-02
     -6.625  0.4164E-02 -0.2028E-03  0.4660E-02  0.3978E-02
     -6.574  0.3522E-02 -0.2133E-03  0.4842E-02  0.3967E-02
     -6.522  0.2322E-02 -0.2121E-05  0.4963E-02  0.3967E-02
     -6.470  0.1075E-02  0.6036E-03  0.5018E-02  0.3998E-02
     -6.418  0.1486E-03  0.1640E-02  0.5026E-02  0.4083E-02
     -6.366 -0.3822E-03  0.2853E-02  0.5006E-02  0.4231E-02
     -6.314 -0.6156E-03  0.3735E-02  0.4974E-02  0.4425E-02
     -6.263 -0.5856E-03  0.3824E-02  0.4944E-02  0.4623E-02
     -6.211 -0.1142E-03  0.3094E-02  0.4938E-02  0.4783E-02
     -6.159  0.1100E-02  0.2111E-02  0.4995E-02  0.4893E-02
     -6.107  0.3163E-02  0.1756E-02  0.5159E-02  0.4984E-02
     -6.055  0.5663E-02  0.2653E-02  0.5453E-02  0.5121E-02
     -6.003  0.7681E-02  0.4680E-02  0.5851E-02  0.5364E-02
     -5.952  0.8285E-02  0.6912E-02  0.6280E-02  0.5722E-02
     -5.900  0.7173E-02  0.8143E-02  0.6652E-02  0.6144E-02
     -5.848  0.4897E-02  0.7665E-02  0.6906E-02  0.6541E-02
     -5.796  0.2465E-02  0.5714E-02  0.7034E-02  0.6838E-02
     -5.744  0.6820E-03  0.3229E-02  0.7069E-02  0.7005E-02
     -5.692 -0.2130E-03  0.1168E-02  0.7058E-02  0.7066E-02
     -5.641 -0.4398E-03 -0.1688E-04  0.7035E-02  0.7065E-02
     -5.589 -0.3554E-03 -0.4246E-03  0.7017E-02  0.7043E-02
     -5.537 -0.2214E-03 -0.4062E-03  0.7005E-02  0.7022E-02
     -5.485 -0.1579E-03 -0.2748E-03  0.6997E-02  0.7007E-02
     -5.433 -0.1988E-03 -0.1990E-03  0.6987E-02  0.6997E-02
     -5.381 -0.3360E-03 -0.2362E-03  0.6969E-02  0.6985E-02
     -5.330 -0.4997E-03 -0.3782E-03  0.6943E-02  0.6965E-02
     -5.278 -0.4899E-03 -0.5349E-03  0.6918E-02  0.6938E-02
     -5.226  0.5879E-04 -0.4690E-03  0.6921E-02  0.6913E-02
     -5.174  0.1562E-02  0.2225E-03  0.7002E-02  0.6925E-02
     -5.122  0.4181E-02  0.1955E-02  0.7219E-02  0.7026E-02
     -5.070  0.7485E-02  0.4807E-02  0.7607E-02  0.7275E-02
     -5.019  0.1041E-01  0.8199E-02  0.8146E-02  0.7700E-02
     -4.967  0.1175E-01  0.1095E-01  0.8755E-02  0.8268E-02
     -4.915  0.1085E-01  0.1185E-01  0.9318E-02  0.8882E-02
     -4.863  0.8125E-02  0.1048E-01  0.9739E-02  0.9425E-02
     -4.811  0.4733E-02  0.7441E-02  0.9984E-02  0.9811E-02
     -4.759  0.1869E-02  0.4029E-02  0.1008E-01  0.1002E-01
     -4.708  0.1335E-03  0.1368E-02  0.1009E-01  0.1009E-01
     -4.656 -0.5584E-03 -0.9859E-04  0.1006E-01  0.1009E-01
     -4.604 -0.6461E-03 -0.5734E-03  0.1003E-01  0.1006E-01
     -4.552 -0.5375E-03 -0.5195E-03  0.9998E-02  0.1003E-01
     -4.500 -0.4085E-03 -0.3179E-03  0.9977E-02  0.1001E-01
     -4.448 -0.1945E-03 -0.1522E-03  0.9966E-02  0.1000E-01
     -4.397  0.2998E-03 -0.5985E-04  0.9982E-02  0.1000E-01
     -4.345  0.1218E-02 -0.1977E-04  0.1005E-01  0.1000E-01
     -4.293  0.2458E-02 -0.5550E-05  0.1017E-01  0.1000E-01
     -4.241  0.3618E-02 -0.1335E-05  0.1036E-01  0.1000E-01
     -4.189  0.4182E-02 -0.2802E-06  0.1058E-01  0.1000E-01
     -4.137  0.3867E-02 -0.7625E-07  0.1078E-01  0.1000E-01
     -4.086  0.2835E-02 -0.1564E-06  0.1092E-01  0.1000E-01
     -4.034  0.1569E-02 -0.7089E-06  0.1101E-01  0.1000E-01
     -3.982  0.5428E-03 -0.2892E-05  0.1103E-01  0.1000E-01
     -3.930 -0.3626E-04 -0.1010E-04  0.1103E-01  0.9999E-02
     -3.878 -0.2375E-03 -0.2996E-04  0.1102E-01  0.9998E-02
     -3.826 -0.2541E-03 -0.7454E-04  0.1101E-01  0.9994E-02
     -3.775 -0.2569E-03 -0.1526E-03  0.1099E-01  0.9986E-02
     -3.723 -0.3267E-03 -0.2463E-03  0.1098E-01  0.9973E-02
     -3.671 -0.4261E-03 -0.2785E-03  0.1095E-01  0.9959E-02
     -3.619 -0.3710E-03 -0.1012E-03  0.1093E-01  0.9954E-02
     -3.567  0.1608E-03  0.4565E-03  0.1094E-01  0.9977E-02
     -3.515  0.1482E-02  0.1488E-02  0.1102E-01  0.1005E-01
     -3.464  0.3599E-02  0.2943E-02  0.1121E-01  0.1021E-01
     -3.412  0.5976E-02  0.4663E-02  0.1152E-01  0.1045E-01
     -3.360  0.7668E-02  0.6450E-02  0.1191E-01  0.1078E-01
     -3.308  0.7889E-02  0.8044E-02  0.1232E-01  0.1120E-01
     -3.256  0.6620E-02  0.9056E-02  0.1267E-01  0.1167E-01
     -3.204  0.4695E-02  0.9088E-02  0.1291E-01  0.1214E-01
     -3.153  0.3224E-02  0.8076E-02  0.1308E-01  0.1256E-01
     -3.101  0.2821E-02  0.6509E-02  0.1322E-01  0.1290E-01
     -3.049  0.3250E-02  0.5134E-02  0.1339E-01  0.1316E-01
     -2.997  0.3738E-02  0.4368E-02  0.1358E-01  0.1339E-01
     -2.945  0.3621E-02  0.4008E-02  0.1377E-01  0.1360E-01
     -2.893  0.2780E-02  0.3545E-02  0.1392E-01  0.1378E-01
     -2.841  0.1585E-02  0.2686E-02  0.1400E-01  0.1392E-01
     -2.790  0.5024E-03  0.1576E-02  0.1402E-01  0.1400E-01
     -2.738 -0.2221E-03  0.5664E-03  0.1401E-01  0.1403E-01
     -2.686 -0.5882E-03 -0.1117E-03  0.1398E-01  0.1402E-01
     -2.634 -0.6324E-03 -0.4695E-03  0.1395E-01  0.1400E-01
     -2.582 -0.2278E-03 -0.6183E-03  0.1394E-01  0.1397E-01
     -2.530  0.8971E-03 -0.5519E-03  0.1398E-01  0.1394E-01
     -2.479  0.2877E-02 -0.4237E-04  0.1413E-01  0.1394E-01
     -2.427  0.5366E-02  0.1234E-02  0.1441E-01  0.1400E-01
     -2.375  0.7493E-02  0.3363E-02  0.1480E-01  0.1418E-01
     -2.323  0.8296E-02  0.5881E-02  0.1523E-01  0.1448E-01
     -2.271  0.7375E-02  0.7829E-02  0.1561E-01  0.1489E-01
     -2.219  0.5192E-02  0.8290E-02  0.1588E-01  0.1532E-01
     -2.168  0.2728E-02  0.7029E-02  0.1602E-01  0.1568E-01
     -2.116  0.8324E-03  0.4664E-02  0.1607E-01  0.1592E-01
     -2.064 -0.1949E-03  0.2216E-02  0.1606E-01  0.1604E-01
     -2.012 -0.5424E-03  0.4454E-03  0.1603E-01  0.1606E-01
     -1.960 -0.5533E-03 -0.4523E-03  0.1600E-01  0.1604E-01
     -1.908 -0.4365E-03 -0.6669E-03  0.1598E-01  0.1600E-01
     -1.857 -0.1702E-03 -0.4155E-03  0.1597E-01  0.1598E-01
     -1.805  0.4096E-03  0.2431E-03  0.1599E-01  0.1599E-01
     -1.753  0.1409E-02  0.1309E-02  0.1606E-01  0.1606E-01
     -1.701  0.2675E-02  0.2616E-02  0.1620E-01  0.1620E-01
     -1.649  0.3769E-02  0.3739E-02  0.1640E-01  0.1639E-01
     -1.597  0.4192E-02  0.4190E-02  0.1661E-01  0.1661E-01
     -1.546  0.3731E-02  0.3753E-02  0.1681E-01  0.1680E-01
     -1.494  0.2619E-02  0.2653E-02  0.1694E-01  0.1694E-01
     -1.442  0.1366E-02  0.1397E-02  0.1701E-01  0.1701E-01
     -1.390  0.4079E-03  0.4305E-03  0.1703E-01  0.1703E-01
     -1.338 -0.1018E-03 -0.8426E-04  0.1703E-01  0.1703E-01
     -1.286 -0.2683E-03 -0.2437E-03  0.1702E-01  0.1702E-01
     -1.235 -0.2845E-03 -0.2402E-03  0.1700E-01  0.1701E-01
     -1.183 -0.2840E-03 -0.2231E-03  0.1699E-01  0.1699E-01
     -1.131 -0.2736E-03 -0.2424E-03  0.1697E-01  0.1698E-01
     -1.079 -0.1307E-03 -0.2394E-03  0.1697E-01  0.1697E-01
     -1.027  0.3373E-03 -0.5818E-04  0.1698E-01  0.1697E-01
     -0.975  0.1252E-02  0.4922E-03  0.1705E-01  0.1699E-01
     -0.924  0.2492E-02  0.1493E-02  0.1718E-01  0.1707E-01
     -0.872  0.3642E-02  0.2755E-02  0.1737E-01  0.1721E-01
     -0.820  0.4185E-02  0.3819E-02  0.1758E-01  0.1741E-01
     -0.768  0.3849E-02  0.4189E-02  0.1778E-01  0.1763E-01
     -0.716  0.2803E-02  0.3677E-02  0.1793E-01  0.1782E-01
     -0.664  0.1539E-02  0.2542E-02  0.1801E-01  0.1795E-01
     -0.613  0.5239E-03  0.1297E-02  0.1803E-01  0.1802E-01
     -0.561 -0.3939E-04  0.3693E-03  0.1803E-01  0.1804E-01
     -0.509 -0.2191E-03 -0.1026E-03  0.1802E-01  0.1803E-01
     -0.457 -0.1955E-03 -0.2249E-03  0.1801E-01  0.1802E-01
     -0.405 -0.1174E-03 -0.1803E-03  0.1800E-01  0.1801E-01
     -0.353 -0.5504E-04 -0.1022E-03  0.1800E-01  0.1800E-01
     -0.302 -0.2113E-04 -0.4585E-04  0.1800E-01  0.1800E-01
     -0.250 -0.6798E-05 -0.1694E-04  0.1800E-01  0.1800E-01
     -0.198 -0.1856E-05 -0.5265E-05  0.1800E-01  0.1800E-01
     -0.146 -0.4332E-06 -0.1391E-05  0.1800E-01  0.1800E-01
     -0.094 -0.8689E-07 -0.3145E-06  0.1800E-01  0.1800E-01
     -0.042 -0.1503E-07 -0.6116E-07  0.1800E-01  0.1800E-01
      0.009 -0.2248E-08 -0.1026E-07  0.1800E-01  0.1800E-01
      0.061 -0.2912E-09 -0.1490E-08  0.1800E-01  0.1800E-01
      0.113 -0.3272E-10 -0.1874E-09  0.1800E-01  0.1800E-01
      0.165 -0.3194E-11 -0.2045E-10  0.1800E-01  0.1800E-01
      0.217 -0.2710E-12 -0.1939E-11  0.1800E-01  0.1800E-01
      0.269 -0.2000E-13 -0.1598E-12  0.1800E-01  0.1800E-01
      0.320 -0.1285E-14 -0.1147E-13  0.1800E-01  0.1800E-01
      0.372 -0.7282E-16 -0.7111E-15  0.1800E-01  0.1800E-01
      0.424 -0.4284E-17 -0.4284E-16  0.1800E-01  0.1800E-01
      0.476  0.0000E+00  0.0000E+00  0.1800E-01  0.1800E-01
      0.528  0.0000E+00  0.0000E+00  0.1800E-01  0.1800E-01
      0.580  0.0000E+00  0.0000E+00  0.1800E-01  0.1800E-01
      0.631  0.0000E+00  0.0000E+00  0.1800E-01  0.1800E-01
      0.683  0.0000E+00  0.0000E+00  0.1800E-01  0.1800E-01
      0.735  0.0000E+00  0.0000E+00  0.1800E-01  0.1800E-01
      0.787  0.0000E+00  0.0000E+00  0.1800E-01  0.1800E-01
      0.839  0.0000E+00  0.0000E+00  0.1800E-01  0.1800E-01
      0.891  0.0000E+00  0.0000E+00  0.1800E-01  0.1800E-01
      0.942  0.0000E+00  0.0000E+00  0.1800E-01  0.1800E-01
      0.994  0.0000E+00  0.0000E+00  0.1800E-01  0.1800E-01
      1.046  0.0000E+00  0.0000E+00  0.1800E-01  0.1800E-01
      1.098  0.0000E+00  0.0000E+00  0.1800E-01  0.1800E-01
      1.150  0.0000E+00  0.0000E+00  0.1800E-01  0.1800E-01
      1.202  0.0000E+00  0.0000E+00  0.1800E-01  0.1800E-01
