    7    7 1000    2
  0.1727611E+04  0.2286043E-08  0.2357239E-08  0.2244170E-08  0.5000000E-15
   1.0000000000000000E-004
  CAR 
 unknown system                          
     21      1     18
 
  0.1262379E-14  0.1262379E-14  0.1262379E-14  0.1000000E+01
    1      -12.348760    -12.237622   1.000000   1.000000
    2       -9.716316     -9.494370   1.000000   1.000000
    3       -8.887704     -8.836638   1.000000   1.000000
    4       -8.874174     -8.826388   1.000000   1.000000
    5       -6.663961     -6.300478   1.000000   1.000000
    6       -6.000504     -5.926866   1.000000   1.000000
    7       -5.970531     -5.905086   1.000000   1.000000
    8       -5.046426     -5.001090   1.000000   1.000000
    9       -4.963772     -4.922517   1.000000   1.000000
   10       -4.956851     -4.919604   1.000000   1.000000
   11       -4.207441     -3.408882   1.000056  -0.000039
   12       -3.373817     -3.229592  -0.000013  -0.000000
   13       -3.328989     -3.214371  -0.000003  -0.000000
   14       -3.009577     -2.952201  -0.000000  -0.000000
   15       -2.366867     -2.268597  -0.000000  -0.000000
   16       -2.335049     -2.247069  -0.000000  -0.000000
   17       -1.624585     -1.623217  -0.000000  -0.000000
   18       -0.839515     -0.798408  -0.000000  -0.000000
