       N       E                     dE             d eps       ncg     rms          rms(c)
DAV:   1     0.431625583455E+02    0.43163E+02   -0.30975E+03   104   0.402E+02
DAV:   2    -0.761028311350E+01   -0.50773E+02   -0.49690E+02   118   0.583E+01
DAV:   3    -0.170549917762E+02   -0.94447E+01   -0.92727E+01    96   0.243E+01
DAV:   4    -0.173993703243E+02   -0.34438E+00   -0.32273E+00    88   0.668E+00
DAV:   5    -0.174144765797E+02   -0.15106E-01   -0.15093E-01   100   0.194E+00    0.539E+00
DAV:   6    -0.128185672544E+02    0.45959E+01   -0.87256E+00    72   0.104E+01    0.241E+00
DAV:   7    -0.109956531118E+02    0.18229E+01   -0.24137E+00    94   0.538E+00    0.132E+00
DAV:   8    -0.113411659964E+02   -0.34551E+00   -0.24632E-01    88   0.244E+00    0.106E+00
DAV:   9    -0.116274383127E+02   -0.28627E+00   -0.74374E-02    94   0.114E+00    0.926E-01
DAV:  10    -0.124077343960E+02   -0.78030E+00   -0.15841E-01    78   0.130E+00    0.619E-01
DAV:  11    -0.135978838505E+02   -0.11901E+01   -0.26114E-01    80   0.148E+00    0.501E-01
DAV:  12    -0.141842599940E+02   -0.58638E+00   -0.91830E-02    76   0.989E-01    0.532E-01
DAV:  13    -0.142804662757E+02   -0.96206E-01   -0.62119E-03   104   0.291E-01    0.550E-01
DAV:  14    -0.143365395684E+02   -0.56073E-01   -0.20325E-02    78   0.499E-01    0.560E-01
DAV:  15    -0.143262786354E+02    0.10261E-01   -0.26721E-02    78   0.551E-01    0.592E-01
DAV:  16    -0.143538969686E+02   -0.27618E-01   -0.22014E-03    76   0.211E-01    0.576E-01
DAV:  17    -0.144891537214E+02   -0.13526E+00   -0.66300E-03    76   0.299E-01    0.575E-01
DAV:  18    -0.150042485440E+02   -0.51509E+00   -0.10233E-01    74   0.112E+00    0.743E-01
DAV:  19    -0.153758060775E+02   -0.37156E+00   -0.18323E-01    78   0.143E+00    0.858E-01
DAV:  20    -0.153969131192E+02   -0.21107E-01   -0.11071E-02    96   0.491E-01    0.931E-01
DAV:  21    -0.155670482810E+02   -0.17014E+00   -0.50856E-02    74   0.676E-01    0.101E+00
DAV:  22    -0.156874972082E+02   -0.12045E+00   -0.90693E-02    78   0.963E-01    0.931E-01
DAV:  23    -0.158305668703E+02   -0.14307E+00   -0.47666E-02    76   0.704E-01    0.890E-01
DAV:  24    -0.158478567849E+02   -0.17290E-01   -0.97084E-02    86   0.965E-01    0.804E-01
DAV:  25    -0.158608596589E+02   -0.13003E-01   -0.28170E-02    96   0.580E-01    0.823E-01
DAV:  26    -0.159725015772E+02   -0.11164E+00   -0.59186E-02    84   0.718E-01    0.523E-01
DAV:  27    -0.160888998408E+02   -0.11640E+00   -0.84038E-02    84   0.859E-01    0.446E-01
DAV:  28    -0.161542058930E+02   -0.65306E-01   -0.27479E-02    76   0.599E-01    0.306E-01
DAV:  29    -0.161809477675E+02   -0.26742E-01   -0.73395E-03    88   0.296E-01    0.253E-01
DAV:  30    -0.162219337119E+02   -0.40986E-01   -0.41637E-03    74   0.229E-01    0.210E-01
DAV:  31    -0.162466778092E+02   -0.24744E-01   -0.10803E-02    96   0.293E-01    0.120E-01
DAV:  32    -0.162636773137E+02   -0.17000E-01   -0.26831E-03    80   0.185E-01    0.101E-01
DAV:  33    -0.162724530458E+02   -0.87757E-02   -0.79940E-04    84   0.980E-02    0.111E-01
DAV:  34    -0.162813746566E+02   -0.89216E-02   -0.31525E-03    88   0.162E-01    0.425E-02
DAV:  35    -0.162862915516E+02   -0.49169E-02   -0.95948E-04    88   0.944E-02    0.473E-02
DAV:  36    -0.162884031386E+02   -0.21116E-02   -0.16428E-04    48   0.449E-02    0.400E-02
DAV:  37    -0.162898268026E+02   -0.14237E-02   -0.27054E-04    62   0.488E-02    0.185E-02
DAV:  38    -0.162909472309E+02   -0.11204E-02   -0.29026E-04    52   0.512E-02    0.283E-02
DAV:  39    -0.162917266304E+02   -0.77940E-03   -0.17436E-04    54   0.376E-02    0.241E-02
DAV:  40    -0.162920460544E+02   -0.31942E-03   -0.11650E-04    44   0.328E-02    0.127E-02
DAV:  41    -0.162925971263E+02   -0.55107E-03   -0.11717E-04    48   0.309E-02    0.102E-02
DAV:  42    -0.162932460990E+02   -0.64897E-03   -0.18172E-04    62   0.340E-02    0.716E-03
DAV:  43    -0.162936588330E+02   -0.41273E-03   -0.16769E-04    48   0.338E-02    0.374E-03
DAV:  44    -0.162939059148E+02   -0.24708E-03   -0.11139E-04    56   0.303E-02    0.349E-03
DAV:  45    -0.162940781816E+02   -0.17227E-03   -0.62430E-05    44   0.251E-02    0.282E-03
DAV:  46    -0.162941954149E+02   -0.11723E-03   -0.29699E-05    48   0.198E-02    0.240E-03
DAV:  47    -0.162942715141E+02   -0.76099E-04   -0.23233E-05    44   0.172E-02
   1 F= -.16294272E+02 E0= -.16303758E+02  d E =-.162943E+02  mag=     1.0389
       N       E                     dE             d eps       ncg     rms          rms(c)
DAV:   1    -0.164170930092E+02   -0.12290E+00   -0.76969E-01    72   0.454E+00    0.247E-01
DAV:   2    -0.164187361174E+02   -0.16431E-02   -0.43346E-02    80   0.105E+00    0.117E-01
DAV:   3    -0.164180943019E+02    0.64182E-03   -0.59667E-03   110   0.363E-01    0.951E-02
DAV:   4    -0.164178489309E+02    0.24537E-03   -0.59822E-04    94   0.104E-01    0.641E-02
DAV:   5    -0.164173422934E+02    0.50664E-03   -0.39620E-04    62   0.563E-02    0.308E-02
DAV:   6    -0.164167592702E+02    0.58302E-03   -0.70977E-04    76   0.696E-02    0.167E-02
DAV:   7    -0.164168172362E+02   -0.57966E-04   -0.63658E-05    42   0.312E-02
   2 F= -.16416817E+02 E0= -.16421731E+02  d E =-.122546E+00  mag=     1.0549
       N       E                     dE             d eps       ncg     rms          rms(c)
DAV:   1    -0.165724258538E+02   -0.15567E+00   -0.70403E+00    72   0.137E+01    0.810E-01
DAV:   2    -0.165804252716E+02   -0.79994E-02   -0.41632E-01    80   0.329E+00    0.398E-01
DAV:   3    -0.165729946170E+02    0.74307E-02   -0.62869E-02   110   0.114E+00    0.321E-01
DAV:   4    -0.165710269871E+02    0.19676E-02   -0.85214E-03    94   0.347E-01    0.244E-01
DAV:   5    -0.165647205333E+02    0.63065E-02   -0.69128E-03    88   0.254E-01    0.146E-01
DAV:   6    -0.165578290039E+02    0.68915E-02   -0.85762E-03    96   0.279E-01    0.658E-02
DAV:   7    -0.165635344306E+02   -0.57054E-02   -0.15595E-03    86   0.146E-01    0.422E-02
DAV:   8    -0.165679146593E+02   -0.43802E-02   -0.51335E-04    96   0.722E-02    0.345E-02
DAV:   9    -0.165726479495E+02   -0.47333E-02   -0.29353E-04    70   0.483E-02    0.233E-02
DAV:  10    -0.165792629337E+02   -0.66150E-02   -0.53483E-04    94   0.616E-02    0.134E-02
DAV:  11    -0.165825949827E+02   -0.33320E-02   -0.19458E-04    72   0.391E-02    0.112E-02
DAV:  12    -0.165859913031E+02   -0.33963E-02   -0.16633E-04    88   0.384E-02    0.711E-03
DAV:  13    -0.165880497334E+02   -0.20584E-02   -0.56169E-05    64   0.248E-02    0.485E-03
DAV:  14    -0.165894338305E+02   -0.13841E-02   -0.33096E-05    64   0.187E-02    0.367E-03
DAV:  15    -0.165906160464E+02   -0.11822E-02   -0.19538E-05    56   0.155E-02    0.229E-03
DAV:  16    -0.165913352806E+02   -0.71923E-03   -0.15517E-05    56   0.124E-02    0.164E-03
DAV:  17    -0.165916044212E+02   -0.26914E-03   -0.30594E-06    44   0.742E-03    0.126E-03
DAV:  18    -0.165920878910E+02   -0.48347E-03   -0.76474E-06    46   0.918E-03    0.909E-04
DAV:  19    -0.165921666692E+02   -0.78778E-04   -0.16695E-06    44   0.535E-03
   3 F= -.16592167E+02 E0= -.16583835E+02  d E =-.297895E+00  mag=     1.1096
       N       E                     dE             d eps       ncg     rms          rms(c)
DAV:   1    -0.166733588358E+02   -0.81271E-01   -0.13742E+00    80   0.589E+00    0.625E-01
DAV:   2    -0.166815548575E+02   -0.81960E-02   -0.12603E-01   100   0.151E+00    0.436E-01
DAV:   3    -0.166581085442E+02    0.23446E-01   -0.30202E-02    86   0.679E-01    0.265E-01
DAV:   4    -0.166533779467E+02    0.47306E-02   -0.10419E-02    94   0.389E-01    0.133E-01
DAV:   5    -0.166598305557E+02   -0.64526E-02   -0.18408E-03   104   0.158E-01    0.896E-02
DAV:   6    -0.166637558808E+02   -0.39253E-02   -0.38721E-04    88   0.725E-02    0.586E-02
DAV:   7    -0.166716549991E+02   -0.78991E-02   -0.10809E-03    86   0.982E-02    0.217E-02
DAV:   8    -0.166747036474E+02   -0.30486E-02   -0.10665E-04    88   0.381E-02    0.162E-02
DAV:   9    -0.166789512019E+02   -0.42476E-02   -0.18480E-04    78   0.412E-02    0.106E-02
DAV:  10    -0.166824304267E+02   -0.34792E-02   -0.17550E-04    88   0.393E-02    0.757E-03
DAV:  11    -0.166846862840E+02   -0.22559E-02   -0.77786E-05    78   0.266E-02    0.406E-03
DAV:  12    -0.166858814454E+02   -0.11952E-02   -0.32276E-05    62   0.173E-02    0.317E-03
DAV:  13    -0.166867402969E+02   -0.85885E-03   -0.18581E-05    56   0.126E-02    0.205E-03
DAV:  14    -0.166873411133E+02   -0.60082E-03   -0.11138E-05    48   0.966E-03    0.133E-03
DAV:  15    -0.166876905537E+02   -0.34944E-03   -0.76907E-06    54   0.760E-03    0.732E-04
DAV:  16    -0.166878234547E+02   -0.13290E-03   -0.23312E-06    48   0.573E-03    0.555E-04
DAV:  17    -0.166878732848E+02   -0.49830E-04   -0.79077E-07    44   0.399E-03
   4 F= -.16687873E+02 E0= -.16684035E+02  d E =-.957066E-01  mag=     1.0848
       N       E                     dE             d eps       ncg     rms          rms(c)
DAV:   1    -0.167298175629E+02   -0.41994E-01   -0.10315E+01    80   0.172E+01    0.100E+00
DAV:   2    -0.167794234602E+02   -0.49606E-01   -0.59836E-01   108   0.361E+00    0.496E-01
DAV:   3    -0.167689950922E+02    0.10428E-01   -0.27313E-02   112   0.755E-01    0.365E-01
DAV:   4    -0.167670519978E+02    0.19431E-02   -0.27705E-03   118   0.233E-01    0.265E-01
DAV:   5    -0.167665631562E+02    0.48884E-03   -0.20537E-03   100   0.161E-01    0.104E-01
DAV:   6    -0.167675705200E+02   -0.10074E-02   -0.11820E-03    96   0.120E-01    0.376E-02
DAV:   7    -0.167692535279E+02   -0.16830E-02   -0.12496E-04    72   0.500E-02    0.274E-02
DAV:   8    -0.167728565709E+02   -0.36030E-02   -0.15857E-04    76   0.447E-02    0.152E-02
DAV:   9    -0.167765799614E+02   -0.37234E-02   -0.20957E-04    92   0.425E-02    0.136E-02
DAV:  10    -0.167778944309E+02   -0.13145E-02   -0.23716E-05    62   0.176E-02    0.106E-02
DAV:  11    -0.167798400406E+02   -0.19456E-02   -0.42830E-05    68   0.193E-02    0.524E-03
DAV:  12    -0.167820954681E+02   -0.22554E-02   -0.90398E-05    84   0.242E-02    0.524E-03
DAV:  13    -0.167827329242E+02   -0.63746E-03   -0.75474E-06    48   0.983E-03    0.285E-03
DAV:  14    -0.167836339442E+02   -0.90102E-03   -0.19053E-05    60   0.119E-02    0.191E-03
DAV:  15    -0.167841000404E+02   -0.46610E-03   -0.81029E-06    52   0.801E-03    0.121E-03
DAV:  16    -0.167842622040E+02   -0.16216E-03   -0.16151E-06    40   0.439E-03    0.876E-04
DAV:  17    -0.167844281562E+02   -0.16595E-03   -0.10003E-06    42   0.359E-03    0.518E-04
DAV:  18    -0.167845111569E+02   -0.83001E-04   -0.65370E-07    38   0.272E-03
   5 F= -.16784511E+02 E0= -.16790896E+02  d E =-.192344E+00  mag=     1.0236
       N       E                     dE             d eps       ncg     rms          rms(c)
DAV:   1    -0.168021225913E+02   -0.17694E-01   -0.11817E+00    76   0.589E+00    0.342E-01
DAV:   2    -0.168071147761E+02   -0.49922E-02   -0.65274E-02   118   0.125E+00    0.175E-01
DAV:   3    -0.168056593200E+02    0.14555E-02   -0.24130E-03   112   0.237E-01    0.126E-01
DAV:   4    -0.168045771661E+02    0.10822E-02   -0.25297E-04    80   0.716E-02    0.864E-02
DAV:   5    -0.168030492855E+02    0.15279E-02   -0.22778E-04    72   0.608E-02    0.246E-02
DAV:   6    -0.168027741763E+02    0.27511E-03   -0.52998E-05    48   0.348E-02    0.115E-02
DAV:   7    -0.168032951322E+02   -0.52096E-03   -0.26485E-05    52   0.239E-02    0.925E-03
DAV:   8    -0.168045062993E+02   -0.12112E-02   -0.76186E-05    74   0.290E-02    0.590E-03
DAV:   9    -0.168053158030E+02   -0.80950E-03   -0.30724E-05    50   0.187E-02    0.449E-03
DAV:  10    -0.168060405258E+02   -0.72472E-03   -0.22463E-05    52   0.147E-02    0.308E-03
DAV:  11    -0.168069699894E+02   -0.92946E-03   -0.39526E-05    68   0.166E-02    0.167E-03
DAV:  12    -0.168073194550E+02   -0.34947E-03   -0.82959E-06    48   0.886E-03    0.123E-03
DAV:  13    -0.168076700640E+02   -0.35061E-03   -0.73888E-06    52   0.776E-03    0.727E-04
DAV:  14    -0.168078860601E+02   -0.21600E-03   -0.42439E-06    44   0.606E-03    0.496E-04
DAV:  15    -0.168079631002E+02   -0.77040E-04   -0.12382E-06    42   0.382E-03
   6 F= -.16807963E+02 E0= -.16816865E+02  d E =-.215796E+00  mag=     1.0866
       N       E                     dE             d eps       ncg     rms          rms(c)
DAV:   1    -0.168965713305E+02   -0.88685E-01   -0.17032E+00    74   0.699E+00    0.388E-01
DAV:   2    -0.169010979279E+02   -0.45266E-02   -0.96303E-02   102   0.150E+00    0.204E-01
DAV:   3    -0.168967149462E+02    0.43830E-02   -0.71120E-03   118   0.393E-01    0.146E-01
DAV:   4    -0.168954002323E+02    0.13147E-02   -0.61349E-04    88   0.109E-01    0.102E-01
DAV:   5    -0.168933730311E+02    0.20272E-02   -0.36055E-04    66   0.689E-02    0.446E-02
DAV:   6    -0.168921728961E+02    0.12001E-02   -0.24117E-04    62   0.615E-02    0.201E-02
DAV:   7    -0.168932039523E+02   -0.10311E-02   -0.40382E-05    50   0.317E-02    0.163E-02
DAV:   8    -0.168977026979E+02   -0.44987E-02   -0.33038E-04    66   0.610E-02    0.122E-02
DAV:   9    -0.168990028497E+02   -0.13002E-02   -0.36601E-05    58   0.242E-02    0.879E-03
DAV:  10    -0.169008290191E+02   -0.18262E-02   -0.40324E-05    52   0.228E-02    0.496E-03
DAV:  11    -0.169032592764E+02   -0.24303E-02   -0.99840E-05    76   0.262E-02    0.330E-03
DAV:  12    -0.169040048767E+02   -0.74560E-03   -0.16082E-05    54   0.123E-02    0.209E-03
DAV:  13    -0.169046422026E+02   -0.63733E-03   -0.11789E-05    60   0.978E-03    0.117E-03
DAV:  14    -0.169050737367E+02   -0.43153E-03   -0.52023E-06    44   0.716E-03    0.693E-04
DAV:  15    -0.169052245900E+02   -0.15085E-03   -0.12819E-06    40   0.414E-03    0.478E-04
DAV:  16    -0.169053111680E+02   -0.86578E-04   -0.43473E-07    36   0.289E-03
   7 F= -.16905311E+02 E0= -.16911984E+02  d E =-.973481E-01  mag=     0.9765
       N       E                     dE             d eps       ncg     rms          rms(c)
DAV:   1    -0.169449615295E+02   -0.39737E-01   -0.35345E+00    72   0.101E+01    0.572E-01
DAV:   2    -0.169561370928E+02   -0.11176E-01   -0.20907E-01   110   0.216E+00    0.302E-01
DAV:   3    -0.169519918308E+02    0.41453E-02   -0.10295E-02   126   0.463E-01    0.203E-01
DAV:   4    -0.169518036420E+02    0.18819E-03   -0.13205E-03    94   0.152E-01    0.122E-01
DAV:   5    -0.169521560465E+02   -0.35240E-03   -0.70723E-04    76   0.917E-02    0.458E-02
DAV:   6    -0.169528577126E+02   -0.70167E-03   -0.25272E-04    78   0.584E-02    0.187E-02
DAV:   7    -0.169539333389E+02   -0.10756E-02   -0.51549E-05    60   0.308E-02    0.133E-02
DAV:   8    -0.169553586515E+02   -0.14253E-02   -0.11420E-04    68   0.345E-02    0.761E-03
DAV:   9    -0.169560038912E+02   -0.64524E-03   -0.42077E-05    60   0.220E-02    0.565E-03
DAV:  10    -0.169567685549E+02   -0.76466E-03   -0.48302E-05    60   0.202E-02    0.286E-03
DAV:  11    -0.169571896247E+02   -0.42107E-03   -0.28966E-05    60   0.151E-02    0.202E-03
DAV:  12    -0.169574361633E+02   -0.24654E-03   -0.10083E-05    42   0.100E-02    0.124E-03
DAV:  13    -0.169576489943E+02   -0.21283E-03   -0.11554E-05    52   0.882E-03    0.852E-04
DAV:  14    -0.169577535113E+02   -0.10452E-03   -0.42705E-06    38   0.584E-03    0.778E-04
DAV:  15    -0.169578030727E+02   -0.49561E-04   -0.15559E-06    38   0.421E-03
   8 F= -.16957803E+02 E0= -.16960741E+02  d E =-.149840E+00  mag=     1.0008
       N       E                     dE             d eps       ncg     rms          rms(c)
DAV:   1    -0.170645926247E+02   -0.10684E+00   -0.22729E+00    72   0.836E+00    0.453E-01
DAV:   2    -0.170728309309E+02   -0.82383E-02   -0.10584E-01   104   0.164E+00    0.198E-01
DAV:   3    -0.170713376126E+02    0.14933E-02   -0.73133E-03    96   0.422E-01    0.167E-01
DAV:   4    -0.170717391409E+02   -0.40153E-03   -0.51466E-04   102   0.110E-01    0.121E-01
DAV:   5    -0.170726188950E+02   -0.87975E-03   -0.46192E-04    76   0.775E-02    0.421E-02
DAV:   6    -0.170734145665E+02   -0.79567E-03   -0.22925E-04    68   0.585E-02    0.165E-02
DAV:   7    -0.170737585624E+02   -0.34400E-03   -0.18578E-05    48   0.242E-02    0.113E-02
DAV:   8    -0.170745336128E+02   -0.77505E-03   -0.24047E-05    52   0.219E-02    0.412E-03
DAV:   9    -0.170748688019E+02   -0.33519E-03   -0.15747E-05    44   0.150E-02    0.341E-03
DAV:  10    -0.170749582271E+02   -0.89425E-04   -0.31254E-06    36   0.856E-03
   9 F= -.17074958E+02 E0= -.17077458E+02  d E =-.117155E+00  mag=     1.0021
       N       E                     dE             d eps       ncg     rms          rms(c)
DAV:   1    -0.171485575962E+02   -0.73689E-01   -0.20084E+01    72   0.245E+01    0.134E+00
DAV:   2    -0.172312765089E+02   -0.82719E-01   -0.10486E+00   108   0.505E+00    0.641E-01
DAV:   3    -0.172268074511E+02    0.44691E-02   -0.42660E-02   112   0.101E+00    0.453E-01
DAV:   4    -0.172318742475E+02   -0.50668E-02   -0.52355E-03    90   0.321E-01    0.299E-01
DAV:   5    -0.172376968112E+02   -0.58226E-02   -0.34238E-03    84   0.228E-01    0.115E-01
DAV:   6    -0.172407277247E+02   -0.30309E-02   -0.99849E-04    92   0.124E-01    0.362E-02
DAV:   7    -0.172429179796E+02   -0.21903E-02   -0.90092E-05    72   0.487E-02    0.224E-02
DAV:   8    -0.172458305800E+02   -0.29126E-02   -0.19011E-04    74   0.515E-02    0.125E-02
DAV:   9    -0.172465610675E+02   -0.73049E-03   -0.23996E-05    60   0.207E-02    0.944E-03
DAV:  10    -0.172476514054E+02   -0.10903E-02   -0.82509E-05    66   0.286E-02    0.457E-03
DAV:  11    -0.172480299293E+02   -0.37852E-03   -0.23644E-05    60   0.155E-02    0.363E-03
DAV:  12    -0.172483143563E+02   -0.28443E-03   -0.15988E-05    60   0.121E-02    0.240E-03
DAV:  13    -0.172485775533E+02   -0.26320E-03   -0.16592E-05    60   0.111E-02    0.134E-03
DAV:  14    -0.172486789747E+02   -0.10142E-03   -0.37086E-06    40   0.596E-03    0.954E-04
DAV:  15    -0.172487612667E+02   -0.82292E-04   -0.30581E-06    42   0.524E-03
  10 F= -.17248761E+02 E0= -.17253581E+02  d E =-.290958E+00  mag=     1.0008
       N       E                     dE             d eps       ncg     rms          rms(c)
DAV:   1    -0.173635434378E+02   -0.11486E+00   -0.20843E+00    72   0.782E+00    0.413E-01
DAV:   2    -0.173718951446E+02   -0.83517E-02   -0.10616E-01   112   0.163E+00    0.181E-01
DAV:   3    -0.173709631514E+02    0.93199E-03   -0.39003E-03   112   0.302E-01    0.131E-01
DAV:   4    -0.173706878049E+02    0.27535E-03   -0.51122E-04   112   0.994E-02    0.800E-02
DAV:   5    -0.173706947153E+02   -0.69104E-05   -0.19980E-04    72   0.596E-02
  11 F= -.17370695E+02 E0= -.17374957E+02  d E =-.121933E+00  mag=     1.0007
       N       E                     dE             d eps       ncg     rms          rms(c)
DAV:   1    -0.173978380719E+02   -0.27150E-01   -0.19094E+01    72   0.231E+01    0.125E+00
DAV:   2    -0.174821026175E+02   -0.84265E-01   -0.10947E+00   128   0.522E+00    0.586E-01
DAV:   3    -0.174761016789E+02    0.60009E-02   -0.37431E-02   112   0.914E-01    0.417E-01
DAV:   4    -0.174748721045E+02    0.12296E-02   -0.49631E-03   112   0.305E-01    0.264E-01
DAV:   5    -0.174755592006E+02   -0.68710E-03   -0.20182E-03    96   0.187E-01    0.104E-01
DAV:   6    -0.174769032802E+02   -0.13441E-02   -0.66860E-04   104   0.106E-01    0.372E-02
DAV:   7    -0.174784693976E+02   -0.15661E-02   -0.13166E-04    80   0.484E-02    0.262E-02
DAV:   8    -0.174805168925E+02   -0.20475E-02   -0.34234E-04    78   0.624E-02    0.140E-02
DAV:   9    -0.174813900040E+02   -0.87311E-03   -0.79610E-05    80   0.299E-02    0.100E-02
DAV:  10    -0.174822889563E+02   -0.89895E-03   -0.92681E-05    68   0.291E-02    0.604E-03
DAV:  11    -0.174830692103E+02   -0.78025E-03   -0.10648E-04    86   0.275E-02    0.387E-03
DAV:  12    -0.174834335984E+02   -0.36439E-03   -0.31159E-05    80   0.155E-02    0.262E-03
DAV:  13    -0.174836935793E+02   -0.25998E-03   -0.23117E-05    70   0.131E-02    0.161E-03
DAV:  14    -0.174837739473E+02   -0.80368E-04   -0.37018E-06    48   0.702E-03
  12 F= -.17483774E+02 E0= -.17487027E+02  d E =-.235013E+00  mag=     1.0002
       N       E                     dE             d eps       ncg     rms          rms(c)
DAV:   1    -0.174951066548E+02   -0.11413E-01   -0.27111E+00    74   0.895E+00    0.469E-01
DAV:   2    -0.175058308494E+02   -0.10724E-01   -0.15407E-01   128   0.189E+00    0.251E-01
DAV:   3    -0.175045522743E+02    0.12786E-02   -0.54672E-03   110   0.348E-01    0.175E-01
DAV:   4    -0.175040536467E+02    0.49863E-03   -0.61769E-04   112   0.112E-01    0.106E-01
DAV:   5    -0.175039523543E+02    0.10129E-03   -0.35146E-04    86   0.751E-02    0.379E-02
DAV:   6    -0.175041208999E+02   -0.16855E-03   -0.10954E-04    64   0.452E-02    0.144E-02
DAV:   7    -0.175043878394E+02   -0.26694E-03   -0.22789E-05    48   0.250E-02    0.992E-03
DAV:   8    -0.175048445031E+02   -0.45666E-03   -0.56823E-05    62   0.278E-02    0.610E-03
DAV:   9    -0.175049973223E+02   -0.15282E-03   -0.14721E-05    48   0.161E-02    0.503E-03
DAV:  10    -0.175052600614E+02   -0.26274E-03   -0.30839E-05    60   0.175E-02    0.191E-03
DAV:  11    -0.175053461890E+02   -0.86128E-04   -0.82511E-06    46   0.101E-02
  13 F= -.17505346E+02 E0= -.17508772E+02  d E =-.256585E+00  mag=     1.0002
       N       E                     dE             d eps       ncg     rms          rms(c)
DAV:   1    -0.175078809698E+02   -0.26209E-02   -0.15626E-01    72   0.214E+00    0.112E-01
DAV:   2    -0.175085417803E+02   -0.66081E-03   -0.84295E-03   128   0.452E-01    0.558E-02
DAV:   3    -0.175084930734E+02    0.48707E-04   -0.27475E-04    80   0.809E-02
  14 F= -.17508493E+02 E0= -.17511847E+02  d E =-.259732E+00  mag=     1.0002
       N       E                     dE             d eps       ncg     rms          rms(c)
DAV:   1    -0.175546481895E+02   -0.46106E-01   -0.55750E-01    72   0.399E+00    0.265E-01
DAV:   2    -0.175560967882E+02   -0.14486E-02   -0.35926E-02   128   0.928E-01    0.155E-01
DAV:   3    -0.175558571166E+02    0.23967E-03   -0.20191E-03   112   0.201E-01    0.121E-01
DAV:   4    -0.175557504965E+02    0.10662E-03   -0.15427E-04    64   0.689E-02    0.632E-02
DAV:   5    -0.175556723526E+02    0.78144E-04   -0.16549E-04    64   0.602E-02
  15 F= -.17555672E+02 E0= -.17558933E+02  d E =-.471793E-01  mag=     1.0002
       N       E                     dE             d eps       ncg     rms          rms(c)
DAV:   1    -0.175698358158E+02   -0.14085E-01   -0.13311E+00    72   0.616E+00    0.411E-01
DAV:   2    -0.175729112177E+02   -0.30754E-02   -0.85985E-02   120   0.144E+00    0.234E-01
DAV:   3    -0.175723092361E+02    0.60198E-03   -0.48900E-03   112   0.317E-01    0.184E-01
DAV:   4    -0.175721526998E+02    0.15654E-03   -0.44014E-04   104   0.104E-01    0.977E-02
DAV:   5    -0.175721267888E+02    0.25911E-04   -0.28978E-04    72   0.709E-02
  16 F= -.17572127E+02 E0= -.17575441E+02  d E =-.636337E-01  mag=     1.0002
       N       E                     dE             d eps       ncg     rms          rms(c)
DAV:   1    -0.175741524863E+02   -0.19998E-02   -0.73817E-02    76   0.145E+00    0.993E-02
DAV:   2    -0.175746945405E+02   -0.54205E-03   -0.49535E-03   120   0.348E-01    0.573E-02
DAV:   3    -0.175748222710E+02   -0.12773E-03   -0.25516E-04    72   0.751E-02    0.444E-02
DAV:   4    -0.175750374964E+02   -0.21523E-03   -0.44890E-05    56   0.367E-02    0.225E-02
DAV:   5    -0.175752063993E+02   -0.16890E-03   -0.31251E-05    54   0.286E-02    0.562E-03
DAV:   6    -0.175753161498E+02   -0.10975E-03   -0.14862E-05    46   0.209E-02    0.205E-03
DAV:   7    -0.175753730795E+02   -0.56930E-04   -0.50485E-06    42   0.147E-02
  17 F= -.17575373E+02 E0= -.17578694E+02  d E =-.668800E-01  mag=     1.0002
       N       E                     dE             d eps       ncg     rms          rms(c)
DAV:   1    -0.176058261916E+02   -0.30510E-01   -0.48252E-01    76   0.392E+00    0.194E-01
DAV:   2    -0.176073184856E+02   -0.14923E-02   -0.21033E-02    96   0.734E-01    0.861E-02
DAV:   3    -0.176070231883E+02    0.29530E-03   -0.17069E-03   112   0.217E-01    0.695E-02
DAV:   4    -0.176069840458E+02    0.39142E-04   -0.73619E-05    62   0.486E-02
  18 F= -.17606984E+02 E0= -.17609820E+02  d E =-.316110E-01  mag=     1.0002
       N       E                     dE             d eps       ncg     rms          rms(c)
DAV:   1    -0.176203762758E+02   -0.13353E-01   -0.27617E+00    72   0.936E+00    0.473E-01
DAV:   2    -0.176295392970E+02   -0.91630E-02   -0.12805E-01   104   0.178E+00    0.221E-01
DAV:   3    -0.176280363607E+02    0.15029E-02   -0.71184E-03   120   0.430E-01    0.178E-01
DAV:   4    -0.176279758342E+02    0.60527E-04   -0.47795E-04    92   0.103E-01
  19 F= -.17627976E+02 E0= -.17630223E+02  d E =-.526028E-01  mag=     1.0002
       N       E                     dE             d eps       ncg     rms          rms(c)
DAV:   1    -0.176480483410E+02   -0.20012E-01   -0.76667E-01    72   0.487E+00    0.258E-01
DAV:   2    -0.176501546651E+02   -0.21063E-02   -0.35382E-02    96   0.963E-01    0.128E-01
DAV:   3    -0.176500522125E+02    0.10245E-03   -0.35025E-03   102   0.304E-01    0.976E-02
DAV:   4    -0.176504207853E+02   -0.36857E-03   -0.19099E-04    78   0.710E-02    0.698E-02
DAV:   5    -0.176512230057E+02   -0.80222E-03   -0.16027E-04    68   0.537E-02    0.263E-02
DAV:   6    -0.176519322813E+02   -0.70928E-03   -0.13655E-04    62   0.484E-02    0.145E-02
DAV:   7    -0.176523226683E+02   -0.39039E-03   -0.19507E-05    48   0.239E-02    0.961E-03
DAV:   8    -0.176536621118E+02   -0.13394E-02   -0.10441E-04    60   0.346E-02    0.835E-03
DAV:   9    -0.176541163977E+02   -0.45429E-03   -0.31017E-05    64   0.201E-02    0.718E-03
DAV:  10    -0.176544343926E+02   -0.31799E-03   -0.84023E-06    46   0.128E-02    0.246E-03
DAV:  11    -0.176548847646E+02   -0.45037E-03   -0.30830E-05    60   0.161E-02    0.325E-03
DAV:  12    -0.176549732473E+02   -0.88483E-04   -0.31993E-06    46   0.772E-03
  20 F= -.17654973E+02 E0= -.17657027E+02  d E =-.269974E-01  mag=     1.0001
       N       E                     dE             d eps       ncg     rms          rms(c)
DAV:   1    -0.176591407845E+02   -0.42560E-02   -0.93719E-02    72   0.170E+00    0.879E-02
DAV:   2    -0.176594674841E+02   -0.32670E-03   -0.42490E-03    88   0.335E-01    0.403E-02
DAV:   3    -0.176594226575E+02    0.44827E-04   -0.42384E-04    84   0.108E-01
  21 F= -.17659423E+02 E0= -.17661439E+02  d E =-.314468E-01  mag=     1.0001
       N       E                     dE             d eps       ncg     rms          rms(c)
DAV:   1    -0.176616115790E+02   -0.21441E-02   -0.37318E-01    72   0.340E+00    0.173E-01
DAV:   2    -0.176626122462E+02   -0.10007E-02   -0.17098E-02    96   0.669E-01    0.886E-02
DAV:   3    -0.176623724163E+02    0.23983E-03   -0.17097E-03    94   0.213E-01    0.705E-02
DAV:   4    -0.176623802765E+02   -0.78602E-05   -0.69176E-05    54   0.499E-02
  22 F= -.17662380E+02 E0= -.17664354E+02  d E =-.344044E-01  mag=     1.0001
       N       E                     dE             d eps       ncg     rms          rms(c)
DAV:   1    -0.176830711794E+02   -0.20699E-01   -0.43534E-01    72   0.369E+00    0.180E-01
DAV:   2    -0.176850199919E+02   -0.19488E-02   -0.22043E-02    96   0.733E-01    0.860E-02
DAV:   3    -0.176850586775E+02   -0.38686E-04   -0.18858E-03    94   0.225E-01    0.721E-02
DAV:   4    -0.176851388052E+02   -0.80128E-04   -0.71936E-05    54   0.519E-02
  23 F= -.17685139E+02 E0= -.17687104E+02  d E =-.227585E-01  mag=     1.0001
       N       E                     dE             d eps       ncg     rms          rms(c)
DAV:   1    -0.176902549081E+02   -0.51962E-02   -0.42873E-01    72   0.367E+00    0.183E-01
DAV:   2    -0.176920112076E+02   -0.17563E-02   -0.21451E-02    96   0.727E-01    0.897E-02
DAV:   3    -0.176919512145E+02    0.59993E-04   -0.19169E-03    94   0.225E-01    0.743E-02
DAV:   4    -0.176919631895E+02   -0.11975E-04   -0.71632E-05    56   0.522E-02
  24 F= -.17691963E+02 E0= -.17693923E+02  d E =-.295829E-01  mag=     1.0001
       N       E                     dE             d eps       ncg     rms          rms(c)
DAV:   1    -0.176997693312E+02   -0.78181E-02   -0.29155E-01    72   0.296E+00    0.153E-01
DAV:   2    -0.177008381599E+02   -0.10688E-02   -0.13263E-02   112   0.585E-01    0.838E-02
DAV:   3    -0.177007116502E+02    0.12651E-03   -0.50997E-04   110   0.112E-01    0.646E-02
DAV:   4    -0.177006341738E+02    0.77476E-04   -0.48280E-05    48   0.365E-02
  25 F= -.17700634E+02 E0= -.17702596E+02  d E =-.867098E-02  mag=     1.0001
       N       E                     dE             d eps       ncg     rms          rms(c)
DAV:   1    -0.177016452460E+02   -0.93360E-03   -0.12091E-01    72   0.191E+00    0.996E-02
DAV:   2    -0.177020987547E+02   -0.45351E-03   -0.53388E-03   112   0.373E-01    0.553E-02
DAV:   3    -0.177020523964E+02    0.46358E-04   -0.18322E-04    80   0.708E-02
  26 F= -.17702052E+02 E0= -.17704016E+02  d E =-.100892E-01  mag=     1.0001
       N       E                     dE             d eps       ncg     rms          rms(c)
DAV:   1    -0.177095134760E+02   -0.74147E-02   -0.13910E-01    72   0.213E+00    0.107E-01
DAV:   2    -0.177097980589E+02   -0.28458E-03   -0.44515E-03   128   0.358E-01    0.567E-02
DAV:   3    -0.177096948162E+02    0.10324E-03   -0.11880E-04    46   0.630E-02    0.366E-02
DAV:   4    -0.177096474700E+02    0.47346E-04   -0.96026E-05    52   0.518E-02
  27 F= -.17709647E+02 E0= -.17711617E+02  d E =-.759507E-02  mag=     1.0001
       N       E                     dE             d eps       ncg     rms          rms(c)
DAV:   1    -0.177241260895E+02   -0.14431E-01   -0.12515E+00    72   0.637E+00    0.307E-01
DAV:   2    -0.177268978871E+02   -0.27718E-02   -0.40485E-02   128   0.107E+00    0.150E-01
DAV:   3    -0.177263411836E+02    0.55670E-03   -0.15175E-03    96   0.192E-01    0.102E-01
DAV:   4    -0.177260874410E+02    0.25374E-03   -0.24167E-04    72   0.721E-02    0.571E-02
DAV:   5    -0.177261474702E+02   -0.60029E-04   -0.13329E-04    64   0.531E-02
  28 F= -.17726147E+02 E0= -.17728137E+02  d E =-.240951E-01  mag=     1.0001
       N       E                     dE             d eps       ncg     rms          rms(c)
DAV:   1    -0.177109689276E+02    0.15119E-01   -0.50153E+00    72   0.127E+01    0.625E-01
DAV:   2    -0.177220611923E+02   -0.11092E-01   -0.16586E-01   120   0.217E+00    0.284E-01
DAV:   3    -0.177209729823E+02    0.10882E-02   -0.11834E-02   104   0.529E-01    0.222E-01
DAV:   4    -0.177211688543E+02   -0.19587E-03   -0.55292E-04   104   0.117E-01    0.153E-01
DAV:   5    -0.177214982756E+02   -0.32942E-03   -0.37427E-04    80   0.749E-02    0.569E-02
DAV:   6    -0.177221258712E+02   -0.62760E-03   -0.25928E-04    80   0.633E-02    0.224E-02
DAV:   7    -0.177226659236E+02   -0.54005E-03   -0.24342E-05    48   0.252E-02    0.149E-02
DAV:   8    -0.177241435143E+02   -0.14776E-02   -0.85588E-05    64   0.308E-02    0.774E-03
DAV:   9    -0.177247557968E+02   -0.61228E-03   -0.25364E-05    64   0.183E-02    0.722E-03
DAV:  10    -0.177252450077E+02   -0.48921E-03   -0.96377E-06    48   0.122E-02    0.304E-03
DAV:  11    -0.177258476350E+02   -0.60263E-03   -0.27134E-05    64   0.145E-02    0.276E-03
DAV:  12    -0.177260937326E+02   -0.24610E-03   -0.70637E-06    48   0.874E-03    0.153E-03
DAV:  13    -0.177262883840E+02   -0.19465E-03   -0.55311E-06    56   0.686E-03    0.743E-04
DAV:  14    -0.177263922904E+02   -0.10391E-03   -0.19290E-06    48   0.473E-03    0.695E-04
DAV:  15    -0.177264459776E+02   -0.53687E-04   -0.95732E-07    48   0.354E-03
  29 F= -.17726446E+02 E0= -.17728572E+02  d E =-.243936E-01  mag=     1.0001
       N       E                     dE             d eps       ncg     rms          rms(c)
DAV:   1    -0.177300909043E+02   -0.36986E-02   -0.16436E+00    72   0.728E+00    0.352E-01
DAV:   2    -0.177343075962E+02   -0.42167E-02   -0.57093E-02   120   0.126E+00    0.174E-01
DAV:   3    -0.177337711386E+02    0.53646E-03   -0.23502E-03   120   0.236E-01    0.123E-01
DAV:   4    -0.177334851395E+02    0.28600E-03   -0.26327E-04    88   0.699E-02    0.719E-02
DAV:   5    -0.177333647587E+02    0.12038E-03   -0.17455E-04    64   0.572E-02    0.202E-02
DAV:   6    -0.177335194059E+02   -0.15465E-03   -0.41859E-05    48   0.334E-02    0.854E-03
DAV:   7    -0.177338142182E+02   -0.29481E-03   -0.22012E-05    64   0.233E-02    0.514E-03
DAV:   8    -0.177341051145E+02   -0.29090E-03   -0.20808E-05    64   0.199E-02    0.295E-03
DAV:   9    -0.177342810180E+02   -0.17590E-03   -0.74215E-06    48   0.129E-02    0.211E-03
DAV:  10    -0.177344756673E+02   -0.19465E-03   -0.84024E-06    64   0.111E-02    0.104E-03
DAV:  11    -0.177345774890E+02   -0.10182E-03   -0.37151E-06    48   0.789E-03    0.744E-04
DAV:  12    -0.177346643609E+02   -0.86872E-04   -0.30499E-06    48   0.648E-03
  30 F= -.17734664E+02 E0= -.17736686E+02  d E =-.326120E-01  mag=     1.0001
       N       E                     dE             d eps       ncg     rms          rms(c)
DAV:   1    -0.177440610678E+02   -0.94836E-02   -0.21142E-01    72   0.261E+00    0.133E-01
DAV:   2    -0.177447453400E+02   -0.68427E-03   -0.85802E-03    96   0.485E-01    0.559E-02
DAV:   3    -0.177446631272E+02    0.82213E-04   -0.85922E-04   104   0.150E-01
  31 F= -.17744663E+02 E0= -.17746665E+02  d E =-.999877E-02  mag=     1.0001
       N       E                     dE             d eps       ncg     rms          rms(c)
DAV:   1    -0.177507690380E+02   -0.60237E-02   -0.18959E+00    72   0.781E+00    0.396E-01
DAV:   2    -0.177564259202E+02   -0.56569E-02   -0.77141E-02    96   0.146E+00    0.179E-01
DAV:   3    -0.177558690483E+02    0.55687E-03   -0.78418E-03   104   0.453E-01    0.150E-01
DAV:   4    -0.177560652996E+02   -0.19625E-03   -0.40305E-04   104   0.100E-01    0.105E-01
DAV:   5    -0.177563654306E+02   -0.30013E-03   -0.30071E-04    72   0.709E-02    0.329E-02
DAV:   6    -0.177566098484E+02   -0.24442E-03   -0.11428E-04    56   0.454E-02    0.204E-02
DAV:   7    -0.177568299519E+02   -0.22010E-03   -0.19660E-05    48   0.232E-02    0.119E-02
DAV:   8    -0.177573656141E+02   -0.53566E-03   -0.36158E-05    64   0.234E-02    0.100E-02
DAV:   9    -0.177575286353E+02   -0.16302E-03   -0.13248E-05    48   0.151E-02    0.955E-03
DAV:  10    -0.177576187751E+02   -0.90140E-04   -0.37724E-06    48   0.920E-03
  32 F= -.17757619E+02 E0= -.17759638E+02  d E =-.229544E-01  mag=     1.0000
       N       E                     dE             d eps       ncg     rms          rms(c)
DAV:   1    -0.177617761662E+02   -0.42475E-02   -0.88929E-02    72   0.165E+00    0.102E-01
DAV:   2    -0.177620383046E+02   -0.26214E-03   -0.47860E-03   112   0.344E-01    0.489E-02
DAV:   3    -0.177619750507E+02    0.63254E-04   -0.21113E-04    80   0.714E-02
  33 F= -.17761975E+02 E0= -.17763994E+02  d E =-.435628E-02  mag=     1.0000
       N       E                     dE             d eps       ncg     rms          rms(c)
DAV:   1    -0.177634559584E+02   -0.14177E-02   -0.20329E-01    72   0.249E+00    0.148E-01
DAV:   2    -0.177637908747E+02   -0.33492E-03   -0.10800E-02   112   0.519E-01    0.834E-02
DAV:   3    -0.177635332374E+02    0.25764E-03   -0.52657E-04   112   0.109E-01    0.620E-02
DAV:   4    -0.177632958434E+02    0.23739E-03   -0.71586E-05    64   0.394E-02    0.287E-02
DAV:   5    -0.177632030153E+02    0.92828E-04   -0.72494E-05    56   0.371E-02
  34 F= -.17763203E+02 E0= -.17765222E+02  d E =-.558424E-02  mag=     1.0001
       N       E                     dE             d eps       ncg     rms          rms(c)
DAV:   1    -0.177658940890E+02   -0.25982E-02   -0.66282E-02    72   0.145E+00    0.849E-02
DAV:   2    -0.177660946917E+02   -0.20060E-03   -0.33062E-03   104   0.280E-01    0.443E-02
DAV:   3    -0.177658686467E+02    0.22605E-03   -0.12074E-04    56   0.629E-02    0.280E-02
DAV:   4    -0.177656900723E+02    0.17857E-03   -0.61871E-05    56   0.431E-02    0.183E-02
DAV:   5    -0.177656621895E+02    0.27883E-04   -0.38349E-05    56   0.333E-02
  35 F= -.17765662E+02 E0= -.17767672E+02  d E =-.245917E-02  mag=     1.0001
       N       E                     dE             d eps       ncg     rms          rms(c)
DAV:   1    -0.177672548384E+02   -0.15648E-02   -0.59905E-01    72   0.436E+00    0.251E-01
DAV:   2    -0.177689372417E+02   -0.16824E-02   -0.29643E-02   104   0.839E-01    0.132E-01
DAV:   3    -0.177675387279E+02    0.13985E-02   -0.14373E-03   104   0.188E-01    0.902E-02
DAV:   4    -0.177666469713E+02    0.89176E-03   -0.20810E-04    72   0.666E-02    0.598E-02
DAV:   5    -0.177660996436E+02    0.54733E-03   -0.22552E-04    76   0.595E-02    0.189E-02
DAV:   6    -0.177667115146E+02   -0.61187E-03   -0.65324E-05    52   0.346E-02    0.962E-03
DAV:   7    -0.177676441991E+02   -0.93268E-03   -0.39887E-05    60   0.247E-02    0.707E-03
DAV:   8    -0.177688350977E+02   -0.11909E-02   -0.41371E-05    76   0.226E-02    0.429E-03
DAV:   9    -0.177697670744E+02   -0.93198E-03   -0.25619E-05    62   0.174E-02    0.287E-03
DAV:  10    -0.177704286168E+02   -0.66154E-03   -0.14514E-05    62   0.130E-02    0.187E-03
DAV:  11    -0.177708839652E+02   -0.45535E-03   -0.10002E-05    62   0.104E-02    0.131E-03
DAV:  12    -0.177711827551E+02   -0.29879E-03   -0.53300E-06    46   0.805E-03    0.710E-04
DAV:  13    -0.177713526262E+02   -0.16987E-03   -0.26728E-06    44   0.601E-03    0.534E-04
DAV:  14    -0.177714125811E+02   -0.59955E-04   -0.76066E-07    44   0.403E-03
  36 F= -.17771413E+02 E0= -.17773396E+02  d E =-.820957E-02  mag=     1.0001
       N       E                     dE             d eps       ncg     rms          rms(c)
DAV:   1    -0.177738757084E+02   -0.25231E-02   -0.42804E-02    72   0.114E+00    0.685E-02
DAV:   2    -0.177740072459E+02   -0.13154E-03   -0.22339E-03    94   0.225E-01    0.341E-02
DAV:   3    -0.177737948952E+02    0.21235E-03   -0.16605E-04    62   0.653E-02    0.236E-02
DAV:   4    -0.177736912437E+02    0.10365E-03   -0.26039E-05    56   0.314E-02    0.166E-02
DAV:   5    -0.177735889991E+02    0.10224E-03   -0.29103E-05    62   0.266E-02    0.714E-03
DAV:   6    -0.177736317924E+02   -0.42793E-04   -0.15826E-05    52   0.200E-02
  37 F= -.17773632E+02 E0= -.17775608E+02  d E =-.221921E-02  mag=     1.0001
       N       E                     dE             d eps       ncg     rms          rms(c)
DAV:   1    -0.177767385229E+02   -0.31495E-02   -0.38451E-01    72   0.343E+00    0.202E-01
DAV:   2    -0.177779146879E+02   -0.11762E-02   -0.19920E-02    96   0.677E-01    0.100E-01
DAV:   3    -0.177768081040E+02    0.11066E-02   -0.16180E-03   112   0.194E-01    0.762E-02
DAV:   4    -0.177764942295E+02    0.31387E-03   -0.97505E-05    64   0.508E-02    0.540E-02
DAV:   5    -0.177762175925E+02    0.27664E-03   -0.18185E-04    68   0.523E-02    0.211E-02
DAV:   6    -0.177764466586E+02   -0.22907E-03   -0.95627E-05    60   0.374E-02    0.866E-03
DAV:   7    -0.177769881756E+02   -0.54152E-03   -0.20847E-05    56   0.212E-02    0.631E-03
DAV:   8    -0.177778013938E+02   -0.81322E-03   -0.29788E-05    60   0.197E-02    0.346E-03
DAV:   9    -0.177783148524E+02   -0.51346E-03   -0.15549E-05    60   0.141E-02    0.262E-03
DAV:  10    -0.177787239607E+02   -0.40911E-03   -0.62636E-06    46   0.973E-03    0.168E-03
DAV:  11    -0.177791839257E+02   -0.45997E-03   -0.12140E-05    60   0.993E-03    0.975E-04
DAV:  12    -0.177793459181E+02   -0.16199E-03   -0.28688E-06    48   0.612E-03    0.759E-04
DAV:  13    -0.177795079956E+02   -0.16208E-03   -0.28434E-06    44   0.536E-03    0.478E-04
DAV:  14    -0.177795929706E+02   -0.84975E-04   -0.10651E-06    48   0.382E-03
  38 F= -.17779593E+02 E0= -.17781551E+02  d E =-.818039E-02  mag=     1.0001
       N       E                     dE             d eps       ncg     rms          rms(c)
DAV:   1    -0.177662485001E+02    0.13259E-01   -0.15322E+00    72   0.686E+00    0.390E-01
DAV:   2    -0.177719705444E+02   -0.57220E-02   -0.77538E-02   104   0.135E+00    0.190E-01
DAV:   3    -0.177698328695E+02    0.21377E-02   -0.60843E-03   104   0.375E-01    0.140E-01
DAV:   4    -0.177693925210E+02    0.44035E-03   -0.46757E-04    96   0.102E-01    0.100E-01
DAV:   5    -0.177691684696E+02    0.22405E-03   -0.43967E-04    76   0.775E-02    0.442E-02
DAV:   6    -0.177695029035E+02   -0.33443E-03   -0.27701E-04    78   0.610E-02    0.172E-02
DAV:   7    -0.177701293616E+02   -0.62646E-03   -0.36711E-05    56   0.286E-02    0.116E-02
DAV:   8    -0.177717377480E+02   -0.16084E-02   -0.68968E-05    68   0.297E-02    0.620E-03
DAV:   9    -0.177726938108E+02   -0.95606E-03   -0.39128E-05    76   0.217E-02    0.444E-03
DAV:  10    -0.177733005800E+02   -0.60677E-03   -0.12208E-05    64   0.136E-02    0.323E-03
DAV:  11    -0.177743582873E+02   -0.10577E-02   -0.34293E-05    76   0.171E-02    0.181E-03
DAV:  12    -0.177746536988E+02   -0.29541E-03   -0.70917E-06    48   0.885E-03    0.137E-03
DAV:  13    -0.177749599222E+02   -0.30622E-03   -0.55620E-06    62   0.751E-03    0.880E-04
DAV:  14    -0.177751983535E+02   -0.23843E-03   -0.34813E-06    48   0.612E-03    0.601E-04
DAV:  15    -0.177753321624E+02   -0.13381E-03   -0.11862E-06    42   0.425E-03    0.516E-04
DAV:  16    -0.177753977366E+02   -0.65574E-04   -0.50024E-07    44   0.301E-03
  39 F= -.17775398E+02 E0= -.17777344E+02  d E =-.398516E-02  mag=     1.0001
       N       E                     dE             d eps       ncg     rms          rms(c)
DAV:   1    -0.177762537412E+02   -0.92158E-03   -0.78882E-01    72   0.493E+00    0.279E-01
DAV:   2    -0.177784260112E+02   -0.21723E-02   -0.39258E-02   102   0.955E-01    0.136E-01
DAV:   3    -0.177773954523E+02    0.10306E-02   -0.32521E-03   104   0.272E-01    0.102E-01
DAV:   4    -0.177773034619E+02    0.91990E-04   -0.22667E-04    80   0.738E-02
  40 F= -.17777303E+02 E0= -.17779254E+02  d E =-.589088E-02  mag=     1.0001
       N       E                     dE             d eps       ncg     rms          rms(c)
DAV:   1    -0.177799678401E+02   -0.25724E-02   -0.77603E-02    72   0.154E+00    0.861E-02
DAV:   2    -0.177809254206E+02   -0.95758E-03   -0.37933E-03    94   0.306E-01    0.385E-02
DAV:   3    -0.177815424580E+02   -0.61704E-03   -0.28884E-04    70   0.857E-02    0.264E-02
DAV:   4    -0.177819661090E+02   -0.42365E-03   -0.39314E-05    52   0.388E-02    0.177E-02
DAV:   5    -0.177825354589E+02   -0.56935E-03   -0.39982E-05    60   0.321E-02    0.773E-03
DAV:   6    -0.177829295000E+02   -0.39404E-03   -0.19461E-05    46   0.238E-02    0.274E-03
DAV:   7    -0.177831253184E+02   -0.19582E-03   -0.73631E-06    48   0.165E-02    0.196E-03
DAV:   8    -0.177833907164E+02   -0.26540E-03   -0.60732E-06    44   0.139E-02    0.122E-03
DAV:   9    -0.177836277447E+02   -0.23703E-03   -0.75116E-06    64   0.118E-02    0.867E-04
DAV:  10    -0.177837125359E+02   -0.84791E-04   -0.18081E-06    44   0.792E-03
  41 F= -.17783713E+02 E0= -.17785664E+02  d E =-.640907E-02  mag=     1.0001
       N       E                     dE             d eps       ncg     rms          rms(c)
DAV:   1    -0.177847969334E+02   -0.11692E-02   -0.20039E-01    72   0.248E+00    0.132E-01
DAV:   2    -0.177855301454E+02   -0.73321E-03   -0.96078E-03    96   0.487E-01    0.652E-02
DAV:   3    -0.177851786173E+02    0.35153E-03   -0.77851E-04   110   0.133E-01    0.529E-02
DAV:   4    -0.177851290959E+02    0.49521E-04   -0.37540E-05    56   0.337E-02
  42 F= -.17785129E+02 E0= -.17787081E+02  d E =-.782563E-02  mag=     1.0001
       N       E                     dE             d eps       ncg     rms          rms(c)
DAV:   1    -0.177877101812E+02   -0.25316E-02   -0.94920E-02    72   0.171E+00    0.845E-02
DAV:   2    -0.177879846981E+02   -0.27452E-03   -0.35978E-03   104   0.310E-01    0.414E-02
DAV:   3    -0.177878545642E+02    0.13013E-03   -0.23724E-04    72   0.777E-02    0.315E-02
DAV:   4    -0.177878649205E+02   -0.10356E-04   -0.30234E-05    56   0.320E-02
  43 F= -.17787865E+02 E0= -.17789818E+02  d E =-.273582E-02  mag=     1.0001
       N       E                     dE             d eps       ncg     rms          rms(c)
DAV:   1    -0.177886501107E+02   -0.79555E-03   -0.76708E-01    72   0.487E+00    0.234E-01
DAV:   2    -0.177909527320E+02   -0.23026E-02   -0.28672E-02   104   0.876E-01    0.110E-01
DAV:   3    -0.177902429143E+02    0.70982E-03   -0.20360E-03   112   0.218E-01    0.887E-02
DAV:   4    -0.177901418660E+02    0.10105E-03   -0.11315E-04    56   0.548E-02    0.615E-02
DAV:   5    -0.177901441835E+02   -0.23175E-05   -0.22264E-04    68   0.600E-02
  44 F= -.17790144E+02 E0= -.17792099E+02  d E =-.501509E-02  mag=     1.0001
       N       E                     dE             d eps       ncg     rms          rms(c)
DAV:   1    -0.177926419029E+02   -0.25000E-02   -0.69265E-02    72   0.145E+00    0.724E-02
DAV:   2    -0.177930897952E+02   -0.44789E-03   -0.25453E-03   102   0.263E-01    0.323E-02
DAV:   3    -0.177931363234E+02   -0.46528E-04   -0.14772E-04    64   0.629E-02
  45 F= -.17793136E+02 E0= -.17795093E+02  d E =-.299214E-02  mag=     1.0001
       N       E                     dE             d eps       ncg     rms          rms(c)
DAV:   1    -0.177939220543E+02   -0.83226E-03   -0.63014E-01    72   0.436E+00    0.209E-01
DAV:   2    -0.177956331172E+02   -0.17111E-02   -0.23797E-02   100   0.793E-01    0.106E-01
DAV:   3    -0.177948100335E+02    0.82308E-03   -0.16249E-03   104   0.192E-01    0.823E-02
DAV:   4    -0.177946866684E+02    0.12337E-03   -0.12508E-04    60   0.558E-02    0.565E-02
DAV:   5    -0.177947859837E+02   -0.99315E-04   -0.18799E-04    70   0.554E-02
  46 F= -.17794786E+02 E0= -.17796744E+02  d E =-.464180E-02  mag=     1.0001
       N       E                     dE             d eps       ncg     rms          rms(c)
DAV:   1    -0.177965641357E+02   -0.18775E-02   -0.52132E-02    72   0.126E+00    0.689E-02
DAV:   2    -0.177970403787E+02   -0.47624E-03   -0.22184E-03   104   0.239E-01    0.317E-02
DAV:   3    -0.177971615714E+02   -0.12119E-03   -0.14095E-04    56   0.620E-02    0.220E-02
DAV:   4    -0.177973597789E+02   -0.19821E-03   -0.26020E-05    48   0.316E-02    0.155E-02
DAV:   5    -0.177977239336E+02   -0.36415E-03   -0.28325E-05    54   0.272E-02    0.590E-03
DAV:   6    -0.177981636569E+02   -0.43972E-03   -0.16741E-05    46   0.209E-02    0.311E-03
DAV:   7    -0.177985315370E+02   -0.36788E-03   -0.96153E-06    56   0.160E-02    0.241E-03
DAV:   8    -0.177990122104E+02   -0.48067E-03   -0.13185E-05    62   0.147E-02    0.151E-03
DAV:   9    -0.177993244909E+02   -0.31228E-03   -0.59472E-06    48   0.109E-02    0.109E-03
DAV:  10    -0.177995365529E+02   -0.21206E-03   -0.39146E-06    48   0.847E-03    0.687E-04
DAV:  11    -0.177996766989E+02   -0.14015E-03   -0.19844E-06    48   0.659E-03    0.508E-04
DAV:  12    -0.177997591023E+02   -0.82403E-04   -0.10742E-06    48   0.507E-03
  47 F= -.17799759E+02 E0= -.17801714E+02  d E =-.497312E-02  mag=     1.0001
       N       E                     dE             d eps       ncg     rms          rms(c)
DAV:   1    -0.178000810060E+02   -0.40431E-03   -0.20393E-01    72   0.250E+00    0.130E-01
DAV:   2    -0.178007251746E+02   -0.64417E-03   -0.86567E-03   102   0.469E-01    0.619E-02
DAV:   3    -0.178004510954E+02    0.27408E-03   -0.61459E-04    86   0.120E-01    0.478E-02
DAV:   4    -0.178003534758E+02    0.97620E-04   -0.42956E-05    56   0.369E-02
  48 F= -.17800353E+02 E0= -.17802303E+02  d E =-.556749E-02  mag=     1.0001
       N       E                     dE             d eps       ncg     rms          rms(c)
DAV:   1    -0.178009836449E+02   -0.53255E-03   -0.32102E-02    76   0.997E-01    0.522E-02
DAV:   2    -0.178010896597E+02   -0.10601E-03   -0.15391E-03   110   0.195E-01    0.301E-02
DAV:   3    -0.178010251284E+02    0.64531E-04   -0.50354E-05    48   0.406E-02
  49 F= -.17801025E+02 E0= -.17802974E+02  d E =-.671653E-03  mag=     1.0001
       N       E                     dE             d eps       ncg     rms          rms(c)
DAV:   1    -0.178011060061E+02   -0.16346E-04   -0.16364E-02    78   0.711E-01    0.361E-02
DAV:   2    -0.178011704647E+02   -0.64459E-04   -0.80450E-04   128   0.141E-01
  50 F= -.17801170E+02 E0= -.17803119E+02  d E =-.816989E-03  mag=     1.0001
