 vasp.6.1.2 22Jul20 (build Aug  2 2021 21:04:21) gamma-only                      
 executed on             LinuxPGI date 2021.12.29  16:23:57
 running on    8 total cores
 distrk:  each k-point on    8 cores,    1 groups
 distr:  one band on NCORE=   8 cores,    1 groups


--------------------------------------------------------------------------------------------------------


 INCAR:
 POTCAR:    PAW_PBE Al 04Jan2001                  
 -----------------------------------------------------------------------------
|                                                                             |
|           W    W    AA    RRRRR   N    N  II  N    N   GGGG   !!!           |
|           W    W   A  A   R    R  NN   N  II  NN   N  G    G  !!!           |
|           W    W  A    A  R    R  N N  N  II  N N  N  G       !!!           |
|           W WW W  AAAAAA  RRRRR   N  N N  II  N  N N  G  GGG   !            |
|           WW  WW  A    A  R   R   N   NN  II  N   NN  G    G                |
|           W    W  A    A  R    R  N    N  II  N    N   GGGG   !!!           |
|                                                                             |
|     You use a magnetic or noncollinear calculation, but did not specify     |
|     the initial magnetic moment with the MAGMOM tag. Note that a            |
|     default of 1 will be used for all atoms. This ferromagnetic setup       |
|     may break the symmetry of the crystal, in particular it may rule        |
|     out finding an antiferromagnetic solution. Thence, we recommend         |
|     setting the initial magnetic moment manually or verifying carefully     |
|     that this magnetic setup is desired.                                    |
|                                                                             |
 -----------------------------------------------------------------------------

 -----------------------------------------------------------------------------
|                                                                             |
|           W    W    AA    RRRRR   N    N  II  N    N   GGGG   !!!           |
|           W    W   A  A   R    R  NN   N  II  NN   N  G    G  !!!           |
|           W    W  A    A  R    R  N N  N  II  N N  N  G       !!!           |
|           W WW W  AAAAAA  RRRRR   N  N N  II  N  N N  G  GGG   !            |
|           WW  WW  A    A  R   R   N   NN  II  N   NN  G    G                |
|           W    W  A    A  R    R  N    N  II  N    N   GGGG   !!!           |
|                                                                             |
|     For optimal performance we recommend to set                             |
|       NCORE = 4 - approx SQRT(number of cores).                             |
|     NCORE specifies how many cores store one orbital (NPAR=cpu/NCORE).      |
|     This setting can greatly improve the performance of VASP for DFT.       |
|     The default, NCORE=1 might be grossly inefficient on modern             |
|     multi-core architectures or massively parallel machines. Do your        |
|     own testing!!!!                                                         |
|     Unfortunately you need to use the default for GW and RPA                |
|     calculations (for HF NCORE is supported but not extensively tested      |
|     yet).                                                                   |
|                                                                             |
 -----------------------------------------------------------------------------

 POTCAR:    PAW_PBE Al 04Jan2001                  
   SHA256 =  17880443556af62b473fe41b62a467bd001ad55d2cabe504a3f22e34d4e9db96 Al/POTCAR             
   COPYR  = (c) Copyright 04Jan2001 Georg Kresse                                                    
   COPYR  = This file is part of the software VASP. Any use, copying, and all other rights are regul
   COPYR  = If you do not have a valid VASP license, you may not use, copy or distribute this file. 
   VRHFIN =Al: s2p1                                                                                 
   LEXCH  = PE                                                                                      
   EATOM  =    53.5387 eV,    3.9350 Ry                                                             
                                                                                                    
   TITEL  = PAW_PBE Al 04Jan2001                                                                    
   LULTRA =        F    use ultrasoft PP ?                                                          
   IUNSCR =        1    unscreen: 0-lin 1-nonlin 2-no                                               
   RPACOR =    1.500    partial core radius                                                         
   POMASS =   26.981; ZVAL   =    3.000    mass and valenz                                          
   RCORE  =    1.900    outmost cutoff radius                                                       
   RWIGS  =    2.650; RWIGS  =    1.402    wigner-seitz radius (au A)                               
   ENMAX  =  240.300; ENMIN  =  180.225 eV                                                          
   ICORE  =        2    local potential                                                             
   LCOR   =        T    correct aug charges                                                         
   LPAW   =        T    paw PP                                                                      
   EAUG   =  291.052                                                                                
   DEXC   =    0.000                                                                                
   RMAX   =    1.939    core radius for proj-oper                                                   
   RAUG   =    1.300    factor for augmentation sphere                                              
   RDEP   =    1.966    radius for radial grids                                                     
   RDEPT  =    1.856    core radius for aug-charge                                                  
                                                                                                    
   Atomic configuration                                                                             
    6 entries                                                                                       
     n  l   j            E        occ.                                                              
     1  0  0.50     -1511.1048   2.0000                                                             
     2  0  0.50      -108.1629   2.0000                                                             
     2  1  1.50       -69.6402   6.0000                                                             
     3  0  0.50        -7.7528   2.0000                                                             
     3  1  1.50        -2.7121   1.0000                                                             
     3  2  2.50        -2.7212   0.0000                                                             
   Description                                                                                      
     l       E           TYP  RCUT    TYP  RCUT                                                     
     0     -7.7528455     23  1.900                                                                 
     0     -3.3096929     23  1.900                                                                 
     1     -2.7120682     23  1.900                                                                 
     1     13.6058260     23  1.900                                                                 
     2     -2.7211652      7  1.900                                                                 
  local pseudopotential read in
  partial core-charges read in
  partial kinetic energy density read in
  atomic valenz-charges read in
  non local Contribution for L=            0  read in
    real space projection operators read in
  non local Contribution for L=            0  read in
    real space projection operators read in
  non local Contribution for L=            1  read in
    real space projection operators read in
  non local Contribution for L=            1  read in
    real space projection operators read in
    PAW grid and wavefunctions read in
 
   number of l-projection  operators is LMAX  =            4
   number of lm-projection operators is LMMAX =            8
 
  PAW_PBE Al 04Jan2001                  :
 energy of atom  1       EATOM=  -53.5387
 kinetic energy error for atom=    0.0005 (will be added to EATOM!!)
 
 
 POSCAR: Al
  positions in cartesian coordinates
  No initial velocities read in
 exchange correlation table for  LEXCH =        8
   RHO(1)=    0.500       N(1)  =     2000
   RHO(2)=  100.500       N(2)  =     4000
 


--------------------------------------------------------------------------------------------------------


 ion  position               nearest neighbor table
   1  0.490  0.416  0.507-   7 2.73   4 2.76   6 2.78   2 2.79   5 2.86
   2  0.580  0.493  0.530-   7 2.68   6 2.74   1 2.79   5 2.79
   3  0.457  0.574  0.406-   5 2.70   6 2.70   4 2.73
   4  0.413  0.470  0.432-   3 2.73   5 2.76   1 2.76   6 2.77
   5  0.466  0.535  0.518-   3 2.70   7 2.72   4 2.76   2 2.79   1 2.86   6 2.92
   6  0.532  0.487  0.418-   3 2.70   2 2.74   4 2.77   1 2.78   5 2.92
   7  0.500  0.472  0.613-   2 2.68   5 2.72   1 2.73
 

IMPORTANT INFORMATION: All symmetrisations will be switched off!
NOSYMM: (Re-)initialisation of all symmetry stuff for point group C_1.


----------------------------------------------------------------------------------------

                                     Primitive cell                                     

  volume of cell :   12093.2764

  direct lattice vectors                    reciprocal lattice vectors
    22.860433359  0.000000000  0.000000000     0.043743703  0.000000000  0.000000000
     0.000000000 23.572394286  0.000000000     0.000000000  0.042422504  0.000000000
     0.000000000  0.000000000 22.441703660     0.000000000  0.000000000  0.044559897

  length of vectors
    22.860433359 23.572394286 22.441703660     0.043743703  0.042422504  0.044559897

  position of ions in fractional coordinates (direct lattice)
     0.490105483  0.415813647  0.507307866
     0.579995900  0.493100274  0.529688031
     0.456792876  0.574478989  0.405544211
     0.412834190  0.469515067  0.431585855
     0.466110283  0.534617993  0.517932298
     0.531824404  0.486708273  0.418065238
     0.499532278  0.471513909  0.613393750

  ion indices of the primitive-cell ions
   primitive index   ion index
                 1           1
                 2           2
                 3           3
                 4           4
                 5           5
                 6           6
                 7           7

----------------------------------------------------------------------------------------

 
 
 KPOINTS: KPOINTS created by Atomic Simulation Env

Automatic generation of k-mesh.
Space group operators:
 irot       det(A)        alpha          n_x          n_y          n_z        tau_x        tau_y        tau_z
    1     1.000000     0.000000     1.000000     0.000000     0.000000     0.000000     0.000000     0.000000
 
 Subroutine IBZKPT returns following result:
 ===========================================
 
 Found      1 irreducible k-points:
 
 Following reciprocal coordinates:
            Coordinates               Weight
  0.000000  0.000000  0.000000      1.000000
 
 Following cartesian coordinates:
            Coordinates               Weight
  0.000000  0.000000  0.000000      1.000000
 


--------------------------------------------------------------------------------------------------------




 Dimension of arrays:
   k-points           NKPTS =      1   k-points in BZ     NKDIM =      1   number of bands    NBANDS=     18
   number of dos      NEDOS =    301   number of ions     NIONS =      7
   non local maximal  LDIM  =      4   non local SUM 2l+1 LMDIM =      8
   total plane-waves  NPLWV = ******
   max r-space proj   IRMAX =      1   max aug-charges    IRDMAX=   5043
   dimension x,y,z NGX =   112 NGY =  120 NGZ =  112
   dimension x,y,z NGXF=   224 NGYF=  240 NGZF=  224
   support grid    NGXF=   224 NGYF=  240 NGZF=  224
   ions per type =               7
   NGX,Y,Z   is equivalent  to a cutoff of   8.14,  8.46,  8.30 a.u.
   NGXF,Y,Z  is equivalent  to a cutoff of  16.29, 16.93, 16.59 a.u.

 SYSTEM =  unknown system                          
 POSCAR =  Al                                      

 Startparameter for this run:
   NWRITE =      2    write-flag & timer
   PREC   = normal    normal or accurate (medium, high low for compatibility)
   ISTART =      0    job   : 0-new  1-cont  2-samecut
   ICHARG =      2    charge: 1-file 2-atom 10-const
   ISPIN  =      2    spin polarized calculation?
   LNONCOLLINEAR =      F non collinear calculations
   LSORBIT =      F    spin-orbit coupling
   INIWAV =      1    electr: 0-lowe 1-rand  2-diag
   LASPH  =      F    aspherical Exc in radial PAW
   METAGGA=      F    non-selfconsistent MetaGGA calc.

 Electronic Relaxation 1
   ENCUT  =  400.0 eV  29.40 Ry    5.42 a.u.  37.28 38.44 36.60*2*pi/ulx,y,z
   ENINI  =  400.0     initial cutoff
   ENAUG  =  291.1 eV  augmentation charge cutoff
   NELM   =     60;   NELMIN=  2; NELMDL=  0     # of ELM steps 
   EDIFF  = 0.1E-03   stopping-criterion for ELM
   LREAL  =      F    real-space projection
   NLSPLINE    = F    spline interpolate recip. space projectors
   LCOMPAT=      F    compatible to vasp.4.4
   GGA_COMPAT  = T    GGA compatible to vasp.4.4-vasp.4.6
   LMAXPAW     = -100 max onsite density
   LMAXMIX     =    2 max onsite mixed and CHGCAR
   VOSKOWN=      0    Vosko Wilk Nusair interpolation
   ROPT   =    0.00000
 Ionic relaxation
   EDIFFG = 0.1E-02   stopping-criterion for IOM
   NSW    =   1000    number of steps for IOM
   NBLOCK =      1;   KBLOCK =   1000    inner block; outer block 
   IBRION =      2    ionic relax: 0-MD 1-quasi-New 2-CG
   NFREE  =      1    steps in history (QN), initial steepest desc. (CG)
   ISIF   =      0    stress and relaxation
   IWAVPR =     11    prediction:  0-non 1-charg 2-wave 3-comb
   ISYM   =      0    0-nonsym 1-usesym 2-fastsym
   LCORR  =      T    Harris-Foulkes like correction to forces

   POTIM  = 0.5000    time-step for ionic-motion
   TEIN   =    0.0    initial temperature
   TEBEG  =    0.0;   TEEND  =   0.0 temperature during run
   SMASS  =  -3.00    Nose mass-parameter (am)
   estimated Nose-frequenzy (Omega)   =  0.10E-29 period in steps = 0.13E+47 mass=  -0.119E-25a.u.
   SCALEE = 1.0000    scale energy and forces
   NPACO  =    256;   APACO  = 16.0  distance and # of slots for P.C.
   PSTRESS=    0.0 pullay stress

  Mass of Ions in am
   POMASS =  26.98
  Ionic Valenz
   ZVAL   =   3.00
  Atomic Wigner-Seitz radii
   RWIGS  =  -1.00
  virtual crystal weights 
   VCA    =   1.00
   NELECT =      21.0000    total number of electrons
   NUPDOWN=      -1.0000    fix difference up-down

 DOS related values:
   EMIN   =  10.00;   EMAX   =-10.00  energy-range for DOS
   EFERMI =   0.00
   ISMEAR =     1;   SIGMA  =   0.20  broadening in eV -4-tet -1-fermi 0-gaus

 Electronic relaxation 2 (details)
   IALGO  =     38    algorithm
   LDIAG  =      T    sub-space diagonalisation (order eigenvalues)
   LSUBROT=      F    optimize rotation matrix (better conditioning)
   TURBO    =      0    0=normal 1=particle mesh
   IRESTART =      0    0=no restart 2=restart with 2 vectors
   NREBOOT  =      0    no. of reboots
   NMIN     =      0    reboot dimension
   EREF     =   0.00    reference energy to select bands
   IMIX   =      4    mixing-type and parameters
     AMIX     =   0.40;   BMIX     =  1.00
     AMIX_MAG =   1.60;   BMIX_MAG =  1.00
     AMIN     =   0.10
     WC   =   100.;   INIMIX=   1;  MIXPRE=   1;  MAXMIX= -45

 Intra band minimization:
   WEIMIN = 0.0010     energy-eigenvalue tresh-hold
   EBREAK =  0.14E-05  absolut break condition
   DEPER  =   0.30     relativ break condition  

   TIME   =   0.40     timestep for ELM

  volume/ion in A,a.u.               =    1727.61     11658.49
  Fermi-wavevector in a.u.,A,eV,Ry     =   0.196773  0.371848  0.526815  0.038720
  Thomas-Fermi vector in A             =   0.945883
 
 Write flags
   LWAVE        =      F    write WAVECAR
   LDOWNSAMPLE  =      F    k-point downsampling of WAVECAR
   LCHARG       =      F    write CHGCAR
   LVTOT        =      F    write LOCPOT, total local potential
   LVHAR        =      F    write LOCPOT, Hartree potential only
   LELF         =      F    write electronic localiz. function (ELF)
   LORBIT       =      0    0 simple, 1 ext, 2 COOP (PROOUT), +10 PAW based schemes


 Dipole corrections
   LMONO  =      F    monopole corrections only (constant potential shift)
   LDIPOL =      F    correct potential (dipole corrections)
   IDIPOL =      0    1-x, 2-y, 3-z, 4-all directions 
   EPSILON=  1.0000000 bulk dielectric constant

 Exchange correlation treatment:
   GGA     =    PE    GGA type
   LEXCH   =     8    internal setting for exchange type
   VOSKOWN=      0    Vosko Wilk Nusair interpolation
   LHFCALC =     F    Hartree Fock is set to
   LHFONE  =     F    Hartree Fock one center treatment
   AEXX    =    0.0000 exact exchange contribution

 Linear response parameters
   LEPSILON=     F    determine dielectric tensor
   LRPA    =     F    only Hartree local field effects (RPA)
   LNABLA  =     F    use nabla operator in PAW spheres
   LVEL    =     F    velocity operator in full k-point grid
   LINTERFAST=   F  fast interpolation
   KINTER  =     0    interpolate to denser k-point grid
   CSHIFT  =0.1000    complex shift for real part using Kramers Kronig
   OMEGAMAX=  -1.0    maximum frequency
   DEG_THRESHOLD= 0.2000000E-02 threshold for treating states as degnerate
   RTIME   =   -0.100 relaxation time in fs
  (WPLASMAI=    0.000 imaginary part of plasma frequency in eV, 0.658/RTIME)
   DFIELD  = 0.0000000 0.0000000 0.0000000 field for delta impulse in time
 
 Orbital magnetization related:
   ORBITALMAG=     F  switch on orbital magnetization
   LCHIMAG   =     F  perturbation theory with respect to B field
   DQ        =  0.001000  dq finite difference perturbation B field
   LLRAUG    =     F  two centre corrections for induced B field



--------------------------------------------------------------------------------------------------------


 conjugate gradient relaxation of ions
 charge density and potential will be updated during run
 spin polarized calculation
 Variant of blocked Davidson
 Davidson routine will perform the subspace rotation
 perform sub-space diagonalisation
    after iterative eigenvector-optimisation
 modified Broyden-mixing scheme, WC =      100.0
 initial mixing is a Kerker type mixing with AMIX =  0.4000 and BMIX =      1.0000
 Hartree-type preconditioning will be used
 using additional bands             7
 reciprocal scheme for non local part
 use partial core corrections
 calculate Harris-corrections to forces 
   (improved forces if not selfconsistent)
 use gradient corrections 
 use of overlap-Matrix (Vanderbilt PP)
 Methfessel and Paxton  Order N= 1 SIGMA  =   0.20


--------------------------------------------------------------------------------------------------------


  energy-cutoff  :      400.00
  volume of cell :    12093.28
      direct lattice vectors                 reciprocal lattice vectors
    22.860433359  0.000000000  0.000000000     0.043743703  0.000000000  0.000000000
     0.000000000 23.572394286  0.000000000     0.000000000  0.042422504  0.000000000
     0.000000000  0.000000000 22.441703660     0.000000000  0.000000000  0.044559897

  length of vectors
    22.860433359 23.572394286 22.441703660     0.043743703  0.042422504  0.044559897


 
 k-points in units of 2pi/SCALE and weight: KPOINTS created by Atomic Simulation Env
   0.00000000  0.00000000  0.00000000       1.000
 
 k-points in reciprocal lattice and weights: KPOINTS created by Atomic Simulation Env
   0.00000000  0.00000000  0.00000000       1.000
 
 position of ions in fractional coordinates (direct lattice) 
   0.49010548  0.41581365  0.50730787
   0.57999590  0.49310027  0.52968803
   0.45679288  0.57447899  0.40554421
   0.41283419  0.46951507  0.43158585
   0.46611028  0.53461799  0.51793230
   0.53182440  0.48670827  0.41806524
   0.49953228  0.47151391  0.61339375
 
 position of ions in cartesian coordinates  (Angst):
  11.20402374  9.80172324 11.38485279
  13.25895763 11.62355409 11.88710182
  10.44248310 13.54184524  9.10110299
   9.43756849 11.06759427  9.68552185
  10.65548307 12.60222611 11.62328315
  12.15773634 11.47287932  9.38209617
  11.41952434 11.11471179 13.76560076
 


--------------------------------------------------------------------------------------------------------


 use parallel FFT for orbitals z direction half grid
 k-point   1 :   0.0000 0.0000 0.0000  plane waves:  109860

 maximum and minimum number of plane-waves per node :     13736    13729

 maximum number of plane-waves:    109860
 maximum index in each direction: 
   IXMAX=   37   IYMAX=   38   IZMAX=   36
   IXMIN=  -37   IYMIN=  -38   IZMIN=    0


 parallel 3D FFT for wavefunctions:
    minimum data exchange during FFTs selected (reduces bandwidth)
 parallel 3D FFT for charge:
    minimum data exchange during FFTs selected (reduces bandwidth)


 total amount of memory used by VASP MPI-rank0   219517. kBytes
=======================================================================

   base      :      30000. kBytes
   nonl-proj :       2416. kBytes
   fftplans  :      54949. kBytes
   grid      :     124239. kBytes
   one-center:          3. kBytes
   wavefun   :       7910. kBytes
 
     INWAV:  cpu time    0.0000: real time    0.0000
 Broyden mixing: mesh for mixing (old mesh)
   NGX = 75   NGY = 77   NGZ = 73
  (NGX  =224   NGY  =240   NGZ  =224)
  gives a total of 421575 points

 initial charge density was supplied:
 charge density of overlapping atoms calculated
 number of electron      21.0000000 magnetization       7.0000000
 keeping initial charge density in first step


--------------------------------------------------------------------------------------------------------


 Maximum index for augmentation-charges           610 (set IRDMAX)


--------------------------------------------------------------------------------------------------------


 First call to EWALD:  gamma=   0.077
 Maximum number of real-space cells 3x 3x 3
 Maximum number of reciprocal cells 3x 3x 3

    FEWALD:  cpu time    0.0013: real time    0.0013


--------------------------------------- Iteration      1(   1)  ---------------------------------------


    POTLOK:  cpu time    3.1911: real time    3.2043
    SETDIJ:  cpu time    0.0142: real time    0.0142
     EDDAV:  cpu time    1.6185: real time    1.6290
       DOS:  cpu time    0.0010: real time    0.0010
    --------------------------------------------
      LOOP:  cpu time    4.8248: real time    4.8484

 eigenvalue-minimisations  :   104
 total energy-change (2. order) : 0.4316256E+02  (-0.3097461E+03)
 number of electron      21.0000000 magnetization       7.0000000
 augmentation part       21.0000000 magnetization       7.0000000

 Free energy of the ion-electron system (eV)
  ---------------------------------------------------
  alpha Z        PSCENC =        -0.01360935
  Ewald energy   TEWEN  =       487.09502819
  -Hartree energ DENC   =      -733.89031440
  -exchange      EXHF   =         0.00000000
  -V(xc)+E(xc)   XCENC  =      -190.24679005
  PAW double counting   =       462.65713654     -238.99141827
  entropy T*S    EENTRO =        -0.04626901
  eigenvalues    EBANDS =      -118.16828555
  atomic energy  EATOM  =       374.76708025
  Solvation  Ediel_sol  =         0.00000000
  ---------------------------------------------------
  free energy    TOTEN  =        43.16255835 eV

  energy without entropy =       43.20882736  energy(sigma->0) =       43.17798135


--------------------------------------------------------------------------------------------------------




--------------------------------------- Iteration      1(   2)  ---------------------------------------


     EDDAV:  cpu time    1.7276: real time    1.7355
       DOS:  cpu time    0.0010: real time    0.0010
    --------------------------------------------
      LOOP:  cpu time    1.7287: real time    1.7387

 eigenvalue-minimisations  :   118
 total energy-change (2. order) :-0.5077284E+02  (-0.4968954E+02)
 number of electron      21.0000000 magnetization       7.0000000
 augmentation part       21.0000000 magnetization       7.0000000

 Free energy of the ion-electron system (eV)
  ---------------------------------------------------
  alpha Z        PSCENC =        -0.01360935
  Ewald energy   TEWEN  =       487.09502819
  -Hartree energ DENC   =      -733.89031440
  -exchange      EXHF   =         0.00000000
  -V(xc)+E(xc)   XCENC  =      -190.24679005
  PAW double counting   =       462.65713654     -238.99141827
  entropy T*S    EENTRO =         0.03132698
  eigenvalues    EBANDS =      -169.01872301
  atomic energy  EATOM  =       374.76708025
  Solvation  Ediel_sol  =         0.00000000
  ---------------------------------------------------
  free energy    TOTEN  =        -7.61028311 eV

  energy without entropy =       -7.64161010  energy(sigma->0) =       -7.62072544


--------------------------------------------------------------------------------------------------------




--------------------------------------- Iteration      1(   3)  ---------------------------------------


     EDDAV:  cpu time    1.4855: real time    1.5102
       DOS:  cpu time    0.0010: real time    0.0010
    --------------------------------------------
      LOOP:  cpu time    1.4863: real time    1.5090

 eigenvalue-minimisations  :    96
 total energy-change (2. order) :-0.9444709E+01  (-0.9272654E+01)
 number of electron      21.0000000 magnetization       7.0000000
 augmentation part       21.0000000 magnetization       7.0000000

 Free energy of the ion-electron system (eV)
  ---------------------------------------------------
  alpha Z        PSCENC =        -0.01360935
  Ewald energy   TEWEN  =       487.09502819
  -Hartree energ DENC   =      -733.89031440
  -exchange      EXHF   =         0.00000000
  -V(xc)+E(xc)   XCENC  =      -190.24679005
  PAW double counting   =       462.65713654     -238.99141827
  entropy T*S    EENTRO =        -0.05069838
  eigenvalues    EBANDS =      -178.38140631
  atomic energy  EATOM  =       374.76708025
  Solvation  Ediel_sol  =         0.00000000
  ---------------------------------------------------
  free energy    TOTEN  =       -17.05499178 eV

  energy without entropy =      -17.00429340  energy(sigma->0) =      -17.03809232


--------------------------------------------------------------------------------------------------------




--------------------------------------- Iteration      1(   4)  ---------------------------------------


     EDDAV:  cpu time    1.3978: real time    1.4044
       DOS:  cpu time    0.0008: real time    0.0008
    --------------------------------------------
      LOOP:  cpu time    1.3986: real time    1.4052

 eigenvalue-minimisations  :    88
 total energy-change (2. order) :-0.3443785E+00  (-0.3227256E+00)
 number of electron      21.0000000 magnetization       7.0000000
 augmentation part       21.0000000 magnetization       7.0000000

 Free energy of the ion-electron system (eV)
  ---------------------------------------------------
  alpha Z        PSCENC =        -0.01360935
  Ewald energy   TEWEN  =       487.09502819
  -Hartree energ DENC   =      -733.89031440
  -exchange      EXHF   =         0.00000000
  -V(xc)+E(xc)   XCENC  =      -190.24679005
  PAW double counting   =       462.65713654     -238.99141827
  entropy T*S    EENTRO =        -0.07041429
  eigenvalues    EBANDS =      -178.70606895
  atomic energy  EATOM  =       374.76708025
  Solvation  Ediel_sol  =         0.00000000
  ---------------------------------------------------
  free energy    TOTEN  =       -17.39937032 eV

  energy without entropy =      -17.32895604  energy(sigma->0) =      -17.37589890


--------------------------------------------------------------------------------------------------------




--------------------------------------- Iteration      1(   5)  ---------------------------------------


     EDDAV:  cpu time    1.5506: real time    1.5621
       DOS:  cpu time    0.0025: real time    0.0025
    CHARGE:  cpu time    0.3039: real time    0.3043
    MIXING:  cpu time    0.0481: real time    0.0481
    --------------------------------------------
      LOOP:  cpu time    1.9051: real time    1.9170

 eigenvalue-minimisations  :   100
 total energy-change (2. order) :-0.1510626E-01  (-0.1509313E-01)
 number of electron      21.0000000 magnetization       6.5760360
 augmentation part       -0.3704845 magnetization       3.5722208

 Broyden mixing:
  rms(total) = 0.53932E+00    rms(broyden)= 0.53932E+00
  rms(prec ) = 0.64495E+00
  weight for this iteration     100.00

 Free energy of the ion-electron system (eV)
  ---------------------------------------------------
  alpha Z        PSCENC =        -0.01360935
  Ewald energy   TEWEN  =       487.09502819
  -Hartree energ DENC   =      -733.89031440
  -exchange      EXHF   =         0.00000000
  -V(xc)+E(xc)   XCENC  =      -190.24679005
  PAW double counting   =       462.65713654     -238.99141827
  entropy T*S    EENTRO =        -0.07042413
  eigenvalues    EBANDS =      -178.72116536
  atomic energy  EATOM  =       374.76708025
  Solvation  Ediel_sol  =         0.00000000
  ---------------------------------------------------
  free energy    TOTEN  =       -17.41447658 eV

  energy without entropy =      -17.34405245  energy(sigma->0) =      -17.39100187


--------------------------------------------------------------------------------------------------------




--------------------------------------- Iteration      1(   6)  ---------------------------------------


    POTLOK:  cpu time    3.1486: real time    3.1687
    SETDIJ:  cpu time    0.0163: real time    0.0163
     EDDAV:  cpu time    1.1696: real time    1.1755
       DOS:  cpu time    0.0014: real time    0.0014
    CHARGE:  cpu time    0.2787: real time    0.2791
    MIXING:  cpu time    0.0453: real time    0.0453
    --------------------------------------------
      LOOP:  cpu time    4.6599: real time    4.6863

 eigenvalue-minimisations  :    72
 total energy-change (2. order) : 0.4595909E+01  (-0.8725573E+00)
 number of electron      21.0000000 magnetization       6.1676527
 augmentation part       -0.3771705 magnetization       2.4129266

 Broyden mixing:
  rms(total) = 0.24072E+00    rms(broyden)= 0.24072E+00
  rms(prec ) = 0.28162E+00
  weight for this iteration     100.00

 eigenvalues of (default mixing * dielectric matrix)
  average eigenvalue GAMMA=   1.0761
  1.0761

 Free energy of the ion-electron system (eV)
  ---------------------------------------------------
  alpha Z        PSCENC =        -0.01360935
  Ewald energy   TEWEN  =       487.09502819
  -Hartree energ DENC   =      -745.82610646
  -exchange      EXHF   =         0.00000000
  -V(xc)+E(xc)   XCENC  =      -187.82960055
  PAW double counting   =       565.69737594     -342.08338102
  entropy T*S    EENTRO =        -0.05866509
  eigenvalues    EBANDS =      -164.56668915
  atomic energy  EATOM  =       374.76708025
  Solvation  Ediel_sol  =         0.00000000
  ---------------------------------------------------
  free energy    TOTEN  =       -12.81856725 eV

  energy without entropy =      -12.75990216  energy(sigma->0) =      -12.79901222


--------------------------------------------------------------------------------------------------------




--------------------------------------- Iteration      1(   7)  ---------------------------------------


    POTLOK:  cpu time    3.0907: real time    3.1030
    SETDIJ:  cpu time    0.0144: real time    0.0145
     EDDAV:  cpu time    1.4600: real time    1.4624
       DOS:  cpu time    0.0006: real time    0.0006
    CHARGE:  cpu time    0.2719: real time    0.2724
    MIXING:  cpu time    0.0446: real time    0.0447
    --------------------------------------------
      LOOP:  cpu time    4.8822: real time    4.8976

 eigenvalue-minimisations  :    94
 total energy-change (2. order) : 0.1822914E+01  (-0.2413722E+00)
 number of electron      21.0000000 magnetization       5.8974570
 augmentation part       -0.3724581 magnetization       2.2584964

 Broyden mixing:
  rms(total) = 0.13242E+00    rms(broyden)= 0.13242E+00
  rms(prec ) = 0.14411E+00
  weight for this iteration     100.00

 eigenvalues of (default mixing * dielectric matrix)
  average eigenvalue GAMMA=   1.1307
  0.7538  1.5076

 Free energy of the ion-electron system (eV)
  ---------------------------------------------------
  alpha Z        PSCENC =        -0.01360935
  Ewald energy   TEWEN  =       487.09502819
  -Hartree energ DENC   =      -754.24722444
  -exchange      EXHF   =         0.00000000
  -V(xc)+E(xc)   XCENC  =      -185.70306860
  PAW double counting   =       642.40464411     -418.84807737
  entropy T*S    EENTRO =        -0.05964661
  eigenvalues    EBANDS =      -156.39077928
  atomic energy  EATOM  =       374.76708025
  Solvation  Ediel_sol  =         0.00000000
  ---------------------------------------------------
  free energy    TOTEN  =       -10.99565311 eV

  energy without entropy =      -10.93600651  energy(sigma->0) =      -10.97577091


--------------------------------------------------------------------------------------------------------




--------------------------------------- Iteration      1(   8)  ---------------------------------------


    POTLOK:  cpu time    3.0776: real time    3.1008
    SETDIJ:  cpu time    0.0151: real time    0.0151
     EDDAV:  cpu time    1.3860: real time    1.4001
       DOS:  cpu time    0.0006: real time    0.0006
    CHARGE:  cpu time    0.2723: real time    0.2727
    MIXING:  cpu time    0.0533: real time    0.0534
    --------------------------------------------
      LOOP:  cpu time    4.8051: real time    4.8426

 eigenvalue-minimisations  :    88
 total energy-change (2. order) :-0.3455129E+00  (-0.2463204E-01)
 number of electron      21.0000000 magnetization       5.5723337
 augmentation part       -0.3715280 magnetization       2.1927979

 Broyden mixing:
  rms(total) = 0.10624E+00    rms(broyden)= 0.10624E+00
  rms(prec ) = 0.11583E+00
  weight for this iteration     100.00

 eigenvalues of (default mixing * dielectric matrix)
  average eigenvalue GAMMA=   1.1024
  1.7448  0.8533  0.7091

 Free energy of the ion-electron system (eV)
  ---------------------------------------------------
  alpha Z        PSCENC =        -0.01360935
  Ewald energy   TEWEN  =       487.09502819
  -Hartree energ DENC   =      -756.54354875
  -exchange      EXHF   =         0.00000000
  -V(xc)+E(xc)   XCENC  =      -185.86996304
  PAW double counting   =       669.90536170     -446.34768491
  entropy T*S    EENTRO =        -0.04896329
  eigenvalues    EBANDS =      -154.28486678
  atomic energy  EATOM  =       374.76708025
  Solvation  Ediel_sol  =         0.00000000
  ---------------------------------------------------
  free energy    TOTEN  =       -11.34116600 eV

  energy without entropy =      -11.29220270  energy(sigma->0) =      -11.32484490


--------------------------------------------------------------------------------------------------------




--------------------------------------- Iteration      1(   9)  ---------------------------------------


    POTLOK:  cpu time    3.0572: real time    3.0653
    SETDIJ:  cpu time    0.0257: real time    0.0258
     EDDAV:  cpu time    1.3480: real time    1.3575
       DOS:  cpu time    0.0009: real time    0.0009
    CHARGE:  cpu time    0.2630: real time    0.2633
    MIXING:  cpu time    0.0591: real time    0.0591
    --------------------------------------------
      LOOP:  cpu time    4.7539: real time    4.7718

 eigenvalue-minimisations  :    94
 total energy-change (2. order) :-0.2862723E+00  (-0.7437389E-02)
 number of electron      21.0000000 magnetization       5.0542316
 augmentation part       -0.3685222 magnetization       1.9692225

 Broyden mixing:
  rms(total) = 0.92571E-01    rms(broyden)= 0.92571E-01
  rms(prec ) = 0.99608E-01
  weight for this iteration     100.00

 eigenvalues of (default mixing * dielectric matrix)
  average eigenvalue GAMMA=   1.2056
  2.1200  1.0406  1.0406  0.6213

 Free energy of the ion-electron system (eV)
  ---------------------------------------------------
  alpha Z        PSCENC =        -0.01360935
  Ewald energy   TEWEN  =       487.09502819
  -Hartree energ DENC   =      -758.80289773
  -exchange      EXHF   =         0.00000000
  -V(xc)+E(xc)   XCENC  =      -185.98744781
  PAW double counting   =       693.17845375     -469.62885597
  entropy T*S    EENTRO =        -0.02311852
  eigenvalues    EBANDS =      -152.21207111
  atomic energy  EATOM  =       374.76708025
  Solvation  Ediel_sol  =         0.00000000
  ---------------------------------------------------
  free energy    TOTEN  =       -11.62743831 eV

  energy without entropy =      -11.60431979  energy(sigma->0) =      -11.61973214


--------------------------------------------------------------------------------------------------------




--------------------------------------- Iteration      1(  10)  ---------------------------------------


    POTLOK:  cpu time    2.7299: real time    2.7322
    SETDIJ:  cpu time    0.0267: real time    0.0267
     EDDAV:  cpu time    1.1450: real time    1.1462
       DOS:  cpu time    0.0010: real time    0.0010
    CHARGE:  cpu time    0.2485: real time    0.2487
    MIXING:  cpu time    0.0489: real time    0.0489
    --------------------------------------------
      LOOP:  cpu time    4.2000: real time    4.2037

 eigenvalue-minimisations  :    78
 total energy-change (2. order) :-0.7802961E+00  (-0.1584124E-01)
 number of electron      21.0000000 magnetization       4.6226667
 augmentation part       -0.3659665 magnetization       1.6405227

 Broyden mixing:
  rms(total) = 0.61909E-01    rms(broyden)= 0.61909E-01
  rms(prec ) = 0.65677E-01
  weight for this iteration     100.00

 eigenvalues of (default mixing * dielectric matrix)
  average eigenvalue GAMMA=   1.3297
  2.7577  1.2304  1.2304  0.8419  0.5881

 Free energy of the ion-electron system (eV)
  ---------------------------------------------------
  alpha Z        PSCENC =        -0.01360935
  Ewald energy   TEWEN  =       487.09502819
  -Hartree energ DENC   =      -761.94296862
  -exchange      EXHF   =         0.00000000
  -V(xc)+E(xc)   XCENC  =      -186.49321614
  PAW double counting   =       724.56911424     -501.01733883
  entropy T*S    EENTRO =        -0.00737773
  eigenvalues    EBANDS =      -149.36444640
  atomic energy  EATOM  =       374.76708025
  Solvation  Ediel_sol  =         0.00000000
  ---------------------------------------------------
  free energy    TOTEN  =       -12.40773440 eV

  energy without entropy =      -12.40035667  energy(sigma->0) =      -12.40527515


--------------------------------------------------------------------------------------------------------




--------------------------------------- Iteration      1(  11)  ---------------------------------------


    POTLOK:  cpu time    2.7997: real time    2.8100
    SETDIJ:  cpu time    0.0308: real time    0.0308
     EDDAV:  cpu time    1.1089: real time    1.1140
       DOS:  cpu time    0.0010: real time    0.0010
    CHARGE:  cpu time    0.2583: real time    0.2585
    MIXING:  cpu time    0.0590: real time    0.0631
    --------------------------------------------
      LOOP:  cpu time    4.2576: real time    4.2774

 eigenvalue-minimisations  :    80
 total energy-change (2. order) :-0.1190149E+01  (-0.2611432E-01)
 number of electron      21.0000000 magnetization       4.3808517
 augmentation part       -0.3637612 magnetization       1.5719882

 Broyden mixing:
  rms(total) = 0.50137E-01    rms(broyden)= 0.50137E-01
  rms(prec ) = 0.52427E-01
  weight for this iteration     100.00

 eigenvalues of (default mixing * dielectric matrix)
  average eigenvalue GAMMA=   1.2926
  2.4416  1.9087  1.0560  1.0560  0.6804  0.6128

 Free energy of the ion-electron system (eV)
  ---------------------------------------------------
  alpha Z        PSCENC =        -0.01360935
  Ewald energy   TEWEN  =       487.09502819
  -Hartree energ DENC   =      -763.36977685
  -exchange      EXHF   =         0.00000000
  -V(xc)+E(xc)   XCENC  =      -187.40429321
  PAW double counting   =       734.54709803     -510.98450669
  entropy T*S    EENTRO =        -0.02924750
  eigenvalues    EBANDS =      -148.20565671
  atomic energy  EATOM  =       374.76708025
  Solvation  Ediel_sol  =         0.00000000
  ---------------------------------------------------
  free energy    TOTEN  =       -13.59788385 eV

  energy without entropy =      -13.56863635  energy(sigma->0) =      -13.58813468


--------------------------------------------------------------------------------------------------------




--------------------------------------- Iteration      1(  12)  ---------------------------------------


    POTLOK:  cpu time    2.8167: real time    2.8292
    SETDIJ:  cpu time    0.0225: real time    0.0225
     EDDAV:  cpu time    1.0892: real time    1.1025
       DOS:  cpu time    0.0006: real time    0.0006
    CHARGE:  cpu time    0.2632: real time    0.2636
    MIXING:  cpu time    0.0604: real time    0.0605
    --------------------------------------------
      LOOP:  cpu time    4.2527: real time    4.2788

 eigenvalue-minimisations  :    76
 total energy-change (2. order) :-0.5863761E+00  (-0.9182983E-02)
 number of electron      21.0000000 magnetization       4.2909053
 augmentation part       -0.3626380 magnetization       1.7488089

 Broyden mixing:
  rms(total) = 0.53153E-01    rms(broyden)= 0.53153E-01
  rms(prec ) = 0.54973E-01
  weight for this iteration     100.00

 eigenvalues of (default mixing * dielectric matrix)
  average eigenvalue GAMMA=   1.1494
  2.5794  1.8206  1.0353  1.0353  0.6777  0.6310  0.2666

 Free energy of the ion-electron system (eV)
  ---------------------------------------------------
  alpha Z        PSCENC =        -0.01360935
  Ewald energy   TEWEN  =       487.09502819
  -Hartree energ DENC   =      -763.51383659
  -exchange      EXHF   =         0.00000000
  -V(xc)+E(xc)   XCENC  =      -187.89311169
  PAW double counting   =       731.69812778     -508.12579222
  entropy T*S    EENTRO =        -0.04328491
  eigenvalues    EBANDS =      -148.15486144
  atomic energy  EATOM  =       374.76708025
  Solvation  Ediel_sol  =         0.00000000
  ---------------------------------------------------
  free energy    TOTEN  =       -14.18425999 eV

  energy without entropy =      -14.14097508  energy(sigma->0) =      -14.16983169


--------------------------------------------------------------------------------------------------------




--------------------------------------- Iteration      1(  13)  ---------------------------------------


    POTLOK:  cpu time    3.0701: real time    3.0898
    SETDIJ:  cpu time    0.0120: real time    0.0120
     EDDAV:  cpu time    1.5631: real time    1.5736
       DOS:  cpu time    0.0007: real time    0.0007
    CHARGE:  cpu time    0.2751: real time    0.2796
    MIXING:  cpu time    0.0578: real time    0.0619
    --------------------------------------------
      LOOP:  cpu time    4.9787: real time    5.0174

 eigenvalue-minimisations  :   104
 total energy-change (2. order) :-0.9620628E-01  (-0.6211899E-03)
 number of electron      21.0000000 magnetization       4.4651741
 augmentation part       -0.3623572 magnetization       2.0261516

 Broyden mixing:
  rms(total) = 0.55049E-01    rms(broyden)= 0.55049E-01
  rms(prec ) = 0.56859E-01
  weight for this iteration     100.00

 eigenvalues of (default mixing * dielectric matrix)
  average eigenvalue GAMMA=   1.2905
  2.3782  2.3782  1.3039  1.0181  1.0181  0.9814  0.6517  0.5941

 Free energy of the ion-electron system (eV)
  ---------------------------------------------------
  alpha Z        PSCENC =        -0.01360935
  Ewald energy   TEWEN  =       487.09502819
  -Hartree energ DENC   =      -763.69713498
  -exchange      EXHF   =         0.00000000
  -V(xc)+E(xc)   XCENC  =      -187.97278419
  PAW double counting   =       732.65562807     -509.08110925
  entropy T*S    EENTRO =        -0.04641660
  eigenvalues    EBANDS =      -147.98714841
  atomic energy  EATOM  =       374.76708025
  Solvation  Ediel_sol  =         0.00000000
  ---------------------------------------------------
  free energy    TOTEN  =       -14.28046628 eV

  energy without entropy =      -14.23404967  energy(sigma->0) =      -14.26499407


--------------------------------------------------------------------------------------------------------




--------------------------------------- Iteration      1(  14)  ---------------------------------------


    POTLOK:  cpu time    3.1124: real time    3.1470
    SETDIJ:  cpu time    0.0140: real time    0.0140
     EDDAV:  cpu time    1.2546: real time    1.2603
       DOS:  cpu time    0.0006: real time    0.0006
    CHARGE:  cpu time    0.2749: real time    0.2752
    MIXING:  cpu time    0.0728: real time    0.0729
    --------------------------------------------
      LOOP:  cpu time    4.7294: real time    4.7701

 eigenvalue-minimisations  :    78
 total energy-change (2. order) :-0.5607329E-01  (-0.2032459E-02)
 number of electron      21.0000000 magnetization       4.7019954
 augmentation part       -0.3625206 magnetization       2.0126343

 Broyden mixing:
  rms(total) = 0.56000E-01    rms(broyden)= 0.56000E-01
  rms(prec ) = 0.57630E-01
  weight for this iteration     100.00

 eigenvalues of (default mixing * dielectric matrix)
  average eigenvalue GAMMA=   1.3428
  2.5174  2.4530  2.4530  1.0115  1.0115  1.0186  0.6568  0.5906  0.3731

 Free energy of the ion-electron system (eV)
  ---------------------------------------------------
  alpha Z        PSCENC =        -0.01360935
  Ewald energy   TEWEN  =       487.09502819
  -Hartree energ DENC   =      -763.40765950
  -exchange      EXHF   =         0.00000000
  -V(xc)+E(xc)   XCENC  =      -187.99327525
  PAW double counting   =       731.37588246     -507.80255574
  entropy T*S    EENTRO =        -0.03799071
  eigenvalues    EBANDS =      -148.31943991
  atomic energy  EATOM  =       374.76708025
  Solvation  Ediel_sol  =         0.00000000
  ---------------------------------------------------
  free energy    TOTEN  =       -14.33653957 eV

  energy without entropy =      -14.29854886  energy(sigma->0) =      -14.32387600


--------------------------------------------------------------------------------------------------------




--------------------------------------- Iteration      1(  15)  ---------------------------------------


    POTLOK:  cpu time    2.9634: real time    2.9753
    SETDIJ:  cpu time    0.0164: real time    0.0164
     EDDAV:  cpu time    1.2769: real time    1.2910
       DOS:  cpu time    0.0006: real time    0.0006
    CHARGE:  cpu time    0.2676: real time    0.2720
    MIXING:  cpu time    0.0747: real time    0.0748
    --------------------------------------------
      LOOP:  cpu time    4.5995: real time    4.6301

 eigenvalue-minimisations  :    78
 total energy-change (2. order) : 0.1026093E-01  (-0.2672140E-02)
 number of electron      21.0000000 magnetization       4.6437374
 augmentation part       -0.3627012 magnetization       1.7057695

 Broyden mixing:
  rms(total) = 0.59224E-01    rms(broyden)= 0.59224E-01
  rms(prec ) = 0.61066E-01
  weight for this iteration     100.00

 eigenvalues of (default mixing * dielectric matrix)
  average eigenvalue GAMMA=   1.1885
  2.4581  2.4581  1.6824  1.0238  1.0238  1.0032  0.6581  0.5868  0.4587  0.5320

 Free energy of the ion-electron system (eV)
  ---------------------------------------------------
  alpha Z        PSCENC =        -0.01360935
  Ewald energy   TEWEN  =       487.09502819
  -Hartree energ DENC   =      -763.11077606
  -exchange      EXHF   =         0.00000000
  -V(xc)+E(xc)   XCENC  =      -187.95097643
  PAW double counting   =       732.03877766     -508.46751946
  entropy T*S    EENTRO =        -0.02091476
  eigenvalues    EBANDS =      -148.66336865
  atomic energy  EATOM  =       374.76708025
  Solvation  Ediel_sol  =         0.00000000
  ---------------------------------------------------
  free energy    TOTEN  =       -14.32627864 eV

  energy without entropy =      -14.30536387  energy(sigma->0) =      -14.31930705


--------------------------------------------------------------------------------------------------------




--------------------------------------- Iteration      1(  16)  ---------------------------------------


    POTLOK:  cpu time    3.0648: real time    3.0752
    SETDIJ:  cpu time    0.0185: real time    0.0185
     EDDAV:  cpu time    1.2320: real time    1.2339
       DOS:  cpu time    0.0006: real time    0.0006
    CHARGE:  cpu time    0.2686: real time    0.2690
    MIXING:  cpu time    0.0713: real time    0.0714
    --------------------------------------------
      LOOP:  cpu time    4.6557: real time    4.6685

 eigenvalue-minimisations  :    76
 total energy-change (2. order) :-0.2761833E-01  (-0.2201447E-03)
 number of electron      21.0000000 magnetization       4.4883393
 augmentation part       -0.3625830 magnetization       1.5969495

 Broyden mixing:
  rms(total) = 0.57584E-01    rms(broyden)= 0.57584E-01
  rms(prec ) = 0.59392E-01
  weight for this iteration     100.00

 eigenvalues of (default mixing * dielectric matrix)
  average eigenvalue GAMMA=   1.1969
  2.4649  2.4649  1.5085  1.5085  1.0643  0.9968  0.9968  0.6668  0.5945  0.4497
  0.4497

 Free energy of the ion-electron system (eV)
  ---------------------------------------------------
  alpha Z        PSCENC =        -0.01360935
  Ewald energy   TEWEN  =       487.09502819
  -Hartree energ DENC   =      -763.17295979
  -exchange      EXHF   =         0.00000000
  -V(xc)+E(xc)   XCENC  =      -187.98083750
  PAW double counting   =       731.77648884     -508.20455617
  entropy T*S    EENTRO =        -0.02511856
  eigenvalues    EBANDS =      -148.59541288
  atomic energy  EATOM  =       374.76708025
  Solvation  Ediel_sol  =         0.00000000
  ---------------------------------------------------
  free energy    TOTEN  =       -14.35389697 eV

  energy without entropy =      -14.32877841  energy(sigma->0) =      -14.34552412


--------------------------------------------------------------------------------------------------------




--------------------------------------- Iteration      1(  17)  ---------------------------------------


    POTLOK:  cpu time    3.0918: real time    3.0970
    SETDIJ:  cpu time    0.0157: real time    0.0157
     EDDAV:  cpu time    1.2501: real time    1.2758
       DOS:  cpu time    0.0008: real time    0.0008
    CHARGE:  cpu time    0.2994: real time    0.3038
    MIXING:  cpu time    0.0776: real time    0.0778
    --------------------------------------------
      LOOP:  cpu time    4.7354: real time    4.7710

 eigenvalue-minimisations  :    76
 total energy-change (2. order) :-0.1352568E+00  (-0.6630024E-03)
 number of electron      21.0000000 magnetization       3.8001681
 augmentation part       -0.3623385 magnetization       1.0323053

 Broyden mixing:
  rms(total) = 0.57510E-01    rms(broyden)= 0.57510E-01
  rms(prec ) = 0.59164E-01
  weight for this iteration     100.00

 eigenvalues of (default mixing * dielectric matrix)
  average eigenvalue GAMMA=   1.4118
  2.7486  2.7486  2.5043  2.5043  1.1968  1.0064  1.0064  0.7667  0.7667  0.6427
  0.5731  0.4772

 Free energy of the ion-electron system (eV)
  ---------------------------------------------------
  alpha Z        PSCENC =        -0.01360935
  Ewald energy   TEWEN  =       487.09502819
  -Hartree energ DENC   =      -763.31517938
  -exchange      EXHF   =         0.00000000
  -V(xc)+E(xc)   XCENC  =      -188.10638449
  PAW double counting   =       732.32692749     -508.75242925
  entropy T*S    EENTRO =        -0.03477186
  eigenvalues    EBANDS =      -148.45581531
  atomic energy  EATOM  =       374.76708025
  Solvation  Ediel_sol  =         0.00000000
  ---------------------------------------------------
  free energy    TOTEN  =       -14.48915372 eV

  energy without entropy =      -14.45438186  energy(sigma->0) =      -14.47756310


--------------------------------------------------------------------------------------------------------




--------------------------------------- Iteration      1(  18)  ---------------------------------------


    POTLOK:  cpu time    3.0933: real time    3.1064
    SETDIJ:  cpu time    0.0156: real time    0.0156
     EDDAV:  cpu time    1.1882: real time    1.2019
       DOS:  cpu time    0.0007: real time    0.0006
    CHARGE:  cpu time    0.2764: real time    0.2767
    MIXING:  cpu time    0.0714: real time    0.0715
    --------------------------------------------
      LOOP:  cpu time    4.6455: real time    4.6727

 eigenvalue-minimisations  :    74
 total energy-change (2. order) :-0.5150948E+00  (-0.1023341E-01)
 number of electron      21.0000000 magnetization       2.8148985
 augmentation part       -0.3607984 magnetization       0.8011061

 Broyden mixing:
  rms(total) = 0.74291E-01    rms(broyden)= 0.74290E-01
  rms(prec ) = 0.75845E-01
  weight for this iteration     100.00

 eigenvalues of (default mixing * dielectric matrix)
  average eigenvalue GAMMA=   1.4868
  3.6841  3.6841  2.4101  2.4101  1.0455  1.0455  1.0630  0.8370  0.8370  0.6594
  0.5845  0.5337  0.5337

 Free energy of the ion-electron system (eV)
  ---------------------------------------------------
  alpha Z        PSCENC =        -0.01360935
  Ewald energy   TEWEN  =       487.09502819
  -Hartree energ DENC   =      -763.64735950
  -exchange      EXHF   =         0.00000000
  -V(xc)+E(xc)   XCENC  =      -188.59281610
  PAW double counting   =       732.34197733     -508.75799329
  entropy T*S    EENTRO =        -0.05580090
  eigenvalues    EBANDS =      -148.14075516
  atomic energy  EATOM  =       374.76708025
  Solvation  Ediel_sol  =         0.00000000
  ---------------------------------------------------
  free energy    TOTEN  =       -15.00424854 eV

  energy without entropy =      -14.94844764  energy(sigma->0) =      -14.98564824


--------------------------------------------------------------------------------------------------------




--------------------------------------- Iteration      1(  19)  ---------------------------------------


    POTLOK:  cpu time    3.0217: real time    3.0542
    SETDIJ:  cpu time    0.0222: real time    0.0222
     EDDAV:  cpu time    1.2632: real time    1.2649
       DOS:  cpu time    0.0010: real time    0.0010
    CHARGE:  cpu time    0.2802: real time    0.2846
    MIXING:  cpu time    0.1053: real time    0.1054
    --------------------------------------------
      LOOP:  cpu time    4.6936: real time    4.7325

 eigenvalue-minimisations  :    78
 total energy-change (2. order) :-0.3715575E+00  (-0.1832318E-01)
 number of electron      21.0000000 magnetization       2.8248966
 augmentation part       -0.3582376 magnetization       1.7643418

 Broyden mixing:
  rms(total) = 0.85838E-01    rms(broyden)= 0.85838E-01
  rms(prec ) = 0.89635E-01
  weight for this iteration     100.00

 eigenvalues of (default mixing * dielectric matrix)
  average eigenvalue GAMMA=   1.4234
  3.7555  3.7555  2.4545  2.4545  1.0960  0.9333  0.9333  0.6825  0.6825  0.7458
  0.7458  0.6561  0.5775  0.4548

 Free energy of the ion-electron system (eV)
  ---------------------------------------------------
  alpha Z        PSCENC =        -0.01360935
  Ewald energy   TEWEN  =       487.09502819
  -Hartree energ DENC   =      -764.35082647
  -exchange      EXHF   =         0.00000000
  -V(xc)+E(xc)   XCENC  =      -188.91678012
  PAW double counting   =       733.31570273     -509.72430909
  entropy T*S    EENTRO =        -0.00835313
  eigenvalues    EBANDS =      -147.53973907
  atomic energy  EATOM  =       374.76708025
  Solvation  Ediel_sol  =         0.00000000
  ---------------------------------------------------
  free energy    TOTEN  =       -15.37580608 eV

  energy without entropy =      -15.36745295  energy(sigma->0) =      -15.37302170


--------------------------------------------------------------------------------------------------------




--------------------------------------- Iteration      1(  20)  ---------------------------------------


    POTLOK:  cpu time    3.0646: real time    3.0810
    SETDIJ:  cpu time    0.0153: real time    0.0153
     EDDAV:  cpu time    1.4073: real time    1.4301
       DOS:  cpu time    0.0006: real time    0.0023
    CHARGE:  cpu time    0.2684: real time    0.2687
    MIXING:  cpu time    0.0979: real time    0.0981
    --------------------------------------------
      LOOP:  cpu time    4.8542: real time    4.8956

 eigenvalue-minimisations  :    96
 total energy-change (2. order) :-0.2110704E-01  (-0.1107093E-02)
 number of electron      21.0000000 magnetization       2.7521436
 augmentation part       -0.3585674 magnetization       1.6805973

 Broyden mixing:
  rms(total) = 0.93129E-01    rms(broyden)= 0.93129E-01
  rms(prec ) = 0.97171E-01
  weight for this iteration     100.00

 eigenvalues of (default mixing * dielectric matrix)
  average eigenvalue GAMMA=   1.4053
  3.1365  3.1365  2.6939  2.6939  1.3240  1.0673  1.0673  1.1351  0.8553  0.8553
  0.6885  0.6885  0.6890  0.6004  0.4478

 Free energy of the ion-electron system (eV)
  ---------------------------------------------------
  alpha Z        PSCENC =        -0.01360935
  Ewald energy   TEWEN  =       487.09502819
  -Hartree energ DENC   =      -764.27278827
  -exchange      EXHF   =         0.00000000
  -V(xc)+E(xc)   XCENC  =      -188.93543931
  PAW double counting   =       733.37435894     -509.78315793
  entropy T*S    EENTRO =        -0.01015649
  eigenvalues    EBANDS =      -147.61822914
  atomic energy  EATOM  =       374.76708025
  Solvation  Ediel_sol  =         0.00000000
  ---------------------------------------------------
  free energy    TOTEN  =       -15.39691312 eV

  energy without entropy =      -15.38675663  energy(sigma->0) =      -15.39352762


--------------------------------------------------------------------------------------------------------




--------------------------------------- Iteration      1(  21)  ---------------------------------------


    POTLOK:  cpu time    2.9500: real time    2.9583
    SETDIJ:  cpu time    0.0162: real time    0.0162
     EDDAV:  cpu time    1.1796: real time    1.1892
       DOS:  cpu time    0.0010: real time    0.0010
    CHARGE:  cpu time    0.2884: real time    0.2888
    MIXING:  cpu time    0.1003: real time    0.1005
    --------------------------------------------
      LOOP:  cpu time    4.5355: real time    4.5541

 eigenvalue-minimisations  :    74
 total energy-change (2. order) :-0.1701352E+00  (-0.5085585E-02)
 number of electron      21.0000000 magnetization       2.0533066
 augmentation part       -0.3581218 magnetization       1.0124696

 Broyden mixing:
  rms(total) = 0.10115E+00    rms(broyden)= 0.10115E+00
  rms(prec ) = 0.10971E+00
  weight for this iteration     100.00

 eigenvalues of (default mixing * dielectric matrix)
  average eigenvalue GAMMA=   1.3615
  3.6456  3.6456  2.6681  2.6681  0.5580  0.5580  1.0068  1.0068  1.1033  0.9050
  0.9050  0.6849  0.6849  0.6893  0.6011  0.4532

 Free energy of the ion-electron system (eV)
  ---------------------------------------------------
  alpha Z        PSCENC =        -0.01360935
  Ewald energy   TEWEN  =       487.09502819
  -Hartree energ DENC   =      -764.45153514
  -exchange      EXHF   =         0.00000000
  -V(xc)+E(xc)   XCENC  =      -189.05632590
  PAW double counting   =       731.79227568     -508.19796745
  entropy T*S    EENTRO =        -0.00531231
  eigenvalues    EBANDS =      -147.49668225
  atomic energy  EATOM  =       374.76708025
  Solvation  Ediel_sol  =         0.00000000
  ---------------------------------------------------
  free energy    TOTEN  =       -15.56704828 eV

  energy without entropy =      -15.56173597  energy(sigma->0) =      -15.56527751


--------------------------------------------------------------------------------------------------------




--------------------------------------- Iteration      1(  22)  ---------------------------------------


    POTLOK:  cpu time    3.0355: real time    3.0397
    SETDIJ:  cpu time    0.0159: real time    0.0159
     EDDAV:  cpu time    1.2488: real time    1.2544
       DOS:  cpu time    0.0012: real time    0.0012
    CHARGE:  cpu time    0.2759: real time    0.2762
    MIXING:  cpu time    0.1120: real time    0.1122
    --------------------------------------------
      LOOP:  cpu time    4.6894: real time    4.6997

 eigenvalue-minimisations  :    78
 total energy-change (2. order) :-0.1204489E+00  (-0.9069264E-02)
 number of electron      21.0000000 magnetization       1.7546749
 augmentation part       -0.3576286 magnetization       0.7606480

 Broyden mixing:
  rms(total) = 0.93133E-01    rms(broyden)= 0.93133E-01
  rms(prec ) = 0.10503E+00
  weight for this iteration     100.00

 eigenvalues of (default mixing * dielectric matrix)
  average eigenvalue GAMMA=   1.4789
  5.7111  3.3373  2.6292  2.6292  1.0799  1.0799  1.3347  1.0792  1.0792  0.9314
  0.9314  0.6573  0.6203  0.5464  0.5464  0.4742  0.4742

 Free energy of the ion-electron system (eV)
  ---------------------------------------------------
  alpha Z        PSCENC =        -0.01360935
  Ewald energy   TEWEN  =       487.09502819
  -Hartree energ DENC   =      -764.76764935
  -exchange      EXHF   =         0.00000000
  -V(xc)+E(xc)   XCENC  =      -189.16258447
  PAW double counting   =       731.11126915     -507.51025522
  entropy T*S    EENTRO =         0.02747306
  eigenvalues    EBANDS =      -147.23424946
  atomic energy  EATOM  =       374.76708025
  Solvation  Ediel_sol  =         0.00000000
  ---------------------------------------------------
  free energy    TOTEN  =       -15.68749721 eV

  energy without entropy =      -15.71497027  energy(sigma->0) =      -15.69665489


--------------------------------------------------------------------------------------------------------




--------------------------------------- Iteration      1(  23)  ---------------------------------------


    POTLOK:  cpu time    3.1326: real time    3.1520
    SETDIJ:  cpu time    0.0162: real time    0.0162
     EDDAV:  cpu time    1.2117: real time    1.2296
       DOS:  cpu time    0.0006: real time    0.0006
    CHARGE:  cpu time    0.2789: real time    0.2873
    MIXING:  cpu time    0.1070: real time    0.1072
    --------------------------------------------
      LOOP:  cpu time    4.7471: real time    4.7930

 eigenvalue-minimisations  :    76
 total energy-change (2. order) :-0.1430697E+00  (-0.4766629E-02)
 number of electron      21.0000000 magnetization       2.2655105
 augmentation part       -0.3580786 magnetization       1.2727414

 Broyden mixing:
  rms(total) = 0.88968E-01    rms(broyden)= 0.88968E-01
  rms(prec ) = 0.98028E-01
  weight for this iteration     100.00

 eigenvalues of (default mixing * dielectric matrix)
  average eigenvalue GAMMA=   1.4669
  4.9287  3.2472  3.2472  3.2079  1.2293  1.2293  1.5534  1.0070  1.0070  0.9095
  0.9095  0.4706  0.4706  0.7542  0.6133  0.5801  0.5801  0.4586

 Free energy of the ion-electron system (eV)
  ---------------------------------------------------
  alpha Z        PSCENC =        -0.01360935
  Ewald energy   TEWEN  =       487.09502819
  -Hartree energ DENC   =      -764.75494227
  -exchange      EXHF   =         0.00000000
  -V(xc)+E(xc)   XCENC  =      -189.29003469
  PAW double counting   =       730.18359809     -506.57483368
  entropy T*S    EENTRO =         0.02474317
  eigenvalues    EBANDS =      -147.26759657
  atomic energy  EATOM  =       374.76708025
  Solvation  Ediel_sol  =         0.00000000
  ---------------------------------------------------
  free energy    TOTEN  =       -15.83056687 eV

  energy without entropy =      -15.85531004  energy(sigma->0) =      -15.83881459


--------------------------------------------------------------------------------------------------------




--------------------------------------- Iteration      1(  24)  ---------------------------------------


    POTLOK:  cpu time    3.1283: real time    3.1385
    SETDIJ:  cpu time    0.0127: real time    0.0128
     EDDAV:  cpu time    1.3490: real time    1.3549
       DOS:  cpu time    0.0006: real time    0.0006
    CHARGE:  cpu time    0.2833: real time    0.2837
    MIXING:  cpu time    0.1181: real time    0.1182
    --------------------------------------------
      LOOP:  cpu time    4.8921: real time    4.9088

 eigenvalue-minimisations  :    86
 total energy-change (2. order) :-0.1728991E-01  (-0.9708399E-02)
 number of electron      21.0000000 magnetization       2.4336433
 augmentation part       -0.3582691 magnetization       1.4621484

 Broyden mixing:
  rms(total) = 0.80443E-01    rms(broyden)= 0.80443E-01
  rms(prec ) = 0.82769E-01
  weight for this iteration     100.00

 eigenvalues of (default mixing * dielectric matrix)
  average eigenvalue GAMMA=   1.4549
  3.8383  3.8383  3.8810  3.8163  1.2528  1.2528  1.6050  1.0381  1.0381  0.5107
  0.5107  0.7770  0.7770  0.6833  0.6833  0.5518  0.5518  0.5184  0.5184

 Free energy of the ion-electron system (eV)
  ---------------------------------------------------
  alpha Z        PSCENC =        -0.01360935
  Ewald energy   TEWEN  =       487.09502819
  -Hartree energ DENC   =      -764.34507292
  -exchange      EXHF   =         0.00000000
  -V(xc)+E(xc)   XCENC  =      -189.31486251
  PAW double counting   =       728.57147435     -504.96456484
  entropy T*S    EENTRO =         0.01392983
  eigenvalues    EBANDS =      -147.65725977
  atomic energy  EATOM  =       374.76708025
  Solvation  Ediel_sol  =         0.00000000
  ---------------------------------------------------
  free energy    TOTEN  =       -15.84785678 eV

  energy without entropy =      -15.86178661  energy(sigma->0) =      -15.85250006


--------------------------------------------------------------------------------------------------------




--------------------------------------- Iteration      1(  25)  ---------------------------------------


    POTLOK:  cpu time    3.1397: real time    3.1663
    SETDIJ:  cpu time    0.0167: real time    0.0167
     EDDAV:  cpu time    1.4824: real time    1.4845
       DOS:  cpu time    0.0006: real time    0.0006
    CHARGE:  cpu time    0.2930: real time    0.2934
    MIXING:  cpu time    0.1181: real time    0.1182
    --------------------------------------------
      LOOP:  cpu time    5.0504: real time    5.0797

 eigenvalue-minimisations  :    96
 total energy-change (2. order) :-0.1300287E-01  (-0.2816994E-02)
 number of electron      21.0000000 magnetization       1.9681666
 augmentation part       -0.3584661 magnetization       0.9561651

 Broyden mixing:
  rms(total) = 0.82282E-01    rms(broyden)= 0.82282E-01
  rms(prec ) = 0.83548E-01
  weight for this iteration     100.00

 eigenvalues of (default mixing * dielectric matrix)
  average eigenvalue GAMMA=   1.5271
  5.7199  4.0876  4.0876  3.1354  1.3164  1.3164  1.6287  0.7783  0.7783  1.0397
  1.0397  0.5200  0.5200  0.8133  0.8133  0.6744  0.6495  0.5604  0.5604  0.5037

 Free energy of the ion-electron system (eV)
  ---------------------------------------------------
  alpha Z        PSCENC =        -0.01360935
  Ewald energy   TEWEN  =       487.09502819
  -Hartree energ DENC   =      -764.06912656
  -exchange      EXHF   =         0.00000000
  -V(xc)+E(xc)   XCENC  =      -189.33785429
  PAW double counting   =       727.06966019     -503.46412714
  entropy T*S    EENTRO =         0.00052001
  eigenvalues    EBANDS =      -147.90843095
  atomic energy  EATOM  =       374.76708025
  Solvation  Ediel_sol  =         0.00000000
  ---------------------------------------------------
  free energy    TOTEN  =       -15.86085966 eV

  energy without entropy =      -15.86137967  energy(sigma->0) =      -15.86103299


--------------------------------------------------------------------------------------------------------




--------------------------------------- Iteration      1(  26)  ---------------------------------------


    POTLOK:  cpu time    3.0312: real time    3.0429
    SETDIJ:  cpu time    0.0249: real time    0.0250
     EDDAV:  cpu time    1.3389: real time    1.3407
       DOS:  cpu time    0.0006: real time    0.0006
    CHARGE:  cpu time    0.2778: real time    0.2822
    MIXING:  cpu time    0.1414: real time    0.1417
    --------------------------------------------
      LOOP:  cpu time    4.8149: real time    4.8331

 eigenvalue-minimisations  :    84
 total energy-change (2. order) :-0.1116419E+00  (-0.5918563E-02)
 number of electron      21.0000000 magnetization       1.6419340
 augmentation part       -0.3583606 magnetization       0.6725178

 Broyden mixing:
  rms(total) = 0.52327E-01    rms(broyden)= 0.52327E-01
  rms(prec ) = 0.53269E-01
  weight for this iteration     100.00

 eigenvalues of (default mixing * dielectric matrix)
  average eigenvalue GAMMA=   1.5770
  5.0325  5.0325  4.7961  3.6092  1.4947  1.4947  1.5583  0.9431  0.9431  0.9936
  0.9936  0.9172  0.5193  0.5193  0.7339  0.6654  0.6654  0.6425  0.5314  0.5314
  0.4988

 Free energy of the ion-electron system (eV)
  ---------------------------------------------------
  alpha Z        PSCENC =        -0.01360935
  Ewald energy   TEWEN  =       487.09502819
  -Hartree energ DENC   =      -764.08731593
  -exchange      EXHF   =         0.00000000
  -V(xc)+E(xc)   XCENC  =      -189.44354873
  PAW double counting   =       724.21359084     -500.60375039
  entropy T*S    EENTRO =         0.01720720
  eigenvalues    EBANDS =      -147.91718365
  atomic energy  EATOM  =       374.76708025
  Solvation  Ediel_sol  =         0.00000000
  ---------------------------------------------------
  free energy    TOTEN  =       -15.97250158 eV

  energy without entropy =      -15.98970878  energy(sigma->0) =      -15.97823731


--------------------------------------------------------------------------------------------------------




--------------------------------------- Iteration      1(  27)  ---------------------------------------


    POTLOK:  cpu time    3.1154: real time    3.1280
    SETDIJ:  cpu time    0.0168: real time    0.0168
     EDDAV:  cpu time    1.3030: real time    1.3288
       DOS:  cpu time    0.0006: real time    0.0006
    CHARGE:  cpu time    0.2627: real time    0.2670
    MIXING:  cpu time    0.1510: real time    0.1512
    --------------------------------------------
      LOOP:  cpu time    4.8496: real time    4.8925

 eigenvalue-minimisations  :    84
 total energy-change (2. order) :-0.1163983E+00  (-0.8403847E-02)
 number of electron      21.0000000 magnetization       1.2363360
 augmentation part       -0.3586753 magnetization       0.2440924

 Broyden mixing:
  rms(total) = 0.44570E-01    rms(broyden)= 0.44570E-01
  rms(prec ) = 0.50559E-01
  weight for this iteration     100.00

 eigenvalues of (default mixing * dielectric matrix)
  average eigenvalue GAMMA=   1.5659
  5.3884  4.7481  4.7481  3.5962  1.7656  1.7656  1.5238  0.9820  0.9820  1.0069
  1.0069  0.8705  0.7252  0.7252  0.5261  0.5261  0.6518  0.6518  0.6392  0.5881
  0.5165  0.5165

 Free energy of the ion-electron system (eV)
  ---------------------------------------------------
  alpha Z        PSCENC =        -0.01360935
  Ewald energy   TEWEN  =       487.09502819
  -Hartree energ DENC   =      -763.74391622
  -exchange      EXHF   =         0.00000000
  -V(xc)+E(xc)   XCENC  =      -189.56636885
  PAW double counting   =       720.51305594     -496.90196676
  entropy T*S    EENTRO =         0.02006592
  eigenvalues    EBANDS =      -148.25826895
  atomic energy  EATOM  =       374.76708025
  Solvation  Ediel_sol  =         0.00000000
  ---------------------------------------------------
  free energy    TOTEN  =       -16.08889984 eV

  energy without entropy =      -16.10896576  energy(sigma->0) =      -16.09558848


--------------------------------------------------------------------------------------------------------




--------------------------------------- Iteration      1(  28)  ---------------------------------------


    POTLOK:  cpu time    2.9647: real time    2.9766
    SETDIJ:  cpu time    0.0153: real time    0.0153
     EDDAV:  cpu time    1.2273: real time    1.2329
       DOS:  cpu time    0.0007: real time    0.0007
    CHARGE:  cpu time    0.2618: real time    0.2661
    MIXING:  cpu time    0.1674: real time    0.1676
    --------------------------------------------
      LOOP:  cpu time    4.6371: real time    4.6592

 eigenvalue-minimisations  :    76
 total energy-change (2. order) :-0.6530605E-01  (-0.2747934E-02)
 number of electron      21.0000000 magnetization       1.1572873
 augmentation part       -0.3587068 magnetization       0.1095163

 Broyden mixing:
  rms(total) = 0.30620E-01    rms(broyden)= 0.30620E-01
  rms(prec ) = 0.36477E-01
  weight for this iteration     100.00

 eigenvalues of (default mixing * dielectric matrix)
  average eigenvalue GAMMA=   1.5590
  5.4697  4.5856  4.5856  3.8490  1.9654  1.9654  1.6072  0.9890  0.9890  1.0735
  1.0735  0.8686  0.8686  0.5202  0.5202  0.8469  0.6044  0.6044  0.6554  0.6145
  0.5458  0.5458  0.5102

 Free energy of the ion-electron system (eV)
  ---------------------------------------------------
  alpha Z        PSCENC =        -0.01360935
  Ewald energy   TEWEN  =       487.09502819
  -Hartree energ DENC   =      -763.85527443
  -exchange      EXHF   =         0.00000000
  -V(xc)+E(xc)   XCENC  =      -189.63477327
  PAW double counting   =       719.75254848     -496.14153202
  entropy T*S    EENTRO =         0.02240945
  eigenvalues    EBANDS =      -148.14608318
  atomic energy  EATOM  =       374.76708025
  Solvation  Ediel_sol  =         0.00000000
  ---------------------------------------------------
  free energy    TOTEN  =       -16.15420589 eV

  energy without entropy =      -16.17661535  energy(sigma->0) =      -16.16167571


--------------------------------------------------------------------------------------------------------




--------------------------------------- Iteration      1(  29)  ---------------------------------------


    POTLOK:  cpu time    3.0381: real time    3.0447
    SETDIJ:  cpu time    0.0150: real time    0.0150
     EDDAV:  cpu time    1.3527: real time    1.3556
       DOS:  cpu time    0.0012: real time    0.0012
    CHARGE:  cpu time    0.2758: real time    0.2761
    MIXING:  cpu time    0.1634: real time    0.1637
    --------------------------------------------
      LOOP:  cpu time    4.8461: real time    4.8562

 eigenvalue-minimisations  :    88
 total energy-change (2. order) :-0.2674187E-01  (-0.7339486E-03)
 number of electron      21.0000000 magnetization       1.1423126
 augmentation part       -0.3587733 magnetization       0.0967349

 Broyden mixing:
  rms(total) = 0.25254E-01    rms(broyden)= 0.25254E-01
  rms(prec ) = 0.29294E-01
  weight for this iteration     100.00

 eigenvalues of (default mixing * dielectric matrix)
  average eigenvalue GAMMA=   1.5976
  6.5204  4.5123  4.5123  3.5329  2.0846  2.0846  1.9275  0.9677  0.9677  1.0927
  1.0927  1.1425  1.1425  0.5195  0.5195  0.8483  0.6447  0.6447  0.6585  0.6585
  0.6463  0.5668  0.5278  0.5278

 Free energy of the ion-electron system (eV)
  ---------------------------------------------------
  alpha Z        PSCENC =        -0.01360935
  Ewald energy   TEWEN  =       487.09502819
  -Hartree energ DENC   =      -763.81379856
  -exchange      EXHF   =         0.00000000
  -V(xc)+E(xc)   XCENC  =      -189.66451561
  PAW double counting   =       719.65010262     -496.04085547
  entropy T*S    EENTRO =         0.02302818
  eigenvalues    EBANDS =      -148.18340801
  atomic energy  EATOM  =       374.76708025
  Solvation  Ediel_sol  =         0.00000000
  ---------------------------------------------------
  free energy    TOTEN  =       -16.18094777 eV

  energy without entropy =      -16.20397595  energy(sigma->0) =      -16.18862383


--------------------------------------------------------------------------------------------------------




--------------------------------------- Iteration      1(  30)  ---------------------------------------


    POTLOK:  cpu time    3.1040: real time    3.1279
    SETDIJ:  cpu time    0.0125: real time    0.0125
     EDDAV:  cpu time    1.2056: real time    1.2076
       DOS:  cpu time    0.0007: real time    0.0007
    CHARGE:  cpu time    0.2598: real time    0.2641
    MIXING:  cpu time    0.1705: real time    0.1708
    --------------------------------------------
      LOOP:  cpu time    4.7532: real time    4.7837

 eigenvalue-minimisations  :    74
 total energy-change (2. order) :-0.4098594E-01  (-0.4163747E-03)
 number of electron      21.0000000 magnetization       1.0777065
 augmentation part       -0.3587658 magnetization       0.0329008

 Broyden mixing:
  rms(total) = 0.20981E-01    rms(broyden)= 0.20981E-01
  rms(prec ) = 0.25086E-01
  weight for this iteration     100.00

 eigenvalues of (default mixing * dielectric matrix)
  average eigenvalue GAMMA=   1.6791
  8.7994  4.5598  4.5598  3.4733  2.2389  1.9939  1.9939  0.9720  0.9720  1.3375
  1.3375  1.0118  1.0118  0.5202  0.5202  0.8290  0.8290  0.8345  0.6178  0.6178
  0.7004  0.6303  0.5430  0.5430  0.5310

 Free energy of the ion-electron system (eV)
  ---------------------------------------------------
  alpha Z        PSCENC =        -0.01360935
  Ewald energy   TEWEN  =       487.09502819
  -Hartree energ DENC   =      -763.63979983
  -exchange      EXHF   =         0.00000000
  -V(xc)+E(xc)   XCENC  =      -189.70747602
  PAW double counting   =       718.81810829     -495.21068042
  entropy T*S    EENTRO =         0.02551955
  eigenvalues    EBANDS =      -148.35610436
  atomic energy  EATOM  =       374.76708025
  Solvation  Ediel_sol  =         0.00000000
  ---------------------------------------------------
  free energy    TOTEN  =       -16.22193371 eV

  energy without entropy =      -16.24745326  energy(sigma->0) =      -16.23044023


--------------------------------------------------------------------------------------------------------




--------------------------------------- Iteration      1(  31)  ---------------------------------------


    POTLOK:  cpu time    3.0951: real time    3.1068
    SETDIJ:  cpu time    0.0213: real time    0.0213
     EDDAV:  cpu time    1.4296: real time    1.4326
       DOS:  cpu time    0.0006: real time    0.0006
    CHARGE:  cpu time    0.2718: real time    0.2802
    MIXING:  cpu time    0.1871: real time    0.1874
    --------------------------------------------
      LOOP:  cpu time    5.0055: real time    5.0289

 eigenvalue-minimisations  :    96
 total energy-change (2. order) :-0.2474410E-01  (-0.1080336E-02)
 number of electron      21.0000000 magnetization       1.1374157
[...]
  8.850  15.102  -0.004   0.002  -0.000  -0.012   0.005  -0.001
 15.102  25.771  -0.007   0.003  -0.001  -0.021   0.008  -0.002
 -0.004  -0.007   1.974  -0.001   0.000   5.773  -0.001   0.000
  0.002   0.003  -0.001   1.973  -0.000  -0.001   5.769  -0.000
 -0.000  -0.001   0.000  -0.000   1.973   0.000  -0.000   5.770
 -0.012  -0.021   5.773  -0.001   0.000  16.748  -0.004   0.000
  0.005   0.008  -0.001   5.769  -0.000  -0.004  16.739  -0.001
 -0.001  -0.002   0.000  -0.000   5.770   0.000  -0.001  16.742
 total augmentation occupancy for first ion, spin component:            1
  3.008  -0.555   0.383  -0.112   0.028  -0.057   0.018  -0.004
 -0.555   0.170  -0.217   0.050  -0.017   0.019  -0.005   0.001
  0.383  -0.217   0.715   0.078  -0.004  -0.040  -0.002   0.000
 -0.112   0.050   0.078   1.072   0.051  -0.001  -0.061  -0.004
  0.028  -0.017  -0.004   0.051   0.854   0.000  -0.004  -0.043
 -0.057   0.019  -0.040  -0.001   0.000   0.003  -0.000   0.000
  0.018  -0.005  -0.002  -0.061  -0.004  -0.000   0.004   0.000
 -0.004   0.001   0.000  -0.004  -0.043   0.000   0.000   0.002
 total augmentation occupancy for first ion, spin component:            2
  0.036  -0.014   0.017   0.007   0.003  -0.001  -0.000  -0.000
 -0.014   0.003  -0.001   0.004   0.001   0.000  -0.000   0.000
  0.017  -0.001  -0.007   0.038   0.008  -0.000  -0.002  -0.000
  0.007   0.004   0.038   0.089   0.026  -0.002  -0.003  -0.001
  0.003   0.001   0.008   0.026  -0.002  -0.000  -0.001  -0.000
 -0.001   0.000  -0.000  -0.002  -0.000   0.000   0.000   0.000
 -0.000  -0.000  -0.002  -0.003  -0.001   0.000   0.000   0.000
 -0.000   0.000  -0.000  -0.001  -0.000   0.000   0.000   0.000


------------------------ aborting loop because EDIFF is reached ----------------------------------------


    CHARGE:  cpu time    0.2688: real time    0.2691
    FORLOC:  cpu time    0.0747: real time    0.0748
    FORNL :  cpu time    0.3227: real time    0.3272
    FORCOR:  cpu time    2.8778: real time    2.8860
    FORHAR:  cpu time    0.3328: real time    0.3335
    MIXING:  cpu time    0.0435: real time    0.0438
    OFIELD:  cpu time    0.0000: real time    0.0000

 VOLUME and BASIS-vectors are now :
 -----------------------------------------------------------------------------
  energy-cutoff  :      400.00
  volume of cell :    12093.28
      direct lattice vectors                 reciprocal lattice vectors
    22.860433359  0.000000000  0.000000000     0.043743703  0.000000000  0.000000000
     0.000000000 23.572394286  0.000000000     0.000000000  0.042422504  0.000000000
     0.000000000  0.000000000 22.441703660     0.000000000  0.000000000  0.044559897

  length of vectors
    22.860433359 23.572394286 22.441703660     0.043743703  0.042422504  0.044559897


 FORCES acting on ions
    electron-ion (+dipol)            ewald-force                    non-local-force                 convergence-correction
 -----------------------------------------------------------------------------------------------
   0.585E+01 0.632E+02 -.128E+02   -.569E+01 -.605E+02 0.116E+02   -.172E+00 -.265E+01 0.116E+01   0.140E-02 -.380E-04 0.890E-03
   -.592E+02 -.212E+02 -.154E+02   0.568E+02 0.204E+02 0.141E+02   0.247E+01 0.803E+00 0.128E+01   -.358E-03 -.489E-02 -.468E-03
   -.327E-01 -.589E+02 0.363E+02   0.188E+00 0.558E+02 -.334E+02   -.148E+00 0.304E+01 -.288E+01   -.315E-02 -.524E-02 -.344E-02
   0.564E+02 0.135E+02 0.373E+02   -.536E+02 -.130E+02 -.343E+02   -.285E+01 -.517E+00 -.298E+01   -.240E-02 0.367E-02 0.127E-02
   0.427E+02 -.332E+02 -.357E+02   -.411E+02 0.319E+02 0.337E+02   -.164E+01 0.131E+01 0.201E+01   -.411E-02 -.192E-02 0.508E-03
   -.339E+02 0.250E+02 0.545E+02   0.326E+02 -.241E+02 -.507E+02   0.127E+01 -.925E+00 -.383E+01   0.232E-03 0.225E-02 0.311E-02
   -.112E+02 0.108E+02 -.613E+02   0.108E+02 -.105E+02 0.590E+02   0.423E+00 -.326E+00 0.225E+01   0.574E-03 -.363E-02 0.103E-02
 -----------------------------------------------------------------------------------------------
   0.644E+00 -.719E+00 0.299E+01   0.107E-13 -.178E-14 -.711E-14   -.636E+00 0.729E+00 -.300E+01   -.780E-02 -.980E-02 0.289E-02
 
 
 POSITION                                       TOTAL-FORCE (eV/Angst)
 -----------------------------------------------------------------------------------
     11.05794      9.85346     11.29906        -0.011588      0.002785     -0.013348
     12.85541     12.19542     11.36648         0.009820     -0.014279      0.015004
     11.19325     13.36510      9.75421         0.004362     -0.006846      0.010749
      9.53339     11.24267      9.73276        -0.019583     -0.006038      0.010215
     10.04911     12.51937     11.92858        -0.010735     -0.007228     -0.000489
     12.20353     10.89124      9.23308         0.020468      0.005665     -0.017628
     11.68315     11.15727     13.51539         0.007255      0.025942     -0.004503
 -----------------------------------------------------------------------------------
    total drift:                                0.000717     -0.000616     -0.000532


--------------------------------------------------------------------------------------------------------



  FREE ENERGIE OF THE ION-ELECTRON SYSTEM (eV)
  ---------------------------------------------------
  free  energy   TOTEN  =       -17.80102513 eV

  energy  without entropy=      -17.80687120  energy(sigma->0) =      -17.80297382
 
 d Force = 0.9180906E-03[ 0.540E-03, 0.130E-02]  d Energy = 0.6716526E-03 0.246E-03
 d Force = 0.8929984E-01[ 0.923E-01, 0.863E-01]  d Ewald  = 0.8930056E-01-0.716E-06


--------------------------------------------------------------------------------------------------------


    POTLOK:  cpu time    3.0101: real time    3.0207


--------------------------------------------------------------------------------------------------------


 Conjugate gradient step on ions:
 trial-energy change:   -0.000672  1 .order   -0.000918   -0.001296   -0.000540
  (g-gl).g = 0.436E-03      g.g   = 0.542E-03  gl.gl    = 0.991E-03
 g(Force)  = 0.542E-03   g(Stress)= 0.000E+00 ortho     = 0.970E-06
 gamma     =   0.43937
 trial     =   2.38922
 opt step  =   4.09591  (harmonic =   4.09591) maximal distance =0.01233577
 next E    =   -17.801464   (d E  =  -0.00111)


--------------------------------------------------------------------------------------------------------


    WAVPRE:  cpu time    0.1815: real time    0.1917
    FEWALD:  cpu time    0.0026: real time    0.0026
    ORTHCH:  cpu time    0.0470: real time    0.0471
     LOOP+:  cpu time   20.6681: real time   20.7415


--------------------------------------- Iteration     50(   1)  ---------------------------------------


    POTLOK:  cpu time    3.0594: real time    3.0654
    SETDIJ:  cpu time    0.0164: real time    0.0203
     EDDAV:  cpu time    1.2883: real time    1.2918
       DOS:  cpu time    0.0007: real time    0.0007
    CHARGE:  cpu time    0.2738: real time    0.2742
    MIXING:  cpu time    0.0449: real time    0.0452
    --------------------------------------------
      LOOP:  cpu time    4.6835: real time    4.6976

 eigenvalue-minimisations  :    78
 total energy-change (2. order) :-0.1634641E-04  (-0.1636449E-02)
 number of electron      21.0000001 magnetization       1.0000760
 augmentation part       -0.3548124 magnetization      -0.0005794

 Broyden mixing:
  rms(total) = 0.36075E-02    rms(broyden)= 0.36073E-02
  rms(prec ) = 0.39334E-02
  weight for this iteration     100.00

 Free energy of the ion-electron system (eV)
  ---------------------------------------------------
  alpha Z        PSCENC =        -0.01360935
  Ewald energy   TEWEN  =       526.52817129
  -Hartree energ DENC   =      -803.62829678
  -exchange      EXHF   =         0.00000000
  -V(xc)+E(xc)   XCENC  =      -188.99147084
  PAW double counting   =       796.10585761     -572.57090705
  entropy T*S    EENTRO =         0.00584507
  eigenvalues    EBANDS =      -150.00377621
  atomic energy  EATOM  =       374.76708025
  Solvation  Ediel_sol  =         0.00000000
  ---------------------------------------------------
  free energy    TOTEN  =       -17.80110601 eV

  energy without entropy =      -17.80695108  energy(sigma->0) =      -17.80305436


--------------------------------------------------------------------------------------------------------




--------------------------------------- Iteration     50(   2)  ---------------------------------------


    POTLOK:  cpu time    3.0300: real time    3.0394
    SETDIJ:  cpu time    0.0146: real time    0.0146
     EDDAV:  cpu time    1.8016: real time    1.8067
       DOS:  cpu time    0.0006: real time    0.0006
    --------------------------------------------
      LOOP:  cpu time    4.8468: real time    4.8613

 eigenvalue-minimisations  :   128
 total energy-change (2. order) :-0.6445858E-04  (-0.8044976E-04)
 number of electron      21.0000001 magnetization       1.0000760
 augmentation part       -0.3548124 magnetization      -0.0005794

 Free energy of the ion-electron system (eV)
  ---------------------------------------------------
  alpha Z        PSCENC =        -0.01360935
  Ewald energy   TEWEN  =       526.52817129
  -Hartree energ DENC   =      -803.62487398
  -exchange      EXHF   =         0.00000000
  -V(xc)+E(xc)   XCENC  =      -188.99173929
  PAW double counting   =       796.03944041     -572.50434071
  entropy T*S    EENTRO =         0.00584507
  eigenvalues    EBANDS =      -150.00714416
  atomic energy  EATOM  =       374.76708025
  Solvation  Ediel_sol  =         0.00000000
  ---------------------------------------------------
  free energy    TOTEN  =       -17.80117046 eV

  energy without entropy =      -17.80701553  energy(sigma->0) =      -17.80311882


--------------------------------------------------------------------------------------------------------




 average (electrostatic) potential at core
  the test charge radii are     1.0406
  (the norm of the test charge is              1.0000)
       1 -84.3949       2 -84.3941       3 -84.5324       4 -84.5314       5 -84.3851
       6 -84.5340       7 -84.6330
 
 
 
 E-fermi :  -4.0390     XC(G=0):  -0.2592     alpha+bet : -0.1421


 spin component 1

 k-point     1 :       0.0000    0.0000    0.0000
  band No.  band energies     occupation 
      1     -12.3488      1.00000
      2      -9.7163      1.00000
      3      -8.8877      1.00000
      4      -8.8742      1.00000
      5      -6.6640      1.00000
      6      -6.0005      1.00000
      7      -5.9705      1.00000
      8      -5.0464      1.00000
      9      -4.9638      1.00000
     10      -4.9569      1.00000
     11      -4.2074      1.00006
     12      -3.3738     -0.00001
     13      -3.3290     -0.00000
     14      -3.0096     -0.00000
     15      -2.3669     -0.00000
     16      -2.3350     -0.00000
     17      -1.6246     -0.00000
     18      -0.8395     -0.00000

 spin component 2

 k-point     1 :       0.0000    0.0000    0.0000
  band No.  band energies     occupation 
      1     -12.2376      1.00000
      2      -9.4944      1.00000
      3      -8.8366      1.00000
      4      -8.8264      1.00000
      5      -6.3005      1.00000
      6      -5.9269      1.00000
      7      -5.9051      1.00000
      8      -5.0011      1.00000
      9      -4.9225      1.00000
     10      -4.9196      1.00000
     11      -3.4089     -0.00004
     12      -3.2296     -0.00000
     13      -3.2144     -0.00000
     14      -2.9522     -0.00000
     15      -2.2686     -0.00000
     16      -2.2471     -0.00000
     17      -1.6232     -0.00000
     18      -0.7984     -0.00000


--------------------------------------------------------------------------------------------------------


 soft charge-density along one line, spin component            1
         0         1         2         3         4         5         6         7         8         9
 total charge-density along one line
 
 soft charge-density along one line, spin component            2
         0         1         2         3         4         5         6         7         8         9
 total charge-density along one line
 
 pseudopotential strength for first ion, spin component:            1
  8.851  15.104  -0.004   0.002  -0.000  -0.012   0.005  -0.001
 15.104  25.774  -0.007   0.003  -0.000  -0.020   0.008  -0.001
 -0.004  -0.007   1.974  -0.000   0.000   5.774  -0.001   0.000
  0.002   0.003  -0.000   1.973  -0.000  -0.001   5.771  -0.000
 -0.000  -0.000   0.000  -0.000   1.974   0.000  -0.000   5.771
 -0.012  -0.020   5.774  -0.001   0.000  16.751  -0.004   0.000
  0.005   0.008  -0.001   5.771  -0.000  -0.004  16.742  -0.001
 -0.001  -0.001   0.000  -0.000   5.771   0.000  -0.001  16.745
 pseudopotential strength for first ion, spin component:            2
  8.850  15.102  -0.004   0.002  -0.000  -0.012   0.005  -0.001
 15.102  25.771  -0.007   0.003  -0.001  -0.021   0.008  -0.001
 -0.004  -0.007   1.974  -0.000   0.000   5.773  -0.001   0.000
  0.002   0.003  -0.000   1.973  -0.000  -0.001   5.769  -0.000
 -0.000  -0.001   0.000  -0.000   1.973   0.000  -0.000   5.771
 -0.012  -0.021   5.773  -0.001   0.000  16.748  -0.004   0.000
  0.005   0.008  -0.001   5.769  -0.000  -0.004  16.739  -0.001
 -0.001  -0.001   0.000  -0.000   5.771   0.000  -0.001  16.742
 total augmentation occupancy for first ion, spin component:            1
  3.006  -0.553   0.364  -0.121   0.020  -0.054   0.019  -0.002
 -0.553   0.168  -0.210   0.055  -0.014   0.018  -0.005   0.001
  0.364  -0.210   0.718   0.079  -0.004  -0.040  -0.002   0.000
 -0.121   0.055   0.079   1.072   0.052  -0.001  -0.060  -0.004
  0.020  -0.014  -0.004   0.052   0.853   0.000  -0.004  -0.043
 -0.054   0.018  -0.040  -0.001   0.000   0.003  -0.000  -0.000
  0.019  -0.005  -0.002  -0.060  -0.004  -0.000   0.004   0.000
 -0.002   0.001   0.000  -0.004  -0.043  -0.000   0.000   0.002
 total augmentation occupancy for first ion, spin component:            2
  0.037  -0.014   0.017   0.006   0.003  -0.001  -0.000  -0.000
 -0.014   0.003  -0.001   0.005   0.001   0.000  -0.000  -0.000
  0.017  -0.001  -0.007   0.038   0.008  -0.000  -0.002  -0.000
  0.006   0.005   0.038   0.091   0.027  -0.002  -0.003  -0.001
  0.003   0.001   0.008   0.027  -0.002  -0.000  -0.001  -0.000
 -0.001   0.000  -0.000  -0.002  -0.000   0.000   0.000   0.000
 -0.000  -0.000  -0.002  -0.003  -0.001   0.000   0.000   0.000
 -0.000  -0.000  -0.000  -0.001  -0.000   0.000   0.000   0.000


------------------------ aborting loop because EDIFF is reached ----------------------------------------


    CHARGE:  cpu time    0.2700: real time    0.2704
    FORLOC:  cpu time    0.0735: real time    0.0736
    FORNL :  cpu time    0.2983: real time    0.2997
    FORCOR:  cpu time    2.8757: real time    2.8889
    FORHAR:  cpu time    0.3295: real time    0.3316
    MIXING:  cpu time    0.0390: real time    0.0392
    OFIELD:  cpu time    0.0000: real time    0.0000

 VOLUME and BASIS-vectors are now :
 -----------------------------------------------------------------------------
  energy-cutoff  :      400.00
  volume of cell :    12093.28
      direct lattice vectors                 reciprocal lattice vectors
    22.860433359  0.000000000  0.000000000     0.043743703  0.000000000  0.000000000
     0.000000000 23.572394286  0.000000000     0.000000000  0.042422504  0.000000000
     0.000000000  0.000000000 22.441703660     0.000000000  0.000000000  0.044559897

  length of vectors
    22.860433359 23.572394286 22.441703660     0.043743703  0.042422504  0.044559897


 FORCES acting on ions
    electron-ion (+dipol)            ewald-force                    non-local-force                 convergence-correction
 -----------------------------------------------------------------------------------------------
   0.577E+01 0.632E+02 -.127E+02   -.562E+01 -.606E+02 0.116E+02   -.164E+00 -.266E+01 0.113E+01   0.237E-02 0.154E-02 -.186E-05
   -.593E+02 -.210E+02 -.153E+02   0.568E+02 0.202E+02 0.141E+02   0.246E+01 0.794E+00 0.128E+01   0.291E-03 -.440E-02 -.150E-02
   -.651E-01 -.589E+02 0.362E+02   0.223E+00 0.559E+02 -.333E+02   -.141E+00 0.301E+01 -.288E+01   -.192E-02 -.705E-02 -.225E-02
   0.564E+02 0.135E+02 0.374E+02   -.536E+02 -.130E+02 -.344E+02   -.284E+01 -.524E+00 -.299E+01   -.233E-02 0.535E-02 0.152E-02
   0.428E+02 -.332E+02 -.357E+02   -.411E+02 0.319E+02 0.337E+02   -.165E+01 0.131E+01 0.204E+01   -.409E-02 -.903E-03 0.146E-03
   -.338E+02 0.250E+02 0.545E+02   0.325E+02 -.240E+02 -.507E+02   0.125E+01 -.916E+00 -.382E+01   0.137E-02 0.469E-02 0.439E-02
   -.112E+02 0.107E+02 -.613E+02   0.107E+02 -.103E+02 0.590E+02   0.434E+00 -.322E+00 0.226E+01   0.168E-02 -.149E-02 0.721E-03
 -----------------------------------------------------------------------------------------------
   0.646E+00 -.694E+00 0.298E+01   -.213E-13 0.000E+00 0.000E+00   -.643E+00 0.696E+00 -.299E+01   -.263E-02 -.226E-02 0.302E-02
 
 
 POSITION                                       TOTAL-FORCE (eV/Angst)
 -----------------------------------------------------------------------------------
     11.06021      9.85860     11.30061        -0.013265     -0.012489     -0.021866
     12.86014     12.18984     11.36502        -0.007082     -0.003399      0.014401
     11.19314     13.36577      9.75898         0.014754     -0.006496      0.011972
      9.53129     11.24196      9.73221        -0.000056     -0.016226     -0.001774
     10.04624     12.51571     11.92721        -0.005811      0.006246      0.008055
     12.20392     10.89130      9.22859        -0.003240      0.007023     -0.008583
     11.68083     11.16136     13.51696         0.014700      0.025341     -0.002206
 -----------------------------------------------------------------------------------
    total drift:                                0.000626     -0.000764     -0.000614


--------------------------------------------------------------------------------------------------------



  FREE ENERGIE OF THE ION-ELECTRON SYSTEM (eV)
  ---------------------------------------------------
  free  energy   TOTEN  =       -17.80117046 eV

  energy  without entropy=      -17.80701553  energy(sigma->0) =      -17.80311882
 
 d Force = 0.1862392E-03[-0.133E-04, 0.386E-03]  d Energy = 0.1453363E-03 0.409E-04
 d Force = 0.6750172E-01[ 0.690E-01, 0.660E-01]  d Ewald  = 0.6750201E-01-0.293E-06


--------------------------------------------------------------------------------------------------------


    POTLOK:  cpu time    3.1094: real time    3.1154


--------------------------------------------------------------------------------------------------------




--------------------------------------------------------------------------------------------------------


  
 reached required accuracy - stopping structural energy minimisation
     LOOP+:  cpu time   16.5286: real time   16.6416
    4ORBIT:  cpu time    0.0000: real time    0.0000

 total amount of memory used by VASP MPI-rank0   219517. kBytes
=======================================================================

   base      :      30000. kBytes
   nonl-proj :       2416. kBytes
   fftplans  :      54949. kBytes
   grid      :     124239. kBytes
   one-center:          3. kBytes
   wavefun   :       7910. kBytes
 
  
  
 General timing and accounting informations for this job:
 ========================================================
  
                  Total CPU time used (sec):     2360.904
                            User time (sec):     2306.048
                          System time (sec):       54.856
                         Elapsed time (sec):     2384.154
  
                   Maximum memory used (kb):      491076.
                   Average memory used (kb):           0.
  
                          Minor page faults:     18928675
                          Major page faults:        59391
                 Voluntary context switches:         7081
