<?xml version="1.0" encoding="ISO-8859-1"?>
<modeling>
 <generator>
  <i name="program" type="string">vasp </i>
  <i name="version" type="string">6.1.2  </i>
  <i name="subversion" type="string">22Jul20 (build Aug  2 2021 21:04:21) gamma-only                       parallel </i>
  <i name="platform" type="string">LinuxPGI </i>
  <i name="date" type="string">2021 12 29 </i>
  <i name="time" type="string">16:23:57 </i>
 </generator>
 <incar>
  <i type="int" name="ISPIN">     2</i>
  <i type="int" name="IBRION">     2</i>
  <i type="int" name="NSW">  1000</i>
  <i type="int" name="ISIF">     0</i>
  <i type="int" name="ISYM">     0</i>
  <i name="ENCUT">    400.00000000</i>
  <i type="logical" name="LREAL"> F  </i>
  <i type="int" name="ISMEAR">     1</i>
  <i name="SIGMA">      0.20000000</i>
  <i type="logical" name="LWAVE"> F  </i>
  <i type="logical" name="LCHARG"> F  </i>
  <i type="int" name="KPAR">     1</i>
  <i type="int" name="NCORE">     8</i>
  <i type="string" name="GGA"> PE</i>
  <i type="int" name="ISPIN">     2</i>
 </incar>
 <structure name="primitive_cell" >
  <crystal>
   <varray name="basis" >
    <v>      22.86043336       0.00000000       0.00000000 </v>
    <v>       0.00000000      23.57239429       0.00000000 </v>
    <v>       0.00000000       0.00000000      22.44170366 </v>
   </varray>
   <i name="volume">  12093.27639660 </i>
   <varray name="rec_basis" >
    <v>       0.04374370       0.00000000       0.00000000 </v>
    <v>       0.00000000       0.04242250       0.00000000 </v>
    <v>       0.00000000       0.00000000       0.04455990 </v>
   </varray>
  </crystal>
  <varray name="positions" >
   <v>       0.49010548       0.41581365       0.50730787 </v>
   <v>       0.57999590       0.49310027       0.52968803 </v>
   <v>       0.45679288       0.57447899       0.40554421 </v>
   <v>       0.41283419       0.46951507       0.43158585 </v>
   <v>       0.46611028       0.53461799       0.51793230 </v>
   <v>       0.53182440       0.48670827       0.41806524 </v>
   <v>       0.49953228       0.47151391       0.61339375 </v>
  </varray>
 </structure>
 <varray name="primitive_index" >
  <v type="int" >        1 </v>
  <v type="int" >        2 </v>
  <v type="int" >        3 </v>
  <v type="int" >        4 </v>
  <v type="int" >        5 </v>
  <v type="int" >        6 </v>
  <v type="int" >        7 </v>
 </varray>
 <kpoints>
  <generation param="Gamma">
   <v type="int" name="divisions">       1        1        1 </v>
   <v name="usershift">      0.00000000       0.00000000       0.00000000 </v>
   <v name="genvec1">      1.00000000       0.00000000       0.00000000 </v>
   <v name="genvec2">      0.00000000       1.00000000       0.00000000 </v>
   <v name="genvec3">      0.00000000       0.00000000       1.00000000 </v>
   <v name="shift">      0.00000000       0.00000000       0.00000000 </v>
  </generation>
  <varray name="kpointlist" >
   <v>       0.00000000       0.00000000       0.00000000 </v>
  </varray>
  <varray name="weights" >
   <v>       1.00000000 </v>
  </varray>
 </kpoints>
 <parameters>
  <separator name="general" >
   <i type="string" name="SYSTEM">unknown system</i>
   <i type="logical" name="LCOMPAT"> F  </i>
  </separator>
  <separator name="electronic" >
   <i type="string" name="PREC">normal</i>
   <i name="ENMAX">    400.00000000</i>
   <i name="ENAUG">    291.05200000</i>
   <i name="EDIFF">      0.00010000</i>
   <i type="int" name="IALGO">    38</i>
   <i type="int" name="IWAVPR">    11</i>
   <i type="int" name="NBANDS">    18</i>
   <i type="int" name="NBANDSLOW">    -1</i>
   <i type="int" name="NBANDSHIGH">    -1</i>
   <i name="NELECT">     21.00000000</i>
   <i type="int" name="TURBO">     0</i>
   <i type="int" name="IRESTART">     0</i>
   <i type="int" name="NREBOOT">     0</i>
   <i type="int" name="NMIN">     0</i>
   <i name="EREF">      0.00000000</i>
   <separator name="electronic smearing" >
    <i type="int" name="ISMEAR">     1</i>
    <i name="SIGMA">      0.20000000</i>
    <i name="KSPACING">      0.50000000</i>
    <i type="logical" name="KGAMMA"> T  </i>
    <i type="logical" name="KBLOWUP"> T  </i>
   </separator>
   <separator name="electronic projectors" >
    <i type="logical" name="LREAL"> F  </i>
    <v name="ROPT">      0.00000000</v>
    <i type="int" name="LMAXPAW">  -100</i>
    <i type="int" name="LMAXMIX">     2</i>
    <i type="logical" name="NLSPLINE"> F  </i>
   </separator>
   <separator name="electronic startup" >
    <i type="int" name="ISTART">     0</i>
    <i type="int" name="ICHARG">     2</i>
    <i type="int" name="INIWAV">     1</i>
   </separator>
   <separator name="electronic spin" >
    <i type="int" name="ISPIN">     2</i>
    <i type="logical" name="LNONCOLLINEAR"> F  </i>
    <v name="MAGMOM">      1.00000000      1.00000000      1.00000000      1.00000000      1.00000000      1.00000000      1.00000000</v>
    <i name="NUPDOWN">     -1.00000000</i>
    <i type="logical" name="LSORBIT"> F  </i>
    <v name="SAXIS">      0.00000000      0.00000000      1.00000000</v>
    <i type="logical" name="LSPIRAL"> F  </i>
    <v name="QSPIRAL">      0.00000000      0.00000000      0.00000000</v>
    <i type="logical" name="LZEROZ"> F  </i>
   </separator>
   <separator name="electronic exchange-correlation" >
    <i type="logical" name="LASPH"> F  </i>
    <i type="logical" name="LMETAGGA"> F  </i>
   </separator>
   <separator name="electronic convergence" >
    <i type="int" name="NELM">    60</i>
    <i type="int" name="NELMDL">     0</i>
    <i type="int" name="NELMIN">     2</i>
    <i name="ENINI">    400.00000000</i>
    <separator name="electronic convergence detail" >
     <i type="logical" name="LDIAG"> T  </i>
     <i type="logical" name="LSUBROT"> F  </i>
     <i name="WEIMIN">      0.00100000</i>
     <i name="EBREAK">      0.00000139</i>
     <i name="DEPER">      0.30000000</i>
     <i type="int" name="NRMM">     4</i>
     <i name="TIME">      0.40000000</i>
    </separator>
   </separator>
   <separator name="electronic mixer" >
    <i name="AMIX">      0.40000000</i>
    <i name="BMIX">      1.00000000</i>
    <i name="AMIN">      0.10000000</i>
    <i name="AMIX_MAG">      1.60000000</i>
    <i name="BMIX_MAG">      1.00000000</i>
    <separator name="electronic mixer details" >
     <i type="int" name="IMIX">     4</i>
     <i type="logical" name="MIXFIRST"> F  </i>
     <i type="int" name="MAXMIX">   -45</i>
     <i name="WC">    100.00000000</i>
     <i type="int" name="INIMIX">     1</i>
     <i type="int" name="MIXPRE">     1</i>
     <i type="int" name="MREMOVE">     5</i>
    </separator>
   </separator>
   <separator name="electronic dipolcorrection" >
    <i type="logical" name="LDIPOL"> F  </i>
    <i type="logical" name="LMONO"> F  </i>
    <i type="int" name="IDIPOL">     0</i>
    <i name="EPSILON">      1.00000000</i>
    <v name="DIPOL">   -100.00000000   -100.00000000   -100.00000000</v>
    <i name="EFIELD">      0.00000000</i>
   </separator>
  </separator>
  <separator name="grids" >
   <i type="int" name="NGX">   112</i>
   <i type="int" name="NGY">   120</i>
   <i type="int" name="NGZ">   112</i>
   <i type="int" name="NGXF">   224</i>
   <i type="int" name="NGYF">   240</i>
   <i type="int" name="NGZF">   224</i>
   <i type="logical" name="ADDGRID"> F  </i>
  </separator>
  <separator name="ionic" >
   <i type="int" name="NSW">  1000</i>
   <i type="int" name="IBRION">     2</i>
   <i type="int" name="MDALGO">     0</i>
   <i type="int" name="ISIF">     0</i>
   <i name="PSTRESS">      0.00000000</i>
   <i name="EDIFFG">      0.00100000</i>
   <i type="int" name="NFREE">     1</i>
   <i name="POTIM">      0.50000000</i>
   <i name="SMASS">     -3.00000000</i>
   <i name="SCALEE">      1.00000000</i>
  </separator>
  <separator name="ionic md" >
   <i name="TEBEG">      0.00010000</i>
   <i name="TEEND">      0.00010000</i>
   <i type="int" name="NBLOCK">     1</i>
   <i type="int" name="KBLOCK">  1000</i>
   <i type="int" name="NPACO">   256</i>
   <i name="APACO">     16.00000000</i>
  </separator>
  <separator name="symmetry" >
   <i type="int" name="ISYM">     0</i>
   <i name="SYMPREC">      0.00001000</i>
  </separator>
  <separator name="dos" >
   <i type="int" name="LORBIT">     0</i>
   <v name="RWIGS">     -1.00000000</v>
   <i type="int" name="NEDOS">   301</i>
   <i name="EMIN">     10.00000000</i>
   <i name="EMAX">    -10.00000000</i>
   <i name="EFERMI">      0.00000000</i>
  </separator>
  <separator name="writing" >
   <i type="int" name="NWRITE">     2</i>
   <i type="logical" name="LWAVE"> F  </i>
   <i type="logical" name="LDOWNSAMPLE"> F  </i>
   <i type="logical" name="LCHARG"> F  </i>
   <i type="logical" name="LPARD"> F  </i>
   <i type="logical" name="LVTOT"> F  </i>
   <i type="logical" name="LVHAR"> F  </i>
   <i type="logical" name="LELF"> F  </i>
   <i type="logical" name="LOPTICS"> F  </i>
   <v name="STM">      0.00000000      0.00000000      0.00000000      0.00000000      0.00000000      0.00000000      0.00000000</v>
  </separator>
  <separator name="performance" >
   <i type="int" name="NPAR">     1</i>
   <i type="int" name="NSIM">     4</i>
   <i type="int" name="NBLK">    -1</i>
   <i type="logical" name="LPLANE"> T  </i>
   <i type="logical" name="LSCALAPACK"> T  </i>
   <i type="logical" name="LSCAAWARE"> F  </i>
   <i type="logical" name="LSCALU"> F  </i>
   <i type="logical" name="LASYNC"> F  </i>
   <i type="logical" name="LORBITALREAL"> F  </i>
  </separator>
  <separator name="miscellaneous" >
   <i type="int" name="IDIOT">     3</i>
   <i type="int" name="PHON_NSTRUCT">    -1</i>
   <i type="logical" name="LMUSIC"> F  </i>
   <v name="POMASS">     26.98100000</v>
   <v name="DARWINR">      0.00000000</v>
   <v name="DARWINV">      1.00000000</v>
   <i type="logical" name="LCORR"> T  </i>
  </separator>
  <i type="logical" name="GGA_COMPAT"> T  </i>
  <i type="logical" name="LBERRY"> F  </i>
  <i type="int" name="ICORELEVEL">     0</i>
  <i type="logical" name="LDAU"> F  </i>
  <i type="int" name="I_CONSTRAINED_M">     0</i>
  <separator name="electronic exchange-correlation" >
   <i type="string" name="GGA">PE</i>
   <i type="int" name="VOSKOWN">     0</i>
   <i type="logical" name="LHFCALC"> F  </i>
   <i type="string" name="PRECFOCK"></i>
   <i type="logical" name="LSYMGRAD"> F  </i>
   <i type="logical" name="LHFONE"> F  </i>
   <i type="logical" name="LRHFCALC"> F  </i>
   <i type="logical" name="LTHOMAS"> F  </i>
   <i type="logical" name="LMODELHF"> F  </i>
   <i type="logical" name="LFOCKACE"> F  </i>
   <i name="ENCUT4O">     -1.00000000</i>
   <i type="int" name="EXXOEP">     0</i>
   <i type="int" name="FOURORBIT">     0</i>
   <i name="AEXX">      0.00000000</i>
   <i name="HFALPHA">      0.00000000</i>
   <i name="MCALPHA">      0.00000000</i>
   <i name="ALDAX">      1.00000000</i>
   <i name="AGGAX">      1.00000000</i>
   <i name="ALDAC">      1.00000000</i>
   <i name="AGGAC">      1.00000000</i>
   <i type="int" name="NKREDX">     1</i>
   <i type="int" name="NKREDY">     1</i>
   <i type="int" name="NKREDZ">     1</i>
   <i type="logical" name="SHIFTRED"> F  </i>
   <i type="logical" name="ODDONLY"> F  </i>
   <i type="logical" name="EVENONLY"> F  </i>
   <i type="int" name="LMAXFOCK">     0</i>
   <i type="int" name="NMAXFOCKAE">     0</i>
   <i type="logical" name="LFOCKAEDFT"> F  </i>
   <i name="HFSCREEN">      0.00000000</i>
   <i name="HFSCREENC">      0.00000000</i>
   <i type="int" name="NBANDSGWLOW">     0</i>
  </separator>
  <separator name="vdW DFT" >
   <i type="logical" name="LUSE_VDW"> F  </i>
   <i name="Zab_VDW">     -0.84910000</i>
   <i name="PARAM1">      0.12340000</i>
   <i name="PARAM2">      1.00000000</i>
   <i name="PARAM3">      0.00000000</i>
  </separator>
  <separator name="model GW" >
   <i type="int" name="MODEL_GW">     0</i>
   <i name="MODEL_EPS0">   1036.56654828</i>
   <i name="MODEL_ALPHA">      1.00000000</i>
  </separator>
  <separator name="linear response parameters" >
   <i type="logical" name="LEPSILON"> F  </i>
   <i type="logical" name="LRPA"> F  </i>
   <i type="logical" name="LNABLA"> F  </i>
   <i type="logical" name="LVEL"> F  </i>
   <i type="int" name="KINTER">     0</i>
   <i name="CSHIFT">      0.10000000</i>
   <i name="OMEGAMAX">     -1.00000000</i>
   <i name="DEG_THRESHOLD">      0.00200000</i>
   <i name="RTIME">     -0.10000000</i>
   <i name="WPLASMAI">      0.00000000</i>
   <v name="DFIELD">      0.00000000      0.00000000      0.00000000</v>
   <v name="WPLASMA">      0.00000000      0.00000000      0.00000000      0.00000000      0.00000000      0.00000000      0.00000000      0.00000000      0.00000000</v>
  </separator>
  <separator name="orbital magnetization" >
   <i type="logical" name="NUCIND"> F  </i>
   <v name="MAGPOS">      0.00000000      0.00000000      0.00000000</v>
   <i type="logical" name="LNICSALL"> T  </i>
   <i type="logical" name="ORBITALMAG"> F  </i>
   <i type="logical" name="LMAGBLOCH"> F  </i>
   <i type="logical" name="LCHIMAG"> F  </i>
   <i type="logical" name="LGAUGE"> T  </i>
   <i type="int" name="MAGATOM">     0</i>
   <v name="MAGDIPOL">      0.00000000      0.00000000      0.00000000</v>
   <v name="AVECCONST">      0.00000000      0.00000000      0.00000000</v>
  </separator>
  <separator name="response functions" >
   <i type="logical" name="LFINITE_TEMPERATURE"> F  </i>
   <i type="logical" name="LADDER"> F  </i>
   <i type="logical" name="LRPAFORCE"> F  </i>
   <i type="logical" name="LFXC"> F  </i>
   <i type="logical" name="LHARTREE"> T  </i>
   <i type="int" name="IBSE">     0</i>
   <v type="int" name="KPOINT">    -1     0     0     0</v>
   <i type="logical" name="LTCTC"> F  </i>
   <i type="logical" name="LTCTE"> F  </i>
   <i type="logical" name="LTETE"> F  </i>
   <i type="logical" name="LTRIPLET"> F  </i>
   <i type="logical" name="LFXCEPS"> F  </i>
   <i type="logical" name="LFXHEG"> F  </i>
   <i type="int" name="NATURALO">     2</i>
   <i type="logical" name="LHOLEGF"> F  </i>
   <i type="logical" name="L2ORDER"> F  </i>
   <i type="logical" name="LDMP1"> F  </i>
   <i type="logical" name="LMP2LT"> F  </i>
   <i type="logical" name="LSMP2LT"> F  </i>
   <i type="logical" name="LGWLF"> F  </i>
   <i name="ENCUTGW">     -2.00000000</i>
   <i name="ENCUTGWSOFT">     -2.00000000</i>
   <i name="ENCUTLF">     -1.00000000</i>
   <i type="logical" name="LESF_SPLINES"> F  </i>
   <i type="int" name="LMAXMP2">    -1</i>
   <i name="SCISSOR">      0.00000000</i>
   <i type="int" name="NOMEGA">     0</i>
   <i type="int" name="NOMEGAR">     0</i>
   <i type="int" name="NBANDSGW">    -1</i>
   <i type="int" name="NBANDSO">    -1</i>
   <i type="int" name="NBANDSV">    -1</i>
   <i type="int" name="NELM">     1</i>
   <i type="int" name="NELMHF">     1</i>
   <i type="int" name="DIM">     3</i>
   <i type="int" name="IESPILON">     4</i>
   <i type="int" name="ANTIRES">     0</i>
   <i name="OMEGAMAX">    -30.00000000</i>
   <i name="OMEGAMIN">    -30.00000000</i>
   <i name="OMEGATL">   -200.00000000</i>
   <i type="int" name="OMEGAGRID">     0</i>
   <i name="CSHIFT">     -0.10000000</i>
   <i type="logical" name="LSELFENERGY"> F  </i>
   <i type="logical" name="LSPECTRAL"> F  </i>
   <i type="logical" name="LSPECTRALGW"> F  </i>
   <i type="logical" name="LSINGLES"> F  </i>
   <i type="logical" name="LFERMIGW"> F  </i>
   <i type="logical" name="ODDONLYGW"> F  </i>
   <i type="logical" name="EVENONLYGW"> F  </i>
   <i type="int" name="NKREDLFX">     1</i>
   <i type="int" name="NKREDLFY">     1</i>
   <i type="int" name="NKREDLFZ">     1</i>
   <i type="int" name="MAXMEM">  2800</i>
   <i type="int" name="TELESCOPE">     0</i>
   <i type="int" name="NTAUPAR">    -1</i>
   <i type="int" name="NOMEGAPAR">    -1</i>
   <i name="LAMBDA">      1.00000000</i>
  </separator>
  <separator name="External order field" >
   <i name="OFIELD_KAPPA">      0.00000000</i>
   <v name="OFIELD_K">      0.00000000      0.00000000      0.00000000</v>
   <i name="OFIELD_Q6_NEAR">      0.00000000</i>
   <i name="OFIELD_Q6_FAR">      0.00000000</i>
   <i name="OFIELD_A">      0.00000000</i>
  </separator>
 </parameters>
 <atominfo>
  <atoms>       7 </atoms>
  <types>       1 </types>
  <array name="atoms" >
   <dimension dim="1">ion</dimension>
   <field type="string">element</field>
   <field type="int">atomtype</field>
   <set>
    <rc><c>Al</c><c>   1</c></rc>
    <rc><c>Al</c><c>   1</c></rc>
    <rc><c>Al</c><c>   1</c></rc>
    <rc><c>Al</c><c>   1</c></rc>
    <rc><c>Al</c><c>   1</c></rc>
    <rc><c>Al</c><c>   1</c></rc>
    <rc><c>Al</c><c>   1</c></rc>
   </set>
  </array>
  <array name="atomtypes" >
   <dimension dim="1">type</dimension>
   <field type="int">atomspertype</field>
   <field type="string">element</field>
   <field>mass</field>
   <field>valence</field>
   <field type="string">pseudopotential</field>
   <set>
    <rc><c>   7</c><c>Al</c><c>     26.98100000</c><c>      3.00000000</c><c>  PAW_PBE Al 04Jan2001                  </c></rc>
   </set>
  </array>
 </atominfo>
 <structure name="initialpos" >
  <crystal>
   <varray name="basis" >
    <v>      22.86043336       0.00000000       0.00000000 </v>
    <v>       0.00000000      23.57239429       0.00000000 </v>
    <v>       0.00000000       0.00000000      22.44170366 </v>
   </varray>
   <i name="volume">  12093.27639660 </i>
   <varray name="rec_basis" >
    <v>       0.04374370       0.00000000       0.00000000 </v>
    <v>       0.00000000       0.04242250       0.00000000 </v>
    <v>       0.00000000       0.00000000       0.04455990 </v>
   </varray>
  </crystal>
  <varray name="positions" >
   <v>       0.49010548       0.41581365       0.50730787 </v>
   <v>       0.57999590       0.49310027       0.52968803 </v>
   <v>       0.45679288       0.57447899       0.40554421 </v>
   <v>       0.41283419       0.46951507       0.43158585 </v>
   <v>       0.46611028       0.53461799       0.51793230 </v>
   <v>       0.53182440       0.48670827       0.41806524 </v>
   <v>       0.49953228       0.47151391       0.61339375 </v>
  </varray>
 </structure>
 <calculation>
  <scstep>
   <time name="dav">    1.62    1.63</time>
   <time name="total">    4.82    4.85</time>
   <energy>
    <i name="alphaZ">     -0.01360935 </i>
    <i name="ewald">    487.09502819 </i>
    <i name="hartreedc">   -733.89031440 </i>
    <i name="XCdc">   -190.24679005 </i>
    <i name="pawpsdc">    462.65713654 </i>
    <i name="pawaedc">   -238.99141827 </i>
    <i name="eentropy">     -0.04626901 </i>
    <i name="bandstr">   -118.16828555 </i>
    <i name="atom">    374.76708025 </i>
    <i name="e_fr_energy">     43.16255835 </i>
    <i name="e_wo_entrp">     43.20882736 </i>
    <i name="e_0_energy">     43.17798135 </i>
   </energy>
  </scstep>
  <scstep>
   <time name="dav">    1.73    1.74</time>
   <time name="total">    1.73    1.74</time>
   <energy>
    <i name="e_fr_energy">     -7.61028311 </i>
    <i name="e_wo_entrp">     -7.64161010 </i>
    <i name="e_0_energy">     -7.62072544 </i>
   </energy>
  </scstep>
  <scstep>
   <time name="dav">    1.49    1.51</time>
   <time name="total">    1.49    1.51</time>
   <energy>
    <i name="e_fr_energy">    -17.05499178 </i>
    <i name="e_wo_entrp">    -17.00429340 </i>
    <i name="e_0_energy">    -17.03809232 </i>
   </energy>
  </scstep>
  <scstep>
   <time name="dav">    1.40    1.40</time>
   <time name="total">    1.40    1.41</time>
   <energy>
    <i name="e_fr_energy">    -17.39937032 </i>
    <i name="e_wo_entrp">    -17.32895604 </i>
    <i name="e_0_energy">    -17.37589890 </i>
   </energy>
  </scstep>
  <scstep>
   <time name="dav">    1.55    1.56</time>
   <time name="total">    1.91    1.92</time>
   <energy>
    <i name="e_fr_energy">    -17.41447658 </i>
    <i name="e_wo_entrp">    -17.34405245 </i>
    <i name="e_0_energy">    -17.39100187 </i>
   </energy>
  </scstep>
  <scstep>
   <time name="dav">    1.17    1.18</time>
   <time name="total">    4.66    4.69</time>
   <energy>
    <i name="e_fr_energy">    -12.81856725 </i>
    <i name="e_wo_entrp">    -12.75990216 </i>
    <i name="e_0_energy">    -12.79901222 </i>
   </energy>
  </scstep>
  <scstep>
   <time name="dav">    1.46    1.46</time>
   <time name="total">    4.88    4.90</time>
   <energy>
    <i name="e_fr_energy">    -10.99565311 </i>
    <i name="e_wo_entrp">    -10.93600651 </i>
    <i name="e_0_energy">    -10.97577091 </i>
   </energy>
  </scstep>
  <scstep>
   <time name="dav">    1.39    1.40</time>
   <time name="total">    4.81    4.84</time>
   <energy>
    <i name="e_fr_energy">    -11.34116600 </i>
    <i name="e_wo_entrp">    -11.29220270 </i>
    <i name="e_0_energy">    -11.32484490 </i>
   </energy>
  </scstep>
  <scstep>
   <time name="dav">    1.35    1.36</time>
   <time name="total">    4.75    4.77</time>
   <energy>
    <i name="e_fr_energy">    -11.62743831 </i>
    <i name="e_wo_entrp">    -11.60431979 </i>
    <i name="e_0_energy">    -11.61973214 </i>
   </energy>
  </scstep>
  <scstep>
   <time name="dav">    1.15    1.15</time>
   <time name="total">    4.20    4.20</time>
   <energy>
    <i name="e_fr_energy">    -12.40773440 </i>
    <i name="e_wo_entrp">    -12.40035667 </i>
    <i name="e_0_energy">    -12.40527515 </i>
   </energy>
  </scstep>
  <scstep>
   <time name="dav">    1.11    1.11</time>
   <time name="total">    4.26    4.28</time>
   <energy>
    <i name="e_fr_energy">    -13.59788385 </i>
    <i name="e_wo_entrp">    -13.56863635 </i>
    <i name="e_0_energy">    -13.58813468 </i>
   </energy>
  </scstep>
  <scstep>
   <time name="dav">    1.09    1.10</time>
   <time name="total">    4.25    4.28</time>
   <energy>
    <i name="e_fr_energy">    -14.18425999 </i>
    <i name="e_wo_entrp">    -14.14097508 </i>
    <i name="e_0_energy">    -14.16983169 </i>
   </energy>
  </scstep>
  <scstep>
   <time name="dav">    1.56    1.57</time>
   <time name="total">    4.98    5.02</time>
   <energy>
    <i name="e_fr_energy">    -14.28046628 </i>
    <i name="e_wo_entrp">    -14.23404967 </i>
    <i name="e_0_energy">    -14.26499407 </i>
   </energy>
  </scstep>
  <scstep>
   <time name="dav">    1.25    1.26</time>
   <time name="total">    4.73    4.77</time>
   <energy>
    <i name="e_fr_energy">    -14.33653957 </i>
    <i name="e_wo_entrp">    -14.29854886 </i>
    <i name="e_0_energy">    -14.32387600 </i>
   </energy>
  </scstep>
  <scstep>
   <time name="dav">    1.28    1.29</time>
   <time name="total">    4.60    4.63</time>
   <energy>
    <i name="e_fr_energy">    -14.32627864 </i>
    <i name="e_wo_entrp">    -14.30536387 </i>
    <i name="e_0_energy">    -14.31930705 </i>
   </energy>
  </scstep>
  <scstep>
   <time name="dav">    1.23    1.23</time>
   <time name="total">    4.66    4.67</time>
   <energy>
    <i name="e_fr_energy">    -14.35389697 </i>
    <i name="e_wo_entrp">    -14.32877841 </i>
    <i name="e_0_energy">    -14.34552412 </i>
   </energy>
  </scstep>
  <scstep>
   <time name="dav">    1.25    1.28</time>
   <time name="total">    4.74    4.77</time>
   <energy>
    <i name="e_fr_energy">    -14.48915372 </i>
    <i name="e_wo_entrp">    -14.45438186 </i>
    <i name="e_0_energy">    -14.47756310 </i>
   </energy>
  </scstep>
  <scstep>
   <time name="dav">    1.19    1.20</time>
   <time name="total">    4.65    4.67</time>
   <energy>
    <i name="e_fr_energy">    -15.00424854 </i>
    <i name="e_wo_entrp">    -14.94844764 </i>
    <i name="e_0_energy">    -14.98564824 </i>
   </energy>
  </scstep>
  <scstep>
   <time name="dav">    1.26    1.26</time>
   <time name="total">    4.69    4.73</time>
   <energy>
    <i name="e_fr_energy">    -15.37580608 </i>
    <i name="e_wo_entrp">    -15.36745295 </i>
    <i name="e_0_energy">    -15.37302170 </i>
   </energy>
  </scstep>
  <scstep>
   <time name="dav">    1.41    1.43</time>
   <time name="total">    4.85    4.90</time>
   <energy>
    <i name="e_fr_energy">    -15.39691312 </i>
    <i name="e_wo_entrp">    -15.38675663 </i>
    <i name="e_0_energy">    -15.39352762 </i>
   </energy>
  </scstep>
  <scstep>
   <time name="dav">    1.18    1.19</time>
   <time name="total">    4.54    4.55</time>
   <energy>
    <i name="e_fr_energy">    -15.56704828 </i>
    <i name="e_wo_entrp">    -15.56173597 </i>
    <i name="e_0_energy">    -15.56527751 </i>
   </energy>
  </scstep>
  <scstep>
   <time name="dav">    1.25    1.25</time>
   <time name="total">    4.69    4.70</time>
   <energy>
    <i name="e_fr_energy">    -15.68749721 </i>
    <i name="e_wo_entrp">    -15.71497027 </i>
    <i name="e_0_energy">    -15.69665489 </i>
   </energy>
  </scstep>
  <scstep>
   <time name="dav">    1.21    1.23</time>
   <time name="total">    4.75    4.79</time>
   <energy>
    <i name="e_fr_energy">    -15.83056687 </i>
    <i name="e_wo_entrp">    -15.85531004 </i>
    <i name="e_0_energy">    -15.83881459 </i>
   </energy>
  </scstep>
  <scstep>
   <time name="dav">    1.35    1.35</time>
   <time name="total">    4.89    4.91</time>
   <energy>
    <i name="e_fr_energy">    -15.84785678 </i>
    <i name="e_wo_entrp">    -15.86178661 </i>
    <i name="e_0_energy">    -15.85250006 </i>
   </energy>
  </scstep>
  <scstep>
   <time name="dav">    1.48    1.48</time>
   <time name="total">    5.05    5.08</time>
   <energy>
    <i name="e_fr_energy">    -15.86085966 </i>
    <i name="e_wo_entrp">    -15.86137967 </i>
    <i name="e_0_energy">    -15.86103299 </i>
   </energy>
  </scstep>
  <scstep>
   <time name="dav">    1.34    1.34</time>
   <time name="total">    4.81    4.83</time>
   <energy>
    <i name="e_fr_energy">    -15.97250158 </i>
    <i name="e_wo_entrp">    -15.98970878 </i>
    <i name="e_0_energy">    -15.97823731 </i>
   </energy>
  </scstep>
  <scstep>
   <time name="dav">    1.30    1.33</time>
   <time name="total">    4.85    4.89</time>
   <energy>
    <i name="e_fr_energy">    -16.08889984 </i>
    <i name="e_wo_entrp">    -16.10896576 </i>
    <i name="e_0_energy">    -16.09558848 </i>
   </energy>
  </scstep>
  <scstep>
   <time name="dav">    1.23    1.23</time>
   <time name="total">    4.64    4.66</time>
   <energy>
    <i name="e_fr_energy">    -16.15420589 </i>
    <i name="e_wo_entrp">    -16.17661535 </i>
    <i name="e_0_energy">    -16.16167571 </i>
   </energy>
  </scstep>
  <scstep>
   <time name="dav">    1.35    1.36</time>
   <time name="total">    4.85    4.86</time>
   <energy>
    <i name="e_fr_energy">    -16.18094777 </i>
    <i name="e_wo_entrp">    -16.20397595 </i>
    <i name="e_0_energy">    -16.18862383 </i>
   </energy>
  </scstep>
  <scstep>
   <time name="dav">    1.21    1.21</time>
   <time name="total">    4.75    4.78</time>
   <energy>
    <i name="e_fr_energy">    -16.22193371 </i>
    <i name="e_wo_entrp">    -16.24745326 </i>
    <i name="e_0_energy">    -16.23044023 </i>
   </energy>
  </scstep>
  <scstep>
   <time name="dav">    1.43    1.43</time>
   <time name="total">    5.01    5.03</time>
   <energy>
    <i name="e_fr_energy">    -16.24667781 </i>
    <i name="e_wo_entrp">    -16.27255031 </i>
    <i name="e_0_energy">    -16.25530198 </i>
   </energy>
  </scstep>
  <scstep>
   <time name="dav">    1.27    1.28</time>
   <time name="total">    4.80    4.83</time>
   <energy>
    <i name="e_fr_energy">    -16.26367731 </i>
    <i name="e_wo_entrp">    -16.29070294 </i>
    <i name="e_0_energy">    -16.27268586 </i>
   </energy>
  </scstep>
  <scstep>
   <time name="dav">    1.35    1.35</time>
   <time name="total">    4.97    4.98</time>
   <energy>
    <i name="e_fr_energy">    -16.27245305 </i>
    <i name="e_wo_entrp">    -16.29927420 </i>
    <i name="e_0_energy">    -16.28139343 </i>
   </energy>
  </scstep>
  <scstep>
   <time name="dav">    1.37    1.38</time>
   <time name="total">    4.89    4.91</time>
   <energy>
    <i name="e_fr_energy">    -16.28137466 </i>
    <i name="e_wo_entrp">    -16.30826953 </i>
    <i name="e_0_energy">    -16.29033961 </i>
   </energy>
  </scstep>
  <scstep>
   <time name="dav">    1.31    1.32</time>
   <time name="total">    4.92    4.95</time>
   <energy>
    <i name="e_fr_energy">    -16.28629155 </i>
    <i name="e_wo_entrp">    -16.31371614 </i>
    <i name="e_0_energy">    -16.29543308 </i>
   </energy>
  </scstep>
  <scstep>
   <time name="dav">    0.93    0.93</time>
   <time name="total">    4.42    4.46</time>
   <energy>
    <i name="e_fr_energy">    -16.28840314 </i>
    <i name="e_wo_entrp">    -16.31582159 </i>
    <i name="e_0_energy">    -16.29754262 </i>
   </energy>
  </scstep>
  <scstep>
   <time name="dav">    1.12    1.12</time>
   <time name="total">    4.72    4.73</time>
   <energy>
    <i name="e_fr_energy">    -16.28982680 </i>
    <i name="e_wo_entrp">    -16.31699363 </i>
    <i name="e_0_energy">    -16.29888241 </i>
   </energy>
  </scstep>
  <scstep>
   <time name="dav">    0.99    0.99</time>
   <time name="total">    4.52    4.54</time>
   <energy>
    <i name="e_fr_energy">    -16.29094723 </i>
    <i name="e_wo_entrp">    -16.31849351 </i>
    <i name="e_0_energy">    -16.30012932 </i>
   </energy>
  </scstep>
  <scstep>
   <time name="dav">    0.98    0.99</time>
   <time name="total">    4.57    4.60</time>
   <energy>
    <i name="e_fr_energy">    -16.29172663 </i>
    <i name="e_wo_entrp">    -16.31933586 </i>
    <i name="e_0_energy">    -16.30092971 </i>
   </energy>
  </scstep>
  <scstep>
   <time name="dav">    0.85    0.85</time>
   <time name="total">    4.40    4.42</time>
   <energy>
    <i name="e_fr_energy">    -16.29204605 </i>
    <i name="e_wo_entrp">    -16.31965202 </i>
    <i name="e_0_energy">    -16.30124804 </i>
   </energy>
  </scstep>
  <scstep>
   <time name="dav">    0.92    0.93</time>
   <time name="total">    4.56    4.59</time>
   <energy>
    <i name="e_fr_energy">    -16.29259713 </i>
    <i name="e_wo_entrp">    -16.32037469 </i>
    <i name="e_0_energy">    -16.30185631 </i>
   </energy>
  </scstep>
  <scstep>
   <time name="dav">    1.10    1.11</time>
   <time name="total">    4.79    4.80</time>
   <energy>
    <i name="e_fr_energy">    -16.29324610 </i>
    <i name="e_wo_entrp">    -16.32120536 </i>
    <i name="e_0_energy">    -16.30256585 </i>
   </energy>
  </scstep>
  <scstep>
   <time name="dav">    0.94    0.95</time>
   <time name="total">    4.62    4.64</time>
   <energy>
    <i name="e_fr_energy">    -16.29365883 </i>
    <i name="e_wo_entrp">    -16.32173793 </i>
    <i name="e_0_energy">    -16.30301853 </i>
   </energy>
  </scstep>
  <scstep>
   <time name="dav">    1.00    1.00</time>
   <time name="total">    4.74    4.77</time>
   <energy>
    <i name="e_fr_energy">    -16.29390591 </i>
    <i name="e_wo_entrp">    -16.32205457 </i>
    <i name="e_0_energy">    -16.30328880 </i>
   </energy>
  </scstep>
  <scstep>
   <time name="dav">    0.87    0.87</time>
   <time name="total">    4.58    4.59</time>
   <energy>
    <i name="e_fr_energy">    -16.29407818 </i>
    <i name="e_wo_entrp">    -16.32236431 </i>
    <i name="e_0_energy">    -16.30350689 </i>
   </energy>
  </scstep>
  <scstep>
   <time name="dav">    0.92    0.92</time>
   <time name="total">    4.62    4.63</time>
   <energy>
    <i name="e_fr_energy">    -16.29419541 </i>
    <i name="e_wo_entrp">    -16.32257127 </i>
    <i name="e_0_energy">    -16.30365403 </i>
   </energy>
  </scstep>
  <scstep>
   <time name="dav">    0.92    0.92</time>
   <time name="total">    3.97    3.98</time>
   <energy>
    <i name="alphaZ">     -0.01360935 </i>
    <i name="ewald">    487.09502819 </i>
    <i name="hartreedc">   -763.12246212 </i>
    <i name="XCdc">   -189.78143837 </i>
    <i name="pawpsdc">    719.45058444 </i>
    <i name="pawaedc">   -495.84590908 </i>
    <i name="eentropy">      0.02845921 </i>
    <i name="bandstr">   -148.87200467 </i>
    <i name="atom">    374.76708025 </i>
    <i name="e_fr_energy">    -16.29427151 </i>
    <i name="e_wo_entrp">    -16.32273072 </i>
    <i name="e_0_energy">    -16.30375792 </i>
   </energy>
  </scstep>
  <structure>
   <crystal>
    <varray name="basis" >
     <v>      22.86043336       0.00000000       0.00000000 </v>
     <v>       0.00000000      23.57239429       0.00000000 </v>
     <v>       0.00000000       0.00000000      22.44170366 </v>
    </varray>
    <i name="volume">  12093.27639660 </i>
    <varray name="rec_basis" >
     <v>       0.04374370       0.00000000       0.00000000 </v>
     <v>       0.00000000       0.04242250       0.00000000 </v>
     <v>       0.00000000       0.00000000       0.04455990 </v>
    </varray>
   </crystal>
   <varray name="positions" >
    <v>       0.49010548       0.41581365       0.50730787 </v>
    <v>       0.57999590       0.49310027       0.52968803 </v>
    <v>       0.45679288       0.57447899       0.40554421 </v>
    <v>       0.41283419       0.46951507       0.43158585 </v>
    <v>       0.46611028       0.53461799       0.51793230 </v>
    <v>       0.53182440       0.48670827       0.41806524 </v>
    <v>       0.49953228       0.47151391       0.61339375 </v>
   </varray>
  </structure>
  <varray name="forces" >
   <v>      -0.49765926       0.16685219      -0.56442311 </v>
   <v>      -0.51253114       0.07524573      -0.26498408 </v>
   <v>      -0.16449243      -0.45526634       0.48860620 </v>
   <v>       0.47767447       0.10283247       0.41141277 </v>
   <v>       0.03000293      -0.00202346       0.05810214 </v>
   <v>       0.51025728      -0.19785156       0.49700412 </v>
   <v>       0.15674816       0.31021098      -0.62571804 </v>
  </varray>
  <energy>
   <i name="e_fr_energy">    -16.29427151 </i>
   <i name="e_wo_entrp">    -16.32273072 </i>
   <i name="e_0_energy">    -16.30375792 </i>
  </energy>
  <time name="totalsc">  215.54  216.89</time>
 </calculation>
 <calculation>
  <scstep>
   <time name="dav">    1.19    1.19</time>
   <time name="total">    4.65    4.68</time>
   <energy>
    <i name="alphaZ">     -0.01360935 </i>
    <i name="ewald">    494.63009366 </i>
    <i name="hartreedc">   -769.66366756 </i>
    <i name="XCdc">   -189.63003883 </i>
    <i name="pawpsdc">    719.45892596 </i>
    <i name="pawaedc">   -495.85424140 </i>
    <i name="eentropy">      0.01452546 </i>
    <i name="bandstr">   -150.12616120 </i>
    <i name="atom">    374.76708025 </i>
    <i name="e_fr_energy">    -16.41709301 </i>
    <i name="e_wo_entrp">    -16.43161847 </i>
    <i name="e_0_energy">    -16.42193483 </i>
   </energy>
  </scstep>
  <scstep>
   <time name="dav">    1.30    1.30</time>
   <time name="total">    4.63    4.64</time>
   <energy>
    <i name="e_fr_energy">    -16.41873612 </i>
    <i name="e_wo_entrp">    -16.43507913 </i>
    <i name="e_0_energy">    -16.42418379 </i>
   </energy>
  </scstep>
  <scstep>
   <time name="dav">    1.62    1.64</time>
   <time name="total">    5.00    5.03</time>
   <energy>
    <i name="e_fr_energy">    -16.41809430 </i>
    <i name="e_wo_entrp">    -16.43441161 </i>
    <i name="e_0_energy">    -16.42353340 </i>
   </energy>
  </scstep>
  <scstep>
   <time name="dav">    1.42    1.44</time>
   <time name="total">    4.86    5.05</time>
   <energy>
    <i name="e_fr_energy">    -16.41784893 </i>
    <i name="e_wo_entrp">    -16.43354017 </i>
    <i name="e_0_energy">    -16.42307934 </i>
   </energy>
  </scstep>
  <scstep>
   <time name="dav">    1.09    1.10</time>
   <time name="total">    4.56    4.59</time>
   <energy>
    <i name="e_fr_energy">    -16.41734229 </i>
    <i name="e_wo_entrp">    -16.43262800 </i>
    <i name="e_0_energy">    -16.42243753 </i>
   </energy>
  </scstep>
  <scstep>
   <time name="dav">    1.20    1.21</time>
   <time name="total">    4.65    4.67</time>
   <energy>
    <i name="e_fr_energy">    -16.41675927 </i>
    <i name="e_wo_entrp">    -16.43166505 </i>
    <i name="e_0_energy">    -16.42172786 </i>
   </energy>
  </scstep>
  <scstep>
   <time name="dav">    0.87    0.88</time>
   <time name="total">    3.97    4.00</time>
   <energy>
    <i name="alphaZ">     -0.01360935 </i>
    <i name="ewald">    494.63009366 </i>
    <i name="hartreedc">   -770.39067392 </i>
    <i name="XCdc">   -189.60685559 </i>
    <i name="pawpsdc">    738.54853154 </i>
    <i name="pawaedc">   -514.96113835 </i>
    <i name="eentropy">      0.01474031 </i>
    <i name="bandstr">   -149.40498579 </i>
    <i name="atom">    374.76708025 </i>
    <i name="e_fr_energy">    -16.41681724 </i>
    <i name="e_wo_entrp">    -16.43155755 </i>
    <i name="e_0_energy">    -16.42173067 </i>
   </energy>
  </scstep>
  <structure>
   <crystal>
    <varray name="basis" >
     <v>      22.86043336       0.00000000       0.00000000 </v>
     <v>       0.00000000      23.57239429       0.00000000 </v>
     <v>       0.00000000       0.00000000      22.44170366 </v>
    </varray>
    <i name="volume">  12093.27639660 </i>
    <varray name="rec_basis" >
     <v>       0.04374370       0.00000000       0.00000000 </v>
     <v>       0.00000000       0.04242250       0.00000000 </v>
     <v>       0.00000000       0.00000000       0.04455990 </v>
    </varray>
   </crystal>
   <varray name="positions" >
    <v>       0.48905527       0.41615512       0.50609453 </v>
    <v>       0.57891430       0.49325427       0.52911840 </v>
    <v>       0.45644575       0.57354725       0.40659456 </v>
    <v>       0.41384223       0.46972552       0.43247026 </v>
    <v>       0.46617360       0.53461385       0.51805720 </v>
    <v>       0.53290121       0.48630336       0.41913364 </v>
    <v>       0.49986307       0.47214878       0.61204865 </v>
   </varray>
  </structure>
  <varray name="forces" >
   <v>      -0.42842415       0.06875138      -0.45031151 </v>
   <v>      -0.33868711       0.07673465      -0.23373775 </v>
   <v>      -0.12009052      -0.39523237       0.42772005 </v>
   <v>       0.32948623       0.05221284       0.30712240 </v>
   <v>      -0.01721299       0.09748671       0.09661126 </v>
   <v>       0.47519342      -0.14839214       0.35546934 </v>
   <v>       0.09973511       0.24843892      -0.50287379 </v>
  </varray>
  <energy>
   <i name="e_fr_energy">    -16.41681724 </i>
   <i name="e_wo_entrp">    -16.43155755 </i>
   <i name="e_0_energy">    -16.42173067 </i>
  </energy>
  <time name="totalsc">   39.61   40.05</time>
 </calculation>
 <calculation>
  <scstep>
   <time name="dav">    1.19    1.21</time>
   <time name="total">    4.61    4.65</time>
   <energy>
    <i name="alphaZ">     -0.01360935 </i>
    <i name="ewald">    518.07572938 </i>
    <i name="hartreedc">   -790.29457027 </i>
    <i name="XCdc">   -189.14434912 </i>
    <i name="pawpsdc">    738.86190367 </i>
    <i name="pawaedc">   -515.27439574 </i>
    <i name="eentropy">     -0.03678087 </i>
    <i name="bandstr">   -153.51343379 </i>
    <i name="atom">    374.76708025 </i>
    <i name="e_fr_energy">    -16.57242585 </i>
    <i name="e_wo_entrp">    -16.53564498 </i>
    <i name="e_0_energy">    -16.56016556 </i>
   </energy>
  </scstep>
  <scstep>
   <time name="dav">    1.28    1.29</time>
   <time name="total">    4.58    4.62</time>
   <energy>
    <i name="e_fr_energy">    -16.58042527 </i>
    <i name="e_wo_entrp">    -16.55390604 </i>
    <i name="e_0_energy">    -16.57158553 </i>
   </energy>
  </scstep>
  <scstep>
   <time name="dav">    1.64    1.64</time>
   <time name="total">    5.00    5.01</time>
   <energy>
    <i name="e_fr_energy">    -16.57299462 </i>
    <i name="e_wo_entrp">    -16.54858696 </i>
    <i name="e_0_energy">    -16.56485873 </i>
   </energy>
  </scstep>
  <scstep>
   <time name="dav">    1.38    1.39</time>
   <time name="total">    4.80    4.83</time>
   <energy>
    <i name="e_fr_energy">    -16.57102699 </i>
    <i name="e_wo_entrp">    -16.54625771 </i>
    <i name="e_0_energy">    -16.56277056 </i>
   </energy>
  </scstep>
  <scstep>
   <time name="dav">    1.41    1.43</time>
   <time name="total">    4.87    4.89</time>
   <energy>
    <i name="e_fr_energy">    -16.56472053 </i>
    <i name="e_wo_entrp">    -16.54041761 </i>
    <i name="e_0_energy">    -16.55661956 </i>
   </energy>
  </scstep>
  <scstep>
   <time name="dav">    1.41    1.42</time>
   <time name="total">    4.81    4.83</time>
   <energy>
    <i name="e_fr_energy">    -16.55782900 </i>
    <i name="e_wo_entrp">    -16.53339196 </i>
    <i name="e_0_energy">    -16.54968332 </i>
   </energy>
  </scstep>
  <scstep>
   <time name="dav">    1.35    1.35</time>
   <time name="total">    4.77    4.79</time>
   <energy>
    <i name="e_fr_energy">    -16.56353443 </i>
    <i name="e_wo_entrp">    -16.53919395 </i>
    <i name="e_0_energy">    -16.55542094 </i>
   </energy>
  </scstep>
  <scstep>
   <time name="dav">    1.39    1.39</time>
   <time name="total">    4.79    4.81</time>
   <energy>
    <i name="e_fr_energy">    -16.56791466 </i>
    <i name="e_wo_entrp">    -16.54330934 </i>
    <i name="e_0_energy">    -16.55971289 </i>
   </energy>
  </scstep>
  <scstep>
   <time name="dav">    1.21    1.22</time>
   <time name="total">    4.64    4.68</time>
   <energy>
    <i name="e_fr_energy">    -16.57264795 </i>
    <i name="e_wo_entrp">    -16.54794477 </i>
    <i name="e_0_energy">    -16.56441356 </i>
   </energy>
  </scstep>
  <scstep>
   <time name="dav">    1.40    1.41</time>
   <time name="total">    4.80    4.82</time>
   <energy>
    <i name="e_fr_energy">    -16.57926293 </i>
    <i name="e_wo_entrp">    -16.55440926 </i>
    <i name="e_0_energy">    -16.57097838 </i>
   </energy>
  </scstep>
  <scstep>
   <time name="dav">    1.17    1.17</time>
   <time name="total">    4.55    4.57</time>
   <energy>
    <i name="e_fr_energy">    -16.58259498 </i>
    <i name="e_wo_entrp">    -16.55763112 </i>
    <i name="e_0_energy">    -16.57427370 </i>
   </energy>
  </scstep>
  <scstep>
   <time name="dav">    1.39    1.41</time>
   <time name="total">    4.91    4.94</time>
   <energy>
    <i name="e_fr_energy">    -16.58599130 </i>
    <i name="e_wo_entrp">    -16.56102171 </i>
    <i name="e_0_energy">    -16.57766811 </i>
   </energy>
  </scstep>
  <scstep>
   <time name="dav">    1.08    1.08</time>
   <time name="total">    4.51    4.54</time>
   <energy>
    <i name="e_fr_energy">    -16.58804973 </i>
    <i name="e_wo_entrp">    -16.56309204 </i>
    <i name="e_0_energy">    -16.57973050 </i>
   </energy>
  </scstep>
  <scstep>
   <time name="dav">    1.11    1.11</time>
   <time name="total">    4.49    4.50</time>
   <energy>
    <i name="e_fr_energy">    -16.58943383 </i>
    <i name="e_wo_entrp">    -16.56446882 </i>
    <i name="e_0_energy">    -16.58111216 </i>
   </energy>
  </scstep>
  <scstep>
   <time name="dav">    0.99    0.99</time>
   <time name="total">    4.33    4.35</time>
   <energy>
    <i name="e_fr_energy">    -16.59061605 </i>
    <i name="e_wo_entrp">    -16.56562977 </i>
    <i name="e_0_energy">    -16.58228729 </i>
   </energy>
  </scstep>
  <scstep>
   <time name="dav">    0.93    0.94</time>
   <time name="total">    4.15    4.19</time>
   <energy>
    <i name="e_fr_energy">    -16.59133528 </i>
    <i name="e_wo_entrp">    -16.56633312 </i>
    <i name="e_0_energy">    -16.58300123 </i>
   </energy>
  </scstep>
  <scstep>
   <time name="dav">    0.83    0.84</time>
   <time name="total">    3.94    3.96</time>
   <energy>
    <i name="e_fr_energy">    -16.59160442 </i>
    <i name="e_wo_entrp">    -16.56660892 </i>
    <i name="e_0_energy">    -16.58327259 </i>
   </energy>
  </scstep>
  <scstep>
   <time name="dav">    0.85    0.86</time>
   <time name="total">    4.10    4.13</time>
   <energy>
    <i name="e_fr_energy">    -16.59208789 </i>
    <i name="e_wo_entrp">    -16.56709359 </i>
    <i name="e_0_energy">    -16.58375646 </i>
   </energy>
  </scstep>
  <scstep>
   <time name="dav">    0.85    0.85</time>
   <time name="total">    3.71    3.76</time>
   <energy>
    <i name="alphaZ">     -0.01360935 </i>
    <i name="ewald">    518.07572938 </i>
    <i name="hartreedc">   -793.32548407 </i>
    <i name="XCdc">   -189.05379060 </i>
    <i name="pawpsdc">    811.66539006 </i>
    <i name="pawaedc">   -588.14199897 </i>
    <i name="eentropy">     -0.02499416 </i>
    <i name="bandstr">   -150.54048920 </i>
    <i name="atom">    374.76708025 </i>
    <i name="e_fr_energy">    -16.59216667 </i>
    <i name="e_wo_entrp">    -16.56717251 </i>
    <i name="e_0_energy">    -16.58383528 </i>
   </energy>
  </scstep>
  <structure>
   <crystal>
    <varray name="basis" >
     <v>      22.86043336       0.00000000       0.00000000 </v>
     <v>       0.00000000      23.57239429       0.00000000 </v>
     <v>       0.00000000       0.00000000      22.44170366 </v>
    </varray>
    <i name="volume">  12093.27639660 </i>
    <varray name="rec_basis" >
     <v>       0.04374370       0.00000000       0.00000000 </v>
     <v>       0.00000000       0.04242250       0.00000000 </v>
     <v>       0.00000000       0.00000000       0.04455990 </v>
    </varray>
   </crystal>
   <varray name="positions" >
    <v>       0.48590462       0.41717955       0.50245453 </v>
    <v>       0.57566950       0.49371626       0.52740950 </v>
    <v>       0.45540435       0.57075204       0.40974561 </v>
    <v>       0.41686636       0.47035688       0.43512349 </v>
    <v>       0.46636355       0.53460143       0.51843190 </v>
    <v>       0.53613161       0.48508860       0.42233885 </v>
    <v>       0.50085543       0.47405339       0.60801336 </v>
   </varray>
  </structure>
  <varray name="forces" >
   <v>      -0.06491610      -0.37165703      -0.04242481 </v>
   <v>       0.40138644       0.13723574      -0.19685405 </v>
   <v>       0.13730606      -0.08116223       0.25129527 </v>
   <v>      -0.28049496      -0.18645060      -0.05813685 </v>
   <v>      -0.28688790       0.56555318       0.32193595 </v>
   <v>       0.33041192      -0.08833254      -0.21090926 </v>
   <v>      -0.23680547       0.02481348      -0.06490626 </v>
  </varray>
  <energy>
   <i name="e_fr_energy">    -16.59216667 </i>
   <i name="e_wo_entrp">    -16.56717251 </i>
   <i name="e_0_energy">    -16.58383528 </i>
  </energy>
  <time name="totalsc">   93.37   93.94</time>
 </calculation>
 <calculation>
  <scstep>
   <time name="dav">    1.23    1.24</time>
   <time name="total">    4.53    4.54</time>
   <energy>
    <i name="alphaZ">     -0.01360935 </i>
    <i name="ewald">    515.77661630 </i>
    <i name="hartreedc">   -791.51200317 </i>
    <i name="XCdc">   -189.11209700 </i>
    <i name="pawpsdc">    811.67242444 </i>
    <i name="pawaedc">   -588.14904102 </i>
    <i name="eentropy">     -0.02138590 </i>
    <i name="bandstr">   -150.08134338 </i>
    <i name="atom">    374.76708025 </i>
    <i name="e_fr_energy">    -16.67335884 </i>
    <i name="e_wo_entrp">    -16.65197293 </i>
    <i name="e_0_energy">    -16.66623020 </i>
   </energy>
  </scstep>
  <scstep>
   <time name="dav">    1.53    1.55</time>
   <time name="total">    4.83    4.85</time>
   <energy>
    <i name="e_fr_energy">    -16.68155486 </i>
    <i name="e_wo_entrp">    -16.67866491 </i>
    <i name="e_0_energy">    -16.68059154 </i>
   </energy>
  </scstep>
  <scstep>
   <time name="dav">    1.39    1.39</time>
   <time name="total">    4.70    4.74</time>
   <energy>
    <i name="e_fr_energy">    -16.65810854 </i>
    <i name="e_wo_entrp">    -16.65400586 </i>
    <i name="e_0_energy">    -16.65674098 </i>
   </energy>
  </scstep>
  <scstep>
   <time name="dav">    1.49    1.50</time>
   <time name="total">    4.96    4.99</time>
   <energy>
    <i name="e_fr_energy">    -16.65337795 </i>
    <i name="e_wo_entrp">    -16.64397677 </i>
    <i name="e_0_energy">    -16.65024422 </i>
   </energy>
  </scstep>
  <scstep>
   <time name="dav">    1.55    1.56</time>
   <time name="total">    5.01    5.04</time>
   <energy>
    <i name="e_fr_energy">    -16.65983056 </i>
    <i name="e_wo_entrp">    -16.64922890 </i>
    <i name="e_0_energy">    -16.65629667 </i>
   </energy>
  </scstep>
  <scstep>
   <time name="dav">    1.37    1.40</time>
   <time name="total">    4.76    4.80</time>
   <energy>
    <i name="e_fr_energy">    -16.66375588 </i>
    <i name="e_wo_entrp">    -16.65257076 </i>
    <i name="e_0_energy">    -16.66002751 </i>
   </energy>
  </scstep>
  <scstep>
   <time name="dav">    1.34    1.36</time>
   <time name="total">    4.83    4.87</time>
   <energy>
    <i name="e_fr_energy">    -16.67165500 </i>
    <i name="e_wo_entrp">    -16.65981550 </i>
    <i name="e_0_energy">    -16.66770850 </i>
   </energy>
  </scstep>
  <scstep>
   <time name="dav">    1.40    1.41</time>
   <time name="total">    4.85    4.88</time>
   <energy>
    <i name="e_fr_energy">    -16.67470365 </i>
    <i name="e_wo_entrp">    -16.66302785 </i>
    <i name="e_0_energy">    -16.67081171 </i>
   </energy>
  </scstep>
  <scstep>
   <time name="dav">    1.24    1.24</time>
   <time name="total">    4.72    4.74</time>
   <energy>
    <i name="e_fr_energy">    -16.67895120 </i>
    <i name="e_wo_entrp">    -16.66746516 </i>
    <i name="e_0_energy">    -16.67512252 </i>
   </energy>
  </scstep>
  <scstep>
   <time name="dav">    1.37    1.37</time>
   <time name="total">    4.79    4.81</time>
   <energy>
    <i name="e_fr_energy">    -16.68243043 </i>
    <i name="e_wo_entrp">    -16.67095572 </i>
    <i name="e_0_energy">    -16.67860553 </i>
   </energy>
  </scstep>
  <scstep>
   <time name="dav">    1.26    1.27</time>
   <time name="total">    4.59    4.61</time>
   <energy>
    <i name="e_fr_energy">    -16.68468628 </i>
    <i name="e_wo_entrp">    -16.67317755 </i>
    <i name="e_0_energy">    -16.68085004 </i>
   </energy>
  </scstep>
  <scstep>
   <time name="dav">    1.09    1.09</time>
   <time name="total">    4.51    4.53</time>
   <energy>
    <i name="e_fr_energy">    -16.68588145 </i>
    <i name="e_wo_entrp">    -16.67438744 </i>
    <i name="e_0_energy">    -16.68205011 </i>
   </energy>
  </scstep>
  <scstep>
   <time name="dav">    1.01    1.02</time>
   <time name="total">    4.43    4.50</time>
   <energy>
    <i name="e_fr_energy">    -16.68674030 </i>
    <i name="e_wo_entrp">    -16.67524751 </i>
    <i name="e_0_energy">    -16.68290937 </i>
   </energy>
  </scstep>
  <scstep>
   <time name="dav">    0.93    0.93</time>
   <time name="total">    4.37    4.40</time>
   <energy>
    <i name="e_fr_energy">    -16.68734111 </i>
    <i name="e_wo_entrp">    -16.67583169 </i>
    <i name="e_0_energy">    -16.68350464 </i>
   </energy>
  </scstep>
  <scstep>
   <time name="dav">    0.96    0.96</time>
   <time name="total">    4.38    4.43</time>
   <energy>
    <i name="e_fr_energy">    -16.68769055 </i>
    <i name="e_wo_entrp">    -16.67616998 </i>
    <i name="e_0_energy">    -16.68385036 </i>
   </energy>
  </scstep>
  <scstep>
   <time name="dav">    0.93    0.93</time>
   <time name="total">    4.39    4.42</time>
   <energy>
    <i name="e_fr_energy">    -16.68782345 </i>
    <i name="e_wo_entrp">    -16.67630833 </i>
    <i name="e_0_energy">    -16.68398508 </i>
   </energy>
  </scstep>
  <scstep>
   <time name="dav">    0.92    0.92</time>
   <time name="total">    3.93    3.97</time>
   <energy>
    <i name="alphaZ">     -0.01360935 </i>
    <i name="ewald">    515.77661630 </i>
    <i name="hartreedc">   -791.94560418 </i>
    <i name="XCdc">   -189.09455613 </i>
    <i name="pawpsdc">    805.40905360 </i>
    <i name="pawaedc">   -581.88297324 </i>
    <i name="eentropy">     -0.01151510 </i>
    <i name="bandstr">   -149.69236542 </i>
    <i name="atom">    374.76708025 </i>
    <i name="e_fr_energy">    -16.68787328 </i>
    <i name="e_wo_entrp">    -16.67635818 </i>
    <i name="e_0_energy">    -16.68403492 </i>
   </energy>
  </scstep>
  <structure>
   <crystal>
    <varray name="basis" >
     <v>      22.86043336       0.00000000       0.00000000 </v>
     <v>       0.00000000      23.57239429       0.00000000 </v>
     <v>       0.00000000       0.00000000      22.44170366 </v>
    </varray>
    <i name="volume">  12093.27639660 </i>
    <varray name="rec_basis" >
     <v>       0.04374370       0.00000000       0.00000000 </v>
     <v>       0.00000000       0.04242250       0.00000000 </v>
     <v>       0.00000000       0.00000000       0.04455990 </v>
    </varray>
   </crystal>
   <varray name="positions" >
    <v>       0.48487708       0.41622538       0.50137471 </v>
    <v>       0.57619227       0.49428417       0.52629397 </v>
    <v>       0.45560078       0.56976912       0.41141840 </v>
    <v>       0.41669516       0.46990833       0.43560426 </v>
    <v>       0.46544360       0.53645015       0.51963534 </v>
    <v>       0.53807606       0.48448769       0.42243578 </v>
    <v>       0.50031046       0.47462330       0.60675479 </v>
   </varray>
  </structure>
  <varray name="forces" >
   <v>       0.10817010      -0.29491251      -0.07938248 </v>
   <v>       0.33695864       0.20645309      -0.32093500 </v>
   <v>       0.34895944       0.05979411       0.22711678 </v>
   <v>      -0.22417760      -0.31542726       0.12389344 </v>
   <v>      -0.32296703       0.57649261       0.37338578 </v>
   <v>       0.13739140      -0.19489439      -0.20150641 </v>
   <v>      -0.38433494      -0.03750565      -0.12257211 </v>
  </varray>
  <energy>
   <i name="e_fr_energy">    -16.68787328 </i>
   <i name="e_wo_entrp">    -16.67635818 </i>
   <i name="e_0_energy">    -16.68403492 </i>
  </energy>
  <time name="totalsc">   85.80   86.40</time>
 </calculation>
 <calculation>
  <scstep>
   <time name="dav">    1.23    1.24</time>
   <time name="total">    4.63    4.65</time>
   <energy>
    <i name="alphaZ">     -0.01360935 </i>
    <i name="ewald">    509.36292865 </i>
    <i name="hartreedc">   -786.46521439 </i>
    <i name="XCdc">   -189.25226500 </i>
    <i name="pawpsdc">    805.40966834 </i>
    <i name="pawaedc">   -581.88358544 </i>
    <i name="eentropy">      0.02202101 </i>
    <i name="bandstr">   -148.67684163 </i>
    <i name="atom">    374.76708025 </i>
    <i name="e_fr_energy">    -16.72981756 </i>
    <i name="e_wo_entrp">    -16.75183857 </i>
    <i name="e_0_energy">    -16.73715790 </i>
   </energy>
  </scstep>
  <scstep>
   <time name="dav">    1.56    1.56</time>
   <time name="total">    4.96    4.97</time>
   <energy>
    <i name="e_fr_energy">    -16.77942346 </i>
    <i name="e_wo_entrp">    -16.79950938 </i>
    <i name="e_0_energy">    -16.78611877 </i>
   </energy>
  </scstep>
  <scstep>
   <time name="dav">    1.67    1.68</time>
   <time name="total">    5.05    5.09</time>
   <energy>
    <i name="e_fr_energy">    -16.76899509 </i>
    <i name="e_wo_entrp">    -16.78886637 </i>
    <i name="e_0_energy">    -16.77561885 </i>
   </energy>
  </scstep>
  <scstep>
   <time name="dav">    1.71    1.72</time>
   <time name="total">    5.09    5.13</time>
   <energy>
    <i name="e_fr_energy">    -16.76705200 </i>
    <i name="e_wo_entrp">    -16.78669174 </i>
    <i name="e_0_energy">    -16.77359858 </i>
   </energy>
  </scstep>
  <scstep>
   <time name="dav">    1.54    1.56</time>
   <time name="total">    4.99    5.03</time>
   <energy>
    <i name="e_fr_energy">    -16.76656316 </i>
    <i name="e_wo_entrp">    -16.78592299 </i>
    <i name="e_0_energy">    -16.77301643 </i>
   </energy>
  </scstep>
  <scstep>
   <time name="dav">    1.57    1.58</time>
   <time name="total">    5.02    5.04</time>
   <energy>
    <i name="e_fr_energy">    -16.76757052 </i>
    <i name="e_wo_entrp">    -16.78681715 </i>
    <i name="e_0_energy">    -16.77398606 </i>
   </energy>
  </scstep>
  <scstep>
   <time name="dav">    1.19    1.20</time>
   <time name="total">    4.61    4.63</time>
   <energy>
    <i name="e_fr_energy">    -16.76925353 </i>
    <i name="e_wo_entrp">    -16.78846859 </i>
    <i name="e_0_energy">    -16.77565855 </i>
   </energy>
  </scstep>
  <scstep>
   <time name="dav">    1.26    1.26</time>
   <time name="total">    4.65    4.67</time>
   <energy>
    <i name="e_fr_energy">    -16.77285657 </i>
    <i name="e_wo_entrp">    -16.79203352 </i>
    <i name="e_0_energy">    -16.77924889 </i>
   </energy>
  </scstep>
  <scstep>
   <time name="dav">    1.42    1.44</time>
   <time name="total">    4.81    4.85</time>
   <energy>
    <i name="e_fr_energy">    -16.77657996 </i>
    <i name="e_wo_entrp">    -16.79571689 </i>
    <i name="e_0_energy">    -16.78295894 </i>
   </energy>
  </scstep>
  <scstep>
   <time name="dav">    1.07    1.08</time>
   <time name="total">    4.53    4.56</time>
   <energy>
    <i name="e_fr_energy">    -16.77789443 </i>
    <i name="e_wo_entrp">    -16.79702639 </i>
    <i name="e_0_energy">    -16.78427175 </i>
   </energy>
  </scstep>
  <scstep>
   <time name="dav">    1.14    1.16</time>
   <time name="total">    4.53    4.55</time>
   <energy>
    <i name="e_fr_energy">    -16.77984004 </i>
    <i name="e_wo_entrp">    -16.79897328 </i>
    <i name="e_0_energy">    -16.78621779 </i>
   </energy>
  </scstep>
  <scstep>
   <time name="dav">    1.35    1.35</time>
   <time name="total">    4.82    4.84</time>
   <energy>
    <i name="e_fr_energy">    -16.78209547 </i>
    <i name="e_wo_entrp">    -16.80123451 </i>
    <i name="e_0_energy">    -16.78847515 </i>
   </energy>
  </scstep>
  <scstep>
   <time name="dav">    0.95    0.96</time>
   <time name="total">    4.41    4.45</time>
   <energy>
    <i name="e_fr_energy">    -16.78273292 </i>
    <i name="e_wo_entrp">    -16.80187393 </i>
    <i name="e_0_energy">    -16.78911326 </i>
   </energy>
  </scstep>
  <scstep>
   <time name="dav">    1.06    1.07</time>
   <time name="total">    4.55    4.57</time>
   <energy>
    <i name="e_fr_energy">    -16.78363394 </i>
    <i name="e_wo_entrp">    -16.80278009 </i>
    <i name="e_0_energy">    -16.79001599 </i>
   </energy>
  </scstep>
  <scstep>
   <time name="dav">    0.99    0.99</time>
   <time name="total">    4.40    4.44</time>
   <energy>
    <i name="e_fr_energy">    -16.78410004 </i>
    <i name="e_wo_entrp">    -16.80325115 </i>
    <i name="e_0_energy">    -16.79048374 </i>
   </energy>
  </scstep>
  <scstep>
   <time name="dav">    0.82    0.84</time>
   <time name="total">    4.30    4.35</time>
   <energy>
    <i name="e_fr_energy">    -16.78426220 </i>
    <i name="e_wo_entrp">    -16.80341504 </i>
    <i name="e_0_energy">    -16.79064648 </i>
   </energy>
  </scstep>
  <scstep>
   <time name="dav">    0.88    0.88</time>
   <time name="total">    4.38    4.40</time>
   <energy>
    <i name="e_fr_energy">    -16.78442816 </i>
    <i name="e_wo_entrp">    -16.80358235 </i>
    <i name="e_0_energy">    -16.79081289 </i>
   </energy>
  </scstep>
  <scstep>
   <time name="dav">    0.83    0.83</time>
   <time name="total">    3.97    4.00</time>
   <energy>
    <i name="alphaZ">     -0.01360935 </i>
    <i name="ewald">    509.36292865 </i>
    <i name="hartreedc">   -786.61529839 </i>
    <i name="XCdc">   -189.19621592 </i>
    <i name="pawpsdc">    802.03278371 </i>
    <i name="pawaedc">   -578.51485010 </i>
    <i name="eentropy">      0.01915525 </i>
    <i name="bandstr">   -148.62648526 </i>
    <i name="atom">    374.76708025 </i>
    <i name="e_fr_energy">    -16.78451116 </i>
    <i name="e_wo_entrp">    -16.80366640 </i>
    <i name="e_0_energy">    -16.79089624 </i>
   </energy>
  </scstep>
  <structure>
   <crystal>
    <varray name="basis" >
     <v>      22.86043336       0.00000000       0.00000000 </v>
     <v>       0.00000000      23.57239429       0.00000000 </v>
     <v>       0.00000000       0.00000000      22.44170366 </v>
    </varray>
    <i name="volume">  12093.27639660 </i>
    <varray name="rec_basis" >
     <v>       0.04374370       0.00000000       0.00000000 </v>
     <v>       0.00000000       0.04242250       0.00000000 </v>
     <v>       0.00000000       0.00000000       0.04455990 </v>
    </varray>
   </crystal>
   <varray name="positions" >
    <v>       0.48179446       0.41336289       0.49813524 </v>
    <v>       0.57776059       0.49598790       0.52294740 </v>
    <v>       0.45619007       0.56682035       0.41643675 </v>
    <v>       0.41618155       0.46856269       0.43704656 </v>
    <v>       0.46268377       0.54199634       0.52324565 </v>
    <v>       0.54390941       0.48268496       0.42272656 </v>
    <v>       0.49867556       0.47633303       0.60297909 </v>
   </varray>
  </structure>
  <varray name="forces" >
   <v>       0.67054572      -0.07487147       0.34373677 </v>
   <v>       0.02540778       0.28540652       0.27821812 </v>
   <v>       0.55628652       0.27050139      -0.30176446 </v>
   <v>      -0.28073833      -0.04922193       0.02701229 </v>
   <v>      -0.09564067       0.16498299       0.27103317 </v>
   <v>      -0.63410912      -0.22005932      -0.54243552 </v>
   <v>      -0.24175190      -0.37673817      -0.07580037 </v>
  </varray>
  <energy>
   <i name="e_fr_energy">    -16.78451116 </i>
   <i name="e_wo_entrp">    -16.80366640 </i>
   <i name="e_0_energy">    -16.79089624 </i>
  </energy>
  <time name="totalsc">   90.96   91.62</time>
 </calculation>
 <calculation>
  <scstep>
   <time name="dav">    1.23    1.26</time>
   <time name="total">    4.66    4.73</time>
   <energy>
    <i name="alphaZ">     -0.01360935 </i>
    <i name="ewald">    511.46979061 </i>
    <i name="hartreedc">   -788.48639704 </i>
    <i name="XCdc">   -189.14628700 </i>
    <i name="pawpsdc">    802.02991361 </i>
    <i name="pawaedc">   -578.51197861 </i>
    <i name="eentropy">      0.02819102 </i>
    <i name="bandstr">   -148.93882607 </i>
    <i name="atom">    374.76708025 </i>
    <i name="e_fr_energy">    -16.80212259 </i>
    <i name="e_wo_entrp">    -16.83031361 </i>
    <i name="e_0_energy">    -16.81151960 </i>
   </energy>
  </scstep>
  <scstep>
   <time name="dav">    1.70    1.71</time>
   <time name="total">    5.01    5.04</time>
   <energy>
    <i name="e_fr_energy">    -16.80711478 </i>
    <i name="e_wo_entrp">    -16.83420137 </i>
    <i name="e_0_energy">    -16.81614364 </i>
   </energy>
  </scstep>
  <scstep>
   <time name="dav">    1.61    1.62</time>
   <time name="total">    5.02    5.06</time>
   <energy>
    <i name="e_fr_energy">    -16.80565932 </i>
    <i name="e_wo_entrp">    -16.83259183 </i>
    <i name="e_0_energy">    -16.81463682 </i>
   </energy>
  </scstep>
  <scstep>
   <time name="dav">    1.26    1.27</time>
   <time name="total">    4.71    4.74</time>
   <energy>
    <i name="e_fr_energy">    -16.80457717 </i>
    <i name="e_wo_entrp">    -16.83128043 </i>
    <i name="e_0_energy">    -16.81347825 </i>
   </energy>
  </scstep>
  <scstep>
   <time name="dav">    1.20    1.21</time>
   <time name="total">    4.68    4.72</time>
   <energy>
    <i name="e_fr_energy">    -16.80304929 </i>
    <i name="e_wo_entrp">    -16.82964313 </i>
    <i name="e_0_energy">    -16.81191390 </i>
   </energy>
  </scstep>
  <scstep>
   <time name="dav">    0.89    0.91</time>
   <time name="total">    4.32    4.34</time>
   <energy>
    <i name="e_fr_energy">    -16.80277418 </i>
    <i name="e_wo_entrp">    -16.82941703 </i>
    <i name="e_0_energy">    -16.81165513 </i>
   </energy>
  </scstep>
  <scstep>
   <time name="dav">    1.00    1.00</time>
   <time name="total">    4.46    4.50</time>
   <energy>
    <i name="e_fr_energy">    -16.80329513 </i>
    <i name="e_wo_entrp">    -16.82996762 </i>
    <i name="e_0_energy">    -16.81218596 </i>
   </energy>
  </scstep>
  <scstep>
   <time name="dav">    1.24    1.26</time>
   <time name="total">    4.58    4.64</time>
   <energy>
    <i name="e_fr_energy">    -16.80450630 </i>
    <i name="e_wo_entrp">    -16.83125923 </i>
    <i name="e_0_energy">    -16.81342394 </i>
   </energy>
  </scstep>
  <scstep>
   <time name="dav">    0.92    0.92</time>
   <time name="total">    4.33    4.36</time>
   <energy>
    <i name="e_fr_energy">    -16.80531580 </i>
    <i name="e_wo_entrp">    -16.83207637 </i>
    <i name="e_0_energy">    -16.81423599 </i>
   </energy>
  </scstep>
  <scstep>
   <time name="dav">    0.98    0.98</time>
   <time name="total">    4.36    4.40</time>
   <energy>
    <i name="e_fr_energy">    -16.80604053 </i>
    <i name="e_wo_entrp">    -16.83278668 </i>
    <i name="e_0_energy">    -16.81495591 </i>
   </energy>
  </scstep>
  <scstep>
   <time name="dav">    1.17    1.18</time>
   <time name="total">    4.61    4.64</time>
   <energy>
    <i name="e_fr_energy">    -16.80696999 </i>
    <i name="e_wo_entrp">    -16.83370282 </i>
    <i name="e_0_energy">    -16.81588093 </i>
   </energy>
  </scstep>
  <scstep>
   <time name="dav">    0.95    0.96</time>
   <time name="total">    4.47    4.50</time>
   <energy>
    <i name="e_fr_energy">    -16.80731945 </i>
    <i name="e_wo_entrp">    -16.83404547 </i>
    <i name="e_0_energy">    -16.81622813 </i>
   </energy>
  </scstep>
  <scstep>
   <time name="dav">    0.98    0.98</time>
   <time name="total">    4.51    4.56</time>
   <energy>
    <i name="e_fr_energy">    -16.80767006 </i>
    <i name="e_wo_entrp">    -16.83438707 </i>
    <i name="e_0_energy">    -16.81657573 </i>
   </energy>
  </scstep>
  <scstep>
   <time name="dav">    0.90    0.90</time>
   <time name="total">    4.29    4.31</time>
   <energy>
    <i name="e_fr_energy">    -16.80788606 </i>
    <i name="e_wo_entrp">    -16.83459489 </i>
    <i name="e_0_energy">    -16.81678900 </i>
   </energy>
  </scstep>
  <scstep>
   <time name="dav">    0.91    0.91</time>
   <time name="total">    4.01    4.03</time>
   <energy>
    <i name="alphaZ">     -0.01360935 </i>
    <i name="ewald">    511.46979061 </i>
    <i name="hartreedc">   -788.55372783 </i>
    <i name="XCdc">   -189.14972684 </i>
    <i name="pawpsdc">    801.47572629 </i>
    <i name="pawaedc">   -577.95291328 </i>
    <i name="eentropy">      0.02670574 </i>
    <i name="bandstr">   -148.87728869 </i>
    <i name="atom">    374.76708025 </i>
    <i name="e_fr_energy">    -16.80796310 </i>
    <i name="e_wo_entrp">    -16.83466884 </i>
    <i name="e_0_energy">    -16.81686501 </i>
   </energy>
  </scstep>
  <structure>
   <crystal>
    <varray name="basis" >
     <v>      22.86043336       0.00000000       0.00000000 </v>
     <v>       0.00000000      23.57239429       0.00000000 </v>
     <v>       0.00000000       0.00000000      22.44170366 </v>
    </varray>
    <i name="volume">  12093.27639660 </i>
    <varray name="rec_basis" >
     <v>       0.04374370       0.00000000       0.00000000 </v>
     <v>       0.00000000       0.04242250       0.00000000 </v>
     <v>       0.00000000       0.00000000       0.04455990 </v>
    </varray>
   </crystal>
   <varray name="positions" >
    <v>       0.48284272       0.41433630       0.49923685 </v>
    <v>       0.57722727       0.49540854       0.52408542 </v>
    <v>       0.45598968       0.56782310       0.41473023 </v>
    <v>       0.41635621       0.46902028       0.43655609 </v>
    <v>       0.46362227       0.54011032       0.52201794 </v>
    <v>       0.54192574       0.48329799       0.42262768 </v>
    <v>       0.49923152       0.47575163       0.60426304 </v>
   </varray>
  </structure>
  <varray name="forces" >
   <v>       0.46721291      -0.13206130       0.17500102 </v>
   <v>       0.12145301       0.25775082      -0.00452129 </v>
   <v>       0.50590828       0.19835883      -0.07743128 </v>
   <v>      -0.22965230      -0.17813565       0.09632332 </v>
   <v>      -0.16823879       0.30965739       0.30731069 </v>
   <v>      -0.36758156      -0.21027366      -0.37923938 </v>
   <v>      -0.32910156      -0.24529642      -0.11744307 </v>
  </varray>
  <energy>
   <i name="e_fr_energy">    -16.80796310 </i>
   <i name="e_wo_entrp">    -16.83466884 </i>
   <i name="e_0_energy">    -16.81686501 </i>
  </energy>
  <time name="totalsc">   75.28   76.02</time>
 </calculation>
 <calculation>
  <scstep>
   <time name="dav">    1.21    1.23</time>
   <time name="total">    4.67    4.76</time>
   <energy>
    <i name="alphaZ">     -0.01360935 </i>
    <i name="ewald">    504.77591856 </i>
    <i name="hartreedc">   -783.08365416 </i>
    <i name="XCdc">   -189.29656520 </i>
    <i name="pawpsdc">    801.50376688 </i>
    <i name="pawaedc">   -577.98096088 </i>
    <i name="eentropy">      0.01898005 </i>
    <i name="bandstr">   -147.58752748 </i>
    <i name="atom">    374.76708025 </i>
    <i name="e_fr_energy">    -16.89657133 </i>
    <i name="e_wo_entrp">    -16.91555138 </i>
    <i name="e_0_energy">    -16.90289801 </i>
   </energy>
  </scstep>
  <scstep>
   <time name="dav">    1.61    1.74</time>
   <time name="total">    5.05    5.21</time>
   <energy>
    <i name="e_fr_energy">    -16.90109793 </i>
    <i name="e_wo_entrp">    -16.92060625 </i>
    <i name="e_0_energy">    -16.90760070 </i>
   </energy>
  </scstep>
  <scstep>
   <time name="dav">    1.71    1.72</time>
   <time name="total">    5.15    5.18</time>
   <energy>
    <i name="e_fr_energy">    -16.89671495 </i>
    <i name="e_wo_entrp">    -16.91631074 </i>
    <i name="e_0_energy">    -16.90324688 </i>
   </energy>
  </scstep>
  <scstep>
   <time name="dav">    1.34    1.35</time>
   <time name="total">    4.64    4.67</time>
   <energy>
    <i name="e_fr_energy">    -16.89540023 </i>
    <i name="e_wo_entrp">    -16.91505657 </i>
    <i name="e_0_energy">    -16.90195235 </i>
   </energy>
  </scstep>
  <scstep>
   <time name="dav">    1.13    1.15</time>
   <time name="total">    4.51    4.54</time>
   <energy>
    <i name="e_fr_energy">    -16.89337303 </i>
    <i name="e_wo_entrp">    -16.91310673 </i>
    <i name="e_0_energy">    -16.89995093 </i>
   </energy>
  </scstep>
  <scstep>
   <time name="dav">    1.10    1.11</time>
   <time name="total">    4.57    4.62</time>
   <energy>
    <i name="e_fr_energy">    -16.89217290 </i>
    <i name="e_wo_entrp">    -16.91199635 </i>
    <i name="e_0_energy">    -16.89878072 </i>
   </energy>
  </scstep>
  <scstep>
   <time name="dav">    0.93    0.93</time>
   <time name="total">    4.43    4.46</time>
   <energy>
    <i name="e_fr_energy">    -16.89320395 </i>
    <i name="e_wo_entrp">    -16.91305436 </i>
    <i name="e_0_energy">    -16.89982075 </i>
   </energy>
  </scstep>
  <scstep>
   <time name="dav">    1.13    1.15</time>
   <time name="total">    4.55    4.59</time>
   <energy>
    <i name="e_fr_energy">    -16.89770270 </i>
    <i name="e_wo_entrp">    -16.91762691 </i>
    <i name="e_0_energy">    -16.90434410 </i>
   </energy>
  </scstep>
  <scstep>
   <time name="dav">    1.04    1.05</time>
   <time name="total">    4.41    4.44</time>
   <energy>
    <i name="e_fr_energy">    -16.89900285 </i>
    <i name="e_wo_entrp">    -16.91895187 </i>
    <i name="e_0_energy">    -16.90565252 </i>
   </energy>
  </scstep>
  <scstep>
   <time name="dav">    0.95    0.96</time>
   <time name="total">    4.44    4.48</time>
   <energy>
    <i name="e_fr_energy">    -16.90082902 </i>
    <i name="e_wo_entrp">    -16.92079956 </i>
    <i name="e_0_energy">    -16.90748587 </i>
   </energy>
  </scstep>
  <scstep>
   <time name="dav">    1.27    1.28</time>
   <time name="total">    4.76    4.78</time>
   <energy>
    <i name="e_fr_energy">    -16.90325928 </i>
    <i name="e_wo_entrp">    -16.92325943 </i>
    <i name="e_0_energy">    -16.90992600 </i>
   </energy>
  </scstep>
  <scstep>
   <time name="dav">    1.01    1.01</time>
   <time name="total">    4.52    4.55</time>
   <energy>
    <i name="e_fr_energy">    -16.90400488 </i>
    <i name="e_wo_entrp">    -16.92401588 </i>
    <i name="e_0_energy">    -16.91067521 </i>
   </energy>
  </scstep>
  <scstep>
   <time name="dav">    1.06    1.07</time>
   <time name="total">    4.56    4.60</time>
   <energy>
    <i name="e_fr_energy">    -16.90464220 </i>
    <i name="e_wo_entrp">    -16.92465928 </i>
    <i name="e_0_energy">    -16.91131456 </i>
   </energy>
  </scstep>
  <scstep>
   <time name="dav">    0.91    0.92</time>
   <time name="total">    4.40    4.43</time>
   <energy>
    <i name="e_fr_energy">    -16.90507374 </i>
    <i name="e_wo_entrp">    -16.92509292 </i>
    <i name="e_0_energy">    -16.91174680 </i>
   </energy>
  </scstep>
  <scstep>
   <time name="dav">    0.82    0.84</time>
   <time name="total">    4.24    4.27</time>
   <energy>
    <i name="e_fr_energy">    -16.90522459 </i>
    <i name="e_wo_entrp">    -16.92524420 </i>
    <i name="e_0_energy">    -16.91189779 </i>
   </energy>
  </scstep>
  <scstep>
   <time name="dav">    0.79    0.80</time>
   <time name="total">    3.88    3.91</time>
   <energy>
    <i name="alphaZ">     -0.01360935 </i>
    <i name="ewald">    504.77591856 </i>
    <i name="hartreedc">   -782.38814763 </i>
    <i name="XCdc">   -189.33591734 </i>
    <i name="pawpsdc">    780.20421647 </i>
    <i name="pawaedc">   -556.66416194 </i>
    <i name="eentropy">      0.02001952 </i>
    <i name="bandstr">   -148.27070971 </i>
    <i name="atom">    374.76708025 </i>
    <i name="e_fr_energy">    -16.90531117 </i>
    <i name="e_wo_entrp">    -16.92533069 </i>
    <i name="e_0_energy">    -16.91198434 </i>
   </energy>
  </scstep>
  <structure>
   <crystal>
    <varray name="basis" >
     <v>      22.86043336       0.00000000       0.00000000 </v>
     <v>       0.00000000      23.57239429       0.00000000 </v>
     <v>       0.00000000       0.00000000      22.44170366 </v>
    </varray>
    <i name="volume">  12093.27639660 </i>
    <varray name="rec_basis" >
     <v>       0.04374370       0.00000000       0.00000000 </v>
     <v>       0.00000000       0.04242250       0.00000000 </v>
     <v>       0.00000000       0.00000000       0.04455990 </v>
    </varray>
   </crystal>
   <varray name="positions" >
    <v>       0.48380924       0.41317697       0.49910788 </v>
    <v>       0.57805017       0.49673450       0.52326125 </v>
    <v>       0.45798363       0.56781588       0.41565213 </v>
    <v>       0.41539170       0.46806332       0.43726319 </v>
    <v>       0.46234069       0.54254748       0.52403472 </v>
    <v>       0.54198749       0.48211668       0.42128378 </v>
    <v>       0.49763250       0.47529333       0.60291430 </v>
   </varray>
  </structure>
  <varray name="forces" >
   <v>       0.39103417       0.02891346       0.09259907 </v>
   <v>      -0.15825256       0.26763955      -0.07397296 </v>
   <v>       0.46700763       0.03504640      -0.07781309 </v>
   <v>      -0.03338861       0.01525234       0.25427952 </v>
   <v>      -0.11451331       0.14381878       0.06839411 </v>
   <v>      -0.36259680      -0.17235036      -0.15616659 </v>
   <v>      -0.18929053      -0.31832017      -0.10732005 </v>
  </varray>
  <energy>
   <i name="e_fr_energy">    -16.90531117 </i>
   <i name="e_wo_entrp">    -16.92533069 </i>
   <i name="e_0_energy">    -16.91198434 </i>
  </energy>
  <time name="totalsc">   80.01   80.78</time>
 </calculation>
 <calculation>
  <scstep>
   <time name="dav">    1.20    1.21</time>
   <time name="total">    4.56    4.65</time>
   <energy>
    <i name="alphaZ">     -0.01360935 </i>
    <i name="ewald">    494.92328657 </i>
    <i name="hartreedc">   -774.17918283 </i>
    <i name="XCdc">   -189.55186660 </i>
    <i name="pawpsdc">    780.19680009 </i>
    <i name="pawaedc">   -556.65674547 </i>
    <i name="eentropy">      0.01012879 </i>
    <i name="bandstr">   -146.44085298 </i>
    <i name="atom">    374.76708025 </i>
    <i name="e_fr_energy">    -16.94496153 </i>
    <i name="e_wo_entrp">    -16.95509032 </i>
    <i name="e_0_energy">    -16.94833779 </i>
   </energy>
  </scstep>
  <scstep>
   <time name="dav">    1.59    1.59</time>
   <time name="total">    4.99    5.01</time>
   <energy>
    <i name="e_fr_energy">    -16.95613709 </i>
    <i name="e_wo_entrp">    -16.96501771 </i>
    <i name="e_0_energy">    -16.95909730 </i>
   </energy>
  </scstep>
  <scstep>
   <time name="dav">    1.81    1.81</time>
   <time name="total">    5.16    5.18</time>
   <energy>
    <i name="e_fr_energy">    -16.95199183 </i>
    <i name="e_wo_entrp">    -16.96079084 </i>
    <i name="e_0_energy">    -16.95492484 </i>
   </energy>
  </scstep>
  <scstep>
   <time name="dav">    1.44    1.44</time>
   <time name="total">    4.82    4.84</time>
   <energy>
    <i name="e_fr_energy">    -16.95180364 </i>
    <i name="e_wo_entrp">    -16.96061734 </i>
    <i name="e_0_energy">    -16.95474154 </i>
   </energy>
  </scstep>
  <scstep>
   <time name="dav">    1.22    1.23</time>
   <time name="total">    4.70    4.73</time>
   <energy>
    <i name="e_fr_energy">    -16.95215605 </i>
    <i name="e_wo_entrp">    -16.96095962 </i>
    <i name="e_0_energy">    -16.95509057 </i>
   </energy>
  </scstep>
  <scstep>
   <time name="dav">    1.26    1.28</time>
   <time name="total">    4.66    4.70</time>
   <energy>
    <i name="e_fr_energy">    -16.95285771 </i>
    <i name="e_wo_entrp">    -16.96166121 </i>
    <i name="e_0_energy">    -16.95579221 </i>
   </energy>
  </scstep>
  <scstep>
   <time name="dav">    1.09    1.09</time>
   <time name="total">    4.56    4.59</time>
   <energy>
    <i name="e_fr_energy">    -16.95393334 </i>
    <i name="e_wo_entrp">    -16.96273738 </i>
    <i name="e_0_energy">    -16.95686802 </i>
   </energy>
  </scstep>
  <scstep>
   <time name="dav">    1.13    1.14</time>
   <time name="total">    4.39    4.40</time>
   <energy>
    <i name="e_fr_energy">    -16.95535865 </i>
    <i name="e_wo_entrp">    -16.96415125 </i>
    <i name="e_0_energy">    -16.95828952 </i>
   </energy>
  </scstep>
  <scstep>
   <time name="dav">    1.04    1.04</time>
   <time name="total">    4.32    4.34</time>
   <energy>
    <i name="e_fr_energy">    -16.95600389 </i>
    <i name="e_wo_entrp">    -16.96480272 </i>
    <i name="e_0_energy">    -16.95893683 </i>
   </energy>
  </scstep>
  <scstep>
   <time name="dav">    1.09    1.09</time>
   <time name="total">    4.48    4.50</time>
   <energy>
    <i name="e_fr_energy">    -16.95676855 </i>
    <i name="e_wo_entrp">    -16.96557944 </i>
    <i name="e_0_energy">    -16.95970552 </i>
   </energy>
  </scstep>
  <scstep>
   <time name="dav">    1.03    1.04</time>
   <time name="total">    4.42    4.46</time>
   <energy>
    <i name="e_fr_energy">    -16.95718962 </i>
    <i name="e_wo_entrp">    -16.96600265 </i>
    <i name="e_0_energy">    -16.96012730 </i>
   </energy>
  </scstep>
  <scstep>
   <time name="dav">    0.87    0.87</time>
   <time name="total">    4.30    4.33</time>
   <energy>
    <i name="e_fr_energy">    -16.95743616 </i>
    <i name="e_wo_entrp">    -16.96624885 </i>
    <i name="e_0_energy">    -16.96037373 </i>
   </energy>
  </scstep>
  <scstep>
   <time name="dav">    0.94    0.96</time>
   <time name="total">    4.19    4.22</time>
   <energy>
    <i name="e_fr_energy">    -16.95764899 </i>
    <i name="e_wo_entrp">    -16.96646184 </i>
    <i name="e_0_energy">    -16.96058661 </i>
   </energy>
  </scstep>
  <scstep>
   <time name="dav">    0.79    0.79</time>
   <time name="total">    4.06    4.08</time>
   <energy>
    <i name="e_fr_energy">    -16.95775351 </i>
    <i name="e_wo_entrp">    -16.96656729 </i>
    <i name="e_0_energy">    -16.96069144 </i>
   </energy>
  </scstep>
  <scstep>
   <time name="dav">    0.79    0.80</time>
   <time name="total">    3.90    4.17</time>
   <energy>
    <i name="alphaZ">     -0.01360935 </i>
    <i name="ewald">    494.92328657 </i>
    <i name="hartreedc">   -773.04395908 </i>
    <i name="XCdc">   -189.58638157 </i>
    <i name="pawpsdc">    752.61867143 </i>
    <i name="pawaedc">   -529.05637803 </i>
    <i name="eentropy">      0.00881489 </i>
    <i name="bandstr">   -147.57532817 </i>
    <i name="atom">    374.76708025 </i>
    <i name="e_fr_energy">    -16.95780307 </i>
    <i name="e_wo_entrp">    -16.96661796 </i>
[...]
       <r>    -2.9970     3.7379    13.5848 </r>
       <r>    -2.9452     3.6206    13.7724 </r>
       <r>    -2.8933     2.7805    13.9166 </r>
       <r>    -2.8415     1.5851    13.9987 </r>
       <r>    -2.7897     0.5024    14.0248 </r>
       <r>    -2.7378    -0.2221    14.0133 </r>
       <r>    -2.6860    -0.5882    13.9828 </r>
       <r>    -2.6342    -0.6324    13.9500 </r>
       <r>    -2.5823    -0.2278    13.9382 </r>
       <r>    -2.5305     0.8971    13.9847 </r>
       <r>    -2.4787     2.8768    14.1338 </r>
       <r>    -2.4268     5.3664    14.4120 </r>
       <r>    -2.3750     7.4932    14.8004 </r>
       <r>    -2.3232     8.2959    15.2304 </r>
       <r>    -2.2713     7.3753    15.6127 </r>
       <r>    -2.2195     5.1919    15.8818 </r>
       <r>    -2.1677     2.7280    16.0232 </r>
       <r>    -2.1158     0.8324    16.0664 </r>
       <r>    -2.0640    -0.1949    16.0563 </r>
       <r>    -2.0121    -0.5424    16.0281 </r>
       <r>    -1.9603    -0.5533    15.9995 </r>
       <r>    -1.9085    -0.4365    15.9768 </r>
       <r>    -1.8566    -0.1702    15.9680 </r>
       <r>    -1.8048     0.4096    15.9892 </r>
       <r>    -1.7530     1.4088    16.0623 </r>
       <r>    -1.7011     2.6751    16.2009 </r>
       <r>    -1.6493     3.7689    16.3963 </r>
       <r>    -1.5975     4.1918    16.6136 </r>
       <r>    -1.5456     3.7307    16.8069 </r>
       <r>    -1.4938     2.6194    16.9427 </r>
       <r>    -1.4420     1.3656    17.0135 </r>
       <r>    -1.3901     0.4079    17.0347 </r>
       <r>    -1.3383    -0.1018    17.0294 </r>
       <r>    -1.2865    -0.2683    17.0155 </r>
       <r>    -1.2346    -0.2845    17.0007 </r>
       <r>    -1.1828    -0.2840    16.9860 </r>
       <r>    -1.1310    -0.2736    16.9718 </r>
       <r>    -1.0791    -0.1307    16.9651 </r>
       <r>    -1.0273     0.3373    16.9825 </r>
       <r>    -0.9755     1.2520    17.0474 </r>
       <r>    -0.9236     2.4922    17.1766 </r>
       <r>    -0.8718     3.6420    17.3654 </r>
       <r>    -0.8200     4.1853    17.5823 </r>
       <r>    -0.7681     3.8485    17.7818 </r>
       <r>    -0.7163     2.8034    17.9271 </r>
       <r>    -0.6645     1.5387    18.0069 </r>
       <r>    -0.6126     0.5239    18.0340 </r>
       <r>    -0.5608    -0.0394    18.0320 </r>
       <r>    -0.5089    -0.2191    18.0206 </r>
       <r>    -0.4571    -0.1955    18.0105 </r>
       <r>    -0.4053    -0.1174    18.0044 </r>
       <r>    -0.3534    -0.0550    18.0016 </r>
       <r>    -0.3016    -0.0211    18.0005 </r>
       <r>    -0.2498    -0.0068    18.0001 </r>
       <r>    -0.1979    -0.0019    18.0000 </r>
       <r>    -0.1461    -0.0004    18.0000 </r>
       <r>    -0.0943    -0.0001    18.0000 </r>
       <r>    -0.0424    -0.0000    18.0000 </r>
       <r>     0.0094    -0.0000    18.0000 </r>
       <r>     0.0612    -0.0000    18.0000 </r>
       <r>     0.1131    -0.0000    18.0000 </r>
       <r>     0.1649    -0.0000    18.0000 </r>
       <r>     0.2167    -0.0000    18.0000 </r>
       <r>     0.2686    -0.0000    18.0000 </r>
       <r>     0.3204    -0.0000    18.0000 </r>
       <r>     0.3722    -0.0000    18.0000 </r>
       <r>     0.4241    -0.0000    18.0000 </r>
       <r>     0.4759     0.0000    18.0000 </r>
       <r>     0.5277     0.0000    18.0000 </r>
       <r>     0.5796     0.0000    18.0000 </r>
       <r>     0.6314     0.0000    18.0000 </r>
       <r>     0.6832     0.0000    18.0000 </r>
       <r>     0.7351     0.0000    18.0000 </r>
       <r>     0.7869     0.0000    18.0000 </r>
       <r>     0.8388     0.0000    18.0000 </r>
       <r>     0.8906     0.0000    18.0000 </r>
       <r>     0.9424     0.0000    18.0000 </r>
       <r>     0.9943     0.0000    18.0000 </r>
       <r>     1.0461     0.0000    18.0000 </r>
       <r>     1.0979     0.0000    18.0000 </r>
       <r>     1.1498     0.0000    18.0000 </r>
       <r>     1.2016     0.0000    18.0000 </r>
      </set>
      <set comment="spin 2">
       <r>   -14.3488     0.0000     0.0000 </r>
       <r>   -14.2969     0.0000     0.0000 </r>
       <r>   -14.2451     0.0000     0.0000 </r>
       <r>   -14.1933     0.0000     0.0000 </r>
       <r>   -14.1414     0.0000     0.0000 </r>
       <r>   -14.0896     0.0000     0.0000 </r>
       <r>   -14.0378     0.0000     0.0000 </r>
       <r>   -13.9859     0.0000     0.0000 </r>
       <r>   -13.9341     0.0000     0.0000 </r>
       <r>   -13.8822    -0.0000    -0.0000 </r>
       <r>   -13.8304    -0.0000    -0.0000 </r>
       <r>   -13.7786    -0.0000    -0.0000 </r>
       <r>   -13.7267    -0.0000    -0.0000 </r>
       <r>   -13.6749    -0.0000    -0.0000 </r>
       <r>   -13.6231    -0.0000    -0.0000 </r>
       <r>   -13.5712    -0.0000    -0.0000 </r>
       <r>   -13.5194    -0.0000    -0.0000 </r>
       <r>   -13.4676    -0.0000    -0.0000 </r>
       <r>   -13.4157    -0.0000    -0.0000 </r>
       <r>   -13.3639    -0.0000    -0.0000 </r>
       <r>   -13.3121    -0.0000    -0.0000 </r>
       <r>   -13.2602    -0.0000    -0.0000 </r>
       <r>   -13.2084    -0.0000    -0.0000 </r>
       <r>   -13.1566    -0.0000    -0.0000 </r>
       <r>   -13.1047    -0.0000    -0.0000 </r>
       <r>   -13.0529    -0.0000    -0.0000 </r>
       <r>   -13.0011    -0.0000    -0.0000 </r>
       <r>   -12.9492    -0.0000    -0.0000 </r>
       <r>   -12.8974    -0.0003    -0.0000 </r>
       <r>   -12.8456    -0.0011    -0.0001 </r>
       <r>   -12.7937    -0.0044    -0.0003 </r>
       <r>   -12.7419    -0.0145    -0.0011 </r>
       <r>   -12.6901    -0.0402    -0.0031 </r>
       <r>   -12.6382    -0.0923    -0.0079 </r>
       <r>   -12.5864    -0.1691    -0.0167 </r>
       <r>   -12.5346    -0.2247    -0.0283 </r>
       <r>   -12.4827    -0.1375    -0.0355 </r>
       <r>   -12.4309     0.2738    -0.0213 </r>
       <r>   -12.3790     1.1369     0.0377 </r>
       <r>   -12.3272     2.3565     0.1598 </r>
       <r>   -12.2754     3.5409     0.3433 </r>
       <r>   -12.2235     4.1681     0.5594 </r>
       <r>   -12.1717     3.9243     0.7628 </r>
       <r>   -12.1199     2.9339     0.9149 </r>
       <r>   -12.0680     1.6671     1.0013 </r>
       <r>   -12.0162     0.6108     1.0330 </r>
       <r>   -11.9644    -0.0007     1.0329 </r>
       <r>   -11.9125    -0.2129     1.0219 </r>
       <r>   -11.8607    -0.2025     1.0114 </r>
       <r>   -11.8089    -0.1256     1.0049 </r>
       <r>   -11.7570    -0.0602     1.0018 </r>
       <r>   -11.7052    -0.0236     1.0005 </r>
       <r>   -11.6534    -0.0077     1.0001 </r>
       <r>   -11.6015    -0.0021     1.0000 </r>
       <r>   -11.5497    -0.0005     1.0000 </r>
       <r>   -11.4979    -0.0001     1.0000 </r>
       <r>   -11.4460    -0.0000     1.0000 </r>
       <r>   -11.3942    -0.0000     1.0000 </r>
       <r>   -11.3424    -0.0000     1.0000 </r>
       <r>   -11.2905    -0.0000     1.0000 </r>
       <r>   -11.2387    -0.0000     1.0000 </r>
       <r>   -11.1869    -0.0000     1.0000 </r>
       <r>   -11.1350    -0.0000     1.0000 </r>
       <r>   -11.0832    -0.0000     1.0000 </r>
       <r>   -11.0314    -0.0000     1.0000 </r>
       <r>   -10.9795    -0.0000     1.0000 </r>
       <r>   -10.9277    -0.0000     1.0000 </r>
       <r>   -10.8758    -0.0000     1.0000 </r>
       <r>   -10.8240    -0.0000     1.0000 </r>
       <r>   -10.7722    -0.0000     1.0000 </r>
       <r>   -10.7203    -0.0000     1.0000 </r>
       <r>   -10.6685    -0.0000     1.0000 </r>
       <r>   -10.6167    -0.0000     1.0000 </r>
       <r>   -10.5648    -0.0000     1.0000 </r>
       <r>   -10.5130    -0.0000     1.0000 </r>
       <r>   -10.4612    -0.0000     1.0000 </r>
       <r>   -10.4093    -0.0000     1.0000 </r>
       <r>   -10.3575    -0.0000     1.0000 </r>
       <r>   -10.3057    -0.0000     1.0000 </r>
       <r>   -10.2538    -0.0000     1.0000 </r>
       <r>   -10.2020    -0.0001     1.0000 </r>
       <r>   -10.1502    -0.0003     1.0000 </r>
       <r>   -10.0983    -0.0013     0.9999 </r>
       <r>   -10.0465    -0.0048     0.9997 </r>
       <r>    -9.9947    -0.0157     0.9988 </r>
       <r>    -9.9428    -0.0431     0.9966 </r>
       <r>    -9.8910    -0.0975     0.9916 </r>
       <r>    -9.8392    -0.1751     0.9825 </r>
       <r>    -9.7873    -0.2252     0.9708 </r>
       <r>    -9.7355    -0.1198     0.9646 </r>
       <r>    -9.6837     0.3234     0.9814 </r>
       <r>    -9.6318     1.2211     1.0447 </r>
       <r>    -9.5800     2.4552     1.1719 </r>
       <r>    -9.5282     3.6148     1.3593 </r>
       <r>    -9.4763     4.1808     1.5760 </r>
       <r>    -9.4245     3.8667     1.7764 </r>
       <r>    -9.3726     2.8268     1.9230 </r>
       <r>    -9.3208     1.5339     2.0025 </r>
       <r>    -9.2690     0.4427     2.0254 </r>
       <r>    -9.2171    -0.2549     2.0122 </r>
       <r>    -9.1653    -0.5994     1.9811 </r>
       <r>    -9.1135    -0.6390     1.9480 </r>
       <r>    -9.0616    -0.2361     1.9358 </r>
       <r>    -9.0098     0.8987     1.9824 </r>
       <r>    -8.9580     2.9102     2.1332 </r>
       <r>    -8.9061     5.4419     2.4153 </r>
       <r>    -8.8543     7.5912     2.8088 </r>
       <r>    -8.8025     8.3716     3.2427 </r>
       <r>    -8.7506     7.3901     3.6258 </r>
       <r>    -8.6988     5.1434     3.8924 </r>
       <r>    -8.6470     2.6515     4.0298 </r>
       <r>    -8.5951     0.7770     4.0701 </r>
       <r>    -8.5433    -0.1886     4.0603 </r>
       <r>    -8.4915    -0.4476     4.0371 </r>
       <r>    -8.4396    -0.3640     4.0182 </r>
       <r>    -8.3878    -0.2081     4.0074 </r>
       <r>    -8.3360    -0.0940     4.0026 </r>
       <r>    -8.2841    -0.0349     4.0008 </r>
       <r>    -8.2323    -0.0109     4.0002 </r>
       <r>    -8.1805    -0.0029     4.0000 </r>
       <r>    -8.1286    -0.0007     4.0000 </r>
       <r>    -8.0768    -0.0001     4.0000 </r>
       <r>    -8.0250    -0.0000     4.0000 </r>
       <r>    -7.9731    -0.0000     4.0000 </r>
       <r>    -7.9213    -0.0000     4.0000 </r>
       <r>    -7.8694    -0.0000     4.0000 </r>
       <r>    -7.8176    -0.0000     4.0000 </r>
       <r>    -7.7658    -0.0000     4.0000 </r>
       <r>    -7.7139    -0.0000     4.0000 </r>
       <r>    -7.6621    -0.0000     4.0000 </r>
       <r>    -7.6103    -0.0000     4.0000 </r>
       <r>    -7.5584    -0.0000     4.0000 </r>
       <r>    -7.5066    -0.0000     4.0000 </r>
       <r>    -7.4548    -0.0000     4.0000 </r>
       <r>    -7.4029    -0.0000     4.0000 </r>
       <r>    -7.3511    -0.0000     4.0000 </r>
       <r>    -7.2993    -0.0000     4.0000 </r>
       <r>    -7.2474    -0.0000     4.0000 </r>
       <r>    -7.1956    -0.0000     4.0000 </r>
       <r>    -7.1438    -0.0000     4.0000 </r>
       <r>    -7.0919    -0.0000     4.0000 </r>
       <r>    -7.0401    -0.0000     4.0000 </r>
       <r>    -6.9883    -0.0001     4.0000 </r>
       <r>    -6.9364    -0.0005     4.0000 </r>
       <r>    -6.8846    -0.0022     3.9999 </r>
       <r>    -6.8328    -0.0078     3.9995 </r>
       <r>    -6.7809    -0.0237     3.9982 </r>
       <r>    -6.7291    -0.0604     3.9951 </r>
       <r>    -6.6773    -0.1258     3.9886 </r>
       <r>    -6.6254    -0.2028     3.9781 </r>
       <r>    -6.5736    -0.2133     3.9670 </r>
       <r>    -6.5217    -0.0021     3.9669 </r>
       <r>    -6.4699     0.6036     3.9982 </r>
       <r>    -6.4181     1.6395     4.0832 </r>
       <r>    -6.3662     2.8526     4.2310 </r>
       <r>    -6.3144     3.7347     4.4246 </r>
       <r>    -6.2626     3.8236     4.6228 </r>
       <r>    -6.2107     3.0943     4.7832 </r>
       <r>    -6.1589     2.1115     4.8927 </r>
       <r>    -6.1071     1.7556     4.9837 </r>
       <r>    -6.0552     2.6533     5.1212 </r>
       <r>    -6.0034     4.6804     5.3638 </r>
       <r>    -5.9516     6.9122     5.7221 </r>
       <r>    -5.8997     8.1430     6.1442 </r>
       <r>    -5.8479     7.6651     6.5415 </r>
       <r>    -5.7961     5.7143     6.8377 </r>
       <r>    -5.7442     3.2288     7.0050 </r>
       <r>    -5.6924     1.1681     7.0656 </r>
       <r>    -5.6406    -0.0169     7.0647 </r>
       <r>    -5.5887    -0.4246     7.0427 </r>
       <r>    -5.5369    -0.4062     7.0217 </r>
       <r>    -5.4851    -0.2748     7.0074 </r>
       <r>    -5.4332    -0.1990     6.9971 </r>
       <r>    -5.3814    -0.2362     6.9849 </r>
       <r>    -5.3296    -0.3782     6.9653 </r>
       <r>    -5.2777    -0.5349     6.9375 </r>
       <r>    -5.2259    -0.4690     6.9132 </r>
       <r>    -5.1741     0.2225     6.9248 </r>
       <r>    -5.1222     1.9547     7.0261 </r>
       <r>    -5.0704     4.8071     7.2752 </r>
       <r>    -5.0185     8.1992     7.7002 </r>
       <r>    -4.9667    10.9478     8.2677 </r>
       <r>    -4.9149    11.8545     8.8822 </r>
       <r>    -4.8630    10.4756     9.4252 </r>
       <r>    -4.8112     7.4406     9.8109 </r>
       <r>    -4.7594     4.0290    10.0197 </r>
       <r>    -4.7075     1.3680    10.0906 </r>
       <r>    -4.6557    -0.0986    10.0855 </r>
       <r>    -4.6039    -0.5734    10.0558 </r>
       <r>    -4.5520    -0.5195    10.0289 </r>
       <r>    -4.5002    -0.3179    10.0124 </r>
       <r>    -4.4484    -0.1522    10.0045 </r>
       <r>    -4.3965    -0.0599    10.0014 </r>
       <r>    -4.3447    -0.0198    10.0004 </r>
       <r>    -4.2929    -0.0056    10.0001 </r>
       <r>    -4.2410    -0.0013    10.0000 </r>
       <r>    -4.1892    -0.0003    10.0000 </r>
       <r>    -4.1374    -0.0001    10.0000 </r>
       <r>    -4.0855    -0.0002    10.0000 </r>
       <r>    -4.0337    -0.0007    10.0000 </r>
       <r>    -3.9819    -0.0029     9.9998 </r>
       <r>    -3.9300    -0.0101     9.9993 </r>
       <r>    -3.8782    -0.0300     9.9977 </r>
       <r>    -3.8264    -0.0745     9.9939 </r>
       <r>    -3.7745    -0.1526     9.9860 </r>
       <r>    -3.7227    -0.2463     9.9732 </r>
       <r>    -3.6709    -0.2785     9.9588 </r>
       <r>    -3.6190    -0.1012     9.9535 </r>
       <r>    -3.5672     0.4565     9.9772 </r>
       <r>    -3.5153     1.4881    10.0543 </r>
       <r>    -3.4635     2.9435    10.2069 </r>
       <r>    -3.4117     4.6634    10.4486 </r>
       <r>    -3.3598     6.4499    10.7829 </r>
       <r>    -3.3080     8.0438    11.1999 </r>
       <r>    -3.2562     9.0562    11.6693 </r>
       <r>    -3.2043     9.0876    12.1403 </r>
       <r>    -3.1525     8.0763    12.5590 </r>
       <r>    -3.1007     6.5095    12.8964 </r>
       <r>    -3.0488     5.1345    13.1625 </r>
       <r>    -2.9970     4.3677    13.3889 </r>
       <r>    -2.9452     4.0085    13.5967 </r>
       <r>    -2.8933     3.5450    13.7805 </r>
       <r>    -2.8415     2.6863    13.9197 </r>
       <r>    -2.7897     1.5755    14.0014 </r>
       <r>    -2.7378     0.5664    14.0307 </r>
       <r>    -2.6860    -0.1117    14.0249 </r>
       <r>    -2.6342    -0.4695    14.0006 </r>
       <r>    -2.5823    -0.6183    13.9686 </r>
       <r>    -2.5305    -0.5519    13.9400 </r>
       <r>    -2.4787    -0.0424    13.9378 </r>
       <r>    -2.4268     1.2340    14.0017 </r>
       <r>    -2.3750     3.3630    14.1760 </r>
       <r>    -2.3232     5.8808    14.4809 </r>
       <r>    -2.2713     7.8291    14.8867 </r>
       <r>    -2.2195     8.2905    15.3164 </r>
       <r>    -2.1677     7.0288    15.6808 </r>
       <r>    -2.1158     4.6644    15.9225 </r>
       <r>    -2.0640     2.2165    16.0374 </r>
       <r>    -2.0121     0.4454    16.0605 </r>
       <r>    -1.9603    -0.4523    16.0371 </r>
       <r>    -1.9085    -0.6669    16.0025 </r>
       <r>    -1.8566    -0.4155    15.9810 </r>
       <r>    -1.8048     0.2431    15.9936 </r>
       <r>    -1.7530     1.3092    16.0614 </r>
       <r>    -1.7011     2.6156    16.1970 </r>
       <r>    -1.6493     3.7387    16.3908 </r>
       <r>    -1.5975     4.1899    16.6080 </r>
       <r>    -1.5456     3.7527    16.8025 </r>
       <r>    -1.4938     2.6531    16.9400 </r>
       <r>    -1.4420     1.3972    17.0124 </r>
       <r>    -1.3901     0.4305    17.0348 </r>
       <r>    -1.3383    -0.0843    17.0304 </r>
       <r>    -1.2865    -0.2437    17.0178 </r>
       <r>    -1.2346    -0.2402    17.0053 </r>
       <r>    -1.1828    -0.2231    16.9937 </r>
       <r>    -1.1310    -0.2424    16.9812 </r>
       <r>    -1.0791    -0.2394    16.9688 </r>
       <r>    -1.0273    -0.0582    16.9658 </r>
       <r>    -0.9755     0.4922    16.9913 </r>
       <r>    -0.9236     1.4926    17.0686 </r>
       <r>    -0.8718     2.7554    17.2115 </r>
       <r>    -0.8200     3.8190    17.4094 </r>
       <r>    -0.7681     4.1889    17.6265 </r>
       <r>    -0.7163     3.6769    17.8171 </r>
       <r>    -0.6645     2.5416    17.9489 </r>
       <r>    -0.6126     1.2968    18.0161 </r>
       <r>    -0.5608     0.3693    18.0352 </r>
       <r>    -0.5089    -0.1026    18.0299 </r>
       <r>    -0.4571    -0.2249    18.0183 </r>
       <r>    -0.4053    -0.1803    18.0089 </r>
       <r>    -0.3534    -0.1022    18.0036 </r>
       <r>    -0.3016    -0.0458    18.0012 </r>
       <r>    -0.2498    -0.0169    18.0004 </r>
       <r>    -0.1979    -0.0053    18.0001 </r>
       <r>    -0.1461    -0.0014    18.0000 </r>
       <r>    -0.0943    -0.0003    18.0000 </r>
       <r>    -0.0424    -0.0001    18.0000 </r>
       <r>     0.0094    -0.0000    18.0000 </r>
       <r>     0.0612    -0.0000    18.0000 </r>
       <r>     0.1131    -0.0000    18.0000 </r>
       <r>     0.1649    -0.0000    18.0000 </r>
       <r>     0.2167    -0.0000    18.0000 </r>
       <r>     0.2686    -0.0000    18.0000 </r>
       <r>     0.3204    -0.0000    18.0000 </r>
       <r>     0.3722    -0.0000    18.0000 </r>
       <r>     0.4241    -0.0000    18.0000 </r>
       <r>     0.4759     0.0000    18.0000 </r>
       <r>     0.5277     0.0000    18.0000 </r>
       <r>     0.5796     0.0000    18.0000 </r>
       <r>     0.6314     0.0000    18.0000 </r>
       <r>     0.6832     0.0000    18.0000 </r>
       <r>     0.7351     0.0000    18.0000 </r>
       <r>     0.7869     0.0000    18.0000 </r>
       <r>     0.8388     0.0000    18.0000 </r>
       <r>     0.8906     0.0000    18.0000 </r>
       <r>     0.9424     0.0000    18.0000 </r>
       <r>     0.9943     0.0000    18.0000 </r>
       <r>     1.0461     0.0000    18.0000 </r>
       <r>     1.0979     0.0000    18.0000 </r>
       <r>     1.1498     0.0000    18.0000 </r>
       <r>     1.2016     0.0000    18.0000 </r>
      </set>
     </set>
    </array>
   </total>
  </dos>
 </calculation>
 <structure name="finalpos" >
  <crystal>
   <varray name="basis" >
    <v>      22.86043336       0.00000000       0.00000000 </v>
    <v>       0.00000000      23.57239429       0.00000000 </v>
    <v>       0.00000000       0.00000000      22.44170366 </v>
   </varray>
   <i name="volume">  12093.27639660 </i>
   <varray name="rec_basis" >
    <v>       0.04374370       0.00000000       0.00000000 </v>
    <v>       0.00000000       0.04242250       0.00000000 </v>
    <v>       0.00000000       0.00000000       0.04455990 </v>
   </varray>
  </crystal>
  <varray name="positions" >
   <v>       0.48381434       0.41822643       0.50355380 </v>
   <v>       0.56255022       0.51712333       0.50642407 </v>
   <v>       0.48962949       0.56700933       0.43485895 </v>
   <v>       0.41693378       0.47691228       0.43366618 </v>
   <v>       0.43945994       0.53094764       0.53147508 </v>
   <v>       0.53384484       0.46203624       0.41122503 </v>
   <v>       0.51096281       0.47349290       0.60231414 </v>
  </varray>
 </structure>
</modeling>
