unknown system                          
            1
    22.860433    0.000000    0.000000
     0.000000   23.572394    0.000000
     0.000000    0.000000   22.441704
   Al
     7
Direct configuration=     1
   0.49010548  0.41581365  0.50730787
   0.57999590  0.49310027  0.52968803
   0.45679288  0.57447899  0.40554421
   0.41283419  0.46951507  0.43158585
   0.46611028  0.53461799  0.51793230
   0.53182440  0.48670827  0.41806524
   0.49953228  0.47151391  0.61339375
Direct configuration=     2
   0.48905527  0.41615512  0.50609453
   0.57891430  0.49325427  0.52911840
   0.45644575  0.57354725  0.40659456
   0.41384223  0.46972552  0.43247026
   0.46617360  0.53461385  0.51805720
   0.53290121  0.48630336  0.41913364
   0.49986307  0.47214878  0.61204865
Direct configuration=     3
   0.48590462  0.41717955  0.50245453
   0.57566950  0.49371626  0.52740950
   0.45540435  0.57075204  0.40974561
   0.41686636  0.47035688  0.43512349
   0.46636355  0.53460143  0.51843190
   0.53613161  0.48508860  0.42233885
   0.50085543  0.47405339  0.60801336
Direct configuration=     4
   0.48487708  0.41622538  0.50137471
   0.57619227  0.49428417  0.52629397
   0.45560078  0.56976912  0.41141840
   0.41669516  0.46990833  0.43560426
   0.46544360  0.53645015  0.51963534
   0.53807606  0.48448769  0.42243578
   0.50031046  0.47462330  0.60675479
Direct configuration=     5
   0.48179446  0.41336289  0.49813524
   0.57776059  0.49598790  0.52294740
   0.45619007  0.56682035  0.41643675
   0.41618155  0.46856269  0.43704656
   0.46268377  0.54199634  0.52324565
   0.54390941  0.48268496  0.42272656
   0.49867556  0.47633303  0.60297909
Direct configuration=     6
   0.48284272  0.41433630  0.49923685
   0.57722727  0.49540854  0.52408542
   0.45598968  0.56782310  0.41473023
   0.41635621  0.46902028  0.43655609
   0.46362227  0.54011032  0.52201794
   0.54192574  0.48329799  0.42262768
   0.49923152  0.47575163  0.60426304
Direct configuration=     7
   0.48380924  0.41317697  0.49910788
   0.57805017  0.49673450  0.52326125
   0.45798363  0.56781588  0.41565213
   0.41539170  0.46806332  0.43726319
   0.46234069  0.54254748  0.52403472
   0.54198749  0.48211668  0.42128378
   0.49763250  0.47529333  0.60291430
Direct configuration=     8
   0.48522356  0.41148050  0.49891916
   0.57925433  0.49867482  0.52205521
   0.46090142  0.56780531  0.41700116
   0.41398032  0.46666297  0.43829789
   0.46046532  0.54611384  0.52698594
   0.54207785  0.48038803  0.41931722
   0.49529261  0.47462269  0.60094066
Direct configuration=     9
   0.48735241  0.41136429  0.49883121
   0.57755987  0.50086135  0.52079208
   0.46423728  0.56704768  0.41736698
   0.41413161  0.46709670  0.44068616
   0.45931242  0.54798059  0.52759552
   0.54058056  0.47895676  0.41863991
   0.49402127  0.47244079  0.59960538
Direct configuration=    10
   0.49373896  0.41101565  0.49856736
   0.57247648  0.50742097  0.51700270
   0.47424483  0.56477480  0.41846443
   0.41458547  0.46839787  0.44785096
   0.45585373  0.55358084  0.52942426
   0.53608869  0.47466294  0.41660798
   0.49020726  0.46589508  0.59559956
Direct configuration=    11
   0.49480356  0.41032024  0.49767422
   0.56955245  0.50988806  0.51590051
   0.47699802  0.56428642  0.41871297
   0.41506426  0.46964334  0.45109777
   0.45547459  0.55321934  0.52977873
   0.53604470  0.47321733  0.41565441
   0.48925783  0.46517343  0.59469863
Direct configuration=    12
   0.49799735  0.40823403  0.49499480
   0.56078037  0.51728932  0.51259396
   0.48525758  0.56282127  0.41945861
   0.41650062  0.47337976  0.46083820
   0.45433720  0.55213481  0.53084214
   0.53591274  0.46888049  0.41279368
   0.48640956  0.46300846  0.59199586
Direct configuration=    13
   0.49682405  0.40900043  0.49597914
   0.56400295  0.51457033  0.51380868
   0.48222328  0.56335952  0.41918469
   0.41597295  0.47200712  0.45725988
   0.45475504  0.55253323  0.53045148
   0.53596122  0.47047371  0.41384462
   0.48745592  0.46380380  0.59298877
Direct configuration=    14
   0.49710562  0.40881651  0.49574291
   0.56322959  0.51522284  0.51351717
   0.48295146  0.56323035  0.41925043
   0.41609958  0.47233653  0.45811861
   0.45465477  0.55243762  0.53054523
   0.53594959  0.47009136  0.41359241
   0.48720482  0.46361294  0.59275049
Direct configuration=    15
   0.49630750  0.40786711  0.49552472
   0.56312491  0.51539111  0.51389961
   0.48246813  0.56325064  0.41996422
   0.41530121  0.47308004  0.45825141
   0.45441077  0.55160029  0.52995904
   0.53751348  0.46996947  0.41314135
   0.48806942  0.46458951  0.59277690
Direct configuration=    16
   0.49506993  0.40639497  0.49518638
   0.56296260  0.51565202  0.51449263
   0.48171869  0.56328209  0.42107102
   0.41406326  0.47423291  0.45845732
   0.45403243  0.55030193  0.52905011
   0.53993843  0.46978046  0.41244193
   0.48941007  0.46610377  0.59281786
Direct configuration=    17
   0.49535892  0.40673874  0.49526539
   0.56300050  0.51559109  0.51435415
   0.48189369  0.56327475  0.42081257
   0.41435234  0.47396370  0.45840923
   0.45412078  0.55060512  0.52926236
   0.53937217  0.46982459  0.41260525
   0.48909700  0.46575016  0.59280829
Direct configuration=    18
   0.49363622  0.40680866  0.49442762
   0.56270841  0.51590193  0.51433208
   0.48209277  0.56279718  0.42058707
   0.41374091  0.47391232  0.45830058
   0.45345879  0.55021175  0.52962142
   0.54079020  0.46995736  0.41329504
   0.49076811  0.46615893  0.59295344
Direct configuration=    19
   0.48950942  0.40697617  0.49242071
   0.56200869  0.51664656  0.51427923
   0.48256968  0.56165314  0.42004687
   0.41227618  0.47378925  0.45804029
   0.45187297  0.54926944  0.53048158
   0.54418714  0.47027542  0.41494745
   0.49477131  0.46713816  0.59330113
Direct configuration=    20
   0.48834283  0.40720017  0.49220492
   0.56145715  0.51796472  0.51445233
   0.48299680  0.56072344  0.41991317
   0.41103410  0.47457467  0.45702276
   0.45102212  0.54932771  0.53056968
   0.54523584  0.46979523  0.41554627
   0.49710657  0.46616221  0.59380812
Direct configuration=    21
   0.48793439  0.40727860  0.49212936
   0.56126405  0.51842622  0.51451294
   0.48314634  0.56039794  0.41986636
   0.41059923  0.47484965  0.45666651
   0.45072422  0.54934811  0.53060052
   0.54560301  0.46962711  0.41575592
   0.49792417  0.46582052  0.59398562
Direct configuration=    22
   0.48711751  0.40743545  0.49197826
   0.56087784  0.51934923  0.51463415
   0.48344543  0.55974693  0.41977275
   0.40972950  0.47539962  0.45595401
   0.45012843  0.54938892  0.53066221
   0.54633733  0.46929086  0.41617523
   0.49955938  0.46513713  0.59434063
Direct configuration=    23
   0.48745286  0.40822336  0.49257285
   0.56014028  0.52081048  0.51431968
   0.48392157  0.55953680  0.41984593
   0.40971404  0.47627532  0.45534525
   0.45026071  0.54851295  0.53103331
   0.54594351  0.46813537  0.41614941
   0.49976245  0.46425387  0.59425083
Direct configuration=    24
   0.48778630  0.40900678  0.49316404
   0.55940692  0.52226340  0.51400699
   0.48439499  0.55932787  0.41991870
   0.40969868  0.47714602  0.45473996
   0.45039224  0.54764198  0.53140229
   0.54555193  0.46698646  0.41612373
   0.49996435  0.46337565  0.59416153
Direct configuration=    25
   0.48731577  0.40944789  0.49356282
   0.55953329  0.52288690  0.51279016
   0.48505758  0.55952379  0.42020800
   0.41005793  0.47726649  0.45405381
   0.44970999  0.54679655  0.53203168
   0.54523713  0.46657797  0.41661535
   0.50028373  0.46324856  0.59425542
Direct configuration=    26
   0.48701134  0.40973329  0.49382083
   0.55961505  0.52329031  0.51200288
   0.48548626  0.55965055  0.42039517
   0.41029037  0.47734443  0.45360988
   0.44926858  0.54624956  0.53243890
   0.54503345  0.46631368  0.41693342
   0.50049037  0.46316633  0.59431617
Direct configuration=    27
   0.48648467  0.40960905  0.49422047
   0.55962810  0.52362365  0.51165564
   0.48578884  0.56004773  0.42084295
   0.41049990  0.47743007  0.45272680
   0.44883617  0.54561996  0.53268881
   0.54480572  0.46593410  0.41700755
   0.50115202  0.46348359  0.59437503
Direct configuration=    28
   0.48490466  0.40923633  0.49541938
   0.55966728  0.52462366  0.51061394
   0.48669657  0.56123929  0.42218628
   0.41112852  0.47768699  0.45007756
   0.44753893  0.54373116  0.53343856
   0.54412251  0.46479534  0.41722992
   0.50313695  0.46443538  0.59455161
Direct configuration=    29
   0.48174464  0.40849089  0.49781722
   0.55974563  0.52662370  0.50853054
   0.48851202  0.56362241  0.42487294
   0.41238576  0.47820082  0.44477908
   0.44494444  0.53995355  0.53493806
   0.54275611  0.46251782  0.41767465
   0.50710681  0.46633895  0.59490476
Direct configuration=    30
   0.48354488  0.40891556  0.49645119
   0.55970099  0.52548429  0.50971744
   0.48747777  0.56226476  0.42334237
   0.41166952  0.47790810  0.44779759
   0.44642250  0.54210563  0.53408380
   0.54353454  0.46381531  0.41742129
   0.50484520  0.46525450  0.59470357
Direct configuration=    31
   0.48309038  0.40899819  0.49688259
   0.55956751  0.52557207  0.50969833
   0.48759171  0.56271055  0.42378014
   0.41209249  0.47822054  0.44680350
   0.44599655  0.54126820  0.53375625
   0.54293321  0.46343979  0.41776848
   0.50592356  0.46553882  0.59482796
Direct configuration=    32
   0.48172688  0.40924607  0.49817681
   0.55916708  0.52583540  0.50964101
   0.48793353  0.56404791  0.42509346
   0.41336139  0.47915787  0.44382121
   0.44471870  0.53875591  0.53277358
   0.54112921  0.46231321  0.41881005
   0.50915863  0.46639178  0.59520111
Direct configuration=    33
   0.48152922  0.40986147  0.49859321
   0.55926381  0.52566948  0.50957296
   0.48800885  0.56420839  0.42500184
   0.41358843  0.47906210  0.44318898
   0.44460009  0.53819224  0.53284892
   0.54069657  0.46240603  0.41895995
   0.50950845  0.46634844  0.59535140
Direct configuration=    34
   0.48123088  0.41079036  0.49922172
   0.55940982  0.52541905  0.50947024
   0.48812253  0.56445062  0.42486353
   0.41393112  0.47891756  0.44223468
   0.44442106  0.53734142  0.53296264
   0.54004355  0.46254612  0.41918620
   0.51003646  0.46628302  0.59557824
Direct configuration=    35
   0.48115178  0.41133646  0.49957302
   0.55953822  0.52533750  0.50929131
   0.48807852  0.56443794  0.42519362
   0.41397094  0.47889594  0.44167981
   0.44440301  0.53694423  0.53291791
   0.53994098  0.46249122  0.41876652
   0.51011197  0.46630487  0.59609506
Direct configuration=    36
   0.48091448  0.41297475  0.50062689
   0.55992341  0.52509283  0.50875454
   0.48794650  0.56439990  0.42618389
   0.41409040  0.47883108  0.44001520
   0.44434883  0.53575267  0.53278372
   0.53963328  0.46232652  0.41750748
   0.51033851  0.46637040  0.59764554
Direct configuration=    37
   0.48097019  0.41338353  0.50061359
   0.55996205  0.52483961  0.50866878
   0.48786368  0.56437063  0.42656485
   0.41410403  0.47885570  0.43964098
   0.44430303  0.53547136  0.53272783
   0.53955802  0.46219468  0.41725834
   0.51043442  0.46663265  0.59804289
Direct configuration=    38
   0.48113730  0.41460985  0.50057371
   0.56007797  0.52407994  0.50841148
   0.48761523  0.56428281  0.42770770
   0.41414493  0.47892956  0.43851834
   0.44416560  0.53462746  0.53256015
   0.53933224  0.46179915  0.41651093
   0.51072214  0.46741939  0.59923494
Direct configuration=    39
   0.48147154  0.41706248  0.50049394
   0.56030980  0.52256059  0.50789689
   0.48711833  0.56410718  0.42999342
   0.41422672  0.47907728  0.43627304
   0.44389075  0.53293965  0.53222480
   0.53888068  0.46100810  0.41501610
   0.51129759  0.46899287  0.60161905
Direct configuration=    40
   0.48123211  0.41530553  0.50055108
   0.56014373  0.52364898  0.50826552
   0.48747429  0.56423299  0.42835604
   0.41416813  0.47897146  0.43788147
   0.44408764  0.53414872  0.53246503
   0.53920416  0.46157477  0.41608692
   0.51088536  0.46786570  0.59991118
Direct configuration=    41
   0.48138753  0.41557920  0.50068434
   0.56026383  0.52302821  0.50824618
   0.48755614  0.56433501  0.42870292
   0.41413587  0.47893586  0.43741303
   0.44377299  0.53380420  0.53264105
   0.53906296  0.46160937  0.41579848
   0.51101609  0.46845630  0.60003125
Direct configuration=    42
   0.48163844  0.41602098  0.50089945
   0.56045771  0.52202610  0.50821495
   0.48768828  0.56449970  0.42926291
   0.41408379  0.47887840  0.43665682
   0.44326505  0.53324803  0.53292521
   0.53883503  0.46166523  0.41533285
   0.51122712  0.46940970  0.60022507
Direct configuration=    43
   0.48173152  0.41612537  0.50113368
   0.56057301  0.52147460  0.50802276
   0.48795452  0.56473851  0.42982754
   0.41442653  0.47872020  0.43645996
   0.44274719  0.53299849  0.53267193
   0.53838481  0.46180635  0.41499969
   0.51137783  0.46988463  0.60040169
Direct configuration=    44
   0.48199643  0.41642244  0.50180026
   0.56090116  0.51990514  0.50747580
   0.48871220  0.56541812  0.43143439
   0.41540190  0.47826997  0.43589973
   0.44127346  0.53228832  0.53195114
   0.53710354  0.46220796  0.41405160
   0.51180672  0.47123620  0.60090434
Direct configuration=    45
   0.48216952  0.41651396  0.50206562
   0.56103927  0.51958233  0.50745179
   0.48889586  0.56570619  0.43186093
   0.41571725  0.47804313  0.43556139
   0.44099947  0.53216043  0.53190065
   0.53656689  0.46218314  0.41362894
   0.51180716  0.47155897  0.60104792
Direct configuration=    46
   0.48268877  0.41678853  0.50286171
   0.56145362  0.51861390  0.50737979
   0.48944682  0.56657043  0.43314058
   0.41666327  0.47736261  0.43454636
   0.44017752  0.53177673  0.53174919
   0.53495692  0.46210867  0.41236097
   0.51180849  0.47252728  0.60147865
Direct configuration=    47
   0.48298716  0.41709607  0.50303890
   0.56165527  0.51830398  0.50711093
   0.48951205  0.56669523  0.43354721
   0.41682861  0.47723539  0.43427022
   0.44003754  0.53162335  0.53170627
   0.53456888  0.46208229  0.41214054
   0.51160590  0.47271184  0.60170318
Direct configuration=    48
   0.48357613  0.41770312  0.50338867
   0.56205329  0.51769224  0.50658024
   0.48964082  0.56694158  0.43434983
   0.41715497  0.47698427  0.43372515
   0.43976125  0.53132058  0.53162155
   0.53380294  0.46203022  0.41170543
   0.51120601  0.47307615  0.60214638
Direct configuration=    49
   0.48371508  0.41800838  0.50348500
   0.56234316  0.51736038  0.50648914
   0.48963421  0.56698110  0.43464681
   0.41702595  0.47694228  0.43369075
   0.43958549  0.53110304  0.53153611
   0.53382738  0.46203373  0.41142520
   0.51106415  0.47331925  0.60224424
Direct configuration=    50
   0.48381434  0.41822643  0.50355380
   0.56255022  0.51712333  0.50642407
   0.48962949  0.56700933  0.43485895
   0.41693378  0.47691228  0.43366618
   0.43945994  0.53094764  0.53147508
   0.53384484  0.46203624  0.41122503
   0.51096281  0.47349290  0.60231414
