  10  10   0   0
  0.1094276E+04  0.2262984E-08  0.2238829E-08  0.2159854E-08  0.5000000E-15
   1.0000000000000000E-004
  CAR 
 unknown system                          
      2.12402811    -11.96220515  301     -4.16111075      1.00000000
    -11.962  0.0000E+00  0.0000E+00  0.0000E+00  0.0000E+00
    -11.915  0.0000E+00  0.0000E+00  0.0000E+00  0.0000E+00
    -11.868  0.0000E+00  0.0000E+00  0.0000E+00  0.0000E+00
    -11.821  0.0000E+00  0.0000E+00  0.0000E+00  0.0000E+00
    -11.774  0.0000E+00  0.0000E+00  0.0000E+00  0.0000E+00
    -11.727  0.0000E+00  0.0000E+00  0.0000E+00  0.0000E+00
    -11.680  0.0000E+00  0.0000E+00  0.0000E+00  0.0000E+00
    -11.634  0.0000E+00  0.0000E+00  0.0000E+00  0.0000E+00
    -11.587 -0.1098E-29  0.0000E+00 -0.5154E-31  0.0000E+00
    -11.540 -0.4461E-28  0.0000E+00 -0.2146E-29  0.0000E+00
    -11.493 -0.1657E-26 -0.2455E-29 -0.7997E-28 -0.1153E-30
    -11.446 -0.5508E-25 -0.9740E-28 -0.2666E-26 -0.4688E-29
    -11.399 -0.1637E-23 -0.3534E-26 -0.7954E-25 -0.1706E-27
    -11.352 -0.4352E-22 -0.1147E-24 -0.2123E-23 -0.5555E-26
    -11.305 -0.1034E-20 -0.3328E-23 -0.5069E-22 -0.1618E-24
    -11.258 -0.2198E-19 -0.8637E-22 -0.1083E-20 -0.4217E-23
    -11.211 -0.4174E-18 -0.2004E-20 -0.2068E-19 -0.9833E-22
    -11.164 -0.7084E-17 -0.4158E-19 -0.3533E-18 -0.2051E-20
    -11.117 -0.1039E-15 -0.7710E-18 -0.5232E-17 -0.3825E-19
    -11.070 -0.1408E-14 -0.1278E-16 -0.7136E-16 -0.6382E-18
    -11.023 -0.1699E-13 -0.1833E-15 -0.8692E-15 -0.9243E-17
    -10.976 -0.1829E-12 -0.2419E-14 -0.9458E-14 -0.1228E-15
    -10.929 -0.1756E-11 -0.2849E-13 -0.9192E-13 -0.1460E-14
    -10.882 -0.1503E-10 -0.2993E-12 -0.7977E-12 -0.1551E-13
    -10.835 -0.1146E-09 -0.2804E-11 -0.6180E-11 -0.1472E-12
    -10.788 -0.7781E-09 -0.2342E-10 -0.4271E-10 -0.1247E-11
    -10.741 -0.4697E-08 -0.1742E-09 -0.2633E-09 -0.9426E-11
    -10.694 -0.2518E-07 -0.1153E-08 -0.1446E-08 -0.6358E-10
    -10.647 -0.1197E-06 -0.6789E-08 -0.7068E-08 -0.3823E-09
    -10.601 -0.5039E-06 -0.3548E-07 -0.3073E-07 -0.2048E-08
    -10.554 -0.1872E-05 -0.1644E-06 -0.1186E-06 -0.9768E-08
    -10.507 -0.6112E-05 -0.6739E-06 -0.4056E-06 -0.4141E-07
    -10.460 -0.1745E-04 -0.2436E-05 -0.1225E-05 -0.1558E-06
    -10.413 -0.4320E-04 -0.7735E-05 -0.3254E-05 -0.5190E-06
    -10.366 -0.9139E-04 -0.2144E-04 -0.7545E-05 -0.1526E-05
    -10.319 -0.1607E-03 -0.5140E-04 -0.1509E-04 -0.3939E-05
    -10.272 -0.2208E-03 -0.1048E-03 -0.2546E-04 -0.8862E-05
    -10.225 -0.1901E-03 -0.1762E-03 -0.3439E-04 -0.1714E-04
    -10.178  0.6175E-04 -0.2257E-03 -0.3149E-04 -0.2773E-04
    -10.131  0.6609E-03 -0.1599E-03 -0.4522E-06 -0.3524E-04
    -10.084  0.1626E-02  0.1574E-03  0.7591E-04 -0.2785E-04
    -10.037  0.2780E-02  0.8389E-03  0.2064E-03  0.1154E-04
     -9.990  0.3763E-02  0.1867E-02  0.3831E-03  0.9919E-04
     -9.943  0.4196E-02  0.3018E-02  0.5801E-03  0.2409E-03
     -9.896  0.3896E-02  0.3912E-02  0.7631E-03  0.4246E-03
     -9.849  0.2992E-02  0.4194E-02  0.9035E-03  0.6215E-03
     -9.802  0.1840E-02  0.3744E-02  0.9899E-03  0.7973E-03
     -9.755  0.8182E-03  0.2753E-02  0.1028E-02  0.9265E-03
     -9.708  0.1459E-03  0.1600E-02  0.1035E-02  0.1002E-02
     -9.661 -0.1638E-03  0.6421E-03  0.1027E-02  0.1032E-02
     -9.614 -0.2254E-03  0.5209E-04  0.1017E-02  0.1034E-02
     -9.568 -0.1745E-03 -0.1928E-03  0.1009E-02  0.1025E-02
     -9.521 -0.1033E-03 -0.2200E-03  0.1004E-02  0.1015E-02
     -9.474 -0.5043E-04 -0.1590E-03  0.1001E-02  0.1007E-02
     -9.427 -0.2096E-04 -0.8995E-04  0.1001E-02  0.1003E-02
     -9.380 -0.7536E-05 -0.4235E-04  0.1000E-02  0.1001E-02
     -9.333 -0.2366E-05 -0.1705E-04  0.1000E-02  0.1000E-02
     -9.286 -0.6526E-06 -0.5951E-05  0.1000E-02  0.1000E-02
     -9.239 -0.1590E-06 -0.1817E-05  0.1000E-02  0.1000E-02
     -9.192 -0.3558E-07 -0.4877E-06  0.1000E-02  0.1000E-02
     -9.145 -0.1479E-07 -0.1155E-06  0.1000E-02  0.1000E-02
     -9.098 -0.4397E-07 -0.2423E-07  0.1000E-02  0.1000E-02
     -9.051 -0.1973E-06 -0.4506E-08  0.1000E-02  0.1000E-02
     -9.004 -0.8031E-06 -0.7469E-09  0.1000E-02  0.1000E-02
     -8.957 -0.2892E-05 -0.1307E-09  0.9998E-03  0.1000E-02
     -8.910 -0.9179E-05 -0.1742E-09  0.9994E-03  0.1000E-02
     -8.863 -0.2555E-04 -0.1069E-08  0.9982E-03  0.1000E-02
     -8.816 -0.6192E-04 -0.6334E-08  0.9953E-03  0.1000E-02
     -8.769 -0.1292E-03 -0.3342E-07  0.9892E-03  0.1000E-02
     -8.722 -0.2267E-03 -0.1565E-06  0.9786E-03  0.1000E-02
     -8.675 -0.3187E-03 -0.6498E-06  0.9636E-03  0.1000E-02
     -8.628 -0.3077E-03 -0.2385E-05  0.9492E-03  0.9998E-03
     -8.582 -0.3172E-04 -0.7718E-05  0.9477E-03  0.9995E-03
     -8.535  0.6844E-03 -0.2192E-04  0.9798E-03  0.9985E-03
     -8.488  0.1925E-02 -0.5426E-04  0.1070E-02  0.9959E-03
     -8.441  0.3579E-02 -0.1158E-03  0.1238E-02  0.9905E-03
     -8.394  0.5322E-02 -0.2087E-03  0.1488E-02  0.9807E-03
     -8.347  0.6733E-02 -0.3037E-03  0.1804E-02  0.9664E-03
     -8.300  0.7495E-02 -0.3123E-03  0.2156E-02  0.9517E-03
     -8.253  0.7534E-02 -0.7770E-04  0.2510E-02  0.9481E-03
     -8.206  0.7030E-02  0.5844E-03  0.2840E-02  0.9755E-03
     -8.159  0.6292E-02  0.1784E-02  0.3135E-02  0.1059E-02
     -8.112  0.5635E-02  0.3437E-02  0.3400E-02  0.1221E-02
     -8.065  0.5321E-02  0.5212E-02  0.3650E-02  0.1465E-02
     -8.018  0.5521E-02  0.6608E-02  0.3909E-02  0.1776E-02
     -7.971  0.6229E-02  0.7172E-02  0.4202E-02  0.2112E-02
     -7.924  0.7179E-02  0.6730E-02  0.4539E-02  0.2428E-02
     -7.877  0.7923E-02  0.5514E-02  0.4911E-02  0.2687E-02
     -7.830  0.8126E-02  0.4068E-02  0.5292E-02  0.2878E-02
     -7.783  0.7854E-02  0.2984E-02  0.5661E-02  0.3018E-02
     -7.736  0.7575E-02  0.2593E-02  0.6017E-02  0.3140E-02
     -7.689  0.7817E-02  0.2830E-02  0.6384E-02  0.3273E-02
     -7.642  0.8767E-02  0.3366E-02  0.6795E-02  0.3431E-02
     -7.595  0.1015E-01  0.3923E-02  0.7272E-02  0.3615E-02
     -7.549  0.1142E-01  0.4495E-02  0.7808E-02  0.3826E-02
     -7.502  0.1220E-01  0.5269E-02  0.8381E-02  0.4074E-02
     -7.455  0.1239E-01  0.6317E-02  0.8963E-02  0.4370E-02
     -7.408  0.1223E-01  0.7348E-02  0.9537E-02  0.4715E-02
     -7.361  0.1200E-01  0.7800E-02  0.1010E-01  0.5082E-02
     -7.314  0.1187E-01  0.7234E-02  0.1066E-01  0.5421E-02
     -7.267  0.1185E-01  0.5714E-02  0.1121E-01  0.5690E-02
     -7.220  0.1188E-01  0.3852E-02  0.1177E-01  0.5871E-02
     -7.173  0.1187E-01  0.2492E-02  0.1233E-01  0.5988E-02
     -7.126  0.1170E-01  0.2277E-02  0.1288E-01  0.6094E-02
     -7.079  0.1122E-01  0.3373E-02  0.1341E-01  0.6253E-02
     -7.032  0.1029E-01  0.5466E-02  0.1389E-01  0.6509E-02
     -6.985  0.8996E-02  0.7947E-02  0.1431E-01  0.6883E-02
     -6.938  0.7671E-02  0.1016E-01  0.1467E-01  0.7360E-02
     -6.891  0.6807E-02  0.1162E-01  0.1499E-01  0.7905E-02
     -6.844  0.6786E-02  0.1213E-01  0.1531E-01  0.8475E-02
     -6.797  0.7693E-02  0.1183E-01  0.1567E-01  0.9030E-02
     -6.750  0.9337E-02  0.1108E-01  0.1611E-01  0.9550E-02
     -6.703  0.1139E-01  0.1030E-01  0.1664E-01  0.1003E-01
     -6.656  0.1351E-01  0.9826E-02  0.1728E-01  0.1050E-01
     -6.609  0.1537E-01  0.9822E-02  0.1800E-01  0.1096E-01
     -6.562  0.1671E-01  0.1030E-01  0.1878E-01  0.1144E-01
     -6.516  0.1736E-01  0.1118E-01  0.1960E-01  0.1197E-01
     -6.469  0.1735E-01  0.1231E-01  0.2041E-01  0.1254E-01
     -6.422  0.1682E-01  0.1350E-01  0.2120E-01  0.1318E-01
     -6.375  0.1598E-01  0.1461E-01  0.2195E-01  0.1386E-01
     -6.328  0.1490E-01  0.1560E-01  0.2265E-01  0.1460E-01
     -6.281  0.1360E-01  0.1649E-01  0.2329E-01  0.1537E-01
     -6.234  0.1208E-01  0.1728E-01  0.2386E-01  0.1618E-01
     -6.187  0.1043E-01  0.1774E-01  0.2435E-01  0.1701E-01
     -6.140  0.8838E-02  0.1753E-01  0.2477E-01  0.1784E-01
     -6.093  0.7493E-02  0.1636E-01  0.2512E-01  0.1861E-01
     -6.046  0.6500E-02  0.1429E-01  0.2542E-01  0.1928E-01
     -5.999  0.5841E-02  0.1183E-01  0.2570E-01  0.1983E-01
     -5.952  0.5420E-02  0.9629E-02  0.2595E-01  0.2028E-01
     -5.905  0.5183E-02  0.8084E-02  0.2619E-01  0.2066E-01
     -5.858  0.5210E-02  0.7096E-02  0.2644E-01  0.2100E-01
     -5.811  0.5750E-02  0.6274E-02  0.2671E-01  0.2129E-01
     -5.764  0.7146E-02  0.5332E-02  0.2704E-01  0.2154E-01
     -5.717  0.9695E-02  0.4396E-02  0.2750E-01  0.2175E-01
     -5.670  0.1348E-01  0.3953E-02  0.2813E-01  0.2193E-01
     -5.623  0.1825E-01  0.4496E-02  0.2899E-01  0.2214E-01
     -5.576  0.2338E-01  0.6145E-02  0.3009E-01  0.2243E-01
     -5.529  0.2802E-01  0.8532E-02  0.3140E-01  0.2283E-01
     -5.483  0.3137E-01  0.1101E-01  0.3288E-01  0.2335E-01
     -5.436  0.3298E-01  0.1301E-01  0.3442E-01  0.2396E-01
     -5.389  0.3291E-01  0.1428E-01  0.3597E-01  0.2463E-01
     -5.342  0.3164E-01  0.1485E-01  0.3746E-01  0.2533E-01
     -5.295  0.2971E-01  0.1493E-01  0.3885E-01  0.2603E-01
     -5.248  0.2751E-01  0.1475E-01  0.4014E-01  0.2672E-01
     -5.201  0.2526E-01  0.1459E-01  0.4133E-01  0.2741E-01
     -5.154  0.2318E-01  0.1462E-01  0.4242E-01  0.2809E-01
     -5.107  0.2147E-01  0.1488E-01  0.4342E-01  0.2879E-01
     -5.060  0.2031E-01  0.1511E-01  0.4438E-01  0.2950E-01
     -5.013  0.1963E-01  0.1500E-01  0.4530E-01  0.3021E-01
     -4.966  0.1917E-01  0.1449E-01  0.4620E-01  0.3089E-01
     -4.919  0.1866E-01  0.1395E-01  0.4708E-01  0.3154E-01
     -4.872  0.1803E-01  0.1400E-01  0.4792E-01  0.3220E-01
     -4.825  0.1744E-01  0.1504E-01  0.4874E-01  0.3291E-01
     -4.778  0.1705E-01  0.1690E-01  0.4954E-01  0.3370E-01
     -4.731  0.1672E-01  0.1883E-01  0.5033E-01  0.3458E-01
     -4.684  0.1602E-01  0.2004E-01  0.5108E-01  0.3552E-01
     -4.637  0.1457E-01  0.2020E-01  0.5176E-01  0.3647E-01
     -4.590  0.1235E-01  0.1960E-01  0.5234E-01  0.3739E-01
     -4.543  0.9820E-02  0.1896E-01  0.5281E-01  0.3828E-01
     -4.497  0.7547E-02  0.1888E-01  0.5316E-01  0.3917E-01
     -4.450  0.5844E-02  0.1952E-01  0.5343E-01  0.4009E-01
     -4.403  0.4624E-02  0.2049E-01  0.5365E-01  0.4105E-01
     -4.356  0.3596E-02  0.2116E-01  0.5382E-01  0.4204E-01
     -4.309  0.2551E-02  0.2111E-01  0.5394E-01  0.4303E-01
     -4.262  0.1507E-02  0.2043E-01  0.5401E-01  0.4399E-01
     -4.215  0.6256E-03  0.1964E-01  0.5404E-01  0.4492E-01
     -4.168  0.4571E-04  0.1942E-01  0.5404E-01  0.4583E-01
     -4.121 -0.2191E-03  0.2008E-01  0.5403E-01  0.4677E-01
     -4.074 -0.2606E-03  0.2147E-01  0.5402E-01  0.4778E-01
     -4.027 -0.1980E-03  0.2304E-01  0.5401E-01  0.4886E-01
     -3.980 -0.1178E-03  0.2403E-01  0.5400E-01  0.4999E-01
     -3.933 -0.5832E-04  0.2374E-01  0.5400E-01  0.5110E-01
     -3.886 -0.2465E-04  0.2168E-01  0.5400E-01  0.5212E-01
     -3.839 -0.9034E-05  0.1788E-01  0.5400E-01  0.5296E-01
     -3.792 -0.2926E-05  0.1295E-01  0.5400E-01  0.5357E-01
     -3.745 -0.9957E-06  0.7890E-02  0.5400E-01  0.5394E-01
     -3.698 -0.9848E-06  0.3686E-02  0.5400E-01  0.5411E-01
     -3.651 -0.2995E-05  0.8833E-03  0.5400E-01  0.5415E-01
     -3.604 -0.9802E-05 -0.5230E-03  0.5400E-01  0.5413E-01
     -3.557 -0.2849E-04 -0.9222E-03  0.5400E-01  0.5409E-01
     -3.510 -0.7205E-04 -0.7993E-03  0.5399E-01  0.5405E-01
     -3.464 -0.1565E-03 -0.5236E-03  0.5399E-01  0.5402E-01
     -3.417 -0.2851E-03 -0.2857E-03  0.5397E-01  0.5401E-01
     -3.370 -0.4135E-03 -0.1404E-03  0.5395E-01  0.5400E-01
     -3.323 -0.4065E-03 -0.7993E-04  0.5394E-01  0.5400E-01
     -3.276 -0.2800E-04 -0.8541E-04  0.5393E-01  0.5400E-01
     -3.229  0.9796E-03 -0.1463E-03  0.5398E-01  0.5399E-01
     -3.182  0.2712E-02 -0.2501E-03  0.5411E-01  0.5398E-01
     -3.135  0.4908E-02 -0.3510E-03  0.5434E-01  0.5396E-01
     -3.088  0.6933E-02 -0.3348E-03  0.5466E-01  0.5394E-01
     -3.041  0.8033E-02 -0.1030E-04  0.5504E-01  0.5394E-01
     -2.994  0.7776E-02  0.8314E-03  0.5541E-01  0.5398E-01
     -2.947  0.6362E-02  0.2284E-02  0.5570E-01  0.5409E-01
     -2.900  0.4536E-02  0.4178E-02  0.5592E-01  0.5429E-01
     -2.853  0.3149E-02  0.6048E-02  0.5607E-01  0.5457E-01
     -2.806  0.2655E-02  0.7293E-02  0.5619E-01  0.5491E-01
     -2.759  0.2900E-02  0.7490E-02  0.5633E-01  0.5526E-01
     -2.712  0.3323E-02  0.6664E-02  0.5648E-01  0.5558E-01
     -2.665  0.3390E-02  0.5311E-02  0.5664E-01  0.5583E-01
     -2.618  0.2980E-02  0.4116E-02  0.5678E-01  0.5602E-01
     -2.571  0.2455E-02  0.3539E-02  0.5690E-01  0.5619E-01
     -2.524  0.2407E-02  0.3563E-02  0.5701E-01  0.5635E-01
     -2.477  0.3230E-02  0.3758E-02  0.5716E-01  0.5653E-01
     -2.431  0.4819E-02  0.3623E-02  0.5739E-01  0.5670E-01
     -2.384  0.6565E-02  0.2920E-02  0.5770E-01  0.5684E-01
     -2.337  0.7669E-02  0.1809E-02  0.5806E-01  0.5692E-01
     -2.290  0.7586E-02  0.7386E-03  0.5841E-01  0.5696E-01
     -2.243  0.6308E-02  0.2261E-03  0.5871E-01  0.5697E-01
     -2.196  0.4319E-02  0.6543E-03  0.5891E-01  0.5700E-01
     -2.149  0.2286E-02  0.2117E-02  0.5902E-01  0.5710E-01
     -2.102  0.7135E-03  0.4312E-02  0.5905E-01  0.5730E-01
     -2.055 -0.2206E-03  0.6560E-02  0.5904E-01  0.5761E-01
     -2.008 -0.5909E-03  0.8029E-02  0.5901E-01  0.5799E-01
     -1.961 -0.5379E-03  0.8131E-02  0.5899E-01  0.5837E-01
     -1.914 -0.1293E-03  0.6840E-02  0.5898E-01  0.5869E-01
     -1.867  0.6383E-03  0.4692E-02  0.5901E-01  0.5891E-01
     -1.820  0.1722E-02  0.2456E-02  0.5909E-01  0.5902E-01
     -1.773  0.2914E-02  0.7268E-03  0.5923E-01  0.5906E-01
     -1.726  0.3857E-02 -0.2798E-03  0.5941E-01  0.5904E-01
     -1.679  0.4195E-02 -0.6472E-03  0.5961E-01  0.5901E-01
     -1.632  0.3796E-02 -0.5411E-03  0.5979E-01  0.5899E-01
     -1.585  0.2832E-02 -0.5178E-04  0.5992E-01  0.5899E-01
     -1.538  0.1677E-02  0.8000E-03  0.6000E-01  0.5902E-01
     -1.491  0.6967E-03  0.1938E-02  0.6003E-01  0.5911E-01
     -1.444  0.7658E-04  0.3120E-02  0.6003E-01  0.5926E-01
     -1.398 -0.1986E-03  0.3973E-02  0.6003E-01  0.5945E-01
     -1.351 -0.2616E-03  0.4174E-02  0.6001E-01  0.5964E-01
     -1.304 -0.2591E-03  0.3643E-02  0.6000E-01  0.5982E-01
     -1.257 -0.2899E-03  0.2602E-02  0.5999E-01  0.5994E-01
     -1.210 -0.3799E-03  0.1431E-02  0.5997E-01  0.6000E-01
     -1.163 -0.4645E-03  0.4557E-03  0.5995E-01  0.6003E-01
     -1.116 -0.3729E-03 -0.1900E-03  0.5993E-01  0.6002E-01
     -1.069  0.1477E-03 -0.5390E-03  0.5994E-01  0.5999E-01
     -1.022  0.1318E-02 -0.6546E-03  0.6000E-01  0.5996E-01
     -0.975  0.3142E-02 -0.4967E-03  0.6015E-01  0.5994E-01
     -0.928  0.5292E-02  0.1060E-03  0.6039E-01  0.5994E-01
     -0.881  0.7198E-02  0.1338E-02  0.6073E-01  0.6001E-01
     -0.834  0.8383E-02  0.3188E-02  0.6113E-01  0.6015E-01
     -0.787  0.8778E-02  0.5309E-02  0.6154E-01  0.6040E-01
     -0.740  0.8723E-02  0.7117E-02  0.6195E-01  0.6074E-01
     -0.693  0.8625E-02  0.8138E-02  0.6235E-01  0.6112E-01
     -0.646  0.8560E-02  0.8344E-02  0.6275E-01  0.6151E-01
     -0.599  0.8218E-02  0.8169E-02  0.6314E-01  0.6190E-01
     -0.552  0.7258E-02  0.8122E-02  0.6348E-01  0.6228E-01
     -0.505  0.5718E-02  0.8313E-02  0.6375E-01  0.6267E-01
     -0.458  0.4092E-02  0.8345E-02  0.6394E-01  0.6306E-01
     -0.411  0.3011E-02  0.7675E-02  0.6408E-01  0.6342E-01
     -0.365  0.2824E-02  0.6122E-02  0.6422E-01  0.6371E-01
     -0.318  0.3417E-02  0.4092E-02  0.6438E-01  0.6390E-01
     -0.271  0.4361E-02  0.2327E-02  0.6458E-01  0.6401E-01
     -0.224  0.5208E-02  0.1450E-02  0.6483E-01  0.6408E-01
     -0.177  0.5675E-02  0.1627E-02  0.6509E-01  0.6415E-01
     -0.130  0.5647E-02  0.2561E-02  0.6536E-01  0.6427E-01
     -0.083  0.5112E-02  0.3739E-02  0.6560E-01  0.6445E-01
     -0.036  0.4138E-02  0.4727E-02  0.6579E-01  0.6467E-01
      0.011  0.2900E-02  0.5324E-02  0.6593E-01  0.6492E-01
      0.058  0.1661E-02  0.5511E-02  0.6601E-01  0.6518E-01
      0.105  0.6689E-03  0.5311E-02  0.6604E-01  0.6543E-01
      0.152  0.5210E-04  0.4717E-02  0.6604E-01  0.6565E-01
      0.199 -0.2143E-03  0.3756E-02  0.6603E-01  0.6583E-01
      0.246 -0.2506E-03  0.2572E-02  0.6602E-01  0.6595E-01
      0.293 -0.1867E-03  0.1412E-02  0.6601E-01  0.6601E-01
      0.340 -0.1090E-03  0.5129E-03  0.6600E-01  0.6604E-01
      0.387 -0.5302E-04 -0.1952E-04  0.6600E-01  0.6604E-01
      0.434 -0.2204E-04 -0.2274E-03  0.6600E-01  0.6603E-01
      0.481 -0.7945E-05 -0.2355E-03  0.6600E-01  0.6602E-01
      0.528 -0.2503E-05 -0.1658E-03  0.6600E-01  0.6601E-01
      0.575 -0.6933E-06 -0.9289E-04  0.6600E-01  0.6600E-01
      0.621 -0.1694E-06 -0.4360E-04  0.6600E-01  0.6600E-01
      0.668 -0.3663E-07 -0.1755E-04  0.6600E-01  0.6600E-01
      0.715 -0.7023E-08 -0.6131E-05  0.6600E-01  0.6600E-01
      0.762 -0.1196E-08 -0.1875E-05  0.6600E-01  0.6600E-01
      0.809 -0.1810E-09 -0.5045E-06  0.6600E-01  0.6600E-01
      0.856 -0.2438E-10 -0.1198E-06  0.6600E-01  0.6600E-01
      0.903 -0.2926E-11 -0.2519E-07  0.6600E-01  0.6600E-01
      0.950 -0.3129E-12 -0.4698E-08  0.6600E-01  0.6600E-01
      0.997 -0.2985E-13 -0.7782E-09  0.6600E-01  0.6600E-01
      1.044 -0.2539E-14 -0.1146E-09  0.6600E-01  0.6600E-01
      1.091 -0.1939E-15 -0.1503E-10  0.6600E-01  0.6600E-01
      1.138 -0.1419E-16 -0.1756E-11  0.6600E-01  0.6600E-01
      1.185  0.0000E+00 -0.1829E-12  0.6600E-01  0.6600E-01
      1.232  0.0000E+00 -0.1699E-13  0.6600E-01  0.6600E-01
      1.279  0.0000E+00 -0.1409E-14  0.6600E-01  0.6600E-01
      1.326  0.0000E+00 -0.9931E-16  0.6600E-01  0.6600E-01
      1.373  0.0000E+00 -0.9458E-17  0.6600E-01  0.6600E-01
      1.420  0.0000E+00  0.0000E+00  0.6600E-01  0.6600E-01
      1.467  0.0000E+00  0.0000E+00  0.6600E-01  0.6600E-01
      1.514  0.0000E+00  0.0000E+00  0.6600E-01  0.6600E-01
      1.561  0.0000E+00  0.0000E+00  0.6600E-01  0.6600E-01
      1.608  0.0000E+00  0.0000E+00  0.6600E-01  0.6600E-01
      1.654  0.0000E+00  0.0000E+00  0.6600E-01  0.6600E-01
      1.701  0.0000E+00  0.0000E+00  0.6600E-01  0.6600E-01
      1.748  0.0000E+00  0.0000E+00  0.6600E-01  0.6600E-01
      1.795  0.0000E+00  0.0000E+00  0.6600E-01  0.6600E-01
      1.842  0.0000E+00  0.0000E+00  0.6600E-01  0.6600E-01
      1.889  0.0000E+00  0.0000E+00  0.6600E-01  0.6600E-01
      1.936  0.0000E+00  0.0000E+00  0.6600E-01  0.6600E-01
      1.983  0.0000E+00  0.0000E+00  0.6600E-01  0.6600E-01
      2.030  0.0000E+00  0.0000E+00  0.6600E-01  0.6600E-01
      2.077  0.0000E+00  0.0000E+00  0.6600E-01  0.6600E-01
      2.124  0.0000E+00  0.0000E+00  0.6600E-01  0.6600E-01
