   10   10 1000    2
  0.1094276E+04  0.2262984E-08  0.2238829E-08  0.2159854E-08  0.5000000E-15
   1.0000000000000000E-004
  CAR 
 unknown system                          
    100      1     66
 
  0.1262379E-14  0.1262379E-14  0.1262379E-14  0.1000000E+01
    1       -9.962205     -9.878317   1.000000   1.000000
    2       -8.380863     -8.044888   1.000000   1.000000
    3       -8.270418     -7.932899   1.000000   1.000000
    4       -8.100239     -7.632173   1.000000   1.000000
    5       -7.885799     -7.397273   1.000000   1.000000
    6       -7.854725     -7.341469   1.000000   1.000000
    7       -7.651693     -7.019645   1.000000   1.000000
    8       -7.569569     -6.902761   1.000000   1.000000
    9       -7.501574     -6.871656   1.000000   1.000000
   10       -7.421199     -6.760230   1.000000   1.000000
   11       -7.301204     -6.657498   1.000000   1.000000
   12       -7.267971     -6.554214   1.000000   1.000000
   13       -7.139482     -6.461733   1.000000   1.000000
   14       -7.076714     -6.404706   1.000000   1.000000
   15       -6.984669     -6.317690   1.000000   1.000000
   16       -6.796898     -6.295539   1.000000   1.000000
   17       -6.725599     -6.187764   1.000000   1.000000
   18       -6.612670     -6.156943   1.000000   1.000000
   19       -6.563628     -6.098302   1.000000   1.000000
   20       -6.561137     -6.073576   1.000000   1.000000
   21       -6.447934     -5.901047   1.000000   1.000000
   22       -6.414451     -5.791183   1.000000   1.000000
   23       -6.335027     -5.530515   1.000000   1.000000
   24       -6.268523     -5.483996   1.000000   1.000000
   25       -6.181292     -5.400459   1.000000   1.000000
   26       -6.028523     -5.328303   1.000000   1.000000
   27       -5.866527     -5.263495   1.000000   1.000000
   28       -5.696631     -5.213091   1.000000   1.000000
   29       -5.654168     -5.108047   1.000000   1.000000
   30       -5.578128     -5.051096   1.000000   1.000000
   31       -5.545336     -4.990617   1.000000   1.000000
   32       -5.511802     -4.970893   1.000000   1.000000
   33       -5.491625     -4.814316   1.000000   1.000020
   34       -5.471863     -4.776050   1.000000   1.000061
   35       -5.448195     -4.735092   1.000000   1.000190
   36       -5.423062     -4.681014   1.000000   1.000734
   37       -5.372225     -4.659915   1.000000   1.001189
   38       -5.339761     -4.604180   1.000000   1.003752
   39       -5.302801     -4.509132   1.000000   1.016835
   40       -5.263940     -4.492254   1.000000   1.020515
   41       -5.239543     -4.407729   1.000000   1.035447
   42       -5.218071     -4.369828   1.000000   1.029079
   43       -5.141103     -4.337459   1.000000   1.008106
   44       -5.106429     -4.300572   1.000000   0.958930
   45       -5.053705     -4.272162   1.000000   0.898924
   46       -4.988565     -4.146065   1.000000   0.436534
   47       -4.940570     -4.134770   1.000000   0.389609
   48       -4.905491     -4.083046   1.000001   0.195925
   49       -4.864885     -4.048653   1.000004   0.097626
   50       -4.738063     -3.982239   1.000175  -0.010408
   51       -4.698379     -3.939421   1.000484  -0.033030
   52       -4.695144     -3.915028   1.000524  -0.035453
   53       -4.595201     -3.888903   1.004436  -0.033096
   54       -4.414061     -3.837960   1.035224  -0.022339
   55       -3.063759     -2.840734  -0.000000  -0.000000
   56       -3.032440     -2.754519  -0.000000  -0.000000
   57       -2.705136     -2.474717  -0.000000  -0.000000
   58       -2.377175     -2.020994  -0.000000  -0.000000
   59       -2.306740     -1.990754  -0.000000  -0.000000
   60       -1.705014     -1.385178  -0.000000  -0.000000
   61       -0.872866     -0.734699  -0.000000  -0.000000
   62       -0.840405     -0.697613  -0.000000  -0.000000
   63       -0.633367     -0.466816  -0.000000  -0.000000
   64       -0.588734     -0.450488  -0.000000  -0.000000
   65       -0.281560     -0.071906  -0.000000  -0.000000
   66       -0.099808      0.124028  -0.000000  -0.000000
