 vasp.6.1.2 22Jul20 (build Aug  2 2021 21:04:21) gamma-only                      
 executed on             LinuxPGI date 2021.12.22  10:11:58
 running on   16 total cores
 distrk:  each k-point on   16 cores,    1 groups
 distr:  one band on NCORE=   8 cores,    2 groups


--------------------------------------------------------------------------------------------------------


 INCAR:
 POTCAR:    PAW_PBE Ni 02Aug2007                  
 POTCAR:    PAW_PBE Pd 04Jan2005                  
 -----------------------------------------------------------------------------
|                                                                             |
|           W    W    AA    RRRRR   N    N  II  N    N   GGGG   !!!           |
|           W    W   A  A   R    R  NN   N  II  NN   N  G    G  !!!           |
|           W    W  A    A  R    R  N N  N  II  N N  N  G       !!!           |
|           W WW W  AAAAAA  RRRRR   N  N N  II  N  N N  G  GGG   !            |
|           WW  WW  A    A  R   R   N   NN  II  N   NN  G    G                |
|           W    W  A    A  R    R  N    N  II  N    N   GGGG   !!!           |
|                                                                             |
|     You use a magnetic or noncollinear calculation, but did not specify     |
|     the initial magnetic moment with the MAGMOM tag. Note that a            |
|     default of 1 will be used for all atoms. This ferromagnetic setup       |
|     may break the symmetry of the crystal, in particular it may rule        |
|     out finding an antiferromagnetic solution. Thence, we recommend         |
|     setting the initial magnetic moment manually or verifying carefully     |
|     that this magnetic setup is desired.                                    |
|                                                                             |
 -----------------------------------------------------------------------------

 POTCAR:    PAW_PBE Ni 02Aug2007                  
   SHA256 =  0534bc51ca8003dfef23f56753fef9fdd3e22eac8d719fccacb59f3e6b7a69c7 Ni/POTCAR             
   COPYR  = (c) Copyright 02Aug2007 Georg Kresse                                                    
   COPYR  = This file is part of the software VASP. Any use, copying, and all other rights are regul
   COPYR  = If you do not have a valid VASP license, you may not use, copy or distribute this file. 
   VRHFIN =Ni:                                                                                      
   LEXCH  = PE                                                                                      
   EATOM  =  1077.6739 eV,   79.2068 Ry                                                             
                                                                                                    
   TITEL  = PAW_PBE Ni 02Aug2007                                                                    
   LULTRA =        F    use ultrasoft PP ?                                                          
   IUNSCR =        1    unscreen: 0-lin 1-nonlin 2-no                                               
   RPACOR =    2.000    partial core radius                                                         
   POMASS =   58.690; ZVAL   =   10.000    mass and valenz                                          
   RCORE  =    2.300    outmost cutoff radius                                                       
   RWIGS  =    2.430; RWIGS  =    1.286    wigner-seitz radius (au A)                               
   ENMAX  =  269.532; ENMIN  =  202.149 eV                                                          
   RCLOC  =    1.201    cutoff for local pot                                                        
   LCOR   =        T    correct aug charges                                                         
   LPAW   =        T    paw PP                                                                      
   EAUG   =  544.565                                                                                
   DEXC   =    0.000                                                                                
   RMAX   =    2.357    core radius for proj-oper                                                   
   RAUG   =    1.300    factor for augmentation sphere                                              
   RDEP   =    2.390    radius for radial grids                                                     
   RDEPT  =    1.838    core radius for aug-charge                                                  
                                                                                                    
   Atomic configuration                                                                             
    9 entries                                                                                       
     n  l   j            E        occ.                                                              
     1  0  0.50     -8206.4253   2.0000                                                             
     2  0  0.50      -976.1748   2.0000                                                             
     2  1  1.50      -839.0571   6.0000                                                             
     3  0  0.50      -105.9991   2.0000                                                             
     3  1  1.50       -66.4603   6.0000                                                             
     3  2  2.50        -4.6458   9.0000                                                             
     4  0  0.50        -4.4926   1.0000                                                             
     4  1  1.50        -4.0817   0.0000                                                             
     4  3  2.50        -1.3606   0.0000                                                             
   Description                                                                                      
     l       E           TYP  RCUT    TYP  RCUT                                                     
     2     -4.6457903     23  2.300                                                                 
     2     -6.0063729     23  2.300                                                                 
     0     -4.4925590     23  2.300                                                                 
     0      5.0102601     23  2.300                                                                 
     1     -2.7211652     23  2.300                                                                 
     1     16.5183231     23  2.300                                                                 
  local pseudopotential read in
  partial core-charges read in
  partial kinetic energy density read in
  atomic valenz-charges read in
  non local Contribution for L=            2  read in
    real space projection operators read in
  non local Contribution for L=            2  read in
    real space projection operators read in
  non local Contribution for L=            0  read in
    real space projection operators read in
  non local Contribution for L=            0  read in
    real space projection operators read in
  non local Contribution for L=            1  read in
    real space projection operators read in
  non local Contribution for L=            1  read in
    real space projection operators read in
    PAW grid and wavefunctions read in
 
   number of l-projection  operators is LMAX  =            6
   number of lm-projection operators is LMMAX =           18
 
 POTCAR:    PAW_PBE Pd 04Jan2005                  
   SHA256 =  dd6f6f02930356371984e2b707ff5e456046761dc76b07c1eba30abd15eb3c39 Pd/POTCAR             
   COPYR  = (c) Copyright 04Jan2005 Georg Kresse                                                    
   COPYR  = This file is part of the software VASP. Any use, copying, and all other rights are regul
   COPYR  = If you do not have a valid VASP license, you may not use, copy or distribute this file. 
   VRHFIN =Pd : s1 d9                                                                               
   LEXCH  = PE                                                                                      
   EATOM  =   809.7530 eV,   59.5152 Ry                                                             
                                                                                                    
   TITEL  = PAW_PBE Pd 04Jan2005                                                                    
   LULTRA =        F    use ultrasoft PP ?                                                          
   IUNSCR =        1    unscreen: 0-lin 1-nonlin 2-no                                               
   RPACOR =    2.000    partial core radius                                                         
   POMASS =  106.420; ZVAL   =   10.000    mass and valenz                                          
   RCORE  =    2.600    outmost cutoff radius                                                       
   RWIGS  =    2.710; RWIGS  =    1.434    wigner-seitz radius (au A)                               
   ENMAX  =  250.925; ENMIN  =  188.194 eV                                                          
   ICORE  =        3    local potential                                                             
   LCOR   =        T    correct aug charges                                                         
   LPAW   =        T    paw PP                                                                      
   EAUG   =  416.230                                                                                
   DEXC   =    0.000                                                                                
   RMAX   =    2.653    core radius for proj-oper                                                   
   RAUG   =    1.300    factor for augmentation sphere                                              
   RDEP   =    2.734    radius for radial grids                                                     
   RDEPT  =    2.103    core radius for aug-charge                                                  
                                                                                                    
   Atomic configuration                                                                             
   12 entries                                                                                       
     n  l   j            E        occ.                                                              
     1  0  0.50    -24164.6631   2.0000                                                             
     2  0  0.50     -3530.9218   2.0000                                                             
     2  1  1.50     -3165.6822   6.0000                                                             
     3  0  0.50      -639.4577   2.0000                                                             
     3  1  1.50      -519.4532   6.0000                                                             
     3  2  2.50      -328.9757  10.0000                                                             
     4  0  0.50       -88.7014   2.0000                                                             
     4  1  1.50       -54.4540   6.0000                                                             
     4  2  2.50        -6.6878   9.0000                                                             
     5  0  0.50        -4.3543   1.0000                                                             
     5  1  0.50        -1.3606   0.0000                                                             
     4  3  2.50        -1.3606   0.0000                                                             
   Description                                                                                      
     l       E           TYP  RCUT    TYP  RCUT                                                     
     2     -6.6878251     23  2.400                                                                 
     2     -8.0484077     23  2.400                                                                 
     0     -4.3542939     23  2.400                                                                 
     0      4.3406793     23  2.400                                                                 
     1     -4.0817478     23  2.600                                                                 
     1     15.8380318     23  2.600                                                                 
     3     -4.0817478     23  2.400                                                                 
  local pseudopotential read in
  partial core-charges read in
  partial kinetic energy density read in
  atomic valenz-charges read in
  non local Contribution for L=            2  read in
    real space projection operators read in
  non local Contribution for L=            2  read in
    real space projection operators read in
  non local Contribution for L=            0  read in
    real space projection operators read in
  non local Contribution for L=            0  read in
    real space projection operators read in
  non local Contribution for L=            1  read in
    real space projection operators read in
  non local Contribution for L=            1  read in
    real space projection operators read in
    PAW grid and wavefunctions read in
 
   number of l-projection  operators is LMAX  =            6
   number of lm-projection operators is LMMAX =           18
 
  PAW_PBE Ni 02Aug2007                  :
 energy of atom  1       EATOM=-1077.6739
 kinetic energy error for atom=    0.0101 (will be added to EATOM!!)
  PAW_PBE Pd 04Jan2005                  :
 energy of atom  2       EATOM= -809.7530
 kinetic energy error for atom=    0.0091 (will be added to EATOM!!)
 
 
 POSCAR: Ni Pd
  positions in cartesian coordinates
  No initial velocities read in
 exchange correlation table for  LEXCH =        8
   RHO(1)=    0.500       N(1)  =     2000
   RHO(2)=  100.500       N(2)  =     4000
 


--------------------------------------------------------------------------------------------------------


 ion  position               nearest neighbor table
   1  0.489  0.498  0.515-   6 2.42   4 2.42   7 2.48   9 2.48  10 2.49   8 2.49   5 2.53   2 2.53
                             3 2.54
   2  0.571  0.426  0.487-   3 2.45   5 2.46   7 2.46   4 2.46   8 2.53   1 2.53
   3  0.595  0.532  0.498-   6 2.40   2 2.45   5 2.45   4 2.47   9 2.53   1 2.54
   4  0.565  0.473  0.589-   1 2.42   2 2.46   3 2.47   6 2.47   7 2.51
   5  0.537  0.498  0.409-   3 2.45   2 2.46  10 2.48   1 2.53   9 2.54   8 2.54
   6  0.533  0.578  0.574-   3 2.40   1 2.42   4 2.47   9 2.51
   7  0.491  0.396  0.558-   2 2.46   1 2.48   4 2.51   8 2.58
   8  0.468  0.414  0.442-   1 2.49   2 2.53   5 2.54   7 2.58  10 2.59
   9  0.509  0.595  0.462-   1 2.48   6 2.51   3 2.53   5 2.54  10 2.58
  10  0.430  0.522  0.420-   5 2.48   1 2.49   9 2.58   8 2.59
 

IMPORTANT INFORMATION: All symmetrisations will be switched off!
NOSYMM: (Re-)initialisation of all symmetry stuff for point group C_1.


----------------------------------------------------------------------------------------

                                     Primitive cell                                     

  volume of cell :   10942.7633

  direct lattice vectors                    reciprocal lattice vectors
    22.629843944  0.000000000  0.000000000     0.044189434  0.000000000  0.000000000
     0.000000000 22.388292693  0.000000000     0.000000000  0.044666202  0.000000000
     0.000000000  0.000000000 21.598543813     0.000000000  0.000000000  0.046299418

  length of vectors
    22.629843944 22.388292693 21.598543813     0.044189434  0.044666202  0.046299418

  position of ions in fractional coordinates (direct lattice)
     0.489275574  0.498321770  0.514661183
     0.570813549  0.425704197  0.486659695
     0.595184482  0.531683676  0.497809841
     0.565112257  0.473365831  0.589343191
     0.536892799  0.498053691  0.408854993
     0.533447977  0.577946220  0.574366489
     0.491023217  0.395523009  0.557585903
     0.468058001  0.414415991  0.442028803
     0.508887346  0.595014958  0.462291562
     0.430425225  0.521744032  0.420243406

  ion indices of the primitive-cell ions
   primitive index   ion index
                 1           1
                 2           2
                 3           3
                 4           4
                 5           5
                 6           6
                 7           7
                 8           8
                 9           9
                10          10

----------------------------------------------------------------------------------------

 
 
 KPOINTS: KPOINTS created by Atomic Simulation Env

Automatic generation of k-mesh.
Space group operators:
 irot       det(A)        alpha          n_x          n_y          n_z        tau_x        tau_y        tau_z
    1     1.000000     0.000001     1.000000     0.000000     0.000000     0.000000     0.000000     0.000000
 
 Subroutine IBZKPT returns following result:
 ===========================================
 
 Found      1 irreducible k-points:
 
 Following reciprocal coordinates:
            Coordinates               Weight
  0.000000  0.000000  0.000000      1.000000
 
 Following cartesian coordinates:
            Coordinates               Weight
  0.000000  0.000000  0.000000      1.000000
 


--------------------------------------------------------------------------------------------------------




 Dimension of arrays:
   k-points           NKPTS =      1   k-points in BZ     NKDIM =      1   number of bands    NBANDS=     66
   number of dos      NEDOS =    301   number of ions     NIONS =     10
   non local maximal  LDIM  =      6   non local SUM 2l+1 LMDIM =     18
   total plane-waves  NPLWV = ******
   max r-space proj   IRMAX =      1   max aug-charges    IRDMAX=   6204
   dimension x,y,z NGX =   112 NGY =  112 NGZ =  108
   dimension x,y,z NGXF=   224 NGYF=  224 NGZF=  216
   support grid    NGXF=   224 NGYF=  224 NGZF=  216
   ions per type =               6   4
   NGX,Y,Z   is equivalent  to a cutoff of   8.23,  8.32,  8.31 a.u.
   NGXF,Y,Z  is equivalent  to a cutoff of  16.46, 16.63, 16.63 a.u.

 SYSTEM =  unknown system                          
 POSCAR =  Ni Pd                                   

 Startparameter for this run:
   NWRITE =      2    write-flag & timer
   PREC   = normal    normal or accurate (medium, high low for compatibility)
   ISTART =      0    job   : 0-new  1-cont  2-samecut
   ICHARG =      2    charge: 1-file 2-atom 10-const
   ISPIN  =      2    spin polarized calculation?
   LNONCOLLINEAR =      F non collinear calculations
   LSORBIT =      F    spin-orbit coupling
   INIWAV =      1    electr: 0-lowe 1-rand  2-diag
   LASPH  =      F    aspherical Exc in radial PAW
   METAGGA=      F    non-selfconsistent MetaGGA calc.

 Electronic Relaxation 1
   ENCUT  =  400.0 eV  29.40 Ry    5.42 a.u.  36.90 36.51 35.22*2*pi/ulx,y,z
   ENINI  =  400.0     initial cutoff
   ENAUG  =  544.6 eV  augmentation charge cutoff
   NELM   =     60;   NELMIN=  2; NELMDL=  0     # of ELM steps 
   EDIFF  = 0.1E-03   stopping-criterion for ELM
   LREAL  =      F    real-space projection
   NLSPLINE    = F    spline interpolate recip. space projectors
   LCOMPAT=      F    compatible to vasp.4.4
   GGA_COMPAT  = T    GGA compatible to vasp.4.4-vasp.4.6
   LMAXPAW     = -100 max onsite density
   LMAXMIX     =    2 max onsite mixed and CHGCAR
   VOSKOWN=      0    Vosko Wilk Nusair interpolation
   ROPT   =    0.00000   0.00000
 Ionic relaxation
   EDIFFG = 0.1E-02   stopping-criterion for IOM
   NSW    =   1000    number of steps for IOM
   NBLOCK =      1;   KBLOCK =   1000    inner block; outer block 
   IBRION =      2    ionic relax: 0-MD 1-quasi-New 2-CG
   NFREE  =      1    steps in history (QN), initial steepest desc. (CG)
   ISIF   =      0    stress and relaxation
   IWAVPR =     11    prediction:  0-non 1-charg 2-wave 3-comb
   ISYM   =      0    0-nonsym 1-usesym 2-fastsym
   LCORR  =      T    Harris-Foulkes like correction to forces

   POTIM  = 0.5000    time-step for ionic-motion
   TEIN   =    0.0    initial temperature
   TEBEG  =    0.0;   TEEND  =   0.0 temperature during run
   SMASS  =  -3.00    Nose mass-parameter (am)
   estimated Nose-frequenzy (Omega)   =  0.10E-29 period in steps = 0.13E+47 mass=  -0.117E-25a.u.
   SCALEE = 1.0000    scale energy and forces
   NPACO  =    256;   APACO  = 16.0  distance and # of slots for P.C.
   PSTRESS=    0.0 pullay stress

  Mass of Ions in am
   POMASS =  58.69106.42
  Ionic Valenz
   ZVAL   =  10.00 10.00
  Atomic Wigner-Seitz radii
   RWIGS  =  -1.00 -1.00
  virtual crystal weights 
   VCA    =   1.00  1.00
   NELECT =     100.0000    total number of electrons
   NUPDOWN=      -1.0000    fix difference up-down

 DOS related values:
   EMIN   =  10.00;   EMAX   =-10.00  energy-range for DOS
   EFERMI =   0.00
   ISMEAR =     1;   SIGMA  =   0.20  broadening in eV -4-tet -1-fermi 0-gaus

 Electronic relaxation 2 (details)
   IALGO  =     38    algorithm
   LDIAG  =      T    sub-space diagonalisation (order eigenvalues)
   LSUBROT=      F    optimize rotation matrix (better conditioning)
   TURBO    =      0    0=normal 1=particle mesh
   IRESTART =      0    0=no restart 2=restart with 2 vectors
   NREBOOT  =      0    no. of reboots
   NMIN     =      0    reboot dimension
   EREF     =   0.00    reference energy to select bands
   IMIX   =      4    mixing-type and parameters
     AMIX     =   0.40;   BMIX     =  1.00
     AMIX_MAG =   1.60;   BMIX_MAG =  1.00
     AMIN     =   0.10
     WC   =   100.;   INIMIX=   1;  MIXPRE=   1;  MAXMIX= -45

 Intra band minimization:
   WEIMIN = 0.0010     energy-eigenvalue tresh-hold
   EBREAK =  0.38E-06  absolut break condition
   DEPER  =   0.30     relativ break condition  

   TIME   =   0.40     timestep for ELM

  volume/ion in A,a.u.               =    1094.28      7384.54
  Fermi-wavevector in a.u.,A,eV,Ry     =   0.342268  0.646792  1.593883  0.117147
  Thomas-Fermi vector in A             =   1.247489
 
 Write flags
   LWAVE        =      F    write WAVECAR
   LDOWNSAMPLE  =      F    k-point downsampling of WAVECAR
   LCHARG       =      F    write CHGCAR
   LVTOT        =      F    write LOCPOT, total local potential
   LVHAR        =      F    write LOCPOT, Hartree potential only
   LELF         =      F    write electronic localiz. function (ELF)
   LORBIT       =      0    0 simple, 1 ext, 2 COOP (PROOUT), +10 PAW based schemes


 Dipole corrections
   LMONO  =      F    monopole corrections only (constant potential shift)
   LDIPOL =      F    correct potential (dipole corrections)
   IDIPOL =      0    1-x, 2-y, 3-z, 4-all directions 
   EPSILON=  1.0000000 bulk dielectric constant

 Exchange correlation treatment:
   GGA     =    PE    GGA type
   LEXCH   =     8    internal setting for exchange type
   VOSKOWN=      0    Vosko Wilk Nusair interpolation
   LHFCALC =     F    Hartree Fock is set to
   LHFONE  =     F    Hartree Fock one center treatment
   AEXX    =    0.0000 exact exchange contribution

 Linear response parameters
   LEPSILON=     F    determine dielectric tensor
   LRPA    =     F    only Hartree local field effects (RPA)
   LNABLA  =     F    use nabla operator in PAW spheres
   LVEL    =     F    velocity operator in full k-point grid
   LINTERFAST=   F  fast interpolation
   KINTER  =     0    interpolate to denser k-point grid
   CSHIFT  =0.1000    complex shift for real part using Kramers Kronig
   OMEGAMAX=  -1.0    maximum frequency
   DEG_THRESHOLD= 0.2000000E-02 threshold for treating states as degnerate
   RTIME   =   -0.100 relaxation time in fs
  (WPLASMAI=    0.000 imaginary part of plasma frequency in eV, 0.658/RTIME)
   DFIELD  = 0.0000000 0.0000000 0.0000000 field for delta impulse in time
 
 Orbital magnetization related:
   ORBITALMAG=     F  switch on orbital magnetization
   LCHIMAG   =     F  perturbation theory with respect to B field
   DQ        =  0.001000  dq finite difference perturbation B field
   LLRAUG    =     F  two centre corrections for induced B field



--------------------------------------------------------------------------------------------------------


 conjugate gradient relaxation of ions
 charge density and potential will be updated during run
 spin polarized calculation
 Variant of blocked Davidson
 Davidson routine will perform the subspace rotation
 perform sub-space diagonalisation
    after iterative eigenvector-optimisation
 modified Broyden-mixing scheme, WC =      100.0
 initial mixing is a Kerker type mixing with AMIX =  0.4000 and BMIX =      1.0000
 Hartree-type preconditioning will be used
 using additional bands            16
 reciprocal scheme for non local part
 use partial core corrections
 calculate Harris-corrections to forces 
   (improved forces if not selfconsistent)
 use gradient corrections 
 use of overlap-Matrix (Vanderbilt PP)
 Methfessel and Paxton  Order N= 1 SIGMA  =   0.20


--------------------------------------------------------------------------------------------------------


  energy-cutoff  :      400.00
  volume of cell :    10942.76
      direct lattice vectors                 reciprocal lattice vectors
    22.629843944  0.000000000  0.000000000     0.044189434  0.000000000  0.000000000
     0.000000000 22.388292693  0.000000000     0.000000000  0.044666202  0.000000000
     0.000000000  0.000000000 21.598543813     0.000000000  0.000000000  0.046299418

  length of vectors
    22.629843944 22.388292693 21.598543813     0.044189434  0.044666202  0.046299418


 
 k-points in units of 2pi/SCALE and weight: KPOINTS created by Atomic Simulation Env
   0.00000000  0.00000000  0.00000000       1.000
 
 k-points in reciprocal lattice and weights: KPOINTS created by Atomic Simulation Env
   0.00000000  0.00000000  0.00000000       1.000
 
 position of ions in fractional coordinates (direct lattice) 
   0.48927557  0.49832177  0.51466118
   0.57081355  0.42570420  0.48665970
   0.59518448  0.53168368  0.49780984
   0.56511226  0.47336583  0.58934319
   0.53689280  0.49805369  0.40885499
   0.53344798  0.57794622  0.57436649
   0.49102322  0.39552301  0.55758590
   0.46805800  0.41441599  0.44202880
   0.50888735  0.59501496  0.46229156
   0.43042522  0.52174403  0.42024341
 
 position of ions in cartesian coordinates  (Angst):
  11.07222989 11.15657363 11.11593211
  12.91742153  9.53079017 10.51114075
  13.46893194 11.90348975 10.75196765
  12.78840218 10.59785276 12.72895472
  12.14980026 11.15057180  8.83067248
  12.07184446 12.93922913 12.40547978
  11.11177878  8.85508490 12.04304356
  10.59207952  9.27806650  9.54717846
  11.51604122 13.32136904  9.98482457
   9.74045566 11.68095810  9.07664562
 


--------------------------------------------------------------------------------------------------------


 use parallel FFT for orbitals z direction half grid
 k-point   1 :   0.0000 0.0000 0.0000  plane waves:   99396

 maximum and minimum number of plane-waves per node :     12431    12421

 maximum number of plane-waves:     99396
 maximum index in each direction: 
   IXMAX=   36   IYMAX=   36   IZMAX=   35
   IXMIN=  -36   IYMIN=  -36   IZMIN=    0


 parallel 3D FFT for wavefunctions:
    minimum data exchange during FFTs selected (reduces bandwidth)
 parallel 3D FFT for charge:
    minimum data exchange during FFTs selected (reduces bandwidth)


 total amount of memory used by VASP MPI-rank0   143494. kBytes
=======================================================================

   base      :      30000. kBytes
   nonl-proj :       5567. kBytes
   fftplans  :      26565. kBytes
   grid      :      68189. kBytes
   one-center:         31. kBytes
   wavefun   :      13142. kBytes
 
     INWAV:  cpu time    0.0000: real time    0.0000
 Broyden mixing: mesh for mixing (old mesh)
   NGX = 73   NGY = 73   NGZ = 71
  (NGX  =224   NGY  =224   NGZ  =216)
  gives a total of 378359 points

 initial charge density was supplied:
 charge density of overlapping atoms calculated
 number of electron     100.0000000 magnetization      10.0000000
 keeping initial charge density in first step


--------------------------------------------------------------------------------------------------------


 Maximum index for augmentation-charges           393 (set IRDMAX)


--------------------------------------------------------------------------------------------------------


 First call to EWALD:  gamma=   0.080
 Maximum number of real-space cells 3x 3x 3
 Maximum number of reciprocal cells 3x 3x 3

    FEWALD:  cpu time    0.0015: real time    0.0015


--------------------------------------- Iteration      1(   1)  ---------------------------------------


    POTLOK:  cpu time    2.1879: real time    2.1987
    SETDIJ:  cpu time    0.0239: real time    0.0240
     EDDAV:  cpu time    5.1464: real time    5.1572
       DOS:  cpu time    0.0055: real time    0.0055
    --------------------------------------------
      LOOP:  cpu time    7.3637: real time    7.3853

 eigenvalue-minimisations  :   264
 total energy-change (2. order) : 0.7249393E+03  (-0.1619641E+04)
 number of electron     100.0000000 magnetization      10.0000000
 augmentation part      100.0000000 magnetization      10.0000000

 Free energy of the ion-electron system (eV)
  ---------------------------------------------------
  alpha Z        PSCENC =         5.17874040
  Ewald energy   TEWEN  =     12667.65620588
  -Hartree energ DENC   =    -21646.95032617
  -exchange      EXHF   =         0.00000000
  -V(xc)+E(xc)   XCENC  =        62.99473373
  PAW double counting   =      9003.59075477    -9155.75339974
  entropy T*S    EENTRO =        -0.01065790
  eigenvalues    EBANDS =        83.27461722
  atomic energy  EATOM  =      9704.95859309
  Solvation  Ediel_sol  =         0.00000000
  ---------------------------------------------------
  free energy    TOTEN  =       724.93926130 eV

  energy without entropy =      724.94991920  energy(sigma->0) =      724.94281393


--------------------------------------------------------------------------------------------------------




--------------------------------------- Iteration      1(   2)  ---------------------------------------


     EDDAV:  cpu time    7.9675: real time    7.9767
       DOS:  cpu time    0.0054: real time    0.0054
    --------------------------------------------
      LOOP:  cpu time    7.9729: real time    7.9821

 eigenvalue-minimisations  :   472
 total energy-change (2. order) :-0.4820655E+03  (-0.4477375E+03)
 number of electron     100.0000000 magnetization      10.0000000
 augmentation part      100.0000000 magnetization      10.0000000

 Free energy of the ion-electron system (eV)
  ---------------------------------------------------
  alpha Z        PSCENC =         5.17874040
  Ewald energy   TEWEN  =     12667.65620588
  -Hartree energ DENC   =    -21646.95032617
  -exchange      EXHF   =         0.00000000
  -V(xc)+E(xc)   XCENC  =        62.99473373
  PAW double counting   =      9003.59075477    -9155.75339974
  entropy T*S    EENTRO =         0.04928950
  eigenvalues    EBANDS =      -398.85080003
  atomic energy  EATOM  =      9704.95859309
  Solvation  Ediel_sol  =         0.00000000
  ---------------------------------------------------
  free energy    TOTEN  =       242.87379144 eV

  energy without entropy =      242.82450194  energy(sigma->0) =      242.85736161


--------------------------------------------------------------------------------------------------------




--------------------------------------- Iteration      1(   3)  ---------------------------------------


     EDDAV:  cpu time    6.7614: real time    6.7698
       DOS:  cpu time    0.0053: real time    0.0053
    --------------------------------------------
      LOOP:  cpu time    6.7667: real time    6.7751

 eigenvalue-minimisations  :   384
 total energy-change (2. order) :-0.2250665E+03  (-0.2133225E+03)
 number of electron     100.0000000 magnetization      10.0000000
 augmentation part      100.0000000 magnetization      10.0000000

 Free energy of the ion-electron system (eV)
  ---------------------------------------------------
  alpha Z        PSCENC =         5.17874040
  Ewald energy   TEWEN  =     12667.65620588
  -Hartree energ DENC   =    -21646.95032617
  -exchange      EXHF   =         0.00000000
  -V(xc)+E(xc)   XCENC  =        62.99473373
  PAW double counting   =      9003.59075477    -9155.75339974
  entropy T*S    EENTRO =        -0.04165157
  eigenvalues    EBANDS =      -623.82638019
  atomic energy  EATOM  =      9704.95859309
  Solvation  Ediel_sol  =         0.00000000
  ---------------------------------------------------
  free energy    TOTEN  =        17.80727021 eV

  energy without entropy =       17.84892178  energy(sigma->0) =       17.82115407


--------------------------------------------------------------------------------------------------------




--------------------------------------- Iteration      1(   4)  ---------------------------------------


     EDDAV:  cpu time    7.0807: real time    7.0936
       DOS:  cpu time    0.0054: real time    0.0054
    --------------------------------------------
      LOOP:  cpu time    7.0861: real time    7.0991

 eigenvalue-minimisations  :   408
 total energy-change (2. order) :-0.5573405E+02  (-0.4799044E+02)
 number of electron     100.0000000 magnetization      10.0000000
 augmentation part      100.0000000 magnetization      10.0000000

 Free energy of the ion-electron system (eV)
  ---------------------------------------------------
  alpha Z        PSCENC =         5.17874040
  Ewald energy   TEWEN  =     12667.65620588
  -Hartree energ DENC   =    -21646.95032617
  -exchange      EXHF   =         0.00000000
  -V(xc)+E(xc)   XCENC  =        62.99473373
  PAW double counting   =      9003.59075477    -9155.75339974
  entropy T*S    EENTRO =        -0.01831674
  eigenvalues    EBANDS =      -679.58376328
  atomic energy  EATOM  =      9704.95859309
  Solvation  Ediel_sol  =         0.00000000
  ---------------------------------------------------
  free energy    TOTEN  =       -37.92677804 eV

  energy without entropy =      -37.90846130  energy(sigma->0) =      -37.92067246


--------------------------------------------------------------------------------------------------------




--------------------------------------- Iteration      1(   5)  ---------------------------------------


     EDDAV:  cpu time    6.3829: real time    6.3951
       DOS:  cpu time    0.0053: real time    0.0053
    CHARGE:  cpu time    0.5876: real time    0.5882
    MIXING:  cpu time    0.0361: real time    0.0361
    --------------------------------------------
      LOOP:  cpu time    7.0118: real time    7.0247

 eigenvalue-minimisations  :   360
 total energy-change (2. order) :-0.6058454E+01  (-0.5738104E+01)
 number of electron     100.0000226 magnetization       9.7723754
 augmentation part       52.1729387 magnetization       7.8513933

 Broyden mixing:
  rms(total) = 0.28176E+01    rms(broyden)= 0.28172E+01
  rms(prec ) = 0.29825E+01
  weight for this iteration     100.00

 Free energy of the ion-electron system (eV)
  ---------------------------------------------------
  alpha Z        PSCENC =         5.17874040
  Ewald energy   TEWEN  =     12667.65620588
  -Hartree energ DENC   =    -21646.95032617
  -exchange      EXHF   =         0.00000000
  -V(xc)+E(xc)   XCENC  =        62.99473373
  PAW double counting   =      9003.59075477    -9155.75339974
  entropy T*S    EENTRO =        -0.04781698
  eigenvalues    EBANDS =      -685.61271713
  atomic energy  EATOM  =      9704.95859309
  Solvation  Ediel_sol  =         0.00000000
  ---------------------------------------------------
  free energy    TOTEN  =       -43.98523214 eV

  energy without entropy =      -43.93741516  energy(sigma->0) =      -43.96929314


--------------------------------------------------------------------------------------------------------




--------------------------------------- Iteration      1(   6)  ---------------------------------------


    POTLOK:  cpu time    2.2061: real time    2.2153
    SETDIJ:  cpu time    0.0230: real time    0.0230
     EDDAV:  cpu time    5.4763: real time    5.4828
       DOS:  cpu time    0.0040: real time    0.0040
    CHARGE:  cpu time    0.5854: real time    0.5860
    MIXING:  cpu time    0.0407: real time    0.0407
    --------------------------------------------
      LOOP:  cpu time    8.3355: real time    8.3519

 eigenvalue-minimisations  :   292
 total energy-change (2. order) :-0.2008929E+02  (-0.1093947E+02)
 number of electron     100.0000274 magnetization       9.5235761
 augmentation part       55.9021470 magnetization       8.7449051

 Broyden mixing:
  rms(total) = 0.57831E+01    rms(broyden)= 0.57828E+01
  rms(prec ) = 0.62390E+01
  weight for this iteration     100.00

 eigenvalues of (default mixing * dielectric matrix)
  average eigenvalue GAMMA=   0.2930
  0.2930

 Free energy of the ion-electron system (eV)
  ---------------------------------------------------
  alpha Z        PSCENC =         5.17874040
  Ewald energy   TEWEN  =     12667.65620588
  -Hartree energ DENC   =    -21570.61176562
  -exchange      EXHF   =         0.00000000
  -V(xc)+E(xc)   XCENC  =        60.52783564
  PAW double counting   =      9446.53715179    -9572.18167869
  entropy T*S    EENTRO =        -0.01815374
  eigenvalues    EBANDS =      -806.12145047
  atomic energy  EATOM  =      9704.95859309
  Solvation  Ediel_sol  =         0.00000000
  ---------------------------------------------------
  free energy    TOTEN  =       -64.07452172 eV

  energy without entropy =      -64.05636798  energy(sigma->0) =      -64.06847047


--------------------------------------------------------------------------------------------------------




--------------------------------------- Iteration      1(   7)  ---------------------------------------


    POTLOK:  cpu time    2.1877: real time    2.1934
    SETDIJ:  cpu time    0.0224: real time    0.0224
     EDDAV:  cpu time    6.2230: real time    6.2323
       DOS:  cpu time    0.0040: real time    0.0040
    CHARGE:  cpu time    0.5871: real time    0.5877
    MIXING:  cpu time    0.0452: real time    0.0453
    --------------------------------------------
      LOOP:  cpu time    9.0693: real time    9.0850

 eigenvalue-minimisations  :   346
 total energy-change (2. order) : 0.2381271E+02  (-0.5730943E+01)
 number of electron     100.0000234 magnetization       9.4788033
 augmentation part       55.1227801 magnetization       7.4419696

 Broyden mixing:
  rms(total) = 0.35917E+01    rms(broyden)= 0.35914E+01
  rms(prec ) = 0.38289E+01
  weight for this iteration     100.00

 eigenvalues of (default mixing * dielectric matrix)
  average eigenvalue GAMMA=   0.2157
  0.2157  0.2157

 Free energy of the ion-electron system (eV)
  ---------------------------------------------------
  alpha Z        PSCENC =         5.17874040
  Ewald energy   TEWEN  =     12667.65620588
  -Hartree energ DENC   =    -21615.06412053
  -exchange      EXHF   =         0.00000000
  -V(xc)+E(xc)   XCENC  =        61.03359719
  PAW double counting   =      9585.50699159    -9734.05239274
  entropy T*S    EENTRO =         0.02959268
  eigenvalues    EBANDS =      -715.50902333
  atomic energy  EATOM  =      9704.95859309
  Solvation  Ediel_sol  =         0.00000000
  ---------------------------------------------------
  free energy    TOTEN  =       -40.26181576 eV

  energy without entropy =      -40.29140844  energy(sigma->0) =      -40.27167998


--------------------------------------------------------------------------------------------------------




--------------------------------------- Iteration      1(   8)  ---------------------------------------


    POTLOK:  cpu time    2.1988: real time    2.2011
    SETDIJ:  cpu time    0.0227: real time    0.0227
     EDDAV:  cpu time    5.9506: real time    5.9576
       DOS:  cpu time    0.0038: real time    0.0038
    CHARGE:  cpu time    0.5645: real time    0.5652
    MIXING:  cpu time    0.0455: real time    0.0455
    --------------------------------------------
      LOOP:  cpu time    8.7859: real time    8.7959

 eigenvalue-minimisations  :   326
 total energy-change (2. order) : 0.2081179E+01  (-0.2590737E+01)
 number of electron     100.0000255 magnetization       9.3549903
 augmentation part       55.7999412 magnetization       7.1304399

 Broyden mixing:
  rms(total) = 0.27754E+01    rms(broyden)= 0.27744E+01
  rms(prec ) = 0.29337E+01
  weight for this iteration     100.00

 eigenvalues of (default mixing * dielectric matrix)
  average eigenvalue GAMMA=   0.2785
  0.3409  0.3409  0.1537

 Free energy of the ion-electron system (eV)
  ---------------------------------------------------
  alpha Z        PSCENC =         5.17874040
  Ewald energy   TEWEN  =     12667.65620588
  -Hartree energ DENC   =    -21619.69905840
  -exchange      EXHF   =         0.00000000
  -V(xc)+E(xc)   XCENC  =        61.15451206
  PAW double counting   =      9640.73330989    -9788.84456600
  entropy T*S    EENTRO =         0.01694761
  eigenvalues    EBANDS =      -709.33532106
  atomic energy  EATOM  =      9704.95859309
  Solvation  Ediel_sol  =         0.00000000
  ---------------------------------------------------
  free energy    TOTEN  =       -38.18063652 eV

  energy without entropy =      -38.19758413  energy(sigma->0) =      -38.18628573


--------------------------------------------------------------------------------------------------------




--------------------------------------- Iteration      1(   9)  ---------------------------------------


    POTLOK:  cpu time    2.1956: real time    2.1981
    SETDIJ:  cpu time    0.0225: real time    0.0225
     EDDAV:  cpu time    6.1041: real time    6.1113
       DOS:  cpu time    0.0036: real time    0.0036
    CHARGE:  cpu time    0.5533: real time    0.5539
    MIXING:  cpu time    0.0459: real time    0.0459
    --------------------------------------------
      LOOP:  cpu time    8.9249: real time    8.9354

 eigenvalue-minimisations  :   340
 total energy-change (2. order) :-0.1736739E+01  (-0.2162560E+01)
 number of electron     100.0000231 magnetization       9.2225253
 augmentation part       54.7363451 magnetization       7.2654253

 Broyden mixing:
  rms(total) = 0.44733E+01    rms(broyden)= 0.44729E+01
  rms(prec ) = 0.48614E+01
  weight for this iteration     100.00

 eigenvalues of (default mixing * dielectric matrix)
  average eigenvalue GAMMA=   0.3064
  0.6575  0.2964  0.1359  0.1359

 Free energy of the ion-electron system (eV)
  ---------------------------------------------------
  alpha Z        PSCENC =         5.17874040
  Ewald energy   TEWEN  =     12667.65620588
  -Hartree energ DENC   =    -21652.60445760
  -exchange      EXHF   =         0.00000000
  -V(xc)+E(xc)   XCENC  =        62.15027293
  PAW double counting   =      9775.34318482    -9929.96485389
  entropy T*S    EENTRO =        -0.05347924
  eigenvalues    EBANDS =      -672.58158235
  atomic energy  EATOM  =      9704.95859309
  Solvation  Ediel_sol  =         0.00000000
  ---------------------------------------------------
  free energy    TOTEN  =       -39.91737596 eV

  energy without entropy =      -39.86389672  energy(sigma->0) =      -39.89954955


--------------------------------------------------------------------------------------------------------




--------------------------------------- Iteration      1(  10)  ---------------------------------------


    POTLOK:  cpu time    2.1789: real time    2.1836
    SETDIJ:  cpu time    0.0220: real time    0.0220
     EDDAV:  cpu time    5.8288: real time    5.8357
       DOS:  cpu time    0.0038: real time    0.0038
    CHARGE:  cpu time    0.5610: real time    0.5617
    MIXING:  cpu time    0.0504: real time    0.0504
    --------------------------------------------
      LOOP:  cpu time    8.6450: real time    8.6572

 eigenvalue-minimisations  :   318
 total energy-change (2. order) : 0.1714274E+01  (-0.2878487E+01)
 number of electron     100.0000252 magnetization       9.1661012
 augmentation part       54.4568643 magnetization       6.4164169

 Broyden mixing:
  rms(total) = 0.34309E+01    rms(broyden)= 0.34305E+01
  rms(prec ) = 0.36679E+01
  weight for this iteration     100.00

 eigenvalues of (default mixing * dielectric matrix)
  average eigenvalue GAMMA=   0.2832
  0.7471  0.2976  0.1495  0.1495  0.0721

 Free energy of the ion-electron system (eV)
  ---------------------------------------------------
  alpha Z        PSCENC =         5.17874040
  Ewald energy   TEWEN  =     12667.65620588
  -Hartree energ DENC   =    -21671.80101380
  -exchange      EXHF   =         0.00000000
  -V(xc)+E(xc)   XCENC  =        62.65781827
  PAW double counting   =      9869.98489532   -10028.32801535
  entropy T*S    EENTRO =         0.01856012
  eigenvalues    EBANDS =      -648.52888638
  atomic energy  EATOM  =      9704.95859309
  Solvation  Ediel_sol  =         0.00000000
  ---------------------------------------------------
  free energy    TOTEN  =       -38.20310244 eV

  energy without entropy =      -38.22166256  energy(sigma->0) =      -38.20928915


--------------------------------------------------------------------------------------------------------




--------------------------------------- Iteration      1(  11)  ---------------------------------------


    POTLOK:  cpu time    2.2066: real time    2.2096
    SETDIJ:  cpu time    0.0223: real time    0.0223
     EDDAV:  cpu time    6.2645: real time    6.2741
       DOS:  cpu time    0.0058: real time    0.0058
    CHARGE:  cpu time    0.5775: real time    0.5781
    MIXING:  cpu time    0.0527: real time    0.0527
    --------------------------------------------
      LOOP:  cpu time    9.1294: real time    9.1427

 eigenvalue-minimisations  :   352
 total energy-change (2. order) : 0.1524054E+01  (-0.8821316E+00)
 number of electron     100.0000231 magnetization       9.0567352
 augmentation part       54.4253447 magnetization       6.2049800

 Broyden mixing:
  rms(total) = 0.28141E+01    rms(broyden)= 0.28134E+01
  rms(prec ) = 0.29954E+01
  weight for this iteration     100.00

 eigenvalues of (default mixing * dielectric matrix)
  average eigenvalue GAMMA=   0.3115
  0.8781  0.4283  0.1888  0.1888  0.0927  0.0927

 Free energy of the ion-electron system (eV)
  ---------------------------------------------------
  alpha Z        PSCENC =         5.17874040
  Ewald energy   TEWEN  =     12667.65620588
  -Hartree energ DENC   =    -21678.49246724
  -exchange      EXHF   =         0.00000000
  -V(xc)+E(xc)   XCENC  =        62.66118488
  PAW double counting   =      9918.28120484   -10078.26161220
  entropy T*S    EENTRO =         0.01132299
  eigenvalues    EBANDS =      -638.67222103
  atomic energy  EATOM  =      9704.95859309
  Solvation  Ediel_sol  =         0.00000000
  ---------------------------------------------------
  free energy    TOTEN  =       -36.67904838 eV

  energy without entropy =      -36.69037137  energy(sigma->0) =      -36.68282271


--------------------------------------------------------------------------------------------------------




--------------------------------------- Iteration      1(  12)  ---------------------------------------


    POTLOK:  cpu time    2.1789: real time    2.1839
    SETDIJ:  cpu time    0.0221: real time    0.0221
     EDDAV:  cpu time    6.3797: real time    6.3924
       DOS:  cpu time    0.0017: real time    0.0017
    CHARGE:  cpu time    0.5718: real time    0.5724
    MIXING:  cpu time    0.0591: real time    0.0591
    --------------------------------------------
      LOOP:  cpu time    9.2133: real time    9.2317

 eigenvalue-minimisations  :   358
 total energy-change (2. order) : 0.8875439E+00  (-0.5647027E+00)
 number of electron     100.0000226 magnetization       9.0481337
 augmentation part       54.4184537 magnetization       6.2992406

 Broyden mixing:
  rms(total) = 0.21013E+01    rms(broyden)= 0.21005E+01
  rms(prec ) = 0.22450E+01
  weight for this iteration     100.00

 eigenvalues of (default mixing * dielectric matrix)
  average eigenvalue GAMMA=   0.2823
  0.8129  0.5175  0.1802  0.1802  0.1076  0.1076  0.0702

 Free energy of the ion-electron system (eV)
  ---------------------------------------------------
  alpha Z        PSCENC =         5.17874040
  Ewald energy   TEWEN  =     12667.65620588
  -Hartree energ DENC   =    -21684.82152367
  -exchange      EXHF   =         0.00000000
  -V(xc)+E(xc)   XCENC  =        62.44140289
  PAW double counting   =     10001.84320952   -10163.81960850
  entropy T*S    EENTRO =        -0.00729772
  eigenvalues    EBANDS =      -629.22122635
  atomic energy  EATOM  =      9704.95859309
  Solvation  Ediel_sol  =         0.00000000
  ---------------------------------------------------
  free energy    TOTEN  =       -35.79150445 eV

  energy without entropy =      -35.78420673  energy(sigma->0) =      -35.78907188


--------------------------------------------------------------------------------------------------------




--------------------------------------- Iteration      1(  13)  ---------------------------------------


    POTLOK:  cpu time    2.1807: real time    2.1899
    SETDIJ:  cpu time    0.0221: real time    0.0222
     EDDAV:  cpu time    6.5511: real time    6.5586
       DOS:  cpu time    0.0017: real time    0.0017
    CHARGE:  cpu time    0.5768: real time    0.5806
    MIXING:  cpu time    0.0634: real time    0.0635
    --------------------------------------------
      LOOP:  cpu time    9.3958: real time    9.4163

 eigenvalue-minimisations  :   374
 total energy-change (2. order) : 0.2507710E+00  (-0.2922996E+00)
 number of electron     100.0000246 magnetization       9.0055567
 augmentation part       54.5596696 magnetization       6.3623978

 Broyden mixing:
  rms(total) = 0.13753E+01    rms(broyden)= 0.13748E+01
  rms(prec ) = 0.14896E+01
  weight for this iteration     100.00

 eigenvalues of (default mixing * dielectric matrix)
  average eigenvalue GAMMA=   0.3148
  0.7837  0.7837  0.2838  0.2044  0.2044  0.0868  0.0868  0.0846

 Free energy of the ion-electron system (eV)
  ---------------------------------------------------
  alpha Z        PSCENC =         5.17874040
  Ewald energy   TEWEN  =     12667.65620588
  -Hartree energ DENC   =    -21683.32275536
  -exchange      EXHF   =         0.00000000
  -V(xc)+E(xc)   XCENC  =        62.26313037
  PAW double counting   =     10005.65400671   -10167.41132347
  entropy T*S    EENTRO =        -0.03231977
  eigenvalues    EBANDS =      -630.48501133
  atomic energy  EATOM  =      9704.95859309
  Solvation  Ediel_sol  =         0.00000000
  ---------------------------------------------------
  free energy    TOTEN  =       -35.54073347 eV

  energy without entropy =      -35.50841370  energy(sigma->0) =      -35.52996021


--------------------------------------------------------------------------------------------------------




--------------------------------------- Iteration      1(  14)  ---------------------------------------


    POTLOK:  cpu time    2.1831: real time    2.1891
    SETDIJ:  cpu time    0.0224: real time    0.0225
     EDDAV:  cpu time    6.3067: real time    6.3136
       DOS:  cpu time    0.0050: real time    0.0050
    CHARGE:  cpu time    0.5683: real time    0.5689
    MIXING:  cpu time    0.0704: real time    0.0705
    --------------------------------------------
      LOOP:  cpu time    9.1559: real time    9.1695

 eigenvalue-minimisations  :   354
 total energy-change (2. order) : 0.6796143E-01  (-0.1182018E+00)
 number of electron     100.0000233 magnetization       8.8860559
 augmentation part       54.2866120 magnetization       6.4847468

 Broyden mixing:
  rms(total) = 0.11638E+01    rms(broyden)= 0.11634E+01
  rms(prec ) = 0.12409E+01
  weight for this iteration     100.00

 eigenvalues of (default mixing * dielectric matrix)
  average eigenvalue GAMMA=   0.3756
  1.1774  0.6401  0.6401  0.2236  0.2236  0.2241  0.0914  0.0914  0.0684

 Free energy of the ion-electron system (eV)
  ---------------------------------------------------
  alpha Z        PSCENC =         5.17874040
  Ewald energy   TEWEN  =     12667.65620588
  -Hartree energ DENC   =    -21688.48526436
  -exchange      EXHF   =         0.00000000
  -V(xc)+E(xc)   XCENC  =        62.04236059
  PAW double counting   =     10023.20144784   -10186.31872457
  entropy T*S    EENTRO =        -0.03437330
  eigenvalues    EBANDS =      -623.67175762
  atomic energy  EATOM  =      9704.95859309
  Solvation  Ediel_sol  =         0.00000000
  ---------------------------------------------------
  free energy    TOTEN  =       -35.47277204 eV

  energy without entropy =      -35.43839874  energy(sigma->0) =      -35.46131427


--------------------------------------------------------------------------------------------------------




--------------------------------------- Iteration      1(  15)  ---------------------------------------


    POTLOK:  cpu time    2.1816: real time    2.1857
    SETDIJ:  cpu time    0.0225: real time    0.0225
     EDDAV:  cpu time    6.6465: real time    6.6590
       DOS:  cpu time    0.0007: real time    0.0007
    CHARGE:  cpu time    0.5813: real time    0.5820
    MIXING:  cpu time    0.0731: real time    0.0732
    --------------------------------------------
      LOOP:  cpu time    9.5057: real time    9.5230

 eigenvalue-minimisations  :   380
 total energy-change (2. order) : 0.5703590E-01  (-0.9101513E-01)
 number of electron     100.0000232 magnetization       8.8402821
 augmentation part       54.4692136 magnetization       6.4187318

 Broyden mixing:
  rms(total) = 0.10964E+01    rms(broyden)= 0.10961E+01
  rms(prec ) = 0.11618E+01
  weight for this iteration     100.00

 eigenvalues of (default mixing * dielectric matrix)
  average eigenvalue GAMMA=   0.3836
  1.3712  0.6941  0.6941  0.2360  0.2360  0.1889  0.1635  0.0913  0.0913  0.0696

 Free energy of the ion-electron system (eV)
  ---------------------------------------------------
  alpha Z        PSCENC =         5.17874040
  Ewald energy   TEWEN  =     12667.65620588
  -Hartree energ DENC   =    -21690.14049190
  -exchange      EXHF   =         0.00000000
  -V(xc)+E(xc)   XCENC  =        61.89558295
  PAW double counting   =     10062.03497495   -10225.36015310
  entropy T*S    EENTRO =        -0.00737436
  eigenvalues    EBANDS =      -621.63181405
  atomic energy  EATOM  =      9704.95859309
  Solvation  Ediel_sol  =         0.00000000
  ---------------------------------------------------
  free energy    TOTEN  =       -35.41573614 eV

  energy without entropy =      -35.40836178  energy(sigma->0) =      -35.41327802


--------------------------------------------------------------------------------------------------------




--------------------------------------- Iteration      1(  16)  ---------------------------------------


    POTLOK:  cpu time    2.1890: real time    2.1959
    SETDIJ:  cpu time    0.0235: real time    0.0235
     EDDAV:  cpu time    5.9388: real time    5.9472
       DOS:  cpu time    0.0081: real time    0.0081
    CHARGE:  cpu time    0.5803: real time    0.5810
    MIXING:  cpu time    0.0791: real time    0.0815
    --------------------------------------------
      LOOP:  cpu time    8.8188: real time    8.8372

 eigenvalue-minimisations  :   328
 total energy-change (2. order) :-0.8930117E-01  (-0.1049367E+00)
 number of electron     100.0000242 magnetization       8.7720152
 augmentation part       54.4303596 magnetization       6.3765470

 Broyden mixing:
  rms(total) = 0.12038E+01    rms(broyden)= 0.12034E+01
  rms(prec ) = 0.12832E+01
  weight for this iteration     100.00

 eigenvalues of (default mixing * dielectric matrix)
  average eigenvalue GAMMA=   0.3984
  1.4725  0.7953  0.7953  0.3214  0.2674  0.2072  0.2072  0.0912  0.0912  0.0699
  0.0634

 Free energy of the ion-electron system (eV)
  ---------------------------------------------------
  alpha Z        PSCENC =         5.17874040
  Ewald energy   TEWEN  =     12667.65620588
  -Hartree energ DENC   =    -21692.81524406
  -exchange      EXHF   =         0.00000000
  -V(xc)+E(xc)   XCENC  =        61.85593227
  PAW double counting   =     10075.92029862   -10239.59209929
  entropy T*S    EENTRO =        -0.03270323
  eigenvalues    EBANDS =      -618.63476099
  atomic energy  EATOM  =      9704.95859309
  Solvation  Ediel_sol  =         0.00000000
  ---------------------------------------------------
  free energy    TOTEN  =       -35.50503730 eV

  energy without entropy =      -35.47233407  energy(sigma->0) =      -35.49413623


--------------------------------------------------------------------------------------------------------




--------------------------------------- Iteration      1(  17)  ---------------------------------------


    POTLOK:  cpu time    2.1794: real time    2.1880
    SETDIJ:  cpu time    0.0226: real time    0.0226
     EDDAV:  cpu time    6.7107: real time    6.7233
       DOS:  cpu time    0.0081: real time    0.0081
    CHARGE:  cpu time    0.5846: real time    0.5852
    MIXING:  cpu time    0.0903: real time    0.0904
    --------------------------------------------
      LOOP:  cpu time    9.5956: real time    9.6176

 eigenvalue-minimisations  :   382
 total energy-change (2. order) :-0.4496177E-01  (-0.4922796E-01)
 number of electron     100.0000234 magnetization       8.7574946
 augmentation part       54.4878677 magnetization       6.3905763

 Broyden mixing:
  rms(total) = 0.74279E+00    rms(broyden)= 0.74260E+00
  rms(prec ) = 0.77963E+00
  weight for this iteration     100.00

 eigenvalues of (default mixing * dielectric matrix)
  average eigenvalue GAMMA=   0.3843
  1.4434  0.8212  0.8212  0.2929  0.2929  0.2090  0.2090  0.1974  0.0913  0.0913
  0.0709  0.0709

 Free energy of the ion-electron system (eV)
  ---------------------------------------------------
  alpha Z        PSCENC =         5.17874040
  Ewald energy   TEWEN  =     12667.65620588
  -Hartree energ DENC   =    -21694.97268668
  -exchange      EXHF   =         0.00000000
  -V(xc)+E(xc)   XCENC  =        61.67988535
  PAW double counting   =     10086.79287228   -10250.51074469
  entropy T*S    EENTRO =         0.00690127
  eigenvalues    EBANDS =      -616.33976598
  atomic energy  EATOM  =      9704.95859309
  Solvation  Ediel_sol  =         0.00000000
  ---------------------------------------------------
  free energy    TOTEN  =       -35.54999908 eV

  energy without entropy =      -35.55690035  energy(sigma->0) =      -35.55229950


--------------------------------------------------------------------------------------------------------




--------------------------------------- Iteration      1(  18)  ---------------------------------------


    POTLOK:  cpu time    2.1844: real time    2.1929
    SETDIJ:  cpu time    0.0225: real time    0.0225
     EDDAV:  cpu time    5.8450: real time    5.8524
       DOS:  cpu time    0.0080: real time    0.0080
    CHARGE:  cpu time    0.5624: real time    0.5630
    MIXING:  cpu time    0.0948: real time    0.0949
    --------------------------------------------
      LOOP:  cpu time    8.7172: real time    8.7338

 eigenvalue-minimisations  :   320
 total energy-change (2. order) :-0.1688830E+00  (-0.7886084E-02)
 number of electron     100.0000234 magnetization       8.7345300
 augmentation part       54.4538776 magnetization       6.4296269

 Broyden mixing:
  rms(total) = 0.74264E+00    rms(broyden)= 0.74258E+00
  rms(prec ) = 0.78089E+00
  weight for this iteration     100.00

 eigenvalues of (default mixing * dielectric matrix)
  average eigenvalue GAMMA=   0.4454
  1.5348  0.8992  0.8992  0.5814  0.5814  0.2827  0.2629  0.2131  0.2131  0.0912
  0.0912  0.0697  0.0697

 Free energy of the ion-electron system (eV)
  ---------------------------------------------------
  alpha Z        PSCENC =         5.17874040
  Ewald energy   TEWEN  =     12667.65620588
  -Hartree energ DENC   =    -21696.30728618
  -exchange      EXHF   =         0.00000000
  -V(xc)+E(xc)   XCENC  =        61.59903340
  PAW double counting   =     10086.23426288   -10250.03254315
  entropy T*S    EENTRO =         0.00206054
  eigenvalues    EBANDS =      -615.00794894
  atomic energy  EATOM  =      9704.95859309
  Solvation  Ediel_sol  =         0.00000000
  ---------------------------------------------------
  free energy    TOTEN  =       -35.71888208 eV

  energy without entropy =      -35.72094262  energy(sigma->0) =      -35.71956893


--------------------------------------------------------------------------------------------------------




--------------------------------------- Iteration      1(  19)  ---------------------------------------


    POTLOK:  cpu time    2.2002: real time    2.2026
    SETDIJ:  cpu time    0.0222: real time    0.0222
     EDDAV:  cpu time    6.3564: real time    6.3687
       DOS:  cpu time    0.0079: real time    0.0079
    CHARGE:  cpu time    0.5560: real time    0.5566
    MIXING:  cpu time    0.1026: real time    0.1027
    --------------------------------------------
      LOOP:  cpu time    9.2453: real time    9.2607

 eigenvalue-minimisations  :   358
 total energy-change (2. order) :-0.1680484E+00  (-0.2669350E-01)
 number of electron     100.0000236 magnetization       8.6254471
 augmentation part       54.4693562 magnetization       6.3419497

 Broyden mixing:
  rms(total) = 0.63925E+00    rms(broyden)= 0.63917E+00
  rms(prec ) = 0.67703E+00
  weight for this iteration     100.00

 eigenvalues of (default mixing * dielectric matrix)
  average eigenvalue GAMMA=   0.4919
  1.7064  1.0826  1.0826  0.6383  0.6383  0.4208  0.3228  0.2447  0.2140  0.2140
  0.0912  0.0912  0.0697  0.0697

 Free energy of the ion-electron system (eV)
  ---------------------------------------------------
  alpha Z        PSCENC =         5.17874040
  Ewald energy   TEWEN  =     12667.65620588
  -Hartree energ DENC   =    -21696.97713515
  -exchange      EXHF   =         0.00000000
  -V(xc)+E(xc)   XCENC  =        61.44742063
  PAW double counting   =     10090.67847452   -10254.53189404
  entropy T*S    EENTRO =        -0.00526746
  eigenvalues    EBANDS =      -614.29206832
  atomic energy  EATOM  =      9704.95859309
  Solvation  Ediel_sol  =         0.00000000
  ---------------------------------------------------
  free energy    TOTEN  =       -35.88693045 eV

  energy without entropy =      -35.88166299  energy(sigma->0) =      -35.88517463


--------------------------------------------------------------------------------------------------------




--------------------------------------- Iteration      1(  20)  ---------------------------------------


    POTLOK:  cpu time    2.1811: real time    2.1890
    SETDIJ:  cpu time    0.0221: real time    0.0221
     EDDAV:  cpu time    6.2059: real time    6.2212
       DOS:  cpu time    0.0077: real time    0.0077
    CHARGE:  cpu time    0.5700: real time    0.5707
    MIXING:  cpu time    0.1083: real time    0.1085
    --------------------------------------------
      LOOP:  cpu time    9.0951: real time    9.1191

 eigenvalue-minimisations  :   348
 total energy-change (2. order) :-0.4697615E+00  (-0.1841376E-01)
 number of electron     100.0000237 magnetization       8.5445411
 augmentation part       54.5380769 magnetization       6.3241035

 Broyden mixing:
  rms(total) = 0.68428E+00    rms(broyden)= 0.68421E+00
  rms(prec ) = 0.72783E+00
  weight for this iteration     100.00

 eigenvalues of (default mixing * dielectric matrix)
  average eigenvalue GAMMA=   0.5088
  1.7538  1.1109  0.7579  0.7579  0.8327  0.5577  0.5577  0.3068  0.2475  0.2138
  0.2138  0.0912  0.0912  0.0697  0.0697

 Free energy of the ion-electron system (eV)
  ---------------------------------------------------
  alpha Z        PSCENC =         5.17874040
  Ewald energy   TEWEN  =     12667.65620588
  -Hartree energ DENC   =    -21700.19353883
  -exchange      EXHF   =         0.00000000
  -V(xc)+E(xc)   XCENC  =        61.09721088
  PAW double counting   =     10093.28495940   -10256.96885240
  entropy T*S    EENTRO =         0.01093661
  eigenvalues    EBANDS =      -611.38094702
  atomic energy  EATOM  =      9704.95859309
  Solvation  Ediel_sol  =         0.00000000
  ---------------------------------------------------
  free energy    TOTEN  =       -36.35669198 eV

  energy without entropy =      -36.36762859  energy(sigma->0) =      -36.36033752


--------------------------------------------------------------------------------------------------------




--------------------------------------- Iteration      1(  21)  ---------------------------------------


    POTLOK:  cpu time    2.2006: real time    2.2052
    SETDIJ:  cpu time    0.0232: real time    0.0233
     EDDAV:  cpu time    6.5307: real time    6.5382
       DOS:  cpu time    0.0057: real time    0.0057
    CHARGE:  cpu time    0.5800: real time    0.5807
    MIXING:  cpu time    0.1228: real time    0.1229
    --------------------------------------------
      LOOP:  cpu time    9.4631: real time    9.4760

 eigenvalue-minimisations  :   370
 total energy-change (2. order) :-0.2662835E+00  (-0.1705020E-01)
 number of electron     100.0000240 magnetization       8.5191515
 augmentation part       54.5146653 magnetization       6.3582572

 Broyden mixing:
  rms(total) = 0.21725E+00    rms(broyden)= 0.21691E+00
  rms(prec ) = 0.22784E+00
  weight for this iteration     100.00

 eigenvalues of (default mixing * dielectric matrix)
  average eigenvalue GAMMA=   0.5289
  1.7826  1.0844  1.0844  0.7439  0.7439  0.5920  0.5920  0.5325  0.3095  0.2473
  0.2138  0.2138  0.0912  0.0912  0.0697  0.0697

 Free energy of the ion-electron system (eV)
  ---------------------------------------------------
  alpha Z        PSCENC =         5.17874040
  Ewald energy   TEWEN  =     12667.65620588
  -Hartree energ DENC   =    -21704.70473728
  -exchange      EXHF   =         0.00000000
  -V(xc)+E(xc)   XCENC  =        60.89819640
  PAW double counting   =     10090.51592125   -10254.31569712
  entropy T*S    EENTRO =         0.01717325
  eigenvalues    EBANDS =      -606.82737138
  atomic energy  EATOM  =      9704.95859309
  Solvation  Ediel_sol  =         0.00000000
  ---------------------------------------------------
  free energy    TOTEN  =       -36.62297550 eV

  energy without entropy =      -36.64014875  energy(sigma->0) =      -36.62869991


--------------------------------------------------------------------------------------------------------




--------------------------------------- Iteration      1(  22)  ---------------------------------------


    POTLOK:  cpu time    2.1790: real time    2.1810
    SETDIJ:  cpu time    0.0223: real time    0.0223
     EDDAV:  cpu time    6.2547: real time    6.2619
       DOS:  cpu time    0.0058: real time    0.0058
    CHARGE:  cpu time    0.5554: real time    0.5560
    MIXING:  cpu time    0.1399: real time    0.1401
    --------------------------------------------
      LOOP:  cpu time    9.1571: real time    9.1671

 eigenvalue-minimisations  :   348
 total energy-change (2. order) :-0.1112119E+00  (-0.4141240E-02)
 number of electron     100.0000242 magnetization       8.4758297
 augmentation part       54.5179126 magnetization       6.3234589

 Broyden mixing:
  rms(total) = 0.21794E+00    rms(broyden)= 0.21779E+00
  rms(prec ) = 0.22989E+00
  weight for this iteration     100.00

 eigenvalues of (default mixing * dielectric matrix)
  average eigenvalue GAMMA=   0.5635
  1.8106  1.1911  1.1911  0.8413  0.8413  0.5840  0.5840  0.6157  0.6157  0.3082
  0.2474  0.2138  0.2138  0.0912  0.0912  0.0697  0.0697

 Free energy of the ion-electron system (eV)
  ---------------------------------------------------
  alpha Z        PSCENC =         5.17874040
  Ewald energy   TEWEN  =     12667.65620588
  -Hartree energ DENC   =    -21705.81171286
  -exchange      EXHF   =         0.00000000
  -V(xc)+E(xc)   XCENC  =        60.79535762
  PAW double counting   =     10089.84702091   -10253.68387077
  entropy T*S    EENTRO =         0.01869150
  eigenvalues    EBANDS =      -605.69321318
  atomic energy  EATOM  =      9704.95859309
  Solvation  Ediel_sol  =         0.00000000
  ---------------------------------------------------
  free energy    TOTEN  =       -36.73418741 eV

  energy without entropy =      -36.75287891  energy(sigma->0) =      -36.74041791


--------------------------------------------------------------------------------------------------------




--------------------------------------- Iteration      1(  23)  ---------------------------------------


    POTLOK:  cpu time    2.1755: real time    2.1858
    SETDIJ:  cpu time    0.0218: real time    0.0218
     EDDAV:  cpu time    6.2351: real time    6.2433
       DOS:  cpu time    0.0052: real time    0.0052
    CHARGE:  cpu time    0.5488: real time    0.5494
    MIXING:  cpu time    0.1345: real time    0.1346
    --------------------------------------------
      LOOP:  cpu time    9.1208: real time    9.1401

 eigenvalue-minimisations  :   348
 total energy-change (2. order) :-0.1477273E+00  (-0.1928939E-02)
 number of electron     100.0000242 magnetization       8.4321705
 augmentation part       54.5073231 magnetization       6.2893182

 Broyden mixing:
  rms(total) = 0.20038E+00    rms(broyden)= 0.20032E+00
  rms(prec ) = 0.21294E+00
  weight for this iteration     100.00

 eigenvalues of (default mixing * dielectric matrix)
  average eigenvalue GAMMA=   0.5840
  1.9056  1.4626  1.0954  0.8779  0.8779  0.6976  0.6976  0.5465  0.5465  0.4993
  0.3088  0.2473  0.2138  0.2138  0.0912  0.0912  0.0697  0.0697

 Free energy of the ion-electron system (eV)
  ---------------------------------------------------
  alpha Z        PSCENC =         5.17874040
  Ewald energy   TEWEN  =     12667.65620588
  -Hartree energ DENC   =    -21707.82312645
  -exchange      EXHF   =         0.00000000
  -V(xc)+E(xc)   XCENC  =        60.68334084
  PAW double counting   =     10088.57959967   -10252.51549773
  entropy T*S    EENTRO =         0.02255913
  eigenvalues    EBANDS =      -603.62232956
  atomic energy  EATOM  =      9704.95859309
  Solvation  Ediel_sol  =         0.00000000
  ---------------------------------------------------
  free energy    TOTEN  =       -36.88191472 eV

  energy without entropy =      -36.90447386  energy(sigma->0) =      -36.88943444


--------------------------------------------------------------------------------------------------------




--------------------------------------- Iteration      1(  24)  ---------------------------------------


    POTLOK:  cpu time    2.1800: real time    2.1851
    SETDIJ:  cpu time    0.0224: real time    0.0224
     EDDAV:  cpu time    6.4039: real time    6.4138
       DOS:  cpu time    0.0055: real time    0.0056
    CHARGE:  cpu time    0.5674: real time    0.5704
    MIXING:  cpu time    0.1441: real time    0.1443
    --------------------------------------------
      LOOP:  cpu time    9.3233: real time    9.3415

 eigenvalue-minimisations  :   362
 total energy-change (2. order) :-0.1358893E+00  (-0.1318986E-02)
 number of electron     100.0000242 magnetization       8.3902329
 augmentation part       54.4932864 magnetization       6.2598708

 Broyden mixing:
  rms(total) = 0.83960E-01    rms(broyden)= 0.83902E-01
  rms(prec ) = 0.89024E-01
  weight for this iteration     100.00

 eigenvalues of (default mixing * dielectric matrix)
  average eigenvalue GAMMA=   0.6073
  2.0345  1.4731  0.9003  0.9003  1.0390  0.8277  0.8277  0.5606  0.5606  0.6339
  0.4757  0.3084  0.2474  0.2138  0.2138  0.0912  0.0912  0.0697  0.0697

 Free energy of the ion-electron system (eV)
  ---------------------------------------------------
  alpha Z        PSCENC =         5.17874040
  Ewald energy   TEWEN  =     12667.65620588
  -Hartree energ DENC   =    -21709.78927040
  -exchange      EXHF   =         0.00000000
  -V(xc)+E(xc)   XCENC  =        60.57872251
  PAW double counting   =     10086.75094669   -10250.78487584
  entropy T*S    EENTRO =         0.02427237
  eigenvalues    EBANDS =      -601.59113872
  atomic energy  EATOM  =      9704.95859309
  Solvation  Ediel_sol  =         0.00000000
  ---------------------------------------------------
  free energy    TOTEN  =       -37.01780402 eV

  energy without entropy =      -37.04207639  energy(sigma->0) =      -37.02589481


--------------------------------------------------------------------------------------------------------




--------------------------------------- Iteration      1(  25)  ---------------------------------------


    POTLOK:  cpu time    2.1985: real time    2.2035
    SETDIJ:  cpu time    0.0229: real time    0.0229
     EDDAV:  cpu time    5.9966: real time    6.0037
       DOS:  cpu time    0.0057: real time    0.0057
    CHARGE:  cpu time    0.5781: real time    0.5787
    MIXING:  cpu time    0.1619: real time    0.1621
    --------------------------------------------
      LOOP:  cpu time    8.9637: real time    8.9766

 eigenvalue-minimisations  :   332
 total energy-change (2. order) :-0.1189729E+00  (-0.7217589E-03)
 number of electron     100.0000242 magnetization       8.3482403
 augmentation part       54.4907803 magnetization       6.2217186

 Broyden mixing:
  rms(total) = 0.54936E-01    rms(broyden)= 0.54873E-01
  rms(prec ) = 0.57938E-01
  weight for this iteration     100.00

 eigenvalues of (default mixing * dielectric matrix)
  average eigenvalue GAMMA=   0.6284
  1.9592  1.4057  1.1749  1.1749  0.8565  0.8565  0.7489  0.7489  0.7553  0.5611
  0.5611  0.4592  0.3085  0.2474  0.2138  0.2138  0.0912  0.0912  0.0697  0.0697

 Free energy of the ion-electron system (eV)
  ---------------------------------------------------
  alpha Z        PSCENC =         5.17874040
  Ewald energy   TEWEN  =     12667.65620588
  -Hartree energ DENC   =    -21711.26456707
  -exchange      EXHF   =         0.00000000
  -V(xc)+E(xc)   XCENC  =        60.47236839
  PAW double counting   =     10084.55244539   -10248.60606885
  entropy T*S    EENTRO =         0.02396201
  eigenvalues    EBANDS =      -600.10845619
  atomic energy  EATOM  =      9704.95859309
  Solvation  Ediel_sol  =         0.00000000
  ---------------------------------------------------
  free energy    TOTEN  =       -37.13677695 eV

  energy without entropy =      -37.16073895  energy(sigma->0) =      -37.14476428


--------------------------------------------------------------------------------------------------------




--------------------------------------- Iteration      1(  26)  ---------------------------------------


    POTLOK:  cpu time    2.1808: real time    2.1863
    SETDIJ:  cpu time    0.0222: real time    0.0222
     EDDAV:  cpu time    6.2809: real time    6.2908
       DOS:  cpu time    0.0008: real time    0.0008
    CHARGE:  cpu time    0.5663: real time    0.5669
    MIXING:  cpu time    0.1634: real time    0.1660
    --------------------------------------------
      LOOP:  cpu time    9.2144: real time    9.2330

 eigenvalue-minimisations  :   352
 total energy-change (2. order) :-0.9359595E-01  (-0.4214352E-03)
 number of electron     100.0000242 magnetization       8.3127199
 augmentation part       54.4862672 magnetization       6.1886996

 Broyden mixing:
  rms(total) = 0.58035E-01    rms(broyden)= 0.58007E-01
  rms(prec ) = 0.62216E-01
  weight for this iteration     100.00

 eigenvalues of (default mixing * dielectric matrix)
  average eigenvalue GAMMA=   0.6562
  2.0681  2.0681  1.1219  1.1219  0.8505  0.8505  0.7370  0.7370  0.6815  0.6815
  0.5527  0.5527  0.4522  0.3084  0.2474  0.2138  0.2138  0.0912  0.0912  0.0697
  0.0697

 Free energy of the ion-electron system (eV)
  ---------------------------------------------------
  alpha Z        PSCENC =         5.17874040
  Ewald energy   TEWEN  =     12667.65620588
  -Hartree energ DENC   =    -21712.82649161
  -exchange      EXHF   =         0.00000000
  -V(xc)+E(xc)   XCENC  =        60.39195159
  PAW double counting   =     10083.24935858   -10247.34443565
  entropy T*S    EENTRO =         0.02386207
  eigenvalues    EBANDS =      -598.51815727
  atomic energy  EATOM  =      9704.95859309
  Solvation  Ediel_sol  =         0.00000000
  ---------------------------------------------------
  free energy    TOTEN  =       -37.23037290 eV

  energy without entropy =      -37.25423497  energy(sigma->0) =      -37.23832692


--------------------------------------------------------------------------------------------------------




--------------------------------------- Iteration      1(  27)  ---------------------------------------


    POTLOK:  cpu time    2.1685: real time    2.1776
    SETDIJ:  cpu time    0.0223: real time    0.0223
     EDDAV:  cpu time    5.9620: real time    5.9760
       DOS:  cpu time    0.0027: real time    0.0027
    CHARGE:  cpu time    0.5836: real time    0.5844
    MIXING:  cpu time    0.1813: real time    0.1815
    --------------------------------------------
      LOOP:  cpu time    8.9204: real time    8.9445

 eigenvalue-minimisations  :   326
 total energy-change (2. order) :-0.6684393E-01  (-0.3027718E-03)
 number of electron     100.0000242 magnetization       8.2725285
 augmentation part       54.4800604 magnetization       6.1553821

 Broyden mixing:
  rms(total) = 0.19191E-01    rms(broyden)= 0.19135E-01
  rms(prec ) = 0.21037E-01
  weight for this iteration     100.00

 eigenvalues of (default mixing * dielectric matrix)
  average eigenvalue GAMMA=   0.6848
  2.2647  1.7550  1.7550  0.9686  0.9686  0.8474  0.8474  0.6951  0.6951  0.7198
  0.6924  0.5519  0.5519  0.4474  0.3085  0.2474  0.2138  0.2138  0.0912  0.0912
  0.0697  0.0697

 Free energy of the ion-electron system (eV)
  ---------------------------------------------------
  alpha Z        PSCENC =         5.17874040
  Ewald energy   TEWEN  =     12667.65620588
  -Hartree energ DENC   =    -21714.05839072
  -exchange      EXHF   =         0.00000000
  -V(xc)+E(xc)   XCENC  =        60.34068148
  PAW double counting   =     10081.75280085   -10245.86846114
  entropy T*S    EENTRO =         0.02488091
  eigenvalues    EBANDS =      -597.28226759
  atomic energy  EATOM  =      9704.95859309
  Solvation  Ediel_sol  =         0.00000000
  ---------------------------------------------------
  free energy    TOTEN  =       -37.29721683 eV

  energy without entropy =      -37.32209775  energy(sigma->0) =      -37.30551047


--------------------------------------------------------------------------------------------------------




--------------------------------------- Iteration      1(  28)  ---------------------------------------


    POTLOK:  cpu time    2.1796: real time    2.1824
    SETDIJ:  cpu time    0.0222: real time    0.0222
     EDDAV:  cpu time    5.7171: real time    5.7262
       DOS:  cpu time    0.0008: real time    0.0008
    CHARGE:  cpu time    0.5755: real time    0.5761
    MIXING:  cpu time    0.1881: real time    0.1883
    --------------------------------------------
      LOOP:  cpu time    8.6833: real time    8.6961

 eigenvalue-minimisations  :   312
 total energy-change (2. order) :-0.5952069E-01  (-0.1364147E-03)
 number of electron     100.0000242 magnetization       8.2418090
 augmentation part       54.4850979 magnetization       6.1222566

 Broyden mixing:
  rms(total) = 0.17706E-01    rms(broyden)= 0.17688E-01
  rms(prec ) = 0.19265E-01
  weight for this iteration     100.00

[...]
 total energy-change (2. order) :-0.1893195E-04  (-0.3018757E-04)
 number of electron     100.0000087 magnetization       8.0821598
 augmentation part       54.4128413 magnetization       6.0071496

 Free energy of the ion-electron system (eV)
  ---------------------------------------------------
  alpha Z        PSCENC =         5.17874040
  Ewald energy   TEWEN  =     12880.57507321
  -Hartree energ DENC   =    -21925.26251184
  -exchange      EXHF   =         0.00000000
  -V(xc)+E(xc)   XCENC  =        60.40846507
  PAW double counting   =     10148.47191007   -10313.17932046
  entropy T*S    EENTRO =         0.03006034
  eigenvalues    EBANDS =      -599.02936107
  atomic energy  EATOM  =      9704.95859309
  Solvation  Ediel_sol  =         0.00000000
  ---------------------------------------------------
  free energy    TOTEN  =       -37.84835120 eV

  energy without entropy =      -37.87841153  energy(sigma->0) =      -37.85837131


--------------------------------------------------------------------------------------------------------




 average (electrostatic) potential at core
  the test charge radii are     0.9791  1.1199
  (the norm of the test charge is              1.0000)
       1 -95.5003       2 -95.3174       3 -95.3578       4 -95.3833       5 -95.4870
       6 -95.2199       7 -83.5861       8 -83.6651       9 -83.7472      10 -83.4653
 
 
 
 E-fermi :  -4.1611     XC(G=0):  -0.3473     alpha+bet : -0.1882


 spin component 1

 k-point     1 :       0.0000    0.0000    0.0000
  band No.  band energies     occupation 
      1      -9.9622      1.00000
      2      -8.3809      1.00000
      3      -8.2704      1.00000
      4      -8.1002      1.00000
      5      -7.8858      1.00000
      6      -7.8547      1.00000
      7      -7.6517      1.00000
      8      -7.5696      1.00000
      9      -7.5016      1.00000
     10      -7.4212      1.00000
     11      -7.3012      1.00000
     12      -7.2680      1.00000
     13      -7.1395      1.00000
     14      -7.0767      1.00000
     15      -6.9847      1.00000
     16      -6.7969      1.00000
     17      -6.7256      1.00000
     18      -6.6127      1.00000
     19      -6.5636      1.00000
     20      -6.5611      1.00000
     21      -6.4479      1.00000
     22      -6.4145      1.00000
     23      -6.3350      1.00000
     24      -6.2685      1.00000
     25      -6.1813      1.00000
     26      -6.0285      1.00000
     27      -5.8665      1.00000
     28      -5.6966      1.00000
     29      -5.6542      1.00000
     30      -5.5781      1.00000
     31      -5.5453      1.00000
     32      -5.5118      1.00000
     33      -5.4916      1.00000
     34      -5.4719      1.00000
     35      -5.4482      1.00000
     36      -5.4231      1.00000
     37      -5.3722      1.00000
     38      -5.3398      1.00000
     39      -5.3028      1.00000
     40      -5.2639      1.00000
     41      -5.2395      1.00000
     42      -5.2181      1.00000
     43      -5.1411      1.00000
     44      -5.1064      1.00000
     45      -5.0537      1.00000
     46      -4.9886      1.00000
     47      -4.9406      1.00000
     48      -4.9055      1.00000
     49      -4.8649      1.00000
     50      -4.7381      1.00018
     51      -4.6984      1.00048
     52      -4.6951      1.00052
     53      -4.5952      1.00444
     54      -4.4141      1.03522
     55      -3.0638     -0.00000
     56      -3.0324     -0.00000
     57      -2.7051     -0.00000
     58      -2.3772     -0.00000
     59      -2.3067     -0.00000
     60      -1.7050     -0.00000
     61      -0.8729     -0.00000
     62      -0.8404     -0.00000
     63      -0.6334     -0.00000
     64      -0.5887     -0.00000
     65      -0.2816     -0.00000
     66      -0.0998     -0.00000

 spin component 2

 k-point     1 :       0.0000    0.0000    0.0000
  band No.  band energies     occupation 
      1      -9.8783      1.00000
      2      -8.0449      1.00000
      3      -7.9329      1.00000
      4      -7.6322      1.00000
      5      -7.3973      1.00000
      6      -7.3415      1.00000
      7      -7.0196      1.00000
      8      -6.9028      1.00000
      9      -6.8717      1.00000
     10      -6.7602      1.00000
     11      -6.6575      1.00000
     12      -6.5542      1.00000
     13      -6.4617      1.00000
     14      -6.4047      1.00000
     15      -6.3177      1.00000
     16      -6.2955      1.00000
     17      -6.1878      1.00000
     18      -6.1569      1.00000
     19      -6.0983      1.00000
     20      -6.0736      1.00000
     21      -5.9010      1.00000
     22      -5.7912      1.00000
     23      -5.5305      1.00000
     24      -5.4840      1.00000
     25      -5.4005      1.00000
     26      -5.3283      1.00000
     27      -5.2635      1.00000
     28      -5.2131      1.00000
     29      -5.1080      1.00000
     30      -5.0511      1.00000
     31      -4.9906      1.00000
     32      -4.9709      1.00000
     33      -4.8143      1.00002
     34      -4.7761      1.00006
     35      -4.7351      1.00019
     36      -4.6810      1.00073
     37      -4.6599      1.00119
     38      -4.6042      1.00375
     39      -4.5091      1.01684
     40      -4.4923      1.02051
     41      -4.4077      1.03545
     42      -4.3698      1.02908
     43      -4.3375      1.00811
     44      -4.3006      0.95893
     45      -4.2722      0.89892
     46      -4.1461      0.43653
     47      -4.1348      0.38961
     48      -4.0830      0.19593
     49      -4.0487      0.09763
     50      -3.9822     -0.01041
     51      -3.9394     -0.03303
     52      -3.9150     -0.03545
     53      -3.8889     -0.03310
     54      -3.8380     -0.02234
     55      -2.8407     -0.00000
     56      -2.7545     -0.00000
     57      -2.4747     -0.00000
     58      -2.0210     -0.00000
     59      -1.9908     -0.00000
     60      -1.3852     -0.00000
     61      -0.7347     -0.00000
     62      -0.6976     -0.00000
     63      -0.4668     -0.00000
     64      -0.4505     -0.00000
     65      -0.0719     -0.00000
     66       0.1240     -0.00000


--------------------------------------------------------------------------------------------------------


 soft charge-density along one line, spin component            1
         0         1         2         3         4         5         6         7         8         9
 total charge-density along one line
 
 soft charge-density along one line, spin component            2
         0         1         2         3         4         5         6         7         8         9
 total charge-density along one line
 
 pseudopotential strength for first ion, spin component:            1
-10.242  -0.135   0.051   0.049   0.106 -10.513  -0.129   0.048
 -0.135 -10.397   0.025  -0.058   0.097  -0.129 -10.660   0.024
  0.051   0.025 -10.298   0.049  -0.063   0.048   0.024 -10.566
  0.049  -0.058   0.049 -10.536  -0.050   0.047  -0.056   0.048
  0.106   0.097  -0.063  -0.050 -10.305   0.102   0.093  -0.060
-10.513  -0.129   0.048   0.047   0.102 -10.729  -0.123   0.046
 -0.129 -10.660   0.024  -0.056   0.093  -0.123 -10.870   0.023
  0.048   0.024 -10.566   0.048  -0.060   0.046   0.023 -10.780
  0.047  -0.056   0.048 -10.794  -0.047   0.045  -0.053   0.046
  0.102   0.093  -0.060  -0.047 -10.573   0.097   0.089  -0.057
  0.014   0.003   0.014   0.022  -0.004   0.014   0.003   0.014
  0.025   0.005   0.025   0.039  -0.007   0.024   0.005   0.024
 -0.001   0.011  -0.004   0.000  -0.008   0.000   0.010  -0.003
  0.000   0.008   0.008   0.004  -0.002   0.000   0.008   0.007
  0.006   0.000   0.002   0.006   0.001   0.006   0.000   0.002
  0.001   0.012  -0.004   0.000  -0.010   0.001   0.011  -0.004
  0.000   0.010   0.008   0.006  -0.003   0.000   0.009   0.007
  0.007   0.000   0.002   0.005   0.003   0.007   0.000   0.001
 pseudopotential strength for first ion, spin component:            2
 -9.501  -0.008   0.033  -0.041  -0.050  -9.807  -0.007   0.032
 -0.008  -9.553  -0.027  -0.020  -0.039  -0.007  -9.857  -0.026
  0.033  -0.027  -9.609  -0.072   0.019   0.032  -0.026  -9.911
 -0.041  -0.020  -0.072  -9.456  -0.054  -0.040  -0.019  -0.069
 -0.050  -0.039   0.019  -0.054  -9.482  -0.048  -0.038   0.018
 -9.807  -0.007   0.032  -0.040  -0.048 -10.057  -0.006   0.031
 -0.007  -9.857  -0.026  -0.019  -0.038  -0.006 -10.104  -0.025
  0.032  -0.026  -9.911  -0.069   0.018   0.031  -0.025 -10.157
 -0.040  -0.019  -0.069  -9.763  -0.051  -0.039  -0.018  -0.067
 -0.048  -0.038   0.018  -0.051  -9.789  -0.046  -0.037   0.018
  0.005   0.000   0.007   0.010  -0.004   0.005   0.000   0.007
  0.009   0.000   0.012   0.018  -0.008   0.009   0.000   0.012
 -0.005   0.010  -0.004   0.000  -0.006  -0.004   0.010  -0.003
  0.000   0.006   0.012  -0.005   0.001   0.000   0.006   0.011
  0.006   0.000   0.002   0.012  -0.005   0.006   0.000   0.002
 -0.005   0.011  -0.004  -0.000  -0.007  -0.004   0.010  -0.004
 -0.000   0.007   0.014  -0.007   0.001   0.000   0.007   0.013
  0.008  -0.000   0.002   0.013  -0.006   0.007   0.000   0.002
 total augmentation occupancy for first ion, spin component:            1
  3.643  -0.255   0.038   0.248   0.433  -1.606   0.010   0.001  -0.133  -0.175  -0.079  -0.001  -0.260  -0.021  -0.004   0.022
 -0.255   3.063   0.072  -0.061   0.352   0.011  -1.409  -0.030   0.014  -0.170   0.034   0.008   0.106   0.046  -0.021  -0.006
  0.038   0.072   3.798   0.249  -0.257   0.003  -0.031  -1.738  -0.155   0.076  -0.213   0.005  -0.021   0.180   0.141   0.001
  0.248  -0.061   0.249   2.831  -0.080  -0.119   0.018  -0.148  -1.355  -0.002  -0.376  -0.019  -0.016  -0.185   0.051  -0.000
  0.433   0.352  -0.257  -0.080   3.301  -0.178  -0.182   0.093  -0.011  -1.469   0.198   0.034  -0.074  -0.029  -0.175   0.005
 -1.606   0.011   0.003  -0.119  -0.178   1.403   0.138  -0.027   0.068   0.032   0.079  -0.002   0.273   0.025   0.000  -0.030
  0.010  -1.409  -0.031   0.018  -0.182   0.138   1.470   0.014   0.000   0.082  -0.006  -0.004  -0.090  -0.035   0.024   0.013
  0.001  -0.030  -1.738  -0.148   0.093  -0.027   0.014   1.533   0.124   0.016   0.205  -0.009   0.023  -0.204  -0.139  -0.002
 -0.133   0.014  -0.155  -1.355  -0.011   0.068   0.000   0.124   1.466   0.079   0.423  -0.011   0.023   0.236  -0.077  -0.000
 -0.175  -0.170   0.076  -0.002  -1.469   0.032   0.082   0.016   0.079   1.388  -0.201  -0.013   0.067   0.006   0.199  -0.007
 -0.079   0.034  -0.213  -0.376   0.198   0.079  -0.006   0.205   0.423  -0.201   2.016  -0.243  -0.030  -0.114   0.208   0.007
 -0.001   0.008   0.005  -0.019   0.034  -0.002  -0.004  -0.009  -0.011  -0.013  -0.243   0.037   0.006   0.024  -0.049  -0.001
 -0.260   0.106  -0.021  -0.016  -0.074   0.273  -0.090   0.023   0.023   0.067  -0.030   0.006   0.267  -0.004   0.010  -0.026
 -0.021   0.046   0.180  -0.185  -0.029   0.025  -0.035  -0.204   0.236   0.006  -0.114   0.024  -0.004   0.267   0.053   0.000
 -0.004  -0.021   0.141   0.051  -0.175   0.000   0.024  -0.139  -0.077   0.199   0.208  -0.049   0.010   0.053   0.209  -0.000
  0.022  -0.006   0.001  -0.000   0.005  -0.030   0.013  -0.002  -0.000  -0.007   0.007  -0.001  -0.026   0.000  -0.000   0.003
  0.000  -0.002  -0.012   0.011   0.006  -0.001   0.004   0.022  -0.022  -0.004   0.023  -0.004   0.000  -0.026  -0.003  -0.000
  0.002   0.001  -0.011   0.006   0.012   0.000  -0.001   0.015   0.005  -0.021  -0.040   0.007  -0.000  -0.003  -0.023  -0.000
 total augmentation occupancy for first ion, spin component:            2
  0.855   0.454  -0.090  -0.271  -0.490  -0.429  -0.242   0.054   0.149   0.247  -0.015  -0.003  -0.007  -0.002   0.010  -0.003
  0.454   1.245  -0.195   0.120  -0.468  -0.239  -0.634   0.109  -0.054   0.239  -0.011   0.001  -0.014  -0.015   0.007   0.004
 -0.090  -0.195   0.700  -0.303   0.241   0.051   0.111  -0.346   0.145  -0.111   0.001  -0.003   0.001   0.021  -0.002  -0.001
 -0.271   0.120  -0.303   1.830   0.080   0.128  -0.065   0.133  -0.892  -0.067  -0.079  -0.034  -0.007  -0.062   0.043   0.000
 -0.490  -0.468   0.241   0.080   1.042   0.248   0.257  -0.127  -0.052  -0.502   0.054   0.027   0.014   0.030  -0.020  -0.002
 -0.429  -0.239   0.051   0.128   0.248   0.141   0.112  -0.027  -0.069  -0.114   0.008   0.003  -0.003   0.000  -0.005   0.002
 -0.242  -0.634   0.111  -0.065   0.257   0.112   0.231  -0.061   0.026  -0.122   0.001  -0.001   0.006   0.006  -0.005  -0.003
  0.054   0.109  -0.346   0.133  -0.127  -0.027  -0.061   0.096  -0.063   0.051  -0.003   0.003  -0.001  -0.006   0.002   0.001
  0.149  -0.054   0.145  -0.892  -0.052  -0.069   0.026  -0.063   0.334   0.032   0.032   0.021   0.002   0.020  -0.019  -0.000
  0.247   0.239  -0.111  -0.067  -0.502  -0.114  -0.122   0.051   0.032   0.158  -0.029  -0.015  -0.006  -0.012   0.002   0.002
 -0.015  -0.011   0.001  -0.079   0.054   0.008   0.001  -0.003   0.032  -0.029  -0.110   0.053   0.001   0.018  -0.034  -0.001
 -0.003   0.001  -0.003  -0.034   0.027   0.003  -0.001   0.003   0.021  -0.015   0.053  -0.008  -0.001  -0.002   0.002   0.000
 -0.007  -0.014   0.001  -0.007   0.014  -0.003   0.006  -0.001   0.002  -0.006   0.001  -0.001  -0.010  -0.001  -0.001   0.003
 -0.002  -0.015   0.021  -0.062   0.030   0.000   0.006  -0.006   0.020  -0.012   0.018  -0.002  -0.001  -0.007  -0.008  -0.000
  0.010   0.007  -0.002   0.043  -0.020  -0.005  -0.005   0.002  -0.019   0.002  -0.034   0.002  -0.001  -0.008  -0.005   0.000
 -0.003   0.004  -0.001   0.000  -0.002   0.002  -0.003   0.001  -0.000   0.002  -0.001   0.000   0.003  -0.000   0.000  -0.000
 -0.000   0.001   0.003  -0.003   0.001   0.000  -0.001  -0.002   0.001   0.000  -0.002   0.001  -0.000   0.002   0.001   0.000
 -0.000  -0.000   0.002   0.005  -0.004   0.000   0.000  -0.002  -0.003   0.003   0.003  -0.001   0.000   0.001   0.002  -0.000


------------------------ aborting loop because EDIFF is reached ----------------------------------------


    CHARGE:  cpu time    0.5645: real time    0.5652
    FORLOC:  cpu time    0.0803: real time    0.0803
    FORNL :  cpu time    2.4874: real time    2.4916
    FORCOR:  cpu time    2.0808: real time    2.0864
    FORHAR:  cpu time    0.2843: real time    0.2846
    MIXING:  cpu time    0.0472: real time    0.0472
    OFIELD:  cpu time    0.0000: real time    0.0000

 VOLUME and BASIS-vectors are now :
 -----------------------------------------------------------------------------
  energy-cutoff  :      400.00
  volume of cell :    10942.76
      direct lattice vectors                 reciprocal lattice vectors
    22.629843944  0.000000000  0.000000000     0.044189434  0.000000000  0.000000000
     0.000000000 22.388292693  0.000000000     0.000000000  0.044666202  0.000000000
     0.000000000  0.000000000 21.598543813     0.000000000  0.000000000  0.046299418

  length of vectors
    22.629843944 22.388292693 21.598543813     0.044189434  0.044666202  0.046299418


 FORCES acting on ions
    electron-ion (+dipol)            ewald-force                    non-local-force                 convergence-correction
 -----------------------------------------------------------------------------------------------
   0.722E+03 -.748E+02 -.340E+03   -.722E+03 0.743E+02 0.339E+03   0.126E+00 0.465E+00 0.128E+01   -.102E-01 0.446E-01 -.121E+00
   -.694E+03 0.781E+03 0.204E+03   0.690E+03 -.777E+03 -.202E+03   0.352E+01 -.358E+01 -.966E+00   -.589E-01 0.207E+00 -.157E+00
   -.101E+04 -.396E+03 0.938E+02   0.100E+04 0.393E+03 -.934E+02   0.444E+01 0.225E+01 -.143E+00   -.159E-01 0.155E-01 -.196E+00
   -.450E+03 0.209E+03 -.951E+03   0.448E+03 -.208E+03 0.947E+03   0.247E+01 -.753E+00 0.412E+01   -.377E-01 0.777E-01 -.121E+00
   -.283E+03 -.421E+02 0.985E+03   0.282E+03 0.420E+02 -.981E+03   0.168E+01 0.553E-01 -.355E+01   0.277E-01 0.704E-01 0.903E-01
   0.213E+02 -.781E+03 -.749E+03   -.201E+02 0.776E+03 0.744E+03   -.126E+01 0.493E+01 0.512E+01   -.153E-01 -.117E-01 -.171E+00
   0.320E+03 0.772E+03 -.547E+03   -.317E+03 -.766E+03 0.543E+03   -.354E+01 -.580E+01 0.427E+01   -.499E-01 -.562E-02 -.352E-01
   0.490E+03 0.741E+03 0.480E+03   -.486E+03 -.736E+03 -.477E+03   -.365E+01 -.520E+01 -.316E+01   0.504E-01 0.155E+00 -.203E-01
   0.848E+02 -.960E+03 0.315E+03   -.842E+02 0.953E+03 -.313E+03   -.651E+00 0.659E+01 -.235E+01   0.973E-01 -.183E+00 -.606E-01
   0.799E+03 -.250E+03 0.508E+03   -.792E+03 0.248E+03 -.505E+03   -.675E+01 0.197E+01 -.321E+01   0.149E+00 -.268E-01 0.496E-01
 -----------------------------------------------------------------------------------------------
   0.344E+01 -.129E+01 -.640E+00   0.000E+00 0.426E-12 0.455E-12   -.360E+01 0.926E+00 0.141E+01   0.136E+00 0.343E+00 -.742E+00
 
 
 POSITION                                       TOTAL-FORCE (eV/Angst)
 -----------------------------------------------------------------------------------
     10.95182     11.13805     11.12186         0.011615     -0.002427      0.024873
     12.92133      9.56209     10.50574         0.001383     -0.002498      0.008045
     13.50492     11.87122     10.74734         0.012010     -0.006023      0.019231
     12.72114     10.65083     12.58130        -0.002703      0.028944     -0.002627
     12.10325     11.16142      9.04005        -0.021892     -0.001002     -0.020738
     12.05501     12.81789     12.30666         0.000981     -0.000806     -0.007697
     11.19396      8.80726     12.15677         0.000399     -0.021249     -0.004913
     10.63590      9.21868      9.51327        -0.009877     -0.021107     -0.010142
     11.62738     13.43827      9.96692         0.013902      0.017174     -0.004355
      9.71427     11.74828      9.05592        -0.005817      0.008993     -0.001677
 -----------------------------------------------------------------------------------
    total drift:                               -0.022049     -0.016718      0.027832


--------------------------------------------------------------------------------------------------------



  FREE ENERGIE OF THE ION-ELECTRON SYSTEM (eV)
  ---------------------------------------------------
  free  energy   TOTEN  =       -37.84835120 eV

  energy  without entropy=      -37.87841153  energy(sigma->0) =      -37.85837131
 
 d Force = 0.5003104E-05[-0.110E-04, 0.210E-04]  d Energy = 0.1805350E-03-0.176E-03
 d Force =-0.6185753E+00[-0.619E+00,-0.619E+00]  d Ewald  =-0.6185758E+00 0.498E-06


--------------------------------------------------------------------------------------------------------


    POTLOK:  cpu time    2.2094: real time    2.2133


--------------------------------------------------------------------------------------------------------




--------------------------------------------------------------------------------------------------------


  
 reached required accuracy - stopping structural energy minimisation
     LOOP+:  cpu time   54.8661: real time   54.9738
    4ORBIT:  cpu time    0.0000: real time    0.0000

 total amount of memory used by VASP MPI-rank0   143494. kBytes
=======================================================================

   base      :      30000. kBytes
   nonl-proj :       5567. kBytes
   fftplans  :      26565. kBytes
   grid      :      68189. kBytes
   one-center:         31. kBytes
   wavefun   :      13142. kBytes
 
  
  
 General timing and accounting informations for this job:
 ========================================================
  
                  Total CPU time used (sec):     2188.652
                            User time (sec):     2172.627
                          System time (sec):       16.025
                         Elapsed time (sec):     2196.052
  
                   Maximum memory used (kb):      307368.
                   Average memory used (kb):           0.
  
                          Minor page faults:      4057201
                          Major page faults:        80996
                 Voluntary context switches:         4429
