<?xml version="1.0" encoding="ISO-8859-1"?>
<modeling>
 <generator>
  <i name="program" type="string">vasp </i>
  <i name="version" type="string">6.1.2  </i>
  <i name="subversion" type="string">22Jul20 (build Aug  2 2021 21:04:21) gamma-only                       parallel </i>
  <i name="platform" type="string">LinuxPGI </i>
  <i name="date" type="string">2021 12 22 </i>
  <i name="time" type="string">10:11:58 </i>
 </generator>
 <incar>
  <i type="int" name="ISPIN">     2</i>
  <i type="int" name="IBRION">     2</i>
  <i type="int" name="NSW">  1000</i>
  <i type="int" name="ISIF">     0</i>
  <i type="int" name="ISYM">     0</i>
  <i name="ENCUT">    400.00000000</i>
  <i type="logical" name="LREAL"> F  </i>
  <i type="int" name="ISMEAR">     1</i>
  <i name="SIGMA">      0.20000000</i>
  <i type="logical" name="LWAVE"> F  </i>
  <i type="logical" name="LCHARG"> F  </i>
  <i type="int" name="KPAR">     1</i>
  <i type="int" name="NCORE">     8</i>
  <i type="string" name="GGA"> PE</i>
  <i type="int" name="ISPIN">     2</i>
 </incar>
 <structure name="primitive_cell" >
  <crystal>
   <varray name="basis" >
    <v>      22.62984394       0.00000000       0.00000000 </v>
    <v>       0.00000000      22.38829269       0.00000000 </v>
    <v>       0.00000000       0.00000000      21.59854381 </v>
   </varray>
   <i name="volume">  10942.76334035 </i>
   <varray name="rec_basis" >
    <v>       0.04418943       0.00000000       0.00000000 </v>
    <v>       0.00000000       0.04466620       0.00000000 </v>
    <v>       0.00000000       0.00000000       0.04629942 </v>
   </varray>
  </crystal>
  <varray name="positions" >
   <v>       0.48927557       0.49832177       0.51466118 </v>
   <v>       0.57081355       0.42570420       0.48665970 </v>
   <v>       0.59518448       0.53168368       0.49780984 </v>
   <v>       0.56511226       0.47336583       0.58934319 </v>
   <v>       0.53689280       0.49805369       0.40885499 </v>
   <v>       0.53344798       0.57794622       0.57436649 </v>
   <v>       0.49102322       0.39552301       0.55758590 </v>
   <v>       0.46805800       0.41441599       0.44202880 </v>
   <v>       0.50888735       0.59501496       0.46229156 </v>
   <v>       0.43042522       0.52174403       0.42024341 </v>
  </varray>
 </structure>
 <varray name="primitive_index" >
  <v type="int" >        1 </v>
  <v type="int" >        2 </v>
  <v type="int" >        3 </v>
  <v type="int" >        4 </v>
  <v type="int" >        5 </v>
  <v type="int" >        6 </v>
  <v type="int" >        7 </v>
  <v type="int" >        8 </v>
  <v type="int" >        9 </v>
  <v type="int" >       10 </v>
 </varray>
 <kpoints>
  <generation param="Gamma">
   <v type="int" name="divisions">       1        1        1 </v>
   <v name="usershift">      0.00000000       0.00000000       0.00000000 </v>
   <v name="genvec1">      1.00000000       0.00000000       0.00000000 </v>
   <v name="genvec2">      0.00000000       1.00000000       0.00000000 </v>
   <v name="genvec3">      0.00000000       0.00000000       1.00000000 </v>
   <v name="shift">      0.00000000       0.00000000       0.00000000 </v>
  </generation>
  <varray name="kpointlist" >
   <v>       0.00000000       0.00000000       0.00000000 </v>
  </varray>
  <varray name="weights" >
   <v>       1.00000000 </v>
  </varray>
 </kpoints>
 <parameters>
  <separator name="general" >
   <i type="string" name="SYSTEM">unknown system</i>
   <i type="logical" name="LCOMPAT"> F  </i>
  </separator>
  <separator name="electronic" >
   <i type="string" name="PREC">normal</i>
   <i name="ENMAX">    400.00000000</i>
   <i name="ENAUG">    544.56500000</i>
   <i name="EDIFF">      0.00010000</i>
   <i type="int" name="IALGO">    38</i>
   <i type="int" name="IWAVPR">    11</i>
   <i type="int" name="NBANDS">    66</i>
   <i type="int" name="NBANDSLOW">    -1</i>
   <i type="int" name="NBANDSHIGH">    -1</i>
   <i name="NELECT">    100.00000000</i>
   <i type="int" name="TURBO">     0</i>
   <i type="int" name="IRESTART">     0</i>
   <i type="int" name="NREBOOT">     0</i>
   <i type="int" name="NMIN">     0</i>
   <i name="EREF">      0.00000000</i>
   <separator name="electronic smearing" >
    <i type="int" name="ISMEAR">     1</i>
    <i name="SIGMA">      0.20000000</i>
    <i name="KSPACING">      0.50000000</i>
    <i type="logical" name="KGAMMA"> T  </i>
    <i type="logical" name="KBLOWUP"> T  </i>
   </separator>
   <separator name="electronic projectors" >
    <i type="logical" name="LREAL"> F  </i>
    <v name="ROPT">      0.00000000      0.00000000</v>
    <i type="int" name="LMAXPAW">  -100</i>
    <i type="int" name="LMAXMIX">     2</i>
    <i type="logical" name="NLSPLINE"> F  </i>
   </separator>
   <separator name="electronic startup" >
    <i type="int" name="ISTART">     0</i>
    <i type="int" name="ICHARG">     2</i>
    <i type="int" name="INIWAV">     1</i>
   </separator>
   <separator name="electronic spin" >
    <i type="int" name="ISPIN">     2</i>
    <i type="logical" name="LNONCOLLINEAR"> F  </i>
    <v name="MAGMOM">      1.00000000      1.00000000      1.00000000      1.00000000      1.00000000      1.00000000      1.00000000      1.00000000      1.00000000      1.00000000</v>
    <i name="NUPDOWN">     -1.00000000</i>
    <i type="logical" name="LSORBIT"> F  </i>
    <v name="SAXIS">      0.00000000      0.00000000      1.00000000</v>
    <i type="logical" name="LSPIRAL"> F  </i>
    <v name="QSPIRAL">      0.00000000      0.00000000      0.00000000</v>
    <i type="logical" name="LZEROZ"> F  </i>
   </separator>
   <separator name="electronic exchange-correlation" >
    <i type="logical" name="LASPH"> F  </i>
    <i type="logical" name="LMETAGGA"> F  </i>
   </separator>
   <separator name="electronic convergence" >
    <i type="int" name="NELM">    60</i>
    <i type="int" name="NELMDL">     0</i>
    <i type="int" name="NELMIN">     2</i>
    <i name="ENINI">    400.00000000</i>
    <separator name="electronic convergence detail" >
     <i type="logical" name="LDIAG"> T  </i>
     <i type="logical" name="LSUBROT"> F  </i>
     <i name="WEIMIN">      0.00100000</i>
     <i name="EBREAK">      0.00000038</i>
     <i name="DEPER">      0.30000000</i>
     <i type="int" name="NRMM">     4</i>
     <i name="TIME">      0.40000000</i>
    </separator>
   </separator>
   <separator name="electronic mixer" >
    <i name="AMIX">      0.40000000</i>
    <i name="BMIX">      1.00000000</i>
    <i name="AMIN">      0.10000000</i>
    <i name="AMIX_MAG">      1.60000000</i>
    <i name="BMIX_MAG">      1.00000000</i>
    <separator name="electronic mixer details" >
     <i type="int" name="IMIX">     4</i>
     <i type="logical" name="MIXFIRST"> F  </i>
     <i type="int" name="MAXMIX">   -45</i>
     <i name="WC">    100.00000000</i>
     <i type="int" name="INIMIX">     1</i>
     <i type="int" name="MIXPRE">     1</i>
     <i type="int" name="MREMOVE">     5</i>
    </separator>
   </separator>
   <separator name="electronic dipolcorrection" >
    <i type="logical" name="LDIPOL"> F  </i>
    <i type="logical" name="LMONO"> F  </i>
    <i type="int" name="IDIPOL">     0</i>
    <i name="EPSILON">      1.00000000</i>
    <v name="DIPOL">   -100.00000000   -100.00000000   -100.00000000</v>
    <i name="EFIELD">      0.00000000</i>
   </separator>
  </separator>
  <separator name="grids" >
   <i type="int" name="NGX">   112</i>
   <i type="int" name="NGY">   112</i>
   <i type="int" name="NGZ">   108</i>
   <i type="int" name="NGXF">   224</i>
   <i type="int" name="NGYF">   224</i>
   <i type="int" name="NGZF">   216</i>
   <i type="logical" name="ADDGRID"> F  </i>
  </separator>
  <separator name="ionic" >
   <i type="int" name="NSW">  1000</i>
   <i type="int" name="IBRION">     2</i>
   <i type="int" name="MDALGO">     0</i>
   <i type="int" name="ISIF">     0</i>
   <i name="PSTRESS">      0.00000000</i>
   <i name="EDIFFG">      0.00100000</i>
   <i type="int" name="NFREE">     1</i>
   <i name="POTIM">      0.50000000</i>
   <i name="SMASS">     -3.00000000</i>
   <i name="SCALEE">      1.00000000</i>
  </separator>
  <separator name="ionic md" >
   <i name="TEBEG">      0.00010000</i>
   <i name="TEEND">      0.00010000</i>
   <i type="int" name="NBLOCK">     1</i>
   <i type="int" name="KBLOCK">  1000</i>
   <i type="int" name="NPACO">   256</i>
   <i name="APACO">     16.00000000</i>
  </separator>
  <separator name="symmetry" >
   <i type="int" name="ISYM">     0</i>
   <i name="SYMPREC">      0.00001000</i>
  </separator>
  <separator name="dos" >
   <i type="int" name="LORBIT">     0</i>
   <v name="RWIGS">     -1.00000000     -1.00000000</v>
   <i type="int" name="NEDOS">   301</i>
   <i name="EMIN">     10.00000000</i>
   <i name="EMAX">    -10.00000000</i>
   <i name="EFERMI">      0.00000000</i>
  </separator>
  <separator name="writing" >
   <i type="int" name="NWRITE">     2</i>
   <i type="logical" name="LWAVE"> F  </i>
   <i type="logical" name="LDOWNSAMPLE"> F  </i>
   <i type="logical" name="LCHARG"> F  </i>
   <i type="logical" name="LPARD"> F  </i>
   <i type="logical" name="LVTOT"> F  </i>
   <i type="logical" name="LVHAR"> F  </i>
   <i type="logical" name="LELF"> F  </i>
   <i type="logical" name="LOPTICS"> F  </i>
   <v name="STM">      0.00000000      0.00000000      0.00000000      0.00000000      0.00000000      0.00000000      0.00000000</v>
  </separator>
  <separator name="performance" >
   <i type="int" name="NPAR">     2</i>
   <i type="int" name="NSIM">     4</i>
   <i type="int" name="NBLK">    -1</i>
   <i type="logical" name="LPLANE"> T  </i>
   <i type="logical" name="LSCALAPACK"> T  </i>
   <i type="logical" name="LSCAAWARE"> F  </i>
   <i type="logical" name="LSCALU"> F  </i>
   <i type="logical" name="LASYNC"> F  </i>
   <i type="logical" name="LORBITALREAL"> F  </i>
  </separator>
  <separator name="miscellaneous" >
   <i type="int" name="IDIOT">     3</i>
   <i type="int" name="PHON_NSTRUCT">    -1</i>
   <i type="logical" name="LMUSIC"> F  </i>
   <v name="POMASS">     58.69000000    106.42000000</v>
   <v name="DARWINR">      0.00000000      0.00000000</v>
   <v name="DARWINV">      1.00000000      1.00000000</v>
   <i type="logical" name="LCORR"> T  </i>
  </separator>
  <i type="logical" name="GGA_COMPAT"> T  </i>
  <i type="logical" name="LBERRY"> F  </i>
  <i type="int" name="ICORELEVEL">     0</i>
  <i type="logical" name="LDAU"> F  </i>
  <i type="int" name="I_CONSTRAINED_M">     0</i>
  <separator name="electronic exchange-correlation" >
   <i type="string" name="GGA">PE</i>
   <i type="int" name="VOSKOWN">     0</i>
   <i type="logical" name="LHFCALC"> F  </i>
   <i type="string" name="PRECFOCK"></i>
   <i type="logical" name="LSYMGRAD"> F  </i>
   <i type="logical" name="LHFONE"> F  </i>
   <i type="logical" name="LRHFCALC"> F  </i>
   <i type="logical" name="LTHOMAS"> F  </i>
   <i type="logical" name="LMODELHF"> F  </i>
   <i type="logical" name="LFOCKACE"> F  </i>
   <i name="ENCUT4O">     -1.00000000</i>
   <i type="int" name="EXXOEP">     0</i>
   <i type="int" name="FOURORBIT">     0</i>
   <i name="AEXX">      0.00000000</i>
   <i name="HFALPHA">      0.00000000</i>
   <i name="MCALPHA">      0.00000000</i>
   <i name="ALDAX">      1.00000000</i>
   <i name="AGGAX">      1.00000000</i>
   <i name="ALDAC">      1.00000000</i>
   <i name="AGGAC">      1.00000000</i>
   <i type="int" name="NKREDX">     1</i>
   <i type="int" name="NKREDY">     1</i>
   <i type="int" name="NKREDZ">     1</i>
   <i type="logical" name="SHIFTRED"> F  </i>
   <i type="logical" name="ODDONLY"> F  </i>
   <i type="logical" name="EVENONLY"> F  </i>
   <i type="int" name="LMAXFOCK">     0</i>
   <i type="int" name="NMAXFOCKAE">     0</i>
   <i type="logical" name="LFOCKAEDFT"> F  </i>
   <i name="HFSCREEN">      0.00000000</i>
   <i name="HFSCREENC">      0.00000000</i>
   <i type="int" name="NBANDSGWLOW">     0</i>
  </separator>
  <separator name="vdW DFT" >
   <i type="logical" name="LUSE_VDW"> F  </i>
   <i name="Zab_VDW">     -0.84910000</i>
   <i name="PARAM1">      0.12340000</i>
   <i name="PARAM2">      1.00000000</i>
   <i name="PARAM3">      0.00000000</i>
  </separator>
  <separator name="model GW" >
   <i type="int" name="MODEL_GW">     0</i>
   <i name="MODEL_EPS0">    656.56580042</i>
   <i name="MODEL_ALPHA">      1.00000000</i>
  </separator>
  <separator name="linear response parameters" >
   <i type="logical" name="LEPSILON"> F  </i>
   <i type="logical" name="LRPA"> F  </i>
   <i type="logical" name="LNABLA"> F  </i>
   <i type="logical" name="LVEL"> F  </i>
   <i type="int" name="KINTER">     0</i>
   <i name="CSHIFT">      0.10000000</i>
   <i name="OMEGAMAX">     -1.00000000</i>
   <i name="DEG_THRESHOLD">      0.00200000</i>
   <i name="RTIME">     -0.10000000</i>
   <i name="WPLASMAI">      0.00000000</i>
   <v name="DFIELD">      0.00000000      0.00000000      0.00000000</v>
   <v name="WPLASMA">      0.00000000      0.00000000      0.00000000      0.00000000      0.00000000      0.00000000      0.00000000      0.00000000      0.00000000</v>
  </separator>
  <separator name="orbital magnetization" >
   <i type="logical" name="NUCIND"> F  </i>
   <v name="MAGPOS">      0.00000000      0.00000000      0.00000000</v>
   <i type="logical" name="LNICSALL"> T  </i>
   <i type="logical" name="ORBITALMAG"> F  </i>
   <i type="logical" name="LMAGBLOCH"> F  </i>
   <i type="logical" name="LCHIMAG"> F  </i>
   <i type="logical" name="LGAUGE"> T  </i>
   <i type="int" name="MAGATOM">     0</i>
   <v name="MAGDIPOL">      0.00000000      0.00000000      0.00000000</v>
   <v name="AVECCONST">      0.00000000      0.00000000      0.00000000</v>
  </separator>
  <separator name="response functions" >
   <i type="logical" name="LFINITE_TEMPERATURE"> F  </i>
   <i type="logical" name="LADDER"> F  </i>
   <i type="logical" name="LRPAFORCE"> F  </i>
   <i type="logical" name="LFXC"> F  </i>
   <i type="logical" name="LHARTREE"> T  </i>
   <i type="int" name="IBSE">     0</i>
   <v type="int" name="KPOINT">    -1     0     0     0</v>
   <i type="logical" name="LTCTC"> F  </i>
   <i type="logical" name="LTCTE"> F  </i>
   <i type="logical" name="LTETE"> F  </i>
   <i type="logical" name="LTRIPLET"> F  </i>
   <i type="logical" name="LFXCEPS"> F  </i>
   <i type="logical" name="LFXHEG"> F  </i>
   <i type="int" name="NATURALO">     2</i>
   <i type="logical" name="LHOLEGF"> F  </i>
   <i type="logical" name="L2ORDER"> F  </i>
   <i type="logical" name="LDMP1"> F  </i>
   <i type="logical" name="LMP2LT"> F  </i>
   <i type="logical" name="LSMP2LT"> F  </i>
   <i type="logical" name="LGWLF"> F  </i>
   <i name="ENCUTGW">     -2.00000000</i>
   <i name="ENCUTGWSOFT">     -2.00000000</i>
   <i name="ENCUTLF">     -1.00000000</i>
   <i type="logical" name="LESF_SPLINES"> F  </i>
   <i type="int" name="LMAXMP2">    -1</i>
   <i name="SCISSOR">      0.00000000</i>
   <i type="int" name="NOMEGA">     0</i>
   <i type="int" name="NOMEGAR">     0</i>
   <i type="int" name="NBANDSGW">    -1</i>
   <i type="int" name="NBANDSO">    -1</i>
   <i type="int" name="NBANDSV">    -1</i>
   <i type="int" name="NELM">     1</i>
   <i type="int" name="NELMHF">     1</i>
   <i type="int" name="DIM">     3</i>
   <i type="int" name="IESPILON">     4</i>
   <i type="int" name="ANTIRES">     0</i>
   <i name="OMEGAMAX">    -30.00000000</i>
   <i name="OMEGAMIN">    -30.00000000</i>
   <i name="OMEGATL">   -200.00000000</i>
   <i type="int" name="OMEGAGRID">     0</i>
   <i name="CSHIFT">     -0.10000000</i>
   <i type="logical" name="LSELFENERGY"> F  </i>
   <i type="logical" name="LSPECTRAL"> F  </i>
   <i type="logical" name="LSPECTRALGW"> F  </i>
   <i type="logical" name="LSINGLES"> F  </i>
   <i type="logical" name="LFERMIGW"> F  </i>
   <i type="logical" name="ODDONLYGW"> F  </i>
   <i type="logical" name="EVENONLYGW"> F  </i>
   <i type="int" name="NKREDLFX">     1</i>
   <i type="int" name="NKREDLFY">     1</i>
   <i type="int" name="NKREDLFZ">     1</i>
   <i type="int" name="MAXMEM">  2800</i>
   <i type="int" name="TELESCOPE">     0</i>
   <i type="int" name="NTAUPAR">    -1</i>
   <i type="int" name="NOMEGAPAR">    -1</i>
   <i name="LAMBDA">      1.00000000</i>
  </separator>
  <separator name="External order field" >
   <i name="OFIELD_KAPPA">      0.00000000</i>
   <v name="OFIELD_K">      0.00000000      0.00000000      0.00000000</v>
   <i name="OFIELD_Q6_NEAR">      0.00000000</i>
   <i name="OFIELD_Q6_FAR">      0.00000000</i>
   <i name="OFIELD_A">      0.00000000</i>
  </separator>
 </parameters>
 <atominfo>
  <atoms>      10 </atoms>
  <types>       2 </types>
  <array name="atoms" >
   <dimension dim="1">ion</dimension>
   <field type="string">element</field>
   <field type="int">atomtype</field>
   <set>
    <rc><c>Ni</c><c>   1</c></rc>
    <rc><c>Ni</c><c>   1</c></rc>
    <rc><c>Ni</c><c>   1</c></rc>
    <rc><c>Ni</c><c>   1</c></rc>
    <rc><c>Ni</c><c>   1</c></rc>
    <rc><c>Ni</c><c>   1</c></rc>
    <rc><c>Pd</c><c>   2</c></rc>
    <rc><c>Pd</c><c>   2</c></rc>
    <rc><c>Pd</c><c>   2</c></rc>
    <rc><c>Pd</c><c>   2</c></rc>
   </set>
  </array>
  <array name="atomtypes" >
   <dimension dim="1">type</dimension>
   <field type="int">atomspertype</field>
   <field type="string">element</field>
   <field>mass</field>
   <field>valence</field>
   <field type="string">pseudopotential</field>
   <set>
    <rc><c>   6</c><c>Ni</c><c>     58.69000000</c><c>     10.00000000</c><c>  PAW_PBE Ni 02Aug2007                  </c></rc>
    <rc><c>   4</c><c>Pd</c><c>    106.42000000</c><c>     10.00000000</c><c>  PAW_PBE Pd 04Jan2005                  </c></rc>
   </set>
  </array>
 </atominfo>
 <structure name="initialpos" >
  <crystal>
   <varray name="basis" >
    <v>      22.62984394       0.00000000       0.00000000 </v>
    <v>       0.00000000      22.38829269       0.00000000 </v>
    <v>       0.00000000       0.00000000      21.59854381 </v>
   </varray>
   <i name="volume">  10942.76334035 </i>
   <varray name="rec_basis" >
    <v>       0.04418943       0.00000000       0.00000000 </v>
    <v>       0.00000000       0.04466620       0.00000000 </v>
    <v>       0.00000000       0.00000000       0.04629942 </v>
   </varray>
  </crystal>
  <varray name="positions" >
   <v>       0.48927557       0.49832177       0.51466118 </v>
   <v>       0.57081355       0.42570420       0.48665970 </v>
   <v>       0.59518448       0.53168368       0.49780984 </v>
   <v>       0.56511226       0.47336583       0.58934319 </v>
   <v>       0.53689280       0.49805369       0.40885499 </v>
   <v>       0.53344798       0.57794622       0.57436649 </v>
   <v>       0.49102322       0.39552301       0.55758590 </v>
   <v>       0.46805800       0.41441599       0.44202880 </v>
   <v>       0.50888735       0.59501496       0.46229156 </v>
   <v>       0.43042522       0.52174403       0.42024341 </v>
  </varray>
 </structure>
 <calculation>
  <scstep>
   <time name="dav">    5.15    5.16</time>
   <time name="total">    7.36    7.39</time>
   <energy>
    <i name="alphaZ">      5.17874040 </i>
    <i name="ewald">  12667.65620588 </i>
    <i name="hartreedc"> -21646.95032617 </i>
    <i name="XCdc">     62.99473373 </i>
    <i name="pawpsdc">   9003.59075477 </i>
    <i name="pawaedc">  -9155.75339974 </i>
    <i name="eentropy">     -0.01065790 </i>
    <i name="bandstr">     83.27461722 </i>
    <i name="atom">   9704.95859309 </i>
    <i name="e_fr_energy">    724.93926130 </i>
    <i name="e_wo_entrp">    724.94991920 </i>
    <i name="e_0_energy">    724.94281393 </i>
   </energy>
  </scstep>
  <scstep>
   <time name="dav">    7.97    7.98</time>
   <time name="total">    7.97    7.98</time>
   <energy>
    <i name="e_fr_energy">    242.87379144 </i>
    <i name="e_wo_entrp">    242.82450194 </i>
    <i name="e_0_energy">    242.85736161 </i>
   </energy>
  </scstep>
  <scstep>
   <time name="dav">    6.76    6.77</time>
   <time name="total">    6.77    6.78</time>
   <energy>
    <i name="e_fr_energy">     17.80727021 </i>
    <i name="e_wo_entrp">     17.84892178 </i>
    <i name="e_0_energy">     17.82115407 </i>
   </energy>
  </scstep>
  <scstep>
   <time name="dav">    7.08    7.09</time>
   <time name="total">    7.09    7.10</time>
   <energy>
    <i name="e_fr_energy">    -37.92677804 </i>
    <i name="e_wo_entrp">    -37.90846130 </i>
    <i name="e_0_energy">    -37.92067246 </i>
   </energy>
  </scstep>
  <scstep>
   <time name="dav">    6.38    6.40</time>
   <time name="total">    7.01    7.02</time>
   <energy>
    <i name="e_fr_energy">    -43.98523214 </i>
    <i name="e_wo_entrp">    -43.93741516 </i>
    <i name="e_0_energy">    -43.96929314 </i>
   </energy>
  </scstep>
  <scstep>
   <time name="dav">    5.48    5.48</time>
   <time name="total">    8.34    8.35</time>
   <energy>
    <i name="e_fr_energy">    -64.07452172 </i>
    <i name="e_wo_entrp">    -64.05636798 </i>
    <i name="e_0_energy">    -64.06847047 </i>
   </energy>
  </scstep>
  <scstep>
   <time name="dav">    6.22    6.23</time>
   <time name="total">    9.07    9.09</time>
   <energy>
    <i name="e_fr_energy">    -40.26181576 </i>
    <i name="e_wo_entrp">    -40.29140844 </i>
    <i name="e_0_energy">    -40.27167998 </i>
   </energy>
  </scstep>
  <scstep>
   <time name="dav">    5.95    5.96</time>
   <time name="total">    8.79    8.80</time>
   <energy>
    <i name="e_fr_energy">    -38.18063652 </i>
    <i name="e_wo_entrp">    -38.19758413 </i>
    <i name="e_0_energy">    -38.18628573 </i>
   </energy>
  </scstep>
  <scstep>
   <time name="dav">    6.10    6.11</time>
   <time name="total">    8.92    8.94</time>
   <energy>
    <i name="e_fr_energy">    -39.91737596 </i>
    <i name="e_wo_entrp">    -39.86389672 </i>
    <i name="e_0_energy">    -39.89954955 </i>
   </energy>
  </scstep>
  <scstep>
   <time name="dav">    5.83    5.84</time>
   <time name="total">    8.64    8.66</time>
   <energy>
    <i name="e_fr_energy">    -38.20310244 </i>
    <i name="e_wo_entrp">    -38.22166256 </i>
    <i name="e_0_energy">    -38.20928915 </i>
   </energy>
  </scstep>
  <scstep>
   <time name="dav">    6.26    6.27</time>
   <time name="total">    9.13    9.14</time>
   <energy>
    <i name="e_fr_energy">    -36.67904838 </i>
    <i name="e_wo_entrp">    -36.69037137 </i>
    <i name="e_0_energy">    -36.68282271 </i>
   </energy>
  </scstep>
  <scstep>
   <time name="dav">    6.38    6.39</time>
   <time name="total">    9.21    9.23</time>
   <energy>
    <i name="e_fr_energy">    -35.79150445 </i>
    <i name="e_wo_entrp">    -35.78420673 </i>
    <i name="e_0_energy">    -35.78907188 </i>
   </energy>
  </scstep>
  <scstep>
   <time name="dav">    6.55    6.56</time>
   <time name="total">    9.40    9.42</time>
   <energy>
    <i name="e_fr_energy">    -35.54073347 </i>
    <i name="e_wo_entrp">    -35.50841370 </i>
    <i name="e_0_energy">    -35.52996021 </i>
   </energy>
  </scstep>
  <scstep>
   <time name="dav">    6.31    6.31</time>
   <time name="total">    9.16    9.17</time>
   <energy>
    <i name="e_fr_energy">    -35.47277204 </i>
    <i name="e_wo_entrp">    -35.43839874 </i>
    <i name="e_0_energy">    -35.46131427 </i>
   </energy>
  </scstep>
  <scstep>
   <time name="dav">    6.65    6.66</time>
   <time name="total">    9.51    9.52</time>
   <energy>
    <i name="e_fr_energy">    -35.41573614 </i>
    <i name="e_wo_entrp">    -35.40836178 </i>
    <i name="e_0_energy">    -35.41327802 </i>
   </energy>
  </scstep>
  <scstep>
   <time name="dav">    5.94    5.95</time>
   <time name="total">    8.82    8.84</time>
   <energy>
    <i name="e_fr_energy">    -35.50503730 </i>
    <i name="e_wo_entrp">    -35.47233407 </i>
    <i name="e_0_energy">    -35.49413623 </i>
   </energy>
  </scstep>
  <scstep>
   <time name="dav">    6.71    6.72</time>
   <time name="total">    9.60    9.62</time>
   <energy>
    <i name="e_fr_energy">    -35.54999908 </i>
    <i name="e_wo_entrp">    -35.55690035 </i>
    <i name="e_0_energy">    -35.55229950 </i>
   </energy>
  </scstep>
  <scstep>
   <time name="dav">    5.85    5.85</time>
   <time name="total">    8.72    8.73</time>
   <energy>
    <i name="e_fr_energy">    -35.71888208 </i>
    <i name="e_wo_entrp">    -35.72094262 </i>
    <i name="e_0_energy">    -35.71956893 </i>
   </energy>
  </scstep>
  <scstep>
   <time name="dav">    6.36    6.37</time>
   <time name="total">    9.25    9.26</time>
   <energy>
    <i name="e_fr_energy">    -35.88693045 </i>
    <i name="e_wo_entrp">    -35.88166299 </i>
    <i name="e_0_energy">    -35.88517463 </i>
   </energy>
  </scstep>
  <scstep>
   <time name="dav">    6.21    6.22</time>
   <time name="total">    9.10    9.12</time>
   <energy>
    <i name="e_fr_energy">    -36.35669198 </i>
    <i name="e_wo_entrp">    -36.36762859 </i>
    <i name="e_0_energy">    -36.36033752 </i>
   </energy>
  </scstep>
  <scstep>
   <time name="dav">    6.53    6.54</time>
   <time name="total">    9.46    9.48</time>
   <energy>
    <i name="e_fr_energy">    -36.62297550 </i>
    <i name="e_wo_entrp">    -36.64014875 </i>
    <i name="e_0_energy">    -36.62869991 </i>
   </energy>
  </scstep>
  <scstep>
   <time name="dav">    6.25    6.26</time>
   <time name="total">    9.16    9.17</time>
   <energy>
    <i name="e_fr_energy">    -36.73418741 </i>
    <i name="e_wo_entrp">    -36.75287891 </i>
    <i name="e_0_energy">    -36.74041791 </i>
   </energy>
  </scstep>
  <scstep>
   <time name="dav">    6.24    6.24</time>
   <time name="total">    9.12    9.14</time>
   <energy>
    <i name="e_fr_energy">    -36.88191472 </i>
    <i name="e_wo_entrp">    -36.90447386 </i>
    <i name="e_0_energy">    -36.88943444 </i>
   </energy>
  </scstep>
  <scstep>
   <time name="dav">    6.40    6.41</time>
   <time name="total">    9.32    9.34</time>
   <energy>
    <i name="e_fr_energy">    -37.01780402 </i>
    <i name="e_wo_entrp">    -37.04207639 </i>
    <i name="e_0_energy">    -37.02589481 </i>
   </energy>
  </scstep>
  <scstep>
   <time name="dav">    6.00    6.00</time>
   <time name="total">    8.96    8.98</time>
   <energy>
    <i name="e_fr_energy">    -37.13677695 </i>
    <i name="e_wo_entrp">    -37.16073895 </i>
    <i name="e_0_energy">    -37.14476428 </i>
   </energy>
  </scstep>
  <scstep>
   <time name="dav">    6.28    6.29</time>
   <time name="total">    9.21    9.23</time>
   <energy>
    <i name="e_fr_energy">    -37.23037290 </i>
    <i name="e_wo_entrp">    -37.25423497 </i>
    <i name="e_0_energy">    -37.23832692 </i>
   </energy>
  </scstep>
  <scstep>
   <time name="dav">    5.96    5.98</time>
   <time name="total">    8.92    8.94</time>
   <energy>
    <i name="e_fr_energy">    -37.29721683 </i>
    <i name="e_wo_entrp">    -37.32209775 </i>
    <i name="e_0_energy">    -37.30551047 </i>
   </energy>
  </scstep>
  <scstep>
   <time name="dav">    5.72    5.73</time>
   <time name="total">    8.68    8.70</time>
   <energy>
    <i name="e_fr_energy">    -37.35673752 </i>
    <i name="e_wo_entrp">    -37.38223872 </i>
    <i name="e_0_energy">    -37.36523792 </i>
   </energy>
  </scstep>
  <scstep>
   <time name="dav">    5.13    5.14</time>
   <time name="total">    8.09    8.11</time>
   <energy>
    <i name="e_fr_energy">    -37.39340860 </i>
    <i name="e_wo_entrp">    -37.41870463 </i>
    <i name="e_0_energy">    -37.40184061 </i>
   </energy>
  </scstep>
  <scstep>
   <time name="dav">    4.61    4.61</time>
   <time name="total">    7.63    7.64</time>
   <energy>
    <i name="e_fr_energy">    -37.41932962 </i>
    <i name="e_wo_entrp">    -37.44491405 </i>
    <i name="e_0_energy">    -37.42785777 </i>
   </energy>
  </scstep>
  <scstep>
   <time name="dav">    4.80    4.81</time>
   <time name="total">    7.82    7.83</time>
   <energy>
    <i name="e_fr_energy">    -37.44413752 </i>
    <i name="e_wo_entrp">    -37.46983538 </i>
    <i name="e_0_energy">    -37.45270348 </i>
   </energy>
  </scstep>
  <scstep>
   <time name="dav">    4.39    4.39</time>
   <time name="total">    7.41    7.42</time>
   <energy>
    <i name="e_fr_energy">    -37.46097638 </i>
    <i name="e_wo_entrp">    -37.48663076 </i>
    <i name="e_0_energy">    -37.46952784 </i>
   </energy>
  </scstep>
  <scstep>
   <time name="dav">    4.26    4.26</time>
   <time name="total">    7.26    7.27</time>
   <energy>
    <i name="e_fr_energy">    -37.47263651 </i>
    <i name="e_wo_entrp">    -37.49829291 </i>
    <i name="e_0_energy">    -37.48118865 </i>
   </energy>
  </scstep>
  <scstep>
   <time name="dav">    4.41    4.42</time>
   <time name="total">    7.45    7.47</time>
   <energy>
    <i name="e_fr_energy">    -37.48008166 </i>
    <i name="e_wo_entrp">    -37.50583355 </i>
    <i name="e_0_energy">    -37.48866562 </i>
   </energy>
  </scstep>
  <scstep>
   <time name="dav">    3.94    3.95</time>
   <time name="total">    7.00    7.02</time>
   <energy>
    <i name="e_fr_energy">    -37.48335693 </i>
    <i name="e_wo_entrp">    -37.50918770 </i>
    <i name="e_0_energy">    -37.49196718 </i>
   </energy>
  </scstep>
  <scstep>
   <time name="dav">    4.05    4.06</time>
   <time name="total">    7.12    7.13</time>
   <energy>
    <i name="e_fr_energy">    -37.48630098 </i>
    <i name="e_wo_entrp">    -37.51212152 </i>
    <i name="e_0_energy">    -37.49490783 </i>
   </energy>
  </scstep>
  <scstep>
   <time name="dav">    3.94    3.95</time>
   <time name="total">    7.02    7.03</time>
   <energy>
    <i name="e_fr_energy">    -37.48839145 </i>
    <i name="e_wo_entrp">    -37.51424341 </i>
    <i name="e_0_energy">    -37.49700877 </i>
   </energy>
  </scstep>
  <scstep>
   <time name="dav">    4.09    4.10</time>
   <time name="total">    7.19    7.20</time>
   <energy>
    <i name="e_fr_energy">    -37.48920357 </i>
    <i name="e_wo_entrp">    -37.51499487 </i>
    <i name="e_0_energy">    -37.49780067 </i>
   </energy>
  </scstep>
  <scstep>
   <time name="dav">    3.82    3.83</time>
   <time name="total">    6.93    6.94</time>
   <energy>
    <i name="e_fr_energy">    -37.48971224 </i>
    <i name="e_wo_entrp">    -37.51551987 </i>
    <i name="e_0_energy">    -37.49831478 </i>
   </energy>
  </scstep>
  <scstep>
   <time name="dav">    3.88    3.88</time>
   <time name="total">    7.01    7.02</time>
   <energy>
    <i name="e_fr_energy">    -37.49005520 </i>
    <i name="e_wo_entrp">    -37.51584952 </i>
    <i name="e_0_energy">    -37.49865330 </i>
   </energy>
  </scstep>
  <scstep>
   <time name="dav">    3.93    3.93</time>
   <time name="total">    7.09    7.10</time>
   <energy>
    <i name="e_fr_energy">    -37.49028217 </i>
    <i name="e_wo_entrp">    -37.51608277 </i>
    <i name="e_0_energy">    -37.49888237 </i>
   </energy>
  </scstep>
  <scstep>
   <time name="dav">    3.87    3.88</time>
   <time name="total">    7.03    7.04</time>
   <energy>
    <i name="e_fr_energy">    -37.49046513 </i>
    <i name="e_wo_entrp">    -37.51626944 </i>
    <i name="e_0_energy">    -37.49906656 </i>
   </energy>
  </scstep>
  <scstep>
   <time name="dav">    3.80    3.80</time>
   <time name="total">    6.97    6.98</time>
   <energy>
    <i name="e_fr_energy">    -37.49061369 </i>
    <i name="e_wo_entrp">    -37.51642210 </i>
    <i name="e_0_energy">    -37.49921649 </i>
   </energy>
  </scstep>
  <scstep>
   <time name="dav">    3.87    3.87</time>
   <time name="total">    7.06    7.07</time>
   <energy>
    <i name="e_fr_energy">    -37.49071727 </i>
    <i name="e_wo_entrp">    -37.51653145 </i>
    <i name="e_0_energy">    -37.49932200 </i>
   </energy>
  </scstep>
  <scstep>
   <time name="dav">    3.82    3.82</time>
   <time name="total">    6.01    6.02</time>
   <energy>
    <i name="alphaZ">      5.17874040 </i>
    <i name="ewald">  12667.65620588 </i>
    <i name="hartreedc"> -21719.66973529 </i>
    <i name="XCdc">     60.17600221 </i>
    <i name="pawpsdc">  10077.31986162 </i>
    <i name="pawaedc"> -10241.43644261 </i>
    <i name="eentropy">      0.02581127 </i>
    <i name="bandstr">   -591.69981855 </i>
    <i name="atom">   9704.95859309 </i>
    <i name="e_fr_energy">    -37.49078198 </i>
    <i name="e_wo_entrp">    -37.51659325 </i>
    <i name="e_0_energy">    -37.49938574 </i>
   </energy>
  </scstep>
  <structure>
   <crystal>
    <varray name="basis" >
     <v>      22.62984394       0.00000000       0.00000000 </v>
     <v>       0.00000000      22.38829269       0.00000000 </v>
     <v>       0.00000000       0.00000000      21.59854381 </v>
    </varray>
    <i name="volume">  10942.76334035 </i>
    <varray name="rec_basis" >
     <v>       0.04418943       0.00000000       0.00000000 </v>
     <v>       0.00000000       0.04466620       0.00000000 </v>
     <v>       0.00000000       0.00000000       0.04629942 </v>
    </varray>
   </crystal>
   <varray name="positions" >
    <v>       0.48927557       0.49832177       0.51466118 </v>
    <v>       0.57081355       0.42570420       0.48665970 </v>
    <v>       0.59518448       0.53168368       0.49780984 </v>
    <v>       0.56511226       0.47336583       0.58934319 </v>
    <v>       0.53689280       0.49805369       0.40885499 </v>
    <v>       0.53344798       0.57794622       0.57436649 </v>
    <v>       0.49102322       0.39552301       0.55758590 </v>
    <v>       0.46805800       0.41441599       0.44202880 </v>
    <v>       0.50888735       0.59501496       0.46229156 </v>
    <v>       0.43042522       0.52174403       0.42024341 </v>
   </varray>
  </structure>
  <varray name="forces" >
   <v>       0.23799773       0.18953514       0.59911159 </v>
   <v>      -0.02661617       0.73644826       0.02025706 </v>
   <v>      -0.48268377      -0.48994805       0.18428650 </v>
   <v>      -0.36502216       0.51002851      -1.03007738 </v>
   <v>       0.20779361      -0.17961016       0.54256273 </v>
   <v>       0.11349208      -0.85898478      -0.42180439 </v>
   <v>       0.14846741      -0.09699052       0.70853562 </v>
   <v>       0.19140889      -0.30813894      -0.52305170 </v>
   <v>       0.47513197       0.37120897       0.20232331 </v>
   <v>      -0.49996960       0.12645157      -0.28214335 </v>
  </varray>
  <energy>
   <i name="e_fr_energy">    -37.49078198 </i>
   <i name="e_wo_entrp">    -37.51659325 </i>
   <i name="e_0_energy">    -37.49938574 </i>
  </energy>
  <time name="totalsc">  375.54  376.21</time>
 </calculation>
 <calculation>
  <scstep>
   <time name="dav">    5.05    5.06</time>
   <time name="total">    7.86    7.87</time>
   <energy>
    <i name="alphaZ">      5.17874040 </i>
    <i name="ewald">  12775.61465588 </i>
    <i name="hartreedc"> -21826.51175678 </i>
    <i name="XCdc">     60.40139573 </i>
    <i name="pawpsdc">  10077.32338670 </i>
    <i name="pawaedc"> -10241.44022396 </i>
    <i name="eentropy">      0.02824913 </i>
    <i name="bandstr">   -593.14173082 </i>
    <i name="atom">   9704.95859309 </i>
    <i name="e_fr_energy">    -37.58869063 </i>
    <i name="e_wo_entrp">    -37.61693976 </i>
    <i name="e_0_energy">    -37.59810701 </i>
   </energy>
  </scstep>
  <scstep>
   <time name="dav">    6.33    6.34</time>
   <time name="total">    9.09    9.10</time>
   <energy>
    <i name="e_fr_energy">    -39.08905605 </i>
    <i name="e_wo_entrp">    -39.08425314 </i>
    <i name="e_0_energy">    -39.08745508 </i>
   </energy>
  </scstep>
  <scstep>
   <time name="dav">    6.20    6.21</time>
   <time name="total">    8.99    9.00</time>
   <energy>
    <i name="e_fr_energy">    -37.78105484 </i>
    <i name="e_wo_entrp">    -37.82665758 </i>
    <i name="e_0_energy">    -37.79625575 </i>
   </energy>
  </scstep>
  <scstep>
   <time name="dav">    6.80    6.81</time>
   <time name="total">    9.61    9.62</time>
   <energy>
    <i name="e_fr_energy">    -37.67359983 </i>
    <i name="e_wo_entrp">    -37.69008908 </i>
    <i name="e_0_energy">    -37.67909625 </i>
   </energy>
  </scstep>
  <scstep>
   <time name="dav">    6.33    6.34</time>
   <time name="total">    9.13    9.15</time>
   <energy>
    <i name="e_fr_energy">    -37.73091474 </i>
    <i name="e_wo_entrp">    -37.73788121 </i>
    <i name="e_0_energy">    -37.73323689 </i>
   </energy>
  </scstep>
  <scstep>
   <time name="dav">    6.12    6.13</time>
   <time name="total">    8.91    8.93</time>
   <energy>
    <i name="e_fr_energy">    -37.71678319 </i>
    <i name="e_wo_entrp">    -37.72154215 </i>
    <i name="e_0_energy">    -37.71836951 </i>
   </energy>
  </scstep>
  <scstep>
   <time name="dav">    6.05    6.06</time>
   <time name="total">    8.86    8.88</time>
   <energy>
    <i name="e_fr_energy">    -37.68860200 </i>
    <i name="e_wo_entrp">    -37.70865529 </i>
    <i name="e_0_energy">    -37.69528643 </i>
   </energy>
  </scstep>
  <scstep>
   <time name="dav">    6.71    6.72</time>
   <time name="total">    9.54    9.55</time>
   <energy>
    <i name="e_fr_energy">    -37.69163466 </i>
    <i name="e_wo_entrp">    -37.71895411 </i>
    <i name="e_0_energy">    -37.70074115 </i>
   </energy>
  </scstep>
  <scstep>
   <time name="dav">    6.73    6.74</time>
   <time name="total">    9.55    9.57</time>
   <energy>
    <i name="e_fr_energy">    -37.70122913 </i>
    <i name="e_wo_entrp">    -37.72486356 </i>
    <i name="e_0_energy">    -37.70910727 </i>
   </energy>
  </scstep>
  <scstep>
   <time name="dav">    6.04    6.04</time>
   <time name="total">    8.87    8.88</time>
   <energy>
    <i name="e_fr_energy">    -37.69066002 </i>
    <i name="e_wo_entrp">    -37.71500684 </i>
    <i name="e_0_energy">    -37.69877563 </i>
   </energy>
  </scstep>
  <scstep>
   <time name="dav">    6.64    6.65</time>
   <time name="total">    9.48    9.49</time>
   <energy>
    <i name="e_fr_energy">    -37.69161011 </i>
    <i name="e_wo_entrp">    -37.71712846 </i>
    <i name="e_0_energy">    -37.70011623 </i>
   </energy>
  </scstep>
  <scstep>
   <time name="dav">    6.53    6.54</time>
   <time name="total">    9.37    9.38</time>
   <energy>
    <i name="e_fr_energy">    -37.69361073 </i>
    <i name="e_wo_entrp">    -37.71799163 </i>
    <i name="e_0_energy">    -37.70173770 </i>
   </energy>
  </scstep>
  <scstep>
   <time name="dav">    6.40    6.41</time>
   <time name="total">    9.27    9.29</time>
   <energy>
    <i name="e_fr_energy">    -37.69335568 </i>
    <i name="e_wo_entrp">    -37.71834762 </i>
    <i name="e_0_energy">    -37.70168633 </i>
   </energy>
  </scstep>
  <scstep>
   <time name="dav">    4.21    4.22</time>
   <time name="total">    7.09    7.10</time>
   <energy>
    <i name="e_fr_energy">    -37.69382032 </i>
    <i name="e_wo_entrp">    -37.71870746 </i>
    <i name="e_0_energy">    -37.70211603 </i>
   </energy>
  </scstep>
  <scstep>
   <time name="dav">    4.09    4.10</time>
   <time name="total">    6.98    7.00</time>
   <energy>
    <i name="e_fr_energy">    -37.69405066 </i>
    <i name="e_wo_entrp">    -37.71902160 </i>
    <i name="e_0_energy">    -37.70237431 </i>
   </energy>
  </scstep>
  <scstep>
   <time name="dav">    3.77    3.78</time>
   <time name="total">    6.66    6.67</time>
   <energy>
    <i name="e_fr_energy">    -37.69421455 </i>
    <i name="e_wo_entrp">    -37.71929681 </i>
    <i name="e_0_energy">    -37.70257530 </i>
   </energy>
  </scstep>
  <scstep>
   <time name="dav">    4.17    4.18</time>
   <time name="total">    7.09    7.10</time>
   <energy>
    <i name="e_fr_energy">    -37.69438860 </i>
    <i name="e_wo_entrp">    -37.71962889 </i>
    <i name="e_0_energy">    -37.70280203 </i>
   </energy>
  </scstep>
  <scstep>
   <time name="dav">    3.85    3.85</time>
   <time name="total">    6.75    6.77</time>
   <energy>
    <i name="e_fr_energy">    -37.69456314 </i>
    <i name="e_wo_entrp">    -37.71998744 </i>
    <i name="e_0_energy">    -37.70303790 </i>
   </energy>
  </scstep>
  <scstep>
   <time name="dav">    3.88    3.89</time>
   <time name="total">    6.79    6.80</time>
   <energy>
    <i name="e_fr_energy">    -37.69469239 </i>
    <i name="e_wo_entrp">    -37.72004249 </i>
    <i name="e_0_energy">    -37.70314242 </i>
   </energy>
  </scstep>
  <scstep>
   <time name="dav">    3.86    3.87</time>
   <time name="total">    6.77    6.78</time>
   <energy>
    <i name="e_fr_energy">    -37.69483545 </i>
    <i name="e_wo_entrp">    -37.72018570 </i>
    <i name="e_0_energy">    -37.70328554 </i>
   </energy>
  </scstep>
  <scstep>
   <time name="dav">    3.89    3.89</time>
   <time name="total">    6.83    6.84</time>
   <energy>
    <i name="e_fr_energy">    -37.69494807 </i>
    <i name="e_wo_entrp">    -37.72030122 </i>
    <i name="e_0_energy">    -37.70339912 </i>
   </energy>
  </scstep>
  <scstep>
   <time name="dav">    3.87    3.88</time>
   <time name="total">    6.09    6.10</time>
   <energy>
    <i name="alphaZ">      5.17874040 </i>
    <i name="ewald">  12775.61465588 </i>
    <i name="hartreedc"> -21824.92080609 </i>
    <i name="XCdc">     60.28693103 </i>
    <i name="pawpsdc">  10108.83022126 </i>
    <i name="pawaedc"> -10273.19404630 </i>
    <i name="eentropy">      0.02536292 </i>
    <i name="bandstr">   -594.47468936 </i>
    <i name="atom">   9704.95859309 </i>
    <i name="e_fr_energy">    -37.69503717 </i>
    <i name="e_wo_entrp">    -37.72040009 </i>
    <i name="e_0_energy">    -37.70349148 </i>
   </energy>
  </scstep>
  <structure>
   <crystal>
    <varray name="basis" >
     <v>      22.62984394       0.00000000       0.00000000 </v>
     <v>       0.00000000      22.38829269       0.00000000 </v>
     <v>       0.00000000       0.00000000      21.59854381 </v>
    </varray>
    <i name="volume">  10942.76334035 </i>
    <varray name="rec_basis" >
     <v>       0.04418943       0.00000000       0.00000000 </v>
     <v>       0.00000000       0.04466620       0.00000000 </v>
     <v>       0.00000000       0.00000000       0.04629942 </v>
    </varray>
   </crystal>
   <varray name="positions" >
    <v>       0.48978294       0.49873018       0.51599936 </v>
    <v>       0.57075681       0.42729111       0.48670494 </v>
    <v>       0.59415549       0.53062793       0.49822146 </v>
    <v>       0.56433410       0.47446485       0.58704240 </v>
    <v>       0.53733578       0.49766666       0.41006686 </v>
    <v>       0.53368992       0.57609527       0.57342434 </v>
    <v>       0.49133972       0.39531401       0.55916849 </v>
    <v>       0.46846605       0.41375201       0.44086051 </v>
    <v>       0.50990024       0.59581485       0.46274347 </v>
    <v>       0.42935938       0.52201651       0.41961321 </v>
   </varray>
  </structure>
  <varray name="forces" >
   <v>      -0.25184577      -0.01701865       0.08145115 </v>
   <v>      -0.09548086       0.32406715      -0.02210762 </v>
   <v>      -0.12184170      -0.24237006      -0.00055509 </v>
   <v>      -0.16077128       0.24809325      -0.50341609 </v>
   <v>      -0.04439042      -0.09666044       0.40216721 </v>
   <v>       0.07173524      -0.43686363      -0.12148849 </v>
   <v>       0.15127944      -0.02365254       0.37427576 </v>
   <v>       0.23118828      -0.05660019      -0.19437002 </v>
   <v>       0.23598546       0.25135886       0.00796429 </v>
   <v>      -0.01585838       0.04964625      -0.02392109 </v>
  </varray>
  <energy>
   <i name="e_fr_energy">    -37.69503717 </i>
   <i name="e_wo_entrp">    -37.72040009 </i>
   <i name="e_0_energy">    -37.70349148 </i>
  </energy>
  <time name="totalsc">  188.06  188.38</time>
 </calculation>
 <calculation>
  <scstep>
   <time name="dav">    5.04    5.04</time>
   <time name="total">    7.87    7.88</time>
   <energy>
    <i name="alphaZ">      5.17874040 </i>
    <i name="ewald">  12848.00115719 </i>
    <i name="hartreedc"> -21896.02808361 </i>
    <i name="XCdc">     60.45164290 </i>
    <i name="pawpsdc">  10108.82687348 </i>
    <i name="pawaedc"> -10273.19008188 </i>
    <i name="eentropy">      0.02835398 </i>
    <i name="bandstr">   -595.91575585 </i>
    <i name="atom">   9704.95859309 </i>
    <i name="e_fr_energy">    -37.68856031 </i>
    <i name="e_wo_entrp">    -37.71691428 </i>
    <i name="e_0_energy">    -37.69801163 </i>
   </energy>
  </scstep>
  <scstep>
   <time name="dav">    6.68    6.69</time>
   <time name="total">    9.44    9.46</time>
   <energy>
    <i name="e_fr_energy">    -38.22177242 </i>
    <i name="e_wo_entrp">    -38.20944700 </i>
    <i name="e_0_energy">    -38.21766395 </i>
   </energy>
  </scstep>
  <scstep>
   <time name="dav">    5.97    5.99</time>
   <time name="total">    8.75    8.77</time>
   <energy>
    <i name="e_fr_energy">    -37.69186596 </i>
    <i name="e_wo_entrp">    -37.73163059 </i>
    <i name="e_0_energy">    -37.70512084 </i>
   </energy>
  </scstep>
  <scstep>
   <time name="dav">    6.79    6.80</time>
   <time name="total">    9.60    9.62</time>
   <energy>
    <i name="e_fr_energy">    -37.74343453 </i>
    <i name="e_wo_entrp">    -37.76042164 </i>
    <i name="e_0_energy">    -37.74909690 </i>
   </energy>
  </scstep>
  <scstep>
   <time name="dav">    6.34    6.35</time>
   <time name="total">    9.12    9.14</time>
   <energy>
    <i name="e_fr_energy">    -37.74246634 </i>
    <i name="e_wo_entrp">    -37.76013152 </i>
    <i name="e_0_energy">    -37.74835474 </i>
   </energy>
  </scstep>
  <scstep>
   <time name="dav">    6.30    6.31</time>
   <time name="total">    9.10    9.11</time>
   <energy>
    <i name="e_fr_energy">    -37.73750751 </i>
    <i name="e_wo_entrp">    -37.75739636 </i>
    <i name="e_0_energy">    -37.74413712 </i>
   </energy>
  </scstep>
  <scstep>
   <time name="dav">    6.05    6.06</time>
   <time name="total">    8.88    8.89</time>
   <energy>
    <i name="e_fr_energy">    -37.72799558 </i>
    <i name="e_wo_entrp">    -37.75131500 </i>
    <i name="e_0_energy">    -37.73576872 </i>
   </energy>
  </scstep>
  <scstep>
   <time name="dav">    7.03    7.04</time>
   <time name="total">    9.85    9.87</time>
   <energy>
    <i name="e_fr_energy">    -37.73375465 </i>
    <i name="e_wo_entrp">    -37.75995316 </i>
    <i name="e_0_energy">    -37.74248748 </i>
   </energy>
  </scstep>
  <scstep>
   <time name="dav">    6.32    6.32</time>
   <time name="total">    9.14    9.16</time>
   <energy>
    <i name="e_fr_energy">    -37.73367916 </i>
    <i name="e_wo_entrp">    -37.75698790 </i>
    <i name="e_0_energy">    -37.74144874 </i>
   </energy>
  </scstep>
  <scstep>
   <time name="dav">    6.16    6.17</time>
   <time name="total">    9.00    9.02</time>
   <energy>
    <i name="e_fr_energy">    -37.73217821 </i>
    <i name="e_wo_entrp">    -37.75275527 </i>
    <i name="e_0_energy">    -37.73903723 </i>
   </energy>
  </scstep>
  <scstep>
   <time name="dav">    6.61    6.63</time>
   <time name="total">    9.48    9.50</time>
   <energy>
    <i name="e_fr_energy">    -37.73046487 </i>
    <i name="e_wo_entrp">    -37.75340080 </i>
    <i name="e_0_energy">    -37.73811018 </i>
   </energy>
  </scstep>
  <scstep>
   <time name="dav">    6.47    6.48</time>
   <time name="total">    9.33    9.34</time>
   <energy>
    <i name="e_fr_energy">    -37.73169589 </i>
    <i name="e_wo_entrp">    -37.75534226 </i>
    <i name="e_0_energy">    -37.73957801 </i>
   </energy>
  </scstep>
  <scstep>
   <time name="dav">    4.32    4.33</time>
   <time name="total">    6.53    6.54</time>
   <energy>
    <i name="alphaZ">      5.17874040 </i>
    <i name="ewald">  12848.00115719 </i>
    <i name="hartreedc"> -21895.03211517 </i>
    <i name="XCdc">     60.38627825 </i>
    <i name="pawpsdc">  10138.71256092 </i>
    <i name="pawaedc"> -10303.34128656 </i>
    <i name="eentropy">      0.02328037 </i>
    <i name="bandstr">   -596.61889924 </i>
    <i name="atom">   9704.95859309 </i>
    <i name="e_fr_energy">    -37.73169075 </i>
    <i name="e_wo_entrp">    -37.75497112 </i>
    <i name="e_0_energy">    -37.73945087 </i>
   </energy>
  </scstep>
  <structure>
   <crystal>
    <varray name="basis" >
     <v>      22.62984394       0.00000000       0.00000000 </v>
     <v>       0.00000000      22.38829269       0.00000000 </v>
     <v>       0.00000000       0.00000000      21.59854381 </v>
    </varray>
    <i name="volume">  10942.76334035 </i>
    <varray name="rec_basis" >
     <v>       0.04418943       0.00000000       0.00000000 </v>
     <v>       0.00000000       0.04466620       0.00000000 </v>
     <v>       0.00000000       0.00000000       0.04629942 </v>
    </varray>
   </crystal>
   <varray name="positions" >
    <v>       0.49010509       0.49898950       0.51684904 </v>
    <v>       0.57072078       0.42829871       0.48673367 </v>
    <v>       0.59350213       0.52995758       0.49848282 </v>
    <v>       0.56384001       0.47516267       0.58558152 </v>
    <v>       0.53761704       0.49742092       0.41083634 </v>
    <v>       0.53384354       0.57492000       0.57282613 </v>
    <v>       0.49154069       0.39518131       0.56017336 </v>
    <v>       0.46872514       0.41333041       0.44011871 </v>
    <v>       0.51054337       0.59632273       0.46303041 </v>
    <v>       0.42868263       0.52218952       0.41921307 </v>
   </varray>
  </structure>
  <varray name="forces" >
   <v>      -0.62765796      -0.15202706      -0.28713613 </v>
   <v>      -0.13386667       0.01084705      -0.06323995 </v>
   <v>       0.16239707      -0.01753138      -0.16094305 </v>
   <v>       0.00578330      -0.00509305      -0.04851085 </v>
   <v>      -0.20821395      -0.03311009       0.29313407 </v>
   <v>       0.04401145      -0.09682592       0.10226078 </v>
   <v>       0.15971499       0.02110870       0.19051039 </v>
   <v>       0.24609097       0.07913632      -0.02432276 </v>
   <v>       0.10535764       0.19712957      -0.11218268 </v>
   <v>       0.24638318      -0.00363413       0.11043017 </v>
  </varray>
  <energy>
   <i name="e_fr_energy">    -37.73169075 </i>
   <i name="e_wo_entrp">    -37.75497112 </i>
   <i name="e_0_energy">    -37.73945087 </i>
  </energy>
  <time name="totalsc">  124.50  124.75</time>
 </calculation>
 <calculation>
  <scstep>
   <time name="dav">    5.03    5.04</time>
   <time name="total">    7.81    7.83</time>
   <energy>
    <i name="alphaZ">      5.17874040 </i>
    <i name="ewald">  12880.39148659 </i>
    <i name="hartreedc"> -21927.27969409 </i>
    <i name="XCdc">     60.46427091 </i>
    <i name="pawpsdc">  10138.78248229 </i>
    <i name="pawaedc"> -10303.42686831 </i>
    <i name="eentropy">      0.02722354 </i>
    <i name="bandstr">   -596.84339394 </i>
    <i name="atom">   9704.95859309 </i>
    <i name="e_fr_energy">    -37.74715952 </i>
    <i name="e_wo_entrp">    -37.77438306 </i>
    <i name="e_0_energy">    -37.75623403 </i>
   </energy>
  </scstep>
  <scstep>
   <time name="dav">    6.78    6.79</time>
   <time name="total">    9.57    9.58</time>
   <energy>
    <i name="e_fr_energy">    -38.02346695 </i>
    <i name="e_wo_entrp">    -38.01120100 </i>
    <i name="e_0_energy">    -38.01937830 </i>
   </energy>
  </scstep>
  <scstep>
   <time name="dav">    5.97    5.98</time>
   <time name="total">    8.77    8.79</time>
   <energy>
    <i name="e_fr_energy">    -37.73518570 </i>
    <i name="e_wo_entrp">    -37.75660828 </i>
    <i name="e_0_energy">    -37.74232656 </i>
   </energy>
  </scstep>
  <scstep>
   <time name="dav">    6.53    6.54</time>
   <time name="total">    9.36    9.38</time>
   <energy>
    <i name="e_fr_energy">    -37.79484350 </i>
    <i name="e_wo_entrp">    -37.81998379 </i>
    <i name="e_0_energy">    -37.80322360 </i>
   </energy>
  </scstep>
  <scstep>
   <time name="dav">    5.89    5.90</time>
   <time name="total">    8.71    8.73</time>
   <energy>
    <i name="e_fr_energy">    -37.77149655 </i>
    <i name="e_wo_entrp">    -37.79343648 </i>
    <i name="e_0_energy">    -37.77880986 </i>
   </energy>
  </scstep>
  <scstep>
   <time name="dav">    6.54    6.55</time>
   <time name="total">    9.35    9.36</time>
   <energy>
    <i name="e_fr_energy">    -37.77422514 </i>
    <i name="e_wo_entrp">    -37.79475407 </i>
    <i name="e_0_energy">    -37.78106812 </i>
   </energy>
  </scstep>
  <scstep>
   <time name="dav">    6.45    6.46</time>
   <time name="total">    9.28    9.30</time>
   <energy>
    <i name="e_fr_energy">    -37.77444762 </i>
    <i name="e_wo_entrp">    -37.80044904 </i>
    <i name="e_0_energy">    -37.78311476 </i>
   </energy>
  </scstep>
  <scstep>
   <time name="dav">    6.58    6.59</time>
   <time name="total">    9.43    9.45</time>
   <energy>
    <i name="e_fr_energy">    -37.77512065 </i>
    <i name="e_wo_entrp">    -37.79674180 </i>
    <i name="e_0_energy">    -37.78232770 </i>
   </energy>
  </scstep>
  <scstep>
   <time name="dav">    6.34    6.35</time>
   <time name="total">    9.19    9.20</time>
   <energy>
    <i name="e_fr_energy">    -37.77505559 </i>
    <i name="e_wo_entrp">    -37.79619430 </i>
    <i name="e_0_energy">    -37.78210183 </i>
   </energy>
  </scstep>
  <scstep>
   <time name="dav">    6.49    6.50</time>
   <time name="total">    9.33    9.34</time>
   <energy>
    <i name="e_fr_energy">    -37.77628166 </i>
    <i name="e_wo_entrp">    -37.80057250 </i>
    <i name="e_0_energy">    -37.78437861 </i>
   </energy>
  </scstep>
  <scstep>
   <time name="dav">    6.33    6.34</time>
   <time name="total">    9.20    9.21</time>
   <energy>
    <i name="e_fr_energy">    -37.77427449 </i>
    <i name="e_wo_entrp">    -37.79747273 </i>
    <i name="e_0_energy">    -37.78200724 </i>
   </energy>
  </scstep>
  <scstep>
   <time name="dav">    6.08    6.09</time>
   <time name="total">    8.94    8.96</time>
   <energy>
    <i name="e_fr_energy">    -37.77540833 </i>
    <i name="e_wo_entrp">    -37.79919248 </i>
    <i name="e_0_energy">    -37.78333638 </i>
   </energy>
  </scstep>
  <scstep>
   <time name="dav">    3.99    3.99</time>
   <time name="total">    6.20    6.21</time>
   <energy>
    <i name="alphaZ">      5.17874040 </i>
    <i name="ewald">  12880.39148659 </i>
    <i name="hartreedc"> -21926.59725036 </i>
    <i name="XCdc">     60.43145437 </i>
    <i name="pawpsdc">  10148.98839412 </i>
    <i name="pawaedc"> -10313.74212584 </i>
    <i name="eentropy">      0.02323795 </i>
    <i name="bandstr">   -597.40799792 </i>
    <i name="atom">   9704.95859309 </i>
    <i name="e_fr_energy">    -37.77546760 </i>
    <i name="e_wo_entrp">    -37.79870555 </i>
    <i name="e_0_energy">    -37.78321358 </i>
   </energy>
  </scstep>
  <structure>
   <crystal>
    <varray name="basis" >
     <v>      22.62984394       0.00000000       0.00000000 </v>
     <v>       0.00000000      22.38829269       0.00000000 </v>
     <v>       0.00000000       0.00000000      21.59854381 </v>
    </varray>
    <i name="volume">  10942.76334035 </i>
    <varray name="rec_basis" >
     <v>       0.04418943       0.00000000       0.00000000 </v>
     <v>       0.00000000       0.04466620       0.00000000 </v>
     <v>       0.00000000       0.00000000       0.04629942 </v>
    </varray>
   </crystal>
   <varray name="positions" >
    <v>       0.48870135       0.49870421       0.51640114 </v>
    <v>       0.57038751       0.42865105       0.48658377 </v>
    <v>       0.59368092       0.52969813       0.49816225 </v>
    <v>       0.56369405       0.47537607       0.58498677 </v>
    <v>       0.53720780       0.49726101       0.41182318 </v>
    <v>       0.53399898       0.57430463       0.57289001 </v>
    <v>       0.49198943       0.39518964       0.56097802 </v>
    <v>       0.46940020       0.41338619       0.43981748 </v>
    <v>       0.51100457       0.59696577       0.46284086 </v>
    <v>       0.42905562       0.52223667       0.41936159 </v>
   </varray>
  </structure>
  <varray name="forces" >
   <v>      -0.44813972      -0.05150797      -0.16308628 </v>
   <v>      -0.05518921      -0.10093233      -0.01262324 </v>
   <v>       0.16227492       0.07232447      -0.12790212 </v>
   <v>      -0.03020570      -0.02078006      -0.02214136 </v>
   <v>      -0.15227975       0.05674582       0.18691516 </v>
   <v>      -0.00485571      -0.09918325      -0.00885246 </v>
   <v>       0.13437087       0.01216413       0.11501404 </v>
   <v>       0.14150355      -0.05162017       0.01013037 </v>
   <v>       0.10695278       0.12849974      -0.03766858 </v>
   <v>       0.14556798       0.05428960       0.06021448 </v>
  </varray>
  <energy>
   <i name="e_fr_energy">    -37.77546760 </i>
   <i name="e_wo_entrp">    -37.79870555 </i>
   <i name="e_0_energy">    -37.78321358 </i>
  </energy>
  <time name="totalsc">  123.53  123.76</time>
 </calculation>
 <calculation>
  <scstep>
   <time name="dav">    5.04    5.04</time>
   <time name="total">    7.85    7.86</time>
   <energy>
    <i name="alphaZ">      5.17874040 </i>
    <i name="ewald">  12936.21674747 </i>
    <i name="hartreedc"> -21981.96159747 </i>
    <i name="XCdc">     60.58358598 </i>
    <i name="pawpsdc">  10149.14425644 </i>
    <i name="pawaedc"> -10313.90497860 </i>
    <i name="eentropy">      0.02346565 </i>
    <i name="bandstr">   -597.94956970 </i>
    <i name="atom">   9704.95859309 </i>
    <i name="e_fr_energy">    -37.71075674 </i>
    <i name="e_wo_entrp">    -37.73422238 </i>
    <i name="e_0_energy">    -37.71857862 </i>
   </energy>
  </scstep>
  <scstep>
   <time name="dav">    6.75    6.76</time>
   <time name="total">    9.53    9.55</time>
   <energy>
    <i name="e_fr_energy">    -38.34783786 </i>
    <i name="e_wo_entrp">    -38.32844824 </i>
    <i name="e_0_energy">    -38.34137465 </i>
   </energy>
  </scstep>
  <scstep>
   <time name="dav">    5.80    5.81</time>
   <time name="total">    8.59    8.60</time>
   <energy>
    <i name="e_fr_energy">    -37.75521689 </i>
    <i name="e_wo_entrp">    -37.76678124 </i>
    <i name="e_0_energy">    -37.75907167 </i>
   </energy>
  </scstep>
  <scstep>
   <time name="dav">    6.76    6.76</time>
   <time name="total">    9.54    9.55</time>
   <energy>
    <i name="e_fr_energy">    -37.87259502 </i>
    <i name="e_wo_entrp">    -37.89244930 </i>
    <i name="e_0_energy">    -37.87921311 </i>
   </energy>
  </scstep>
  <scstep>
   <time name="dav">    6.12    6.13</time>
   <time name="total">    8.89    8.90</time>
   <energy>
    <i name="e_fr_energy">    -37.80458308 </i>
    <i name="e_wo_entrp">    -37.82142384 </i>
    <i name="e_0_energy">    -37.81019667 </i>
   </energy>
  </scstep>
  <scstep>
   <time name="dav">    6.47    6.48</time>
   <time name="total">    9.24    9.26</time>
   <energy>
    <i name="e_fr_energy">    -37.80167886 </i>
    <i name="e_wo_entrp">    -37.81546354 </i>
    <i name="e_0_energy">    -37.80627375 </i>
   </energy>
  </scstep>
  <scstep>
   <time name="dav">    6.14    6.14</time>
   <time name="total">    8.93    8.95</time>
   <energy>
    <i name="e_fr_energy">    -37.79693338 </i>
    <i name="e_wo_entrp">    -37.80915710 </i>
    <i name="e_0_energy">    -37.80100796 </i>
   </energy>
  </scstep>
  <scstep>
   <time name="dav">    6.54    6.55</time>
   <time name="total">    9.34    9.35</time>
   <energy>
    <i name="e_fr_energy">    -37.80020538 </i>
    <i name="e_wo_entrp">    -37.82043194 </i>
    <i name="e_0_energy">    -37.80694756 </i>
   </energy>
  </scstep>
  <scstep>
   <time name="dav">    6.55    6.56</time>
   <time name="total">    9.37    9.38</time>
   <energy>
    <i name="e_fr_energy">    -37.79916445 </i>
    <i name="e_wo_entrp">    -37.81213171 </i>
    <i name="e_0_energy">    -37.80348687 </i>
   </energy>
  </scstep>
  <scstep>
   <time name="dav">    6.04    6.05</time>
   <time name="total">    8.87    8.89</time>
   <energy>
    <i name="e_fr_energy">    -37.80169789 </i>
    <i name="e_wo_entrp">    -37.82094665 </i>
    <i name="e_0_energy">    -37.80811414 </i>
   </energy>
  </scstep>
  <scstep>
   <time name="dav">    6.78    6.79</time>
   <time name="total">    9.61    9.63</time>
   <energy>
    <i name="e_fr_energy">    -37.79636626 </i>
    <i name="e_wo_entrp">    -37.81463536 </i>
    <i name="e_0_energy">    -37.80245596 </i>
   </energy>
  </scstep>
  <scstep>
   <time name="dav">    6.68    6.69</time>
   <time name="total">    9.52    9.53</time>
   <energy>
    <i name="e_fr_energy">    -37.79981394 </i>
    <i name="e_wo_entrp">    -37.81703781 </i>
    <i name="e_0_energy">    -37.80555523 </i>
   </energy>
  </scstep>
  <scstep>
   <time name="dav">    5.60    5.61</time>
   <time name="total">    8.45    8.47</time>
   <energy>
    <i name="e_fr_energy">    -37.79984774 </i>
    <i name="e_wo_entrp">    -37.81621549 </i>
    <i name="e_0_energy">    -37.80530365 </i>
   </energy>
  </scstep>
  <scstep>
   <time name="dav">    3.94    3.94</time>
   <time name="total">    6.80    6.81</time>
   <energy>
    <i name="e_fr_energy">    -37.80027144 </i>
    <i name="e_wo_entrp">    -37.81667705 </i>
    <i name="e_0_energy">    -37.80573997 </i>
   </energy>
  </scstep>
  <scstep>
   <time name="dav">    3.94    3.94</time>
   <time name="total">    6.81    6.82</time>
   <energy>
    <i name="e_fr_energy">    -37.80049128 </i>
    <i name="e_wo_entrp">    -37.81740739 </i>
    <i name="e_0_energy">    -37.80612998 </i>
   </energy>
  </scstep>
  <scstep>
   <time name="dav">    3.84    3.85</time>
   <time name="total">    6.72    6.73</time>
   <energy>
    <i name="e_fr_energy">    -37.80067495 </i>
    <i name="e_wo_entrp">    -37.81748774 </i>
    <i name="e_0_energy">    -37.80627921 </i>
   </energy>
  </scstep>
  <scstep>
   <time name="dav">    3.78    3.78</time>
   <time name="total">    6.68    6.69</time>
   <energy>
    <i name="e_fr_energy">    -37.80083804 </i>
    <i name="e_wo_entrp">    -37.81756081 </i>
    <i name="e_0_energy">    -37.80641230 </i>
   </energy>
  </scstep>
  <scstep>
   <time name="dav">    3.84    3.85</time>
   <time name="total">    6.74    6.75</time>
   <energy>
    <i name="e_fr_energy">    -37.80097911 </i>
    <i name="e_wo_entrp">    -37.81766444 </i>
    <i name="e_0_energy">    -37.80654089 </i>
   </energy>
  </scstep>
  <scstep>
   <time name="dav">    3.85    3.86</time>
   <time name="total">    6.06    6.08</time>
   <energy>
    <i name="alphaZ">      5.17874040 </i>
    <i name="ewald">  12936.21674747 </i>
    <i name="hartreedc"> -21980.60889743 </i>
    <i name="XCdc">     60.52039866 </i>
    <i name="pawpsdc">  10172.07151961 </i>
    <i name="pawaedc"> -10337.09953089 </i>
    <i name="eentropy">      0.01667665 </i>
    <i name="bandstr">   -599.05531385 </i>
    <i name="atom">   9704.95859309 </i>
    <i name="e_fr_energy">    -37.80106628 </i>
    <i name="e_wo_entrp">    -37.81774293 </i>
    <i name="e_0_energy">    -37.80662517 </i>
   </energy>
  </scstep>
  <structure>
   <crystal>
    <varray name="basis" >
     <v>      22.62984394       0.00000000       0.00000000 </v>
     <v>       0.00000000      22.38829269       0.00000000 </v>
     <v>       0.00000000       0.00000000      21.59854381 </v>
    </varray>
    <i name="volume">  10942.76334035 </i>
    <varray name="rec_basis" >
     <v>       0.04418943       0.00000000       0.00000000 </v>
     <v>       0.00000000       0.04466620       0.00000000 </v>
     <v>       0.00000000       0.00000000       0.04629942 </v>
    </varray>
   </crystal>
   <varray name="positions" >
    <v>       0.48626158       0.49820836       0.51562267 </v>
    <v>       0.56980826       0.42926342       0.48632325 </v>
    <v>       0.59399165       0.52924719       0.49760507 </v>
    <v>       0.56344036       0.47574696       0.58395306 </v>
    <v>       0.53649652       0.49698308       0.41353836 </v>
    <v>       0.53426915       0.57323509       0.57300103 </v>
    <v>       0.49276936       0.39520411       0.56237657 </v>
    <v>       0.47057350       0.41348314       0.43929394 </v>
    <v>       0.51180616       0.59808340       0.46251139 </v>
    <v>       0.42970390       0.52231862       0.41961973 </v>
   </varray>
  </structure>
  <varray name="forces" >
   <v>      -0.11116304       0.09269405       0.06817753 </v>
   <v>       0.11124951      -0.32938888       0.09107898 </v>
   <v>       0.16619100       0.25028001      -0.05903707 </v>
   <v>      -0.06833469      -0.07328422       0.05881011 </v>
   <v>      -0.05532130       0.26456818      -0.02862235 </v>
   <v>      -0.08863064      -0.04031058      -0.17800936 </v>
   <v>       0.08501565      -0.01280275      -0.00445716 </v>
   <v>      -0.09214544      -0.31451701       0.04337528 </v>
   <v>       0.10559925       0.00234027       0.06913534 </v>
   <v>      -0.05246029       0.16042093      -0.06045129 </v>
  </varray>
  <energy>
   <i name="e_fr_energy">    -37.80106628 </i>
   <i name="e_wo_entrp">    -37.81774293 </i>
   <i name="e_0_energy">    -37.80662517 </i>
  </energy>
  <time name="totalsc">  166.02  166.32</time>
 </calculation>
 <calculation>
  <scstep>
   <time name="dav">    5.04    5.05</time>
   <time name="total">    7.86    7.87</time>
   <energy>
    <i name="alphaZ">      5.17874040 </i>
    <i name="ewald">  12893.35697940 </i>
    <i name="hartreedc"> -21938.82665180 </i>
    <i name="XCdc">     60.42129657 </i>
    <i name="pawpsdc">  10172.05441027 </i>
    <i name="pawaedc"> -10337.08380442 </i>
    <i name="eentropy">      0.01976423 </i>
    <i name="bandstr">   -597.86784582 </i>
    <i name="atom">   9704.95859309 </i>
    <i name="e_fr_energy">    -37.78851809 </i>
    <i name="e_wo_entrp">    -37.80828232 </i>
    <i name="e_0_energy">    -37.79510617 </i>
   </energy>
  </scstep>
  <scstep>
   <time name="dav">    6.61    6.62</time>
   <time name="total">    9.40    9.41</time>
   <energy>
    <i name="e_fr_energy">    -38.39214599 </i>
    <i name="e_wo_entrp">    -38.41683333 </i>
    <i name="e_0_energy">    -38.40037511 </i>
   </energy>
  </scstep>
  <scstep>
   <time name="dav">    5.51    5.52</time>
   <time name="total">    8.30    8.31</time>
   <energy>
    <i name="e_fr_energy">    -37.79801722 </i>
    <i name="e_wo_entrp">    -37.80437682 </i>
    <i name="e_0_energy">    -37.80013709 </i>
   </energy>
  </scstep>
  <scstep>
   <time name="dav">    6.72    6.73</time>
   <time name="total">    9.50    9.51</time>
   <energy>
    <i name="e_fr_energy">    -37.81946783 </i>
    <i name="e_wo_entrp">    -37.84144838 </i>
    <i name="e_0_energy">    -37.82679468 </i>
   </energy>
  </scstep>
  <scstep>
   <time name="dav">    6.55    6.56</time>
   <time name="total">    9.36    9.37</time>
   <energy>
    <i name="e_fr_energy">    -37.83757172 </i>
    <i name="e_wo_entrp">    -37.85090331 </i>
    <i name="e_0_energy">    -37.84201559 </i>
   </energy>
  </scstep>
  <scstep>
   <time name="dav">    6.01    6.01</time>
   <time name="total">    8.79    8.80</time>
   <energy>
    <i name="e_fr_energy">    -37.82869588 </i>
    <i name="e_wo_entrp">    -37.84683682 </i>
    <i name="e_0_energy">    -37.83474286 </i>
   </energy>
  </scstep>
  <scstep>
   <time name="dav">    6.14    6.15</time>
   <time name="total">    8.94    8.95</time>
   <energy>
    <i name="e_fr_energy">    -37.81814812 </i>
    <i name="e_wo_entrp">    -37.83870848 </i>
    <i name="e_0_energy">    -37.82500158 </i>
   </energy>
  </scstep>
  <scstep>
   <time name="dav">    6.76    6.77</time>
   <time name="total">    9.57    9.60</time>
   <energy>
    <i name="e_fr_energy">    -37.82321871 </i>
    <i name="e_wo_entrp">    -37.84152358 </i>
    <i name="e_0_energy">    -37.82932034 </i>
   </energy>
  </scstep>
  <scstep>
   <time name="dav">    6.56    6.56</time>
   <time name="total">    9.40    9.41</time>
   <energy>
    <i name="e_fr_energy">    -37.82293328 </i>
    <i name="e_wo_entrp">    -37.84392827 </i>
    <i name="e_0_energy">    -37.82993161 </i>
   </energy>
  </scstep>
  <scstep>
   <time name="dav">    6.25    6.26</time>
   <time name="total">    9.08    9.09</time>
   <energy>
    <i name="e_fr_energy">    -37.82460342 </i>
    <i name="e_wo_entrp">    -37.84793575 </i>
    <i name="e_0_energy">    -37.83238086 </i>
   </energy>
  </scstep>
  <scstep>
   <time name="dav">    6.35    6.36</time>
   <time name="total">    9.20    9.21</time>
   <energy>
    <i name="e_fr_energy">    -37.82230150 </i>
    <i name="e_wo_entrp">    -37.84269904 </i>
    <i name="e_0_energy">    -37.82910068 </i>
   </energy>
  </scstep>
  <scstep>
   <time name="dav">    5.22    5.23</time>
   <time name="total">    8.07    8.08</time>
   <energy>
    <i name="e_fr_energy">    -37.82401491 </i>
    <i name="e_wo_entrp">    -37.84363030 </i>
    <i name="e_0_energy">    -37.83055338 </i>
   </energy>
  </scstep>
  <scstep>
   <time name="dav">    4.37    4.37</time>
   <time name="total">    6.56    6.57</time>
   <energy>
    <i name="alphaZ">      5.17874040 </i>
    <i name="ewald">  12893.35697940 </i>
    <i name="hartreedc"> -21938.68984073 </i>
    <i name="XCdc">     60.43490207 </i>
    <i name="pawpsdc">  10152.73114481 </i>
    <i name="pawaedc"> -10317.53001335 </i>
    <i name="eentropy">      0.01959992 </i>
    <i name="bandstr">   -598.28410089 </i>
    <i name="atom">   9704.95859309 </i>
    <i name="e_fr_energy">    -37.82399527 </i>
    <i name="e_wo_entrp">    -37.84359520 </i>
    <i name="e_0_energy">    -37.83052858 </i>
   </energy>
  </scstep>
  <structure>
   <crystal>
    <varray name="basis" >
     <v>      22.62984394       0.00000000       0.00000000 </v>
     <v>       0.00000000      22.38829269       0.00000000 </v>
     <v>       0.00000000       0.00000000      21.59854381 </v>
    </varray>
    <i name="volume">  10942.76334035 </i>
    <varray name="rec_basis" >
     <v>       0.04418943       0.00000000       0.00000000 </v>
     <v>       0.00000000       0.04466620       0.00000000 </v>
     <v>       0.00000000       0.00000000       0.04629942 </v>
    </varray>
   </crystal>
   <varray name="positions" >
    <v>       0.48480322       0.49828847       0.51550346 </v>
    <v>       0.56990765       0.42846116       0.48651492 </v>
    <v>       0.59466962       0.52986324       0.49715395 </v>
    <v>       0.56310490       0.47567412       0.58368715 </v>
    <v>       0.53599717       0.49772377       0.41421348 </v>
    <v>       0.53410382       0.57262164       0.57244715 </v>
    <v>       0.49339575       0.39516873       0.56299111 </v>
    <v>       0.47080341       0.41249750       0.43920537 </v>
    <v>       0.51250895       0.59859424       0.46259759 </v>
    <v>       0.42982592       0.52288051       0.41953088 </v>
   </varray>
  </structure>
  <varray name="forces" >
   <v>       0.09653012      -0.00537231       0.03397199 </v>
   <v>       0.06555082      -0.09484951       0.03614538 </v>
   <v>       0.08232149       0.04813770       0.00803005 </v>
   <v>      -0.04735032      -0.00622710      -0.03338854 </v>
   <v>      -0.03665349       0.09688157       0.08701230 </v>
   <v>      -0.08792122       0.00993399      -0.13929831 </v>
   <v>       0.01666383      -0.03290707      -0.04191895 </v>
   <v>      -0.05962439      -0.13402083       0.07138181 </v>
   <v>       0.04907266       0.01243191       0.04723699 </v>
   <v>      -0.07858950       0.10599165      -0.06917272 </v>
  </varray>
  <energy>
   <i name="e_fr_energy">    -37.82399527 </i>
   <i name="e_wo_entrp">    -37.84359520 </i>
   <i name="e_0_energy">    -37.83052858 </i>
  </energy>
  <time name="totalsc">  122.39  122.61</time>
 </calculation>
 <calculation>
  <scstep>
   <time name="dav">    5.05    5.06</time>
   <time name="total">    7.86    7.88</time>
   <energy>
    <i name="alphaZ">      5.17874040 </i>
    <i name="ewald">  12871.39531381 </i>
    <i name="hartreedc"> -21917.19299952 </i>
    <i name="XCdc">     60.38385296 </i>
    <i name="pawpsdc">  10152.34711623 </i>
    <i name="pawaedc"> -10317.14788607 </i>
    <i name="eentropy">      0.02127344 </i>
    <i name="bandstr">   -597.76106632 </i>
    <i name="atom">   9704.95859309 </i>
    <i name="e_fr_energy">    -37.81706198 </i>
    <i name="e_wo_entrp">    -37.83833542 </i>
    <i name="e_0_energy">    -37.82415312 </i>
   </energy>
  </scstep>
  <scstep>
   <time name="dav">    7.00    7.01</time>
   <time name="total">    9.81    9.83</time>
   <energy>
    <i name="e_fr_energy">    -37.94227485 </i>
    <i name="e_wo_entrp">    -37.97020287 </i>
    <i name="e_0_energy">    -37.95158419 </i>
   </energy>
  </scstep>
  <scstep>
   <time name="dav">    5.87    5.88</time>
   <time name="total">    8.66    8.67</time>
   <energy>
    <i name="e_fr_energy">    -37.80476613 </i>
    <i name="e_wo_entrp">    -37.82125939 </i>
    <i name="e_0_energy">    -37.81026388 </i>
   </energy>
  </scstep>
  <scstep>
   <time name="dav">    6.76    6.77</time>
   <time name="total">    9.57    9.59</time>
   <energy>
    <i name="e_fr_energy">    -37.82770034 </i>
    <i name="e_wo_entrp">    -37.85095760 </i>
    <i name="e_0_energy">    -37.83545276 </i>
   </energy>
  </scstep>
  <scstep>
   <time name="dav">    6.49    6.50</time>
   <time name="total">    9.31    9.33</time>
   <energy>
    <i name="e_fr_energy">    -37.82842474 </i>
    <i name="e_wo_entrp">    -37.84844656 </i>
    <i name="e_0_energy">    -37.83509868 </i>
   </energy>
  </scstep>
  <scstep>
   <time name="dav">    6.31    6.31</time>
   <time name="total">    9.12    9.13</time>
   <energy>
    <i name="e_fr_energy">    -37.82602174 </i>
    <i name="e_wo_entrp">    -37.84698356 </i>
    <i name="e_0_energy">    -37.83300901 </i>
   </energy>
  </scstep>
  <scstep>
   <time name="dav">    6.36    6.37</time>
   <time name="total">    9.19    9.20</time>
   <energy>
    <i name="e_fr_energy">    -37.82480711 </i>
    <i name="e_wo_entrp">    -37.84567155 </i>
    <i name="e_0_energy">    -37.83176192 </i>
   </energy>
  </scstep>
  <scstep>
   <time name="dav">    6.34    6.35</time>
   <time name="total">    9.16    9.18</time>
   <energy>
    <i name="e_fr_energy">    -37.82598675 </i>
    <i name="e_wo_entrp">    -37.84750468 </i>
    <i name="e_0_energy">    -37.83315940 </i>
   </energy>
  </scstep>
  <scstep>
   <time name="dav">    5.86    5.87</time>
   <time name="total">    8.68    8.70</time>
   <energy>
    <i name="e_fr_energy">    -37.82606567 </i>
    <i name="e_wo_entrp">    -37.84708556 </i>
    <i name="e_0_energy">    -37.83307230 </i>
   </energy>
  </scstep>
  <scstep>
   <time name="dav">    5.37    5.38</time>
   <time name="total">    8.21    8.22</time>
   <energy>
    <i name="e_fr_energy">    -37.82627999 </i>
    <i name="e_wo_entrp">    -37.84914347 </i>
    <i name="e_0_energy">    -37.83390115 </i>
   </energy>
  </scstep>
  <scstep>
   <time name="dav">    5.13    5.14</time>
   <time name="total">    7.98    8.00</time>
   <energy>
    <i name="e_fr_energy">    -37.82607211 </i>
    <i name="e_wo_entrp">    -37.84761260 </i>
    <i name="e_0_energy">    -37.83325227 </i>
   </energy>
  </scstep>
  <scstep>
   <time name="dav">    3.82    3.82</time>
   <time name="total">    6.66    6.67</time>
   <energy>
    <i name="e_fr_energy">    -37.82658264 </i>
    <i name="e_wo_entrp">    -37.84767140 </i>
    <i name="e_0_energy">    -37.83361223 </i>
   </energy>
  </scstep>
  <scstep>
   <time name="dav">    3.98    3.98</time>
   <time name="total">    6.18    6.19</time>
   <energy>
    <i name="alphaZ">      5.17874040 </i>
    <i name="ewald">  12871.39531381 </i>
    <i name="hartreedc"> -21917.06123139 </i>
    <i name="XCdc">     60.39145118 </i>
    <i name="pawpsdc">  10143.19451158 </i>
    <i name="pawaedc"> -10307.88527182 </i>
    <i name="eentropy">      0.02114756 </i>
    <i name="bandstr">   -598.01985963 </i>
    <i name="atom">   9704.95859309 </i>
    <i name="e_fr_energy">    -37.82660522 </i>
    <i name="e_wo_entrp">    -37.84775278 </i>
    <i name="e_0_energy">    -37.83365441 </i>
   </energy>
  </scstep>
  <structure>
   <crystal>
    <varray name="basis" >
     <v>      22.62984394       0.00000000       0.00000000 </v>
     <v>       0.00000000      22.38829269       0.00000000 </v>
     <v>       0.00000000       0.00000000      21.59854381 </v>
    </varray>
    <i name="volume">  10942.76334035 </i>
    <varray name="rec_basis" >
     <v>       0.04418943       0.00000000       0.00000000 </v>
     <v>       0.00000000       0.04466620       0.00000000 </v>
     <v>       0.00000000       0.00000000       0.04629942 </v>
    </varray>
   </crystal>
   <varray name="positions" >
    <v>       0.48405721       0.49832944       0.51544248 </v>
    <v>       0.56995850       0.42805078       0.48661296 </v>
    <v>       0.59501643       0.53017837       0.49692318 </v>
    <v>       0.56293330       0.47563685       0.58355113 </v>
    <v>       0.53574173       0.49810266       0.41455883 </v>
    <v>       0.53401925       0.57230783       0.57216383 </v>
    <v>       0.49371618       0.39515063       0.56330548 </v>
    <v>       0.47092102       0.41199331       0.43916007 </v>
    <v>       0.51286845       0.59885556       0.46264168 </v>
    <v>       0.42988834       0.52316794       0.41948543 </v>
   </varray>
  </structure>
  <varray name="forces" >
   <v>       0.20201449      -0.05772201       0.02128904 </v>
   <v>       0.04187524       0.01595258       0.00320067 </v>
   <v>       0.04938296      -0.04271962       0.03870146 </v>
   <v>      -0.03571521       0.02764945      -0.07587794 </v>
   <v>      -0.02695885       0.00924352       0.15633747 </v>
   <v>      -0.08790432       0.03402047      -0.11615588 </v>
   <v>      -0.01846841      -0.04447283      -0.06429535 </v>
   <v>      -0.04453617      -0.05381416       0.08511370 </v>
   <v>       0.01946744       0.02789027       0.03143655 </v>
   <v>      -0.09915718       0.08397234      -0.07974972 </v>
  </varray>
  <energy>
   <i name="e_fr_energy">    -37.82660522 </i>
   <i name="e_wo_entrp">    -37.84775278 </i>
   <i name="e_0_energy">    -37.83365441 </i>
  </energy>
  <time name="totalsc">  118.79  119.00</time>
 </calculation>
 <calculation>
  <scstep>
   <time name="dav">    5.02    5.03</time>
   <time name="total">    7.84    7.85</time>
   <energy>
    <i name="alphaZ">      5.17874040 </i>
    <i name="ewald">  12880.66282851 </i>
    <i name="hartreedc"> -21926.13331248 </i>
    <i name="XCdc">     60.40884740 </i>
    <i name="pawpsdc">  10143.08908361 </i>
    <i name="pawaedc"> -10307.78245246 </i>
    <i name="eentropy">      0.02430372 </i>
    <i name="bandstr">   -598.23354576 </i>
    <i name="atom">   9704.95859309 </i>
    <i name="e_fr_energy">    -37.82691397 </i>
    <i name="e_wo_entrp">    -37.85121769 </i>
    <i name="e_0_energy">    -37.83501521 </i>
   </energy>
  </scstep>
  <scstep>
   <time name="dav">    6.46    6.47</time>
   <time name="total">    9.27    9.28</time>
   <energy>
    <i name="e_fr_energy">    -38.05135177 </i>
    <i name="e_wo_entrp">    -38.09205912 </i>
    <i name="e_0_energy">    -38.06492089 </i>
   </energy>
  </scstep>
  <scstep>
   <time name="dav">    5.55    5.56</time>
   <time name="total">    8.35    8.36</time>
   <energy>
    <i name="e_fr_energy">    -37.80670830 </i>
    <i name="e_wo_entrp">    -37.82025562 </i>
    <i name="e_0_energy">    -37.81122407 </i>
   </energy>
  </scstep>
  <scstep>
   <time name="dav">    6.76    6.77</time>
   <time name="total">    9.56    9.57</time>
   <energy>
    <i name="e_fr_energy">    -37.83309531 </i>
    <i name="e_wo_entrp">    -37.86092445 </i>
    <i name="e_0_energy">    -37.84237169 </i>
   </energy>
  </scstep>
  <scstep>
   <time name="dav">    6.36    6.37</time>
   <time name="total">    9.20    9.21</time>
   <energy>
    <i name="e_fr_energy">    -37.83743498 </i>
    <i name="e_wo_entrp">    -37.86137321 </i>
[...]
       <r>    -1.5384     1.6773    59.9980 </r>
       <r>    -1.4914     0.6967    60.0307 </r>
       <r>    -1.4445     0.0766    60.0343 </r>
       <r>    -1.3975    -0.1986    60.0250 </r>
       <r>    -1.3506    -0.2616    60.0127 </r>
       <r>    -1.3036    -0.2591    60.0006 </r>
       <r>    -1.2567    -0.2899    59.9869 </r>
       <r>    -1.2097    -0.3799    59.9691 </r>
       <r>    -1.1628    -0.4645    59.9473 </r>
       <r>    -1.1158    -0.3729    59.9298 </r>
       <r>    -1.0689     0.1477    59.9367 </r>
       <r>    -1.0219     1.3177    59.9986 </r>
       <r>    -0.9749     3.1425    60.1461 </r>
       <r>    -0.9280     5.2915    60.3946 </r>
       <r>    -0.8810     7.1978    60.7326 </r>
       <r>    -0.8341     8.3835    61.1262 </r>
       <r>    -0.7871     8.7776    61.5383 </r>
       <r>    -0.7402     8.7227    61.9479 </r>
       <r>    -0.6932     8.6251    62.3529 </r>
       <r>    -0.6463     8.5595    62.7548 </r>
       <r>    -0.5993     8.2176    63.1407 </r>
       <r>    -0.5524     7.2581    63.4815 </r>
       <r>    -0.5054     5.7182    63.7499 </r>
       <r>    -0.4584     4.0918    63.9421 </r>
       <r>    -0.4115     3.0110    64.0835 </r>
       <r>    -0.3645     2.8244    64.2161 </r>
       <r>    -0.3176     3.4167    64.3765 </r>
       <r>    -0.2706     4.3607    64.5813 </r>
       <r>    -0.2237     5.2079    64.8258 </r>
       <r>    -0.1767     5.6748    65.0922 </r>
       <r>    -0.1298     5.6473    65.3574 </r>
       <r>    -0.0828     5.1122    65.5974 </r>
       <r>    -0.0359     4.1381    65.7917 </r>
       <r>     0.0111     2.9004    65.9279 </r>
       <r>     0.0580     1.6609    66.0059 </r>
       <r>     0.1050     0.6689    66.0373 </r>
       <r>     0.1520     0.0521    66.0398 </r>
       <r>     0.1989    -0.2143    66.0297 </r>
       <r>     0.2459    -0.2506    66.0179 </r>
       <r>     0.2928    -0.1867    66.0092 </r>
       <r>     0.3398    -0.1090    66.0041 </r>
       <r>     0.3867    -0.0530    66.0016 </r>
       <r>     0.4337    -0.0220    66.0005 </r>
       <r>     0.4806    -0.0079    66.0002 </r>
       <r>     0.5276    -0.0025    66.0000 </r>
       <r>     0.5745    -0.0007    66.0000 </r>
       <r>     0.6215    -0.0002    66.0000 </r>
       <r>     0.6685    -0.0000    66.0000 </r>
       <r>     0.7154    -0.0000    66.0000 </r>
       <r>     0.7624    -0.0000    66.0000 </r>
       <r>     0.8093    -0.0000    66.0000 </r>
       <r>     0.8563    -0.0000    66.0000 </r>
       <r>     0.9032    -0.0000    66.0000 </r>
       <r>     0.9502    -0.0000    66.0000 </r>
       <r>     0.9971    -0.0000    66.0000 </r>
       <r>     1.0441    -0.0000    66.0000 </r>
       <r>     1.0910    -0.0000    66.0000 </r>
       <r>     1.1380    -0.0000    66.0000 </r>
       <r>     1.1849     0.0000    66.0000 </r>
       <r>     1.2319     0.0000    66.0000 </r>
       <r>     1.2789     0.0000    66.0000 </r>
       <r>     1.3258     0.0000    66.0000 </r>
       <r>     1.3728     0.0000    66.0000 </r>
       <r>     1.4197     0.0000    66.0000 </r>
       <r>     1.4667     0.0000    66.0000 </r>
       <r>     1.5136     0.0000    66.0000 </r>
       <r>     1.5606     0.0000    66.0000 </r>
       <r>     1.6075     0.0000    66.0000 </r>
       <r>     1.6545     0.0000    66.0000 </r>
       <r>     1.7014     0.0000    66.0000 </r>
       <r>     1.7484     0.0000    66.0000 </r>
       <r>     1.7953     0.0000    66.0000 </r>
       <r>     1.8423     0.0000    66.0000 </r>
       <r>     1.8893     0.0000    66.0000 </r>
       <r>     1.9362     0.0000    66.0000 </r>
       <r>     1.9832     0.0000    66.0000 </r>
       <r>     2.0301     0.0000    66.0000 </r>
       <r>     2.0771     0.0000    66.0000 </r>
       <r>     2.1240     0.0000    66.0000 </r>
      </set>
      <set comment="spin 2">
       <r>   -11.9622     0.0000     0.0000 </r>
       <r>   -11.9153     0.0000     0.0000 </r>
       <r>   -11.8683     0.0000     0.0000 </r>
       <r>   -11.8213     0.0000     0.0000 </r>
       <r>   -11.7744     0.0000     0.0000 </r>
       <r>   -11.7274     0.0000     0.0000 </r>
       <r>   -11.6805     0.0000     0.0000 </r>
       <r>   -11.6335     0.0000     0.0000 </r>
       <r>   -11.5866     0.0000     0.0000 </r>
       <r>   -11.5396     0.0000     0.0000 </r>
       <r>   -11.4927    -0.0000    -0.0000 </r>
       <r>   -11.4457    -0.0000    -0.0000 </r>
       <r>   -11.3988    -0.0000    -0.0000 </r>
       <r>   -11.3518    -0.0000    -0.0000 </r>
       <r>   -11.3048    -0.0000    -0.0000 </r>
       <r>   -11.2579    -0.0000    -0.0000 </r>
       <r>   -11.2109    -0.0000    -0.0000 </r>
       <r>   -11.1640    -0.0000    -0.0000 </r>
       <r>   -11.1170    -0.0000    -0.0000 </r>
       <r>   -11.0701    -0.0000    -0.0000 </r>
       <r>   -11.0231    -0.0000    -0.0000 </r>
       <r>   -10.9762    -0.0000    -0.0000 </r>
       <r>   -10.9292    -0.0000    -0.0000 </r>
       <r>   -10.8823    -0.0000    -0.0000 </r>
       <r>   -10.8353    -0.0000    -0.0000 </r>
       <r>   -10.7884    -0.0000    -0.0000 </r>
       <r>   -10.7414    -0.0000    -0.0000 </r>
       <r>   -10.6944    -0.0000    -0.0000 </r>
       <r>   -10.6475    -0.0000    -0.0000 </r>
       <r>   -10.6005    -0.0000    -0.0000 </r>
       <r>   -10.5536    -0.0002    -0.0000 </r>
       <r>   -10.5066    -0.0007    -0.0000 </r>
       <r>   -10.4597    -0.0024    -0.0002 </r>
       <r>   -10.4127    -0.0077    -0.0005 </r>
       <r>   -10.3658    -0.0214    -0.0015 </r>
       <r>   -10.3188    -0.0514    -0.0039 </r>
       <r>   -10.2719    -0.1048    -0.0089 </r>
       <r>   -10.2249    -0.1762    -0.0171 </r>
       <r>   -10.1779    -0.2257    -0.0277 </r>
       <r>   -10.1310    -0.1599    -0.0352 </r>
       <r>   -10.0840     0.1574    -0.0278 </r>
       <r>   -10.0371     0.8389     0.0115 </r>
       <r>    -9.9901     1.8668     0.0992 </r>
       <r>    -9.9432     3.0178     0.2409 </r>
       <r>    -9.8962     3.9117     0.4246 </r>
       <r>    -9.8493     4.1939     0.6215 </r>
       <r>    -9.8023     3.7443     0.7973 </r>
       <r>    -9.7554     2.7526     0.9265 </r>
       <r>    -9.7084     1.6000     1.0017 </r>
       <r>    -9.6615     0.6421     1.0318 </r>
       <r>    -9.6145     0.0521     1.0343 </r>
       <r>    -9.5675    -0.1928     1.0252 </r>
       <r>    -9.5206    -0.2200     1.0149 </r>
       <r>    -9.4736    -0.1590     1.0074 </r>
       <r>    -9.4267    -0.0899     1.0032 </r>
       <r>    -9.3797    -0.0424     1.0012 </r>
       <r>    -9.3328    -0.0170     1.0004 </r>
       <r>    -9.2858    -0.0060     1.0001 </r>
       <r>    -9.2389    -0.0018     1.0000 </r>
       <r>    -9.1919    -0.0005     1.0000 </r>
       <r>    -9.1450    -0.0001     1.0000 </r>
       <r>    -9.0980    -0.0000     1.0000 </r>
       <r>    -9.0511    -0.0000     1.0000 </r>
       <r>    -9.0041    -0.0000     1.0000 </r>
       <r>    -8.9571    -0.0000     1.0000 </r>
       <r>    -8.9102    -0.0000     1.0000 </r>
       <r>    -8.8632    -0.0000     1.0000 </r>
       <r>    -8.8163    -0.0000     1.0000 </r>
       <r>    -8.7693    -0.0000     1.0000 </r>
       <r>    -8.7224    -0.0002     1.0000 </r>
       <r>    -8.6754    -0.0006     1.0000 </r>
       <r>    -8.6285    -0.0024     0.9998 </r>
       <r>    -8.5815    -0.0077     0.9995 </r>
       <r>    -8.5346    -0.0219     0.9985 </r>
       <r>    -8.4876    -0.0543     0.9959 </r>
       <r>    -8.4406    -0.1158     0.9905 </r>
       <r>    -8.3937    -0.2087     0.9807 </r>
       <r>    -8.3467    -0.3037     0.9664 </r>
       <r>    -8.2998    -0.3123     0.9517 </r>
       <r>    -8.2528    -0.0777     0.9481 </r>
       <r>    -8.2059     0.5844     0.9755 </r>
       <r>    -8.1589     1.7841     1.0593 </r>
       <r>    -8.1120     3.4374     1.2207 </r>
       <r>    -8.0650     5.2117     1.4654 </r>
       <r>    -8.0181     6.6080     1.7757 </r>
       <r>    -7.9711     7.1720     2.1124 </r>
       <r>    -7.9242     6.7305     2.4285 </r>
       <r>    -7.8772     5.5136     2.6874 </r>
       <r>    -7.8302     4.0677     2.8783 </r>
       <r>    -7.7833     2.9839     3.0185 </r>
       <r>    -7.7363     2.5933     3.1402 </r>
       <r>    -7.6894     2.8297     3.2731 </r>
       <r>    -7.6424     3.3659     3.4311 </r>
       <r>    -7.5955     3.9235     3.6153 </r>
       <r>    -7.5485     4.4950     3.8264 </r>
       <r>    -7.5016     5.2688     4.0738 </r>
       <r>    -7.4546     6.3168     4.3704 </r>
       <r>    -7.4077     7.3480     4.7154 </r>
       <r>    -7.3607     7.7999     5.0817 </r>
       <r>    -7.3137     7.2341     5.4213 </r>
       <r>    -7.2668     5.7142     5.6896 </r>
       <r>    -7.2198     3.8520     5.8705 </r>
       <r>    -7.1729     2.4922     5.9875 </r>
       <r>    -7.1259     2.2771     6.0944 </r>
       <r>    -7.0790     3.3730     6.2528 </r>
       <r>    -7.0320     5.4656     6.5095 </r>
       <r>    -6.9851     7.9473     6.8826 </r>
       <r>    -6.9381    10.1627     7.3598 </r>
       <r>    -6.8912    11.6208     7.9054 </r>
       <r>    -6.8442    12.1305     8.4750 </r>
       <r>    -6.7973    11.8269     9.0303 </r>
       <r>    -6.7503    11.0753     9.5504 </r>
       <r>    -6.7033    10.2993    10.0340 </r>
       <r>    -6.6564     9.8263    10.4953 </r>
       <r>    -6.6094     9.8218    10.9565 </r>
       <r>    -6.5625    10.3037    11.4403 </r>
       <r>    -6.5155    11.1848    11.9655 </r>
       <r>    -6.4686    12.3094    12.5435 </r>
       <r>    -6.4216    13.4970    13.1772 </r>
       <r>    -6.3747    14.6079    13.8631 </r>
       <r>    -6.3277    15.5976    14.5955 </r>
       <r>    -6.2808    16.4942    15.3700 </r>
       <r>    -6.2338    17.2766    16.1812 </r>
       <r>    -6.1868    17.7434    17.0143 </r>
       <r>    -6.1399    17.5328    17.8375 </r>
       <r>    -6.0929    16.3562    18.6055 </r>
       <r>    -6.0460    14.2866    19.2763 </r>
       <r>    -5.9990    11.8260    19.8316 </r>
       <r>    -5.9521     9.6293    20.2837 </r>
       <r>    -5.9051     8.0835    20.6633 </r>
       <r>    -5.8582     7.0963    20.9965 </r>
       <r>    -5.8112     6.2737    21.2911 </r>
       <r>    -5.7643     5.3315    21.5414 </r>
       <r>    -5.7173     4.3958    21.7478 </r>
       <r>    -5.6704     3.9530    21.9334 </r>
       <r>    -5.6234     4.4960    22.1445 </r>
       <r>    -5.5764     6.1454    22.4331 </r>
       <r>    -5.5295     8.5318    22.8337 </r>
       <r>    -5.4825    11.0096    23.3506 </r>
       <r>    -5.4356    13.0122    23.9616 </r>
       <r>    -5.3886    14.2803    24.6321 </r>
       <r>    -5.3417    14.8530    25.3295 </r>
       <r>    -5.2947    14.9278    26.0305 </r>
       <r>    -5.2478    14.7536    26.7232 </r>
       <r>    -5.2008    14.5871    27.4081 </r>
       <r>    -5.1539    14.6246    28.0948 </r>
       <r>    -5.1069    14.8754    28.7933 </r>
       <r>    -5.0600    15.1060    29.5026 </r>
       <r>    -5.0130    15.0017    30.2070 </r>
       <r>    -4.9660    14.4919    30.8874 </r>
       <r>    -4.9191    13.9468    31.5423 </r>
       <r>    -4.8721    13.9950    32.1994 </r>
       <r>    -4.8252    15.0446    32.9058 </r>
       <r>    -4.7782    16.9019    33.6994 </r>
       <r>    -4.7313    18.8333    34.5837 </r>
       <r>    -4.6843    20.0437    35.5248 </r>
       <r>    -4.6374    20.1977    36.4732 </r>
       <r>    -4.5904    19.6034    37.3937 </r>
       <r>    -4.5435    18.9604    38.2839 </r>
       <r>    -4.4965    18.8830    39.1706 </r>
       <r>    -4.4495    19.5187    40.0871 </r>
       <r>    -4.4026    20.4877    41.0490 </r>
       <r>    -4.3556    21.1629    42.0427 </r>
       <r>    -4.3087    21.1148    43.0342 </r>
       <r>    -4.2617    20.4252    43.9932 </r>
       <r>    -4.2148    19.6434    44.9155 </r>
       <r>    -4.1678    19.4173    45.8273 </r>
       <r>    -4.1209    20.0797    46.7701 </r>
       <r>    -4.0739    21.4712    47.7783 </r>
       <r>    -4.0270    23.0358    48.8599 </r>
       <r>    -3.9800    24.0306    49.9882 </r>
       <r>    -3.9331    23.7351    51.1027 </r>
       <r>    -3.8861    21.6787    52.1206 </r>
       <r>    -3.8391    17.8797    52.9601 </r>
       <r>    -3.7922    12.9472    53.5680 </r>
       <r>    -3.7452     7.8898    53.9385 </r>
       <r>    -3.6983     3.6858    54.1116 </r>
       <r>    -3.6513     0.8833    54.1530 </r>
       <r>    -3.6044    -0.5230    54.1285 </r>
       <r>    -3.5574    -0.9222    54.0852 </r>
       <r>    -3.5105    -0.7993    54.0476 </r>
       <r>    -3.4635    -0.5236    54.0231 </r>
       <r>    -3.4166    -0.2857    54.0096 </r>
       <r>    -3.3696    -0.1404    54.0031 </r>
       <r>    -3.3226    -0.0799    53.9993 </r>
       <r>    -3.2757    -0.0854    53.9953 </r>
       <r>    -3.2287    -0.1463    53.9884 </r>
       <r>    -3.1818    -0.2501    53.9767 </r>
       <r>    -3.1348    -0.3510    53.9602 </r>
       <r>    -3.0879    -0.3348    53.9445 </r>
       <r>    -3.0409    -0.0103    53.9440 </r>
       <r>    -2.9940     0.8314    53.9830 </r>
       <r>    -2.9470     2.2835    54.0903 </r>
       <r>    -2.9001     4.1777    54.2864 </r>
       <r>    -2.8531     6.0481    54.5704 </r>
       <r>    -2.8062     7.2934    54.9129 </r>
       <r>    -2.7592     7.4900    55.2645 </r>
       <r>    -2.7122     6.6637    55.5774 </r>
       <r>    -2.6653     5.3108    55.8268 </r>
       <r>    -2.6183     4.1157    56.0200 </r>
       <r>    -2.5714     3.5395    56.1862 </r>
       <r>    -2.5244     3.5629    56.3535 </r>
       <r>    -2.4775     3.7585    56.5300 </r>
       <r>    -2.4305     3.6230    56.7001 </r>
       <r>    -2.3836     2.9197    56.8372 </r>
       <r>    -2.3366     1.8087    56.9221 </r>
       <r>    -2.2897     0.7386    56.9568 </r>
       <r>    -2.2427     0.2261    56.9674 </r>
       <r>    -2.1958     0.6543    56.9981 </r>
       <r>    -2.1488     2.1167    57.0975 </r>
       <r>    -2.1018     4.3122    57.3000 </r>
       <r>    -2.0549     6.5602    57.6080 </r>
       <r>    -2.0079     8.0292    57.9850 </r>
       <r>    -1.9610     8.1310    58.3668 </r>
       <r>    -1.9140     6.8401    58.6880 </r>
       <r>    -1.8671     4.6923    58.9083 </r>
       <r>    -1.8201     2.4563    59.0237 </r>
       <r>    -1.7732     0.7268    59.0578 </r>
       <r>    -1.7262    -0.2798    59.0446 </r>
       <r>    -1.6793    -0.6472    59.0143 </r>
       <r>    -1.6323    -0.5411    58.9888 </r>
       <r>    -1.5853    -0.0518    58.9864 </r>
       <r>    -1.5384     0.8000    59.0240 </r>
       <r>    -1.4914     1.9375    59.1150 </r>
       <r>    -1.4445     3.1195    59.2614 </r>
       <r>    -1.3975     3.9732    59.4480 </r>
       <r>    -1.3506     4.1740    59.6440 </r>
       <r>    -1.3036     3.6435    59.8150 </r>
       <r>    -1.2567     2.6019    59.9372 </r>
       <r>    -1.2097     1.4309    60.0044 </r>
       <r>    -1.1628     0.4557    60.0258 </r>
       <r>    -1.1158    -0.1900    60.0169 </r>
       <r>    -1.0689    -0.5390    59.9916 </r>
       <r>    -1.0219    -0.6546    59.9608 </r>
       <r>    -0.9749    -0.4967    59.9375 </r>
       <r>    -0.9280     0.1060    59.9425 </r>
       <r>    -0.8810     1.3380    60.0053 </r>
       <r>    -0.8341     3.1878    60.1550 </r>
       <r>    -0.7871     5.3085    60.4042 </r>
       <r>    -0.7402     7.1172    60.7384 </r>
       <r>    -0.6932     8.1382    61.1206 </r>
       <r>    -0.6463     8.3442    61.5123 </r>
       <r>    -0.5993     8.1694    61.8959 </r>
       <r>    -0.5524     8.1216    62.2773 </r>
       <r>    -0.5054     8.3129    62.6676 </r>
       <r>    -0.4584     8.3454    63.0595 </r>
       <r>    -0.4115     7.6746    63.4198 </r>
       <r>    -0.3645     6.1224    63.7073 </r>
       <r>    -0.3176     4.0919    63.8994 </r>
       <r>    -0.2706     2.3272    64.0087 </r>
       <r>    -0.2237     1.4496    64.0767 </r>
       <r>    -0.1767     1.6266    64.1531 </r>
       <r>    -0.1298     2.5611    64.2734 </r>
       <r>    -0.0828     3.7390    64.4489 </r>
       <r>    -0.0359     4.7269    64.6709 </r>
       <r>     0.0111     5.3239    64.9209 </r>
       <r>     0.0580     5.5114    65.1796 </r>
       <r>     0.1050     5.3111    65.4290 </r>
       <r>     0.1520     4.7175    65.6505 </r>
       <r>     0.1989     3.7565    65.8269 </r>
       <r>     0.2459     2.5719    65.9477 </r>
       <r>     0.2928     1.4123    66.0140 </r>
       <r>     0.3398     0.5129    66.0381 </r>
       <r>     0.3867    -0.0195    66.0372 </r>
       <r>     0.4337    -0.2274    66.0265 </r>
       <r>     0.4806    -0.2355    66.0154 </r>
       <r>     0.5276    -0.1658    66.0076 </r>
       <r>     0.5745    -0.0929    66.0033 </r>
       <r>     0.6215    -0.0436    66.0012 </r>
       <r>     0.6685    -0.0175    66.0004 </r>
       <r>     0.7154    -0.0061    66.0001 </r>
       <r>     0.7624    -0.0019    66.0000 </r>
       <r>     0.8093    -0.0005    66.0000 </r>
       <r>     0.8563    -0.0001    66.0000 </r>
       <r>     0.9032    -0.0000    66.0000 </r>
       <r>     0.9502    -0.0000    66.0000 </r>
       <r>     0.9971    -0.0000    66.0000 </r>
       <r>     1.0441    -0.0000    66.0000 </r>
       <r>     1.0910    -0.0000    66.0000 </r>
       <r>     1.1380    -0.0000    66.0000 </r>
       <r>     1.1849    -0.0000    66.0000 </r>
       <r>     1.2319    -0.0000    66.0000 </r>
       <r>     1.2789    -0.0000    66.0000 </r>
       <r>     1.3258    -0.0000    66.0000 </r>
       <r>     1.3728    -0.0000    66.0000 </r>
       <r>     1.4197     0.0000    66.0000 </r>
       <r>     1.4667     0.0000    66.0000 </r>
       <r>     1.5136     0.0000    66.0000 </r>
       <r>     1.5606     0.0000    66.0000 </r>
       <r>     1.6075     0.0000    66.0000 </r>
       <r>     1.6545     0.0000    66.0000 </r>
       <r>     1.7014     0.0000    66.0000 </r>
       <r>     1.7484     0.0000    66.0000 </r>
       <r>     1.7953     0.0000    66.0000 </r>
       <r>     1.8423     0.0000    66.0000 </r>
       <r>     1.8893     0.0000    66.0000 </r>
       <r>     1.9362     0.0000    66.0000 </r>
       <r>     1.9832     0.0000    66.0000 </r>
       <r>     2.0301     0.0000    66.0000 </r>
       <r>     2.0771     0.0000    66.0000 </r>
       <r>     2.1240     0.0000    66.0000 </r>
      </set>
     </set>
    </array>
   </total>
  </dos>
 </calculation>
 <structure name="finalpos" >
  <crystal>
   <varray name="basis" >
    <v>      22.62984394       0.00000000       0.00000000 </v>
    <v>       0.00000000      22.38829269       0.00000000 </v>
    <v>       0.00000000       0.00000000      21.59854381 </v>
   </varray>
   <i name="volume">  10942.76334035 </i>
   <varray name="rec_basis" >
    <v>       0.04418943       0.00000000       0.00000000 </v>
    <v>       0.00000000       0.04466620       0.00000000 </v>
    <v>       0.00000000       0.00000000       0.04629942 </v>
   </varray>
  </crystal>
  <varray name="positions" >
   <v>       0.48395471       0.49749453       0.51493582 </v>
   <v>       0.57098637       0.42710211       0.48640961 </v>
   <v>       0.59677458       0.53024212       0.49759579 </v>
   <v>       0.56213983       0.47573218       0.58250684 </v>
   <v>       0.53483596       0.49853827       0.41854903 </v>
   <v>       0.53270420       0.57252646       0.56979107 </v>
   <v>       0.49465493       0.39338674       0.56285157 </v>
   <v>       0.46999435       0.41176352       0.44045902 </v>
   <v>       0.51380726       0.60023635       0.46146272 </v>
   <v>       0.42926824       0.52475109       0.41928360 </v>
  </varray>
 </structure>
</modeling>
