unknown system                          
            1
    22.629844    0.000000    0.000000
     0.000000   22.388293    0.000000
     0.000000    0.000000   21.598544
   Ni   Pd
     6     4
Direct configuration=     1
   0.48927557  0.49832177  0.51466118
   0.57081355  0.42570420  0.48665970
   0.59518448  0.53168368  0.49780984
   0.56511226  0.47336583  0.58934319
   0.53689280  0.49805369  0.40885499
   0.53344798  0.57794622  0.57436649
   0.49102322  0.39552301  0.55758590
   0.46805800  0.41441599  0.44202880
   0.50888735  0.59501496  0.46229156
   0.43042522  0.52174403  0.42024341
Direct configuration=     2
   0.48978294  0.49873018  0.51599936
   0.57075681  0.42729111  0.48670494
   0.59415549  0.53062793  0.49822146
   0.56433410  0.47446485  0.58704240
   0.53733578  0.49766666  0.41006686
   0.53368992  0.57609527  0.57342434
   0.49133972  0.39531401  0.55916849
   0.46846605  0.41375201  0.44086051
   0.50990024  0.59581485  0.46274347
   0.42935938  0.52201651  0.41961321
Direct configuration=     3
   0.49010509  0.49898950  0.51684904
   0.57072078  0.42829871  0.48673367
   0.59350213  0.52995758  0.49848282
   0.56384001  0.47516267  0.58558152
   0.53761704  0.49742092  0.41083634
   0.53384354  0.57492000  0.57282613
   0.49154069  0.39518131  0.56017336
   0.46872514  0.41333041  0.44011871
   0.51054337  0.59632273  0.46303041
   0.42868263  0.52218952  0.41921307
Direct configuration=     4
   0.48870135  0.49870421  0.51640114
   0.57038751  0.42865105  0.48658377
   0.59368092  0.52969813  0.49816225
   0.56369405  0.47537607  0.58498677
   0.53720780  0.49726101  0.41182318
   0.53399898  0.57430463  0.57289001
   0.49198943  0.39518964  0.56097802
   0.46940020  0.41338619  0.43981748
   0.51100457  0.59696577  0.46284086
   0.42905562  0.52223667  0.41936159
Direct configuration=     5
   0.48626158  0.49820836  0.51562267
   0.56980826  0.42926342  0.48632325
   0.59399165  0.52924719  0.49760507
   0.56344036  0.47574696  0.58395306
   0.53649652  0.49698308  0.41353836
   0.53426915  0.57323509  0.57300103
   0.49276936  0.39520411  0.56237657
   0.47057350  0.41348314  0.43929394
   0.51180616  0.59808340  0.46251139
   0.42970390  0.52231862  0.41961973
Direct configuration=     6
   0.48480322  0.49828847  0.51550346
   0.56990765  0.42846116  0.48651492
   0.59466962  0.52986324  0.49715395
   0.56310490  0.47567412  0.58368715
   0.53599717  0.49772377  0.41421348
   0.53410382  0.57262164  0.57244715
   0.49339575  0.39516873  0.56299111
   0.47080341  0.41249750  0.43920537
   0.51250895  0.59859424  0.46259759
   0.42982592  0.52288051  0.41953088
Direct configuration=     7
   0.48405721  0.49832944  0.51544248
   0.56995850  0.42805078  0.48661296
   0.59501643  0.53017837  0.49692318
   0.56293330  0.47563685  0.58355113
   0.53574173  0.49810266  0.41455883
   0.53401925  0.57230783  0.57216383
   0.49371618  0.39515063  0.56330548
   0.47092102  0.41199331  0.43916007
   0.51286845  0.59885556  0.46264168
   0.42988834  0.52316794  0.41948543
Direct configuration=     8
   0.48445512  0.49813896  0.51549568
   0.57012997  0.42793060  0.48666739
   0.59534287  0.53016073  0.49696796
   0.56273152  0.47572046  0.58320850
   0.53553490  0.49830010  0.41529299
   0.53366891  0.57229466  0.57160678
   0.49378903  0.39498236  0.56320119
   0.47081301  0.41158083  0.43945871
   0.51309362  0.59906934  0.46277832
   0.42956149  0.52359533  0.41916754
Direct configuration=     9
   0.48474707  0.49799920  0.51553471
   0.57025578  0.42784243  0.48670733
   0.59558238  0.53014779  0.49700081
   0.56258347  0.47578180  0.58295710
   0.53538314  0.49844496  0.41583166
   0.53341185  0.57228499  0.57119807
   0.49384249  0.39485890  0.56312468
   0.47073375  0.41127818  0.43967784
   0.51325883  0.59922619  0.46287859
   0.42932167  0.52390893  0.41893429
Direct configuration=    10
   0.48484473  0.49772422  0.51502179
   0.57048056  0.42769085  0.48657414
   0.59608933  0.53010131  0.49713218
   0.56260044  0.47582866  0.58287374
   0.53494112  0.49842081  0.41667962
   0.53309222  0.57253447  0.57088691
   0.49382283  0.39448084  0.56299919
   0.47060844  0.41129799  0.44004099
   0.51330603  0.59952953  0.46274618
   0.42933473  0.52416470  0.41889032
Direct configuration=    11
   0.48491211  0.49753449  0.51466791
   0.57063565  0.42758627  0.48648225
   0.59643909  0.53006924  0.49722281
   0.56261215  0.47586098  0.58281624
   0.53463615  0.49840415  0.41726468
   0.53287169  0.57270659  0.57067223
   0.49380927  0.39421999  0.56291261
   0.47052198  0.41131165  0.44029155
   0.51333859  0.59973882  0.46265483
   0.42934374  0.52434117  0.41885997
Direct configuration=    12
   0.48464441  0.49753635  0.51460589
   0.57083129  0.42737887  0.48648415
   0.59660163  0.53015758  0.49744693
   0.56256213  0.47592170  0.58274960
   0.53461108  0.49844655  0.41748575
   0.53288192  0.57257833  0.57049239
   0.49394732  0.39400319  0.56292808
   0.47031218  0.41138493  0.44032870
   0.51335738  0.59995056  0.46235408
   0.42937109  0.52441531  0.41896950
Direct configuration=    13
   0.48439366  0.49753808  0.51454780
   0.57101455  0.42718460  0.48648593
   0.59675388  0.53024032  0.49765686
   0.56251528  0.47597858  0.58268718
   0.53458759  0.49848626  0.41769283
   0.53289151  0.57245819  0.57032394
   0.49407662  0.39380011  0.56294258
   0.47011566  0.41145357  0.44036349
   0.51337498  0.60014890  0.46207236
   0.42939670  0.52448477  0.41907209
Direct configuration=    14
   0.48415848  0.49750066  0.51474537
   0.57105906  0.42710559  0.48650110
   0.59674001  0.53025940  0.49771675
   0.56230651  0.47585908  0.58251964
   0.53478755  0.49852896  0.41809099
   0.53285658  0.57238029  0.57005148
   0.49439210  0.39367664  0.56289967
   0.46999394  0.41157920  0.44042158
   0.51353637  0.60026876  0.46173973
   0.42928981  0.52461479  0.41915876
Direct configuration=    15
   0.48404556  0.49748269  0.51484024
   0.57108044  0.42706765  0.48650838
   0.59673335  0.53026856  0.49774550
   0.56220627  0.47580171  0.58243919
   0.53488356  0.49854946  0.41828217
   0.53283981  0.57234289  0.56992066
   0.49454358  0.39361736  0.56287906
   0.46993550  0.41163952  0.44044948
   0.51361387  0.60032631  0.46158001
   0.42923849  0.52467722  0.41920037
Direct configuration=    16
   0.48396672  0.49749296  0.51492318
   0.57099881  0.42709755  0.48642267
   0.59676913  0.53024562  0.49761558
   0.56214861  0.47574137  0.58249790
   0.53484225  0.49853975  0.41851375
   0.53272212  0.57250220  0.56980820
   0.49464021  0.39341723  0.56285521
   0.46998657  0.41174713  0.44045776
   0.51378169  0.60024824  0.46147823
   0.42926431  0.52474132  0.41927260
Direct configuration=    17
   0.48395471  0.49749453  0.51493582
   0.57098637  0.42710211  0.48640961
   0.59677458  0.53024212  0.49759579
   0.56213983  0.47573218  0.58250684
   0.53483596  0.49853827  0.41854903
   0.53270420  0.57252646  0.56979107
   0.49465493  0.39338674  0.56285157
   0.46999435  0.41176352  0.44045902
   0.51380726  0.60023635  0.46146272
   0.42926824  0.52475109  0.41928360
