  10  10   0   0
  0.1142534E+04  0.2189443E-08  0.2342071E-08  0.2228103E-08  0.5000000E-15
   1.0000000000000000E-004
  CAR 
 unknown system                          
      1.98020060    -11.98066765  301     -3.87853113      1.00000000
    -11.981  0.0000E+00  0.0000E+00  0.0000E+00  0.0000E+00
    -11.934  0.0000E+00  0.0000E+00  0.0000E+00  0.0000E+00
    -11.888  0.0000E+00  0.0000E+00  0.0000E+00  0.0000E+00
    -11.841  0.0000E+00  0.0000E+00  0.0000E+00  0.0000E+00
    -11.795  0.0000E+00  0.0000E+00  0.0000E+00  0.0000E+00
    -11.748  0.0000E+00  0.0000E+00  0.0000E+00  0.0000E+00
    -11.701  0.0000E+00  0.0000E+00  0.0000E+00  0.0000E+00
    -11.655  0.0000E+00  0.0000E+00  0.0000E+00  0.0000E+00
    -11.608 -0.8457E-30 -0.4625E-30 -0.3936E-31 -0.2152E-31
    -11.562 -0.3351E-28 -0.1865E-28 -0.1599E-29 -0.8896E-30
    -11.515 -0.1217E-26 -0.6894E-27 -0.5822E-28 -0.3297E-28
    -11.469 -0.3960E-25 -0.2283E-25 -0.1901E-26 -0.1096E-26
    -11.422 -0.1155E-23 -0.6777E-24 -0.5564E-25 -0.3263E-25
    -11.376 -0.3018E-22 -0.1803E-22 -0.1460E-23 -0.8715E-24
    -11.329 -0.7066E-21 -0.4295E-21 -0.3434E-22 -0.2086E-22
    -11.283 -0.1482E-19 -0.9169E-20 -0.7240E-21 -0.4476E-21
    -11.236 -0.2784E-18 -0.1753E-18 -0.1368E-19 -0.8606E-20
    -11.190 -0.4683E-17 -0.3002E-17 -0.2316E-18 -0.1483E-18
    -11.143 -0.6815E-16 -0.4483E-16 -0.3403E-17 -0.2235E-17
    -11.096 -0.9212E-15 -0.6113E-15 -0.4627E-16 -0.3068E-16
    -11.050 -0.1108E-13 -0.7492E-14 -0.5617E-15 -0.3793E-15
    -11.003 -0.1191E-12 -0.8205E-13 -0.6106E-14 -0.4197E-14
    -10.957 -0.1146E-11 -0.8032E-12 -0.5941E-13 -0.4158E-13
    -10.910 -0.9840E-11 -0.7025E-11 -0.5173E-12 -0.3685E-12
    -10.864 -0.7546E-10 -0.5487E-10 -0.4029E-11 -0.2922E-11
    -10.817 -0.5163E-09 -0.3824E-09 -0.2806E-10 -0.2072E-10
    -10.771 -0.3149E-08 -0.2376E-08 -0.1746E-09 -0.1313E-09
    -10.724 -0.1710E-07 -0.1314E-07 -0.9704E-09 -0.7429E-09
    -10.678 -0.8255E-07 -0.6466E-07 -0.4812E-08 -0.3752E-08
    -10.631 -0.3536E-06 -0.2824E-06 -0.2127E-07 -0.1689E-07
    -10.585 -0.1341E-05 -0.1092E-05 -0.8368E-07 -0.6773E-07
    -10.538 -0.4487E-05 -0.3730E-05 -0.2925E-06 -0.2413E-06
    -10.492 -0.1318E-04 -0.1119E-04 -0.9058E-06 -0.7621E-06
    -10.445 -0.3374E-04 -0.2930E-04 -0.2476E-05 -0.2126E-05
    -10.398 -0.7438E-04 -0.6624E-04 -0.5937E-05 -0.5208E-05
    -10.352 -0.1382E-03 -0.1268E-03 -0.1237E-04 -0.1111E-04
    -10.305 -0.2066E-03 -0.1973E-03 -0.2198E-04 -0.2029E-04
    -10.259 -0.2175E-03 -0.2238E-03 -0.3210E-04 -0.3070E-04
    -10.212 -0.5601E-04 -0.9923E-04 -0.3471E-04 -0.3532E-04
    -10.166  0.4115E-03  0.3117E-03 -0.1556E-04 -0.2081E-04
    -10.119  0.1251E-02  0.1094E-02  0.4268E-04  0.3008E-04
    -10.073  0.2362E-02  0.2176E-02  0.1526E-03  0.1314E-03
    -10.026  0.3446E-02  0.3290E-02  0.3130E-03  0.2845E-03
     -9.980  0.4115E-02  0.4050E-02  0.5045E-03  0.4729E-03
     -9.933  0.4098E-02  0.4151E-02  0.6952E-03  0.6661E-03
     -9.887  0.3403E-02  0.3551E-02  0.8536E-03  0.8313E-03
     -9.840  0.2310E-02  0.2495E-02  0.9610E-03  0.9475E-03
     -9.793  0.1206E-02  0.1369E-02  0.1017E-02  0.1011E-02
     -9.747  0.3822E-03  0.4891E-03  0.1035E-02  0.1034E-02
     -9.700 -0.6907E-04 -0.2018E-04  0.1032E-02  0.1033E-02
     -9.654 -0.2197E-03 -0.2103E-03  0.1021E-02  0.1023E-02
     -9.607 -0.2041E-03 -0.2125E-03  0.1012E-02  0.1013E-02
     -9.561 -0.1349E-03 -0.1465E-03  0.1006E-02  0.1007E-02
     -9.514 -0.7200E-04 -0.8060E-04  0.1002E-02  0.1003E-02
     -9.468 -0.3243E-04 -0.3723E-04  0.1001E-02  0.1001E-02
     -9.421 -0.1259E-04 -0.1479E-04  0.1000E-02  0.1000E-02
     -9.375 -0.4259E-05 -0.5112E-05  0.1000E-02  0.1000E-02
     -9.328 -0.1266E-05 -0.1550E-05  0.1000E-02  0.1000E-02
     -9.282 -0.3319E-06 -0.4147E-06  0.1000E-02  0.1000E-02
     -9.235 -0.7706E-07 -0.9814E-07  0.1000E-02  0.1000E-02
     -9.188 -0.1594E-07 -0.2061E-07  0.1000E-02  0.1000E-02
     -9.142 -0.3370E-08 -0.3847E-08  0.1000E-02  0.1000E-02
     -9.095 -0.3310E-08 -0.6394E-09  0.1000E-02  0.1000E-02
     -9.049 -0.1558E-07 -0.9763E-10  0.1000E-02  0.1000E-02
     -9.002 -0.7544E-07 -0.3690E-10  0.1000E-02  0.1000E-02
     -8.956 -0.3257E-06 -0.1795E-09  0.1000E-02  0.1000E-02
     -8.909 -0.1245E-05 -0.1158E-08  0.9999E-03  0.1000E-02
     -8.863 -0.4203E-05 -0.6715E-08  0.9997E-03  0.1000E-02
     -8.816 -0.1247E-04 -0.3464E-07  0.9991E-03  0.1000E-02
     -8.770 -0.3232E-04 -0.1588E-06  0.9976E-03  0.1000E-02
     -8.723 -0.7241E-04 -0.6452E-06  0.9943E-03  0.1000E-02
     -8.677 -0.1378E-03 -0.2319E-05  0.9879E-03  0.9999E-03
     -8.630 -0.2149E-03 -0.7341E-05  0.9779E-03  0.9995E-03
     -8.584 -0.2506E-03 -0.2037E-04  0.9662E-03  0.9986E-03
     -8.537 -0.1412E-03 -0.4911E-04  0.9596E-03  0.9963E-03
     -8.490  0.2436E-03 -0.1015E-03  0.9710E-03  0.9916E-03
     -8.444  0.9917E-03 -0.1755E-03  0.1017E-02  0.9834E-03
     -8.397  0.2069E-02 -0.2397E-03  0.1113E-02  0.9722E-03
     -8.351  0.3295E-02 -0.2149E-03  0.1267E-02  0.9622E-03
     -8.304  0.4416E-02  0.2140E-04  0.1472E-02  0.9632E-03
     -8.258  0.5220E-02  0.5854E-03  0.1715E-02  0.9905E-03
     -8.211  0.5613E-02  0.1504E-02  0.1976E-02  0.1060E-02
     -8.165  0.5579E-02  0.2658E-02  0.2236E-02  0.1184E-02
     -8.118  0.5134E-02  0.3808E-02  0.2475E-02  0.1361E-02
     -8.072  0.4334E-02  0.4723E-02  0.2677E-02  0.1581E-02
     -8.025  0.3357E-02  0.5286E-02  0.2833E-02  0.1827E-02
     -7.979  0.2522E-02  0.5501E-02  0.2950E-02  0.2083E-02
     -7.932  0.2152E-02  0.5398E-02  0.3050E-02  0.2334E-02
     -7.885  0.2359E-02  0.4959E-02  0.3160E-02  0.2565E-02
     -7.839  0.2925E-02  0.4154E-02  0.3296E-02  0.2758E-02
     -7.792  0.3429E-02  0.3045E-02  0.3456E-02  0.2900E-02
     -7.746  0.3547E-02  0.1825E-02  0.3621E-02  0.2985E-02
     -7.699  0.3309E-02  0.7408E-03  0.3775E-02  0.3020E-02
     -7.653  0.3108E-02 -0.2202E-04  0.3919E-02  0.3019E-02
     -7.606  0.3433E-02 -0.3852E-03  0.4079E-02  0.3001E-02
     -7.560  0.4524E-02 -0.3343E-03  0.4290E-02  0.2985E-02
     -7.513  0.6190E-02  0.1369E-03  0.4578E-02  0.2991E-02
     -7.467  0.7897E-02  0.1009E-02  0.4945E-02  0.3038E-02
     -7.420  0.9071E-02  0.2153E-02  0.5367E-02  0.3139E-02
     -7.374  0.9435E-02  0.3271E-02  0.5806E-02  0.3291E-02
     -7.327  0.9177E-02  0.3968E-02  0.6234E-02  0.3475E-02
     -7.281  0.8867E-02  0.3942E-02  0.6646E-02  0.3659E-02
     -7.234  0.9116E-02  0.3169E-02  0.7070E-02  0.3806E-02
     -7.187  0.1021E-01  0.1957E-02  0.7546E-02  0.3897E-02
     -7.141  0.1194E-01  0.8322E-03  0.8101E-02  0.3936E-02
     -7.094  0.1376E-01  0.3529E-03  0.8742E-02  0.3953E-02
     -7.048  0.1510E-01  0.9312E-03  0.9444E-02  0.3996E-02
     -7.001  0.1562E-01  0.2696E-02  0.1017E-01  0.4121E-02
     -6.955  0.1523E-01  0.5386E-02  0.1088E-01  0.4372E-02
     -6.908  0.1404E-01  0.8323E-02  0.1153E-01  0.4759E-02
     -6.862  0.1235E-01  0.1057E-01  0.1211E-01  0.5251E-02
     -6.815  0.1066E-01  0.1130E-01  0.1260E-01  0.5777E-02
     -6.769  0.9560E-02  0.1023E-01  0.1305E-01  0.6253E-02
     -6.722  0.9349E-02  0.7810E-02  0.1348E-01  0.6617E-02
     -6.676  0.9812E-02  0.5088E-02  0.1394E-01  0.6853E-02
     -6.629  0.1029E-01  0.3194E-02  0.1442E-01  0.7002E-02
     -6.582  0.1013E-01  0.2826E-02  0.1489E-01  0.7133E-02
     -6.536  0.9223E-02  0.4004E-02  0.1532E-01  0.7320E-02
     -6.489  0.8134E-02  0.6212E-02  0.1570E-01  0.7609E-02
     -6.443  0.7729E-02  0.8799E-02  0.1606E-01  0.8018E-02
     -6.396  0.8542E-02  0.1132E-01  0.1646E-01  0.8545E-02
     -6.350  0.1034E-01  0.1358E-01  0.1694E-01  0.9177E-02
     -6.303  0.1223E-01  0.1540E-01  0.1751E-01  0.9893E-02
     -6.257  0.1319E-01  0.1647E-01  0.1812E-01  0.1066E-01
     -6.210  0.1277E-01  0.1647E-01  0.1871E-01  0.1143E-01
     -6.164  0.1131E-01  0.1538E-01  0.1924E-01  0.1214E-01
     -6.117  0.9802E-02  0.1362E-01  0.1970E-01  0.1278E-01
     -6.071  0.9217E-02  0.1177E-01  0.2013E-01  0.1332E-01
     -6.024  0.1001E-01  0.1022E-01  0.2059E-01  0.1380E-01
     -5.977  0.1189E-01  0.8948E-02  0.2115E-01  0.1422E-01
     -5.931  0.1407E-01  0.7756E-02  0.2180E-01  0.1458E-01
     -5.884  0.1573E-01  0.6626E-02  0.2253E-01  0.1489E-01
     -5.838  0.1638E-01  0.5847E-02  0.2329E-01  0.1516E-01
     -5.791  0.1600E-01  0.5837E-02  0.2404E-01  0.1543E-01
     -5.745  0.1489E-01  0.6837E-02  0.2473E-01  0.1575E-01
     -5.698  0.1348E-01  0.8676E-02  0.2536E-01  0.1615E-01
     -5.652  0.1219E-01  0.1073E-01  0.2593E-01  0.1665E-01
     -5.605  0.1133E-01  0.1215E-01  0.2645E-01  0.1722E-01
     -5.559  0.1104E-01  0.1226E-01  0.2697E-01  0.1779E-01
     -5.512  0.1135E-01  0.1104E-01  0.2750E-01  0.1830E-01
     -5.466  0.1209E-01  0.9198E-02  0.2806E-01  0.1873E-01
     -5.419  0.1302E-01  0.7817E-02  0.2866E-01  0.1909E-01
     -5.373  0.1387E-01  0.7724E-02  0.2931E-01  0.1945E-01
     -5.326  0.1457E-01  0.9071E-02  0.2999E-01  0.1987E-01
     -5.279  0.1532E-01  0.1138E-01  0.3070E-01  0.2040E-01
     -5.233  0.1649E-01  0.1395E-01  0.3147E-01  0.2105E-01
     -5.186  0.1839E-01  0.1617E-01  0.3232E-01  0.2180E-01
     -5.140  0.2100E-01  0.1773E-01  0.3330E-01  0.2263E-01
     -5.093  0.2398E-01  0.1848E-01  0.3442E-01  0.2349E-01
     -5.047  0.2688E-01  0.1843E-01  0.3567E-01  0.2435E-01
     -5.000  0.2938E-01  0.1774E-01  0.3704E-01  0.2517E-01
     -4.954  0.3142E-01  0.1668E-01  0.3850E-01  0.2595E-01
     -4.907  0.3318E-01  0.1550E-01  0.4004E-01  0.2667E-01
     -4.861  0.3486E-01  0.1431E-01  0.4166E-01  0.2734E-01
     -4.814  0.3645E-01  0.1303E-01  0.4336E-01  0.2794E-01
     -4.768  0.3757E-01  0.1162E-01  0.4511E-01  0.2848E-01
     -4.721  0.3759E-01  0.1028E-01  0.4686E-01  0.2896E-01
     -4.674  0.3588E-01  0.9407E-02  0.4853E-01  0.2940E-01
     -4.628  0.3226E-01  0.9519E-02  0.5003E-01  0.2984E-01
     -4.581  0.2711E-01  0.1098E-01  0.5129E-01  0.3035E-01
     -4.535  0.2126E-01  0.1383E-01  0.5228E-01  0.3100E-01
     -4.488  0.1558E-01  0.1768E-01  0.5300E-01  0.3182E-01
     -4.442  0.1067E-01  0.2171E-01  0.5350E-01  0.3283E-01
     -4.395  0.6753E-02  0.2493E-01  0.5382E-01  0.3399E-01
     -4.349  0.3813E-02  0.2648E-01  0.5399E-01  0.3522E-01
     -4.302  0.1741E-02  0.2608E-01  0.5407E-01  0.3644E-01
     -4.256  0.4217E-03  0.2425E-01  0.5409E-01  0.3756E-01
     -4.209 -0.2750E-03  0.2209E-01  0.5408E-01  0.3859E-01
     -4.163 -0.5155E-03  0.2068E-01  0.5406E-01  0.3955E-01
     -4.116 -0.4860E-03  0.2056E-01  0.5403E-01  0.4051E-01
     -4.070 -0.3485E-03  0.2149E-01  0.5402E-01  0.4151E-01
     -4.023 -0.2071E-03  0.2271E-01  0.5401E-01  0.4257E-01
     -3.976 -0.1058E-03  0.2355E-01  0.5400E-01  0.4366E-01
     -3.930 -0.4867E-04  0.2382E-01  0.5400E-01  0.4477E-01
     -3.883 -0.2533E-04  0.2388E-01  0.5400E-01  0.4588E-01
     -3.837 -0.2747E-04  0.2423E-01  0.5400E-01  0.4701E-01
     -3.790 -0.5589E-04  0.2507E-01  0.5400E-01  0.4818E-01
     -3.744 -0.1190E-03  0.2595E-01  0.5399E-01  0.4939E-01
     -3.697 -0.2212E-03  0.2599E-01  0.5398E-01  0.5060E-01
     -3.651 -0.3372E-03  0.2435E-01  0.5396E-01  0.5173E-01
     -3.604 -0.3775E-03  0.2072E-01  0.5395E-01  0.5269E-01
     -3.558 -0.1686E-03  0.1554E-01  0.5394E-01  0.5342E-01
     -3.511  0.5105E-03  0.9863E-02  0.5396E-01  0.5387E-01
     -3.465  0.1813E-02  0.4848E-02  0.5405E-01  0.5410E-01
     -3.418  0.3662E-02  0.1252E-02  0.5422E-01  0.5416E-01
     -3.371  0.5665E-02 -0.7669E-03  0.5448E-01  0.5412E-01
     -3.325  0.7201E-02 -0.1492E-02  0.5482E-01  0.5405E-01
     -3.278  0.7713E-02 -0.1300E-02  0.5518E-01  0.5399E-01
     -3.232  0.7025E-02 -0.4005E-03  0.5550E-01  0.5397E-01
     -3.185  0.5490E-02  0.1156E-02  0.5576E-01  0.5403E-01
     -3.139  0.3822E-02  0.3264E-02  0.5594E-01  0.5418E-01
     -3.092  0.2722E-02  0.5540E-02  0.5606E-01  0.5444E-01
     -3.046  0.2503E-02  0.7341E-02  0.5618E-01  0.5478E-01
     -2.999  0.2958E-02  0.8073E-02  0.5632E-01  0.5516E-01
     -2.953  0.3530E-02  0.7575E-02  0.5648E-01  0.5551E-01
     -2.906  0.3666E-02  0.6267E-02  0.5665E-01  0.5580E-01
     -2.860  0.3135E-02  0.4893E-02  0.5680E-01  0.5603E-01
     -2.813  0.2136E-02  0.4040E-02  0.5690E-01  0.5622E-01
     -2.766  0.1166E-02  0.3797E-02  0.5695E-01  0.5639E-01
     -2.720  0.7619E-03  0.3790E-02  0.5699E-01  0.5657E-01
     -2.673  0.1264E-02  0.3537E-02  0.5705E-01  0.5673E-01
     -2.627  0.2668E-02  0.2797E-02  0.5717E-01  0.5686E-01
     -2.580  0.4602E-02  0.1702E-02  0.5738E-01  0.5694E-01
     -2.534  0.6438E-02  0.6323E-03  0.5768E-01  0.5697E-01
     -2.487  0.7527E-02  0.1438E-04  0.5803E-01  0.5697E-01
     -2.441  0.7473E-02  0.1743E-03  0.5838E-01  0.5698E-01
     -2.394  0.6312E-02  0.1249E-02  0.5867E-01  0.5704E-01
     -2.348  0.4471E-02  0.3111E-02  0.5888E-01  0.5718E-01
     -2.301  0.2534E-02  0.5316E-02  0.5900E-01  0.5743E-01
     -2.255  0.9687E-03  0.7179E-02  0.5905E-01  0.5776E-01
     -2.208 -0.2735E-04  0.8034E-02  0.5904E-01  0.5814E-01
     -2.162 -0.4977E-03  0.7556E-02  0.5902E-01  0.5849E-01
     -2.115 -0.5765E-03  0.5940E-02  0.5899E-01  0.5877E-01
     -2.068 -0.3459E-03  0.3778E-02  0.5898E-01  0.5894E-01
     -2.022  0.2046E-03  0.1745E-02  0.5899E-01  0.5902E-01
     -1.975  0.1099E-02  0.3071E-03  0.5904E-01  0.5904E-01
     -1.929  0.2243E-02 -0.3688E-03  0.5914E-01  0.5902E-01
     -1.882  0.3363E-02 -0.3178E-03  0.5930E-01  0.5901E-01
     -1.836  0.4083E-02  0.3416E-03  0.5949E-01  0.5902E-01
     -1.789  0.4123E-02  0.1435E-02  0.5968E-01  0.5909E-01
     -1.743  0.3471E-02  0.2687E-02  0.5984E-01  0.5921E-01
     -1.696  0.2393E-02  0.3721E-02  0.5995E-01  0.5939E-01
     -1.650  0.1274E-02  0.4175E-02  0.6001E-01  0.5958E-01
     -1.603  0.4127E-03  0.3888E-02  0.6003E-01  0.5976E-01
     -1.557 -0.9109E-04  0.2994E-02  0.6003E-01  0.5990E-01
     -1.510 -0.3114E-03  0.1841E-02  0.6001E-01  0.5999E-01
     -1.463 -0.3881E-03  0.7939E-03  0.6000E-01  0.6002E-01
     -1.417 -0.4225E-03  0.5890E-04  0.5998E-01  0.6003E-01
     -1.370 -0.4190E-03 -0.3506E-03  0.5996E-01  0.6001E-01
     -1.324 -0.2779E-03 -0.5244E-03  0.5994E-01  0.5999E-01
     -1.277  0.1666E-03 -0.5261E-03  0.5995E-01  0.5996E-01
     -1.231  0.1073E-02 -0.3142E-03  0.6000E-01  0.5995E-01
     -1.184  0.2509E-02  0.2457E-03  0.6012E-01  0.5996E-01
     -1.138  0.4388E-02  0.1288E-02  0.6032E-01  0.6002E-01
     -1.091  0.6457E-02  0.2831E-02  0.6062E-01  0.6015E-01
     -1.045  0.8330E-02  0.4709E-02  0.6101E-01  0.6037E-01
     -0.998  0.9558E-02  0.6602E-02  0.6146E-01  0.6068E-01
     -0.952  0.9765E-02  0.8136E-02  0.6191E-01  0.6106E-01
     -0.905  0.8828E-02  0.9000E-02  0.6232E-01  0.6147E-01
     -0.859  0.7021E-02  0.9012E-02  0.6265E-01  0.6189E-01
     -0.812  0.4964E-02  0.8154E-02  0.6288E-01  0.6227E-01
     -0.765  0.3361E-02  0.6597E-02  0.6304E-01  0.6258E-01
     -0.719  0.2644E-02  0.4706E-02  0.6316E-01  0.6280E-01
     -0.672  0.2769E-02  0.2977E-02  0.6329E-01  0.6294E-01
     -0.626  0.3327E-02  0.1877E-02  0.6344E-01  0.6302E-01
     -0.579  0.3857E-02  0.1642E-02  0.6362E-01  0.6310E-01
     -0.533  0.4136E-02  0.2168E-02  0.6381E-01  0.6320E-01
     -0.486  0.4216E-02  0.3070E-02  0.6401E-01  0.6334E-01
     -0.440  0.4245E-02  0.3909E-02  0.6421E-01  0.6353E-01
     -0.393  0.4282E-02  0.4431E-02  0.6441E-01  0.6373E-01
     -0.347  0.4281E-02  0.4645E-02  0.6461E-01  0.6395E-01
     -0.300  0.4221E-02  0.4708E-02  0.6480E-01  0.6417E-01
     -0.254  0.4177E-02  0.4759E-02  0.6500E-01  0.6439E-01
     -0.207  0.4231E-02  0.4838E-02  0.6519E-01  0.6461E-01
     -0.160  0.4326E-02  0.4928E-02  0.6540E-01  0.6484E-01
     -0.114  0.4245E-02  0.4997E-02  0.6559E-01  0.6508E-01
     -0.067  0.3778E-02  0.4980E-02  0.6577E-01  0.6531E-01
     -0.021  0.2904E-02  0.4750E-02  0.6590E-01  0.6553E-01
      0.026  0.1829E-02  0.4178E-02  0.6599E-01  0.6572E-01
      0.072  0.8511E-03  0.3249E-02  0.6603E-01  0.6588E-01
      0.119  0.1775E-03  0.2127E-02  0.6604E-01  0.6597E-01
      0.165 -0.1536E-03  0.1075E-02  0.6603E-01  0.6602E-01
      0.212 -0.2336E-03  0.3078E-03  0.6602E-01  0.6604E-01
      0.258 -0.1898E-03 -0.1067E-03  0.6601E-01  0.6603E-01
      0.305 -0.1169E-03 -0.2387E-03  0.6600E-01  0.6602E-01
      0.351 -0.5930E-04 -0.2143E-03  0.6600E-01  0.6601E-01
      0.398 -0.2560E-04 -0.1406E-03  0.6600E-01  0.6601E-01
      0.445 -0.9563E-05 -0.7506E-04  0.6600E-01  0.6600E-01
      0.491 -0.3123E-05 -0.3391E-04  0.6600E-01  0.6600E-01
      0.538 -0.8972E-06 -0.1322E-04  0.6600E-01  0.6600E-01
      0.584 -0.2277E-06 -0.4494E-05  0.6600E-01  0.6600E-01
      0.631 -0.5119E-07 -0.1342E-05  0.6600E-01  0.6600E-01
      0.677 -0.1022E-07 -0.3538E-06  0.6600E-01  0.6600E-01
      0.724 -0.1815E-08 -0.8258E-07  0.6600E-01  0.6600E-01
      0.770 -0.2871E-09 -0.1710E-07  0.6600E-01  0.6600E-01
      0.817 -0.4049E-10 -0.3149E-08  0.6600E-01  0.6600E-01
      0.863 -0.5095E-11 -0.5164E-09  0.6600E-01  0.6600E-01
      0.910 -0.5727E-12 -0.7547E-10  0.6600E-01  0.6600E-01
      0.956 -0.5751E-13 -0.9840E-11  0.6600E-01  0.6600E-01
      1.003 -0.5158E-14 -0.1146E-11  0.6600E-01  0.6600E-01
      1.049 -0.4151E-15 -0.1191E-12  0.6600E-01  0.6600E-01
      1.096 -0.3340E-16 -0.1108E-13  0.6600E-01  0.6600E-01
      1.143  0.0000E+00 -0.9209E-15  0.6600E-01  0.6600E-01
      1.189  0.0000E+00 -0.6680E-16  0.6600E-01  0.6600E-01
      1.236  0.0000E+00 -0.4771E-17  0.6600E-01  0.6600E-01
      1.282  0.0000E+00  0.0000E+00  0.6600E-01  0.6600E-01
      1.329  0.0000E+00  0.0000E+00  0.6600E-01  0.6600E-01
      1.375  0.0000E+00  0.0000E+00  0.6600E-01  0.6600E-01
      1.422  0.0000E+00  0.0000E+00  0.6600E-01  0.6600E-01
      1.468  0.0000E+00  0.0000E+00  0.6600E-01  0.6600E-01
      1.515  0.0000E+00  0.0000E+00  0.6600E-01  0.6600E-01
      1.561  0.0000E+00  0.0000E+00  0.6600E-01  0.6600E-01
      1.608  0.0000E+00  0.0000E+00  0.6600E-01  0.6600E-01
      1.654  0.0000E+00  0.0000E+00  0.6600E-01  0.6600E-01
      1.701  0.0000E+00  0.0000E+00  0.6600E-01  0.6600E-01
      1.748  0.0000E+00  0.0000E+00  0.6600E-01  0.6600E-01
      1.794  0.0000E+00  0.0000E+00  0.6600E-01  0.6600E-01
      1.841  0.0000E+00  0.0000E+00  0.6600E-01  0.6600E-01
      1.887  0.0000E+00  0.0000E+00  0.6600E-01  0.6600E-01
      1.934  0.0000E+00  0.0000E+00  0.6600E-01  0.6600E-01
      1.980  0.0000E+00  0.0000E+00  0.6600E-01  0.6600E-01
