   10   10 1000    2
  0.1142534E+04  0.2189443E-08  0.2342071E-08  0.2228103E-08  0.5000000E-15
   1.0000000000000000E-004
  CAR 
 unknown system                          
    100      1     66
 
  0.1262379E-14  0.1262379E-14  0.1262379E-14  0.1000000E+01
    1       -9.980668     -9.973213   1.000000   1.000000
    2       -8.302576     -8.093106   1.000000   1.000000
    3       -8.113514     -7.894178   1.000000   1.000000
    4       -7.786571     -7.322859   1.000000   1.000000
    5       -7.504915     -6.904104   1.000000   1.000000
    6       -7.409858     -6.814089   1.000000   1.000000
    7       -7.327594     -6.808252   1.000000   1.000000
    8       -7.140168     -6.466426   1.000000   1.000000
    9       -7.123867     -6.433939   1.000000   1.000000
   10       -7.061497     -6.291248   1.000000   1.000000
   11       -6.961123     -6.258269   1.000000   1.000000
   12       -6.918927     -6.201932   1.000000   1.000000
   13       -6.859518     -6.198156   1.000000   1.000000
   14       -6.678987     -5.997866   1.000000   1.000000
   15       -6.621791     -5.991132   1.000000   1.000000
   16       -6.558142     -5.776189   1.000000   1.000000
   17       -6.333381     -5.613612   1.000000   1.000000
   18       -6.307476     -5.578667   1.000000   1.000000
   19       -6.250781     -5.564946   1.000000   1.000000
   20       -6.171367     -5.336116   1.000000   1.000000
   21       -5.985033     -5.258844   1.000000   1.000000
   22       -5.950221     -5.219906   1.000000   1.000000
   23       -5.900742     -5.133141   1.000000   1.000000
   24       -5.811380     -5.078891   1.000000   1.000000
   25       -5.784279     -5.053922   1.000000   1.000000
   26       -5.693796     -5.007641   1.000000   1.000000
   27       -5.597505     -4.889845   1.000000   1.000000
   28       -5.516102     -4.858714   1.000000   1.000000
   29       -5.399106     -4.786059   1.000000   1.000000
   30       -5.381599     -4.672371   1.000000   1.000000
   31       -5.312353     -4.554853   1.000000   1.000009
   32       -5.221685     -4.486554   1.000000   1.000074
   33       -5.171119     -4.450087   1.000000   1.000202
   34       -5.116701     -4.386042   1.000000   1.000977
   35       -5.086544     -4.376284   1.000000   1.001217
   36       -5.057275     -4.333234   1.000000   1.002998
   37       -5.018958     -4.330589   1.000000   1.003157
   38       -4.984554     -4.292560   1.000000   1.006332
   39       -4.963301     -4.227637   1.000000   1.016610
   40       -4.902130     -4.143228   1.000000   1.034149
   41       -4.895093     -4.113563   1.000000   1.035053
   42       -4.886090     -4.053370   1.000000   1.006670
   43       -4.820320     -4.010032   1.000000   0.944153
   44       -4.814147     -3.986770   1.000000   0.891878
   45       -4.766049     -3.970042   1.000000   0.845902
   46       -4.747117     -3.913223   1.000000   0.644374
   47       -4.727305     -3.848216   1.000000   0.373344
   48       -4.697319     -3.788779   1.000000   0.159328
   49       -4.678954     -3.758966   1.000000   0.080965
   50       -4.659390     -3.757038   1.000000   0.076663
   51       -4.642566     -3.689421   1.000000  -0.018515
   52       -4.574570     -3.636008   1.000005  -0.035435
   53       -4.537768     -3.628348   1.000016  -0.035356
   54       -4.431036     -3.617414   1.000331  -0.034558
   55       -3.341327     -3.039226  -0.000485  -0.000000
   56       -3.264724     -3.004388  -0.000063  -0.000000
   57       -2.941587     -2.724023  -0.000000  -0.000000
   58       -2.536398     -2.255582  -0.000000  -0.000000
   59       -2.445968     -2.194644  -0.000000  -0.000000
   60       -1.833419     -1.668819  -0.000000  -0.000000
   61       -1.102369     -1.013414  -0.000000  -0.000000
   62       -0.971998     -0.901698  -0.000000  -0.000000
   63       -0.919337     -0.793121  -0.000000  -0.000000
   64       -0.609296     -0.449984  -0.000000  -0.000000
   65       -0.371450     -0.229968  -0.000000  -0.000000
   66       -0.127375     -0.019799  -0.000000  -0.000000
