<?xml version="1.0" encoding="ISO-8859-1"?>
<modeling>
 <generator>
  <i name="program" type="string">vasp </i>
  <i name="version" type="string">6.1.2  </i>
  <i name="subversion" type="string">22Jul20 (build Aug  2 2021 21:04:21) gamma-only                       parallel </i>
  <i name="platform" type="string">LinuxPGI </i>
  <i name="date" type="string">2021 12 25 </i>
  <i name="time" type="string">18:18:12 </i>
 </generator>
 <incar>
  <i type="int" name="ISPIN">     2</i>
  <i type="int" name="IBRION">     2</i>
  <i type="int" name="NSW">  1000</i>
  <i type="int" name="ISIF">     0</i>
  <i type="int" name="ISYM">     0</i>
  <i name="ENCUT">    400.00000000</i>
  <i type="logical" name="LREAL"> F  </i>
  <i type="int" name="ISMEAR">     1</i>
  <i name="SIGMA">      0.20000000</i>
  <i type="logical" name="LWAVE"> F  </i>
  <i type="logical" name="LCHARG"> F  </i>
  <i type="int" name="KPAR">     1</i>
  <i type="int" name="NCORE">     8</i>
  <i type="string" name="GGA"> PE</i>
  <i type="int" name="ISPIN">     2</i>
 </incar>
 <structure name="primitive_cell" >
  <crystal>
   <varray name="basis" >
    <v>      21.89443131       0.00000000       0.00000000 </v>
    <v>       0.00000000      23.42070750       0.00000000 </v>
    <v>       0.00000000       0.00000000      22.28103253 </v>
   </varray>
   <i name="volume">  11425.33629857 </i>
   <varray name="rec_basis" >
    <v>       0.04567371       0.00000000       0.00000000 </v>
    <v>       0.00000000       0.04269726       0.00000000 </v>
    <v>       0.00000000       0.00000000       0.04488122 </v>
   </varray>
  </crystal>
  <varray name="positions" >
   <v>       0.47983944       0.59609240       0.51446961 </v>
   <v>       0.55809064       0.52336050       0.50080042 </v>
   <v>       0.45793729       0.56576255       0.41376440 </v>
   <v>       0.47244043       0.47224012       0.45985087 </v>
   <v>       0.54985579       0.51512296       0.39045314 </v>
   <v>       0.39158234       0.53632751       0.49429748 </v>
   <v>       0.57753547       0.43309071       0.44667738 </v>
   <v>       0.55626318       0.60784737       0.43706856 </v>
   <v>       0.46716034       0.50630872       0.56539306 </v>
   <v>       0.53165069       0.42810697       0.54209960 </v>
  </varray>
 </structure>
 <varray name="primitive_index" >
  <v type="int" >        1 </v>
  <v type="int" >        2 </v>
  <v type="int" >        3 </v>
  <v type="int" >        4 </v>
  <v type="int" >        5 </v>
  <v type="int" >        6 </v>
  <v type="int" >        7 </v>
  <v type="int" >        8 </v>
  <v type="int" >        9 </v>
  <v type="int" >       10 </v>
 </varray>
 <kpoints>
  <generation param="Gamma">
   <v type="int" name="divisions">       1        1        1 </v>
   <v name="usershift">      0.00000000       0.00000000       0.00000000 </v>
   <v name="genvec1">      1.00000000       0.00000000       0.00000000 </v>
   <v name="genvec2">      0.00000000       1.00000000       0.00000000 </v>
   <v name="genvec3">      0.00000000       0.00000000       1.00000000 </v>
   <v name="shift">      0.00000000       0.00000000       0.00000000 </v>
  </generation>
  <varray name="kpointlist" >
   <v>       0.00000000       0.00000000       0.00000000 </v>
  </varray>
  <varray name="weights" >
   <v>       1.00000000 </v>
  </varray>
 </kpoints>
 <parameters>
  <separator name="general" >
   <i type="string" name="SYSTEM">unknown system</i>
   <i type="logical" name="LCOMPAT"> F  </i>
  </separator>
  <separator name="electronic" >
   <i type="string" name="PREC">normal</i>
   <i name="ENMAX">    400.00000000</i>
   <i name="ENAUG">    544.56500000</i>
   <i name="EDIFF">      0.00010000</i>
   <i type="int" name="IALGO">    38</i>
   <i type="int" name="IWAVPR">    11</i>
   <i type="int" name="NBANDS">    66</i>
   <i type="int" name="NBANDSLOW">    -1</i>
   <i type="int" name="NBANDSHIGH">    -1</i>
   <i name="NELECT">    100.00000000</i>
   <i type="int" name="TURBO">     0</i>
   <i type="int" name="IRESTART">     0</i>
   <i type="int" name="NREBOOT">     0</i>
   <i type="int" name="NMIN">     0</i>
   <i name="EREF">      0.00000000</i>
   <separator name="electronic smearing" >
    <i type="int" name="ISMEAR">     1</i>
    <i name="SIGMA">      0.20000000</i>
    <i name="KSPACING">      0.50000000</i>
    <i type="logical" name="KGAMMA"> T  </i>
    <i type="logical" name="KBLOWUP"> T  </i>
   </separator>
   <separator name="electronic projectors" >
    <i type="logical" name="LREAL"> F  </i>
    <v name="ROPT">      0.00000000</v>
    <i type="int" name="LMAXPAW">  -100</i>
    <i type="int" name="LMAXMIX">     2</i>
    <i type="logical" name="NLSPLINE"> F  </i>
   </separator>
   <separator name="electronic startup" >
    <i type="int" name="ISTART">     0</i>
    <i type="int" name="ICHARG">     2</i>
    <i type="int" name="INIWAV">     1</i>
   </separator>
   <separator name="electronic spin" >
    <i type="int" name="ISPIN">     2</i>
    <i type="logical" name="LNONCOLLINEAR"> F  </i>
    <v name="MAGMOM">      1.00000000      1.00000000      1.00000000      1.00000000      1.00000000      1.00000000      1.00000000      1.00000000      1.00000000      1.00000000</v>
    <i name="NUPDOWN">     -1.00000000</i>
    <i type="logical" name="LSORBIT"> F  </i>
    <v name="SAXIS">      0.00000000      0.00000000      1.00000000</v>
    <i type="logical" name="LSPIRAL"> F  </i>
    <v name="QSPIRAL">      0.00000000      0.00000000      0.00000000</v>
    <i type="logical" name="LZEROZ"> F  </i>
   </separator>
   <separator name="electronic exchange-correlation" >
    <i type="logical" name="LASPH"> F  </i>
    <i type="logical" name="LMETAGGA"> F  </i>
   </separator>
   <separator name="electronic convergence" >
    <i type="int" name="NELM">    60</i>
    <i type="int" name="NELMDL">     0</i>
    <i type="int" name="NELMIN">     2</i>
    <i name="ENINI">    400.00000000</i>
    <separator name="electronic convergence detail" >
     <i type="logical" name="LDIAG"> T  </i>
     <i type="logical" name="LSUBROT"> F  </i>
     <i name="WEIMIN">      0.00100000</i>
     <i name="EBREAK">      0.00000038</i>
     <i name="DEPER">      0.30000000</i>
     <i type="int" name="NRMM">     4</i>
     <i name="TIME">      0.40000000</i>
    </separator>
   </separator>
   <separator name="electronic mixer" >
    <i name="AMIX">      0.40000000</i>
    <i name="BMIX">      1.00000000</i>
    <i name="AMIN">      0.10000000</i>
    <i name="AMIX_MAG">      1.60000000</i>
    <i name="BMIX_MAG">      1.00000000</i>
    <separator name="electronic mixer details" >
     <i type="int" name="IMIX">     4</i>
     <i type="logical" name="MIXFIRST"> F  </i>
     <i type="int" name="MAXMIX">   -45</i>
     <i name="WC">    100.00000000</i>
     <i type="int" name="INIMIX">     1</i>
     <i type="int" name="MIXPRE">     1</i>
     <i type="int" name="MREMOVE">     5</i>
    </separator>
   </separator>
   <separator name="electronic dipolcorrection" >
    <i type="logical" name="LDIPOL"> F  </i>
    <i type="logical" name="LMONO"> F  </i>
    <i type="int" name="IDIPOL">     0</i>
    <i name="EPSILON">      1.00000000</i>
    <v name="DIPOL">   -100.00000000   -100.00000000   -100.00000000</v>
    <i name="EFIELD">      0.00000000</i>
   </separator>
  </separator>
  <separator name="grids" >
   <i type="int" name="NGX">   108</i>
   <i type="int" name="NGY">   120</i>
   <i type="int" name="NGZ">   112</i>
   <i type="int" name="NGXF">   216</i>
   <i type="int" name="NGYF">   240</i>
   <i type="int" name="NGZF">   224</i>
   <i type="logical" name="ADDGRID"> F  </i>
  </separator>
  <separator name="ionic" >
   <i type="int" name="NSW">  1000</i>
   <i type="int" name="IBRION">     2</i>
   <i type="int" name="MDALGO">     0</i>
   <i type="int" name="ISIF">     0</i>
   <i name="PSTRESS">      0.00000000</i>
   <i name="EDIFFG">      0.00100000</i>
   <i type="int" name="NFREE">     1</i>
   <i name="POTIM">      0.50000000</i>
   <i name="SMASS">     -3.00000000</i>
   <i name="SCALEE">      1.00000000</i>
  </separator>
  <separator name="ionic md" >
   <i name="TEBEG">      0.00010000</i>
   <i name="TEEND">      0.00010000</i>
   <i type="int" name="NBLOCK">     1</i>
   <i type="int" name="KBLOCK">  1000</i>
   <i type="int" name="NPACO">   256</i>
   <i name="APACO">     16.00000000</i>
  </separator>
  <separator name="symmetry" >
   <i type="int" name="ISYM">     0</i>
   <i name="SYMPREC">      0.00001000</i>
  </separator>
  <separator name="dos" >
   <i type="int" name="LORBIT">     0</i>
   <v name="RWIGS">     -1.00000000</v>
   <i type="int" name="NEDOS">   301</i>
   <i name="EMIN">     10.00000000</i>
   <i name="EMAX">    -10.00000000</i>
   <i name="EFERMI">      0.00000000</i>
  </separator>
  <separator name="writing" >
   <i type="int" name="NWRITE">     2</i>
   <i type="logical" name="LWAVE"> F  </i>
   <i type="logical" name="LDOWNSAMPLE"> F  </i>
   <i type="logical" name="LCHARG"> F  </i>
   <i type="logical" name="LPARD"> F  </i>
   <i type="logical" name="LVTOT"> F  </i>
   <i type="logical" name="LVHAR"> F  </i>
   <i type="logical" name="LELF"> F  </i>
   <i type="logical" name="LOPTICS"> F  </i>
   <v name="STM">      0.00000000      0.00000000      0.00000000      0.00000000      0.00000000      0.00000000      0.00000000</v>
  </separator>
  <separator name="performance" >
   <i type="int" name="NPAR">     2</i>
   <i type="int" name="NSIM">     4</i>
   <i type="int" name="NBLK">    -1</i>
   <i type="logical" name="LPLANE"> T  </i>
   <i type="logical" name="LSCALAPACK"> T  </i>
   <i type="logical" name="LSCAAWARE"> F  </i>
   <i type="logical" name="LSCALU"> F  </i>
   <i type="logical" name="LASYNC"> F  </i>
   <i type="logical" name="LORBITALREAL"> F  </i>
  </separator>
  <separator name="miscellaneous" >
   <i type="int" name="IDIOT">     3</i>
   <i type="int" name="PHON_NSTRUCT">    -1</i>
   <i type="logical" name="LMUSIC"> F  </i>
   <v name="POMASS">     58.69000000</v>
   <v name="DARWINR">      0.00000000</v>
   <v name="DARWINV">      1.00000000</v>
   <i type="logical" name="LCORR"> T  </i>
  </separator>
  <i type="logical" name="GGA_COMPAT"> T  </i>
  <i type="logical" name="LBERRY"> F  </i>
  <i type="int" name="ICORELEVEL">     0</i>
  <i type="logical" name="LDAU"> F  </i>
  <i type="int" name="I_CONSTRAINED_M">     0</i>
  <separator name="electronic exchange-correlation" >
   <i type="string" name="GGA">PE</i>
   <i type="int" name="VOSKOWN">     0</i>
   <i type="logical" name="LHFCALC"> F  </i>
   <i type="string" name="PRECFOCK"></i>
   <i type="logical" name="LSYMGRAD"> F  </i>
   <i type="logical" name="LHFONE"> F  </i>
   <i type="logical" name="LRHFCALC"> F  </i>
   <i type="logical" name="LTHOMAS"> F  </i>
   <i type="logical" name="LMODELHF"> F  </i>
   <i type="logical" name="LFOCKACE"> F  </i>
   <i name="ENCUT4O">     -1.00000000</i>
   <i type="int" name="EXXOEP">     0</i>
   <i type="int" name="FOURORBIT">     0</i>
   <i name="AEXX">      0.00000000</i>
   <i name="HFALPHA">      0.00000000</i>
   <i name="MCALPHA">      0.00000000</i>
   <i name="ALDAX">      1.00000000</i>
   <i name="AGGAX">      1.00000000</i>
   <i name="ALDAC">      1.00000000</i>
   <i name="AGGAC">      1.00000000</i>
   <i type="int" name="NKREDX">     1</i>
   <i type="int" name="NKREDY">     1</i>
   <i type="int" name="NKREDZ">     1</i>
   <i type="logical" name="SHIFTRED"> F  </i>
   <i type="logical" name="ODDONLY"> F  </i>
   <i type="logical" name="EVENONLY"> F  </i>
   <i type="int" name="LMAXFOCK">     0</i>
   <i type="int" name="NMAXFOCKAE">     0</i>
   <i type="logical" name="LFOCKAEDFT"> F  </i>
   <i name="HFSCREEN">      0.00000000</i>
   <i name="HFSCREENC">      0.00000000</i>
   <i type="int" name="NBANDSGWLOW">     0</i>
  </separator>
  <separator name="vdW DFT" >
   <i type="logical" name="LUSE_VDW"> F  </i>
   <i name="Zab_VDW">     -0.84910000</i>
   <i name="PARAM1">      0.12340000</i>
   <i name="PARAM2">      1.00000000</i>
   <i name="PARAM3">      0.00000000</i>
  </separator>
  <separator name="model GW" >
   <i type="int" name="MODEL_GW">     0</i>
   <i name="MODEL_EPS0">    685.52017791</i>
   <i name="MODEL_ALPHA">      1.00000000</i>
  </separator>
  <separator name="linear response parameters" >
   <i type="logical" name="LEPSILON"> F  </i>
   <i type="logical" name="LRPA"> F  </i>
   <i type="logical" name="LNABLA"> F  </i>
   <i type="logical" name="LVEL"> F  </i>
   <i type="int" name="KINTER">     0</i>
   <i name="CSHIFT">      0.10000000</i>
   <i name="OMEGAMAX">     -1.00000000</i>
   <i name="DEG_THRESHOLD">      0.00200000</i>
   <i name="RTIME">     -0.10000000</i>
   <i name="WPLASMAI">      0.00000000</i>
   <v name="DFIELD">      0.00000000      0.00000000      0.00000000</v>
   <v name="WPLASMA">      0.00000000      0.00000000      0.00000000      0.00000000      0.00000000      0.00000000      0.00000000      0.00000000      0.00000000</v>
  </separator>
  <separator name="orbital magnetization" >
   <i type="logical" name="NUCIND"> F  </i>
   <v name="MAGPOS">      0.00000000      0.00000000      0.00000000</v>
   <i type="logical" name="LNICSALL"> T  </i>
   <i type="logical" name="ORBITALMAG"> F  </i>
   <i type="logical" name="LMAGBLOCH"> F  </i>
   <i type="logical" name="LCHIMAG"> F  </i>
   <i type="logical" name="LGAUGE"> T  </i>
   <i type="int" name="MAGATOM">     0</i>
   <v name="MAGDIPOL">      0.00000000      0.00000000      0.00000000</v>
   <v name="AVECCONST">      0.00000000      0.00000000      0.00000000</v>
  </separator>
  <separator name="response functions" >
   <i type="logical" name="LFINITE_TEMPERATURE"> F  </i>
   <i type="logical" name="LADDER"> F  </i>
   <i type="logical" name="LRPAFORCE"> F  </i>
   <i type="logical" name="LFXC"> F  </i>
   <i type="logical" name="LHARTREE"> T  </i>
   <i type="int" name="IBSE">     0</i>
   <v type="int" name="KPOINT">    -1     0     0     0</v>
   <i type="logical" name="LTCTC"> F  </i>
   <i type="logical" name="LTCTE"> F  </i>
   <i type="logical" name="LTETE"> F  </i>
   <i type="logical" name="LTRIPLET"> F  </i>
   <i type="logical" name="LFXCEPS"> F  </i>
   <i type="logical" name="LFXHEG"> F  </i>
   <i type="int" name="NATURALO">     2</i>
   <i type="logical" name="LHOLEGF"> F  </i>
   <i type="logical" name="L2ORDER"> F  </i>
   <i type="logical" name="LDMP1"> F  </i>
   <i type="logical" name="LMP2LT"> F  </i>
   <i type="logical" name="LSMP2LT"> F  </i>
   <i type="logical" name="LGWLF"> F  </i>
   <i name="ENCUTGW">     -2.00000000</i>
   <i name="ENCUTGWSOFT">     -2.00000000</i>
   <i name="ENCUTLF">     -1.00000000</i>
   <i type="logical" name="LESF_SPLINES"> F  </i>
   <i type="int" name="LMAXMP2">    -1</i>
   <i name="SCISSOR">      0.00000000</i>
   <i type="int" name="NOMEGA">     0</i>
   <i type="int" name="NOMEGAR">     0</i>
   <i type="int" name="NBANDSGW">    -1</i>
   <i type="int" name="NBANDSO">    -1</i>
   <i type="int" name="NBANDSV">    -1</i>
   <i type="int" name="NELM">     1</i>
   <i type="int" name="NELMHF">     1</i>
   <i type="int" name="DIM">     3</i>
   <i type="int" name="IESPILON">     4</i>
   <i type="int" name="ANTIRES">     0</i>
   <i name="OMEGAMAX">    -30.00000000</i>
   <i name="OMEGAMIN">    -30.00000000</i>
   <i name="OMEGATL">   -200.00000000</i>
   <i type="int" name="OMEGAGRID">     0</i>
   <i name="CSHIFT">     -0.10000000</i>
   <i type="logical" name="LSELFENERGY"> F  </i>
   <i type="logical" name="LSPECTRAL"> F  </i>
   <i type="logical" name="LSPECTRALGW"> F  </i>
   <i type="logical" name="LSINGLES"> F  </i>
   <i type="logical" name="LFERMIGW"> F  </i>
   <i type="logical" name="ODDONLYGW"> F  </i>
   <i type="logical" name="EVENONLYGW"> F  </i>
   <i type="int" name="NKREDLFX">     1</i>
   <i type="int" name="NKREDLFY">     1</i>
   <i type="int" name="NKREDLFZ">     1</i>
   <i type="int" name="MAXMEM">  2800</i>
   <i type="int" name="TELESCOPE">     0</i>
   <i type="int" name="NTAUPAR">    -1</i>
   <i type="int" name="NOMEGAPAR">    -1</i>
   <i name="LAMBDA">      1.00000000</i>
  </separator>
  <separator name="External order field" >
   <i name="OFIELD_KAPPA">      0.00000000</i>
   <v name="OFIELD_K">      0.00000000      0.00000000      0.00000000</v>
   <i name="OFIELD_Q6_NEAR">      0.00000000</i>
   <i name="OFIELD_Q6_FAR">      0.00000000</i>
   <i name="OFIELD_A">      0.00000000</i>
  </separator>
 </parameters>
 <atominfo>
  <atoms>      10 </atoms>
  <types>       1 </types>
  <array name="atoms" >
   <dimension dim="1">ion</dimension>
   <field type="string">element</field>
   <field type="int">atomtype</field>
   <set>
    <rc><c>Ni</c><c>   1</c></rc>
    <rc><c>Ni</c><c>   1</c></rc>
    <rc><c>Ni</c><c>   1</c></rc>
    <rc><c>Ni</c><c>   1</c></rc>
    <rc><c>Ni</c><c>   1</c></rc>
    <rc><c>Ni</c><c>   1</c></rc>
    <rc><c>Ni</c><c>   1</c></rc>
    <rc><c>Ni</c><c>   1</c></rc>
    <rc><c>Ni</c><c>   1</c></rc>
    <rc><c>Ni</c><c>   1</c></rc>
   </set>
  </array>
  <array name="atomtypes" >
   <dimension dim="1">type</dimension>
   <field type="int">atomspertype</field>
   <field type="string">element</field>
   <field>mass</field>
   <field>valence</field>
   <field type="string">pseudopotential</field>
   <set>
    <rc><c>  10</c><c>Ni</c><c>     58.69000000</c><c>     10.00000000</c><c>  PAW_PBE Ni 02Aug2007                  </c></rc>
   </set>
  </array>
 </atominfo>
 <structure name="initialpos" >
  <crystal>
   <varray name="basis" >
    <v>      21.89443131       0.00000000       0.00000000 </v>
    <v>       0.00000000      23.42070750       0.00000000 </v>
    <v>       0.00000000       0.00000000      22.28103253 </v>
   </varray>
   <i name="volume">  11425.33629857 </i>
   <varray name="rec_basis" >
    <v>       0.04567371       0.00000000       0.00000000 </v>
    <v>       0.00000000       0.04269726       0.00000000 </v>
    <v>       0.00000000       0.00000000       0.04488122 </v>
   </varray>
  </crystal>
  <varray name="positions" >
   <v>       0.47983944       0.59609240       0.51446961 </v>
   <v>       0.55809064       0.52336050       0.50080042 </v>
   <v>       0.45793729       0.56576255       0.41376440 </v>
   <v>       0.47244043       0.47224012       0.45985087 </v>
   <v>       0.54985579       0.51512296       0.39045314 </v>
   <v>       0.39158234       0.53632751       0.49429748 </v>
   <v>       0.57753547       0.43309071       0.44667738 </v>
   <v>       0.55626318       0.60784737       0.43706856 </v>
   <v>       0.46716034       0.50630872       0.56539306 </v>
   <v>       0.53165069       0.42810697       0.54209960 </v>
  </varray>
 </structure>
 <calculation>
  <scstep>
   <time name="dav">    2.37    2.38</time>
   <time name="total">    3.53    3.54</time>
   <energy>
    <i name="alphaZ">      4.46371115 </i>
    <i name="ewald">  13063.12250980 </i>
    <i name="hartreedc"> -22912.55717472 </i>
    <i name="XCdc">    305.05389328 </i>
    <i name="pawpsdc">   9628.33173603 </i>
    <i name="pawaedc"> -10296.70712275 </i>
    <i name="eentropy">      0.03877844 </i>
    <i name="bandstr">     60.90219812 </i>
    <i name="atom">  10776.63837129 </i>
    <i name="e_fr_energy">    629.28690064 </i>
    <i name="e_wo_entrp">    629.24812220 </i>
    <i name="e_0_energy">    629.27397449 </i>
   </energy>
  </scstep>
  <scstep>
   <time name="dav">    3.79    3.80</time>
   <time name="total">    3.79    3.80</time>
   <energy>
    <i name="e_fr_energy">    106.38939656 </i>
    <i name="e_wo_entrp">    106.44717657 </i>
    <i name="e_0_energy">    106.40865656 </i>
   </energy>
  </scstep>
  <scstep>
   <time name="dav">    2.67    2.68</time>
   <time name="total">    2.67    2.68</time>
   <energy>
    <i name="e_fr_energy">    -27.89668225 </i>
    <i name="e_wo_entrp">    -27.86799584 </i>
    <i name="e_0_energy">    -27.88712011 </i>
   </energy>
  </scstep>
  <scstep>
   <time name="dav">    2.49    2.49</time>
   <time name="total">    2.49    2.50</time>
   <energy>
    <i name="e_fr_energy">    -41.47970075 </i>
    <i name="e_wo_entrp">    -41.43810414 </i>
    <i name="e_0_energy">    -41.46583521 </i>
   </energy>
  </scstep>
  <scstep>
   <time name="dav">    2.73    2.74</time>
   <time name="total">    3.03    3.04</time>
   <energy>
    <i name="e_fr_energy">    -41.90764815 </i>
    <i name="e_wo_entrp">    -41.86605632 </i>
    <i name="e_0_energy">    -41.89378421 </i>
   </energy>
  </scstep>
  <scstep>
   <time name="dav">    2.55    2.56</time>
   <time name="total">    4.02    4.04</time>
   <energy>
    <i name="e_fr_energy">    -44.29380343 </i>
    <i name="e_wo_entrp">    -44.32108501 </i>
    <i name="e_0_energy">    -44.30289729 </i>
   </energy>
  </scstep>
  <scstep>
   <time name="dav">    2.44    2.44</time>
   <time name="total">    3.90    3.91</time>
   <energy>
    <i name="e_fr_energy">    -41.19161866 </i>
    <i name="e_wo_entrp">    -41.17505466 </i>
    <i name="e_0_energy">    -41.18609733 </i>
   </energy>
  </scstep>
  <scstep>
   <time name="dav">    2.46    2.46</time>
   <time name="total">    3.91    3.91</time>
   <energy>
    <i name="e_fr_energy">    -39.05757876 </i>
    <i name="e_wo_entrp">    -39.04854697 </i>
    <i name="e_0_energy">    -39.05456816 </i>
   </energy>
  </scstep>
  <scstep>
   <time name="dav">    2.90    2.95</time>
   <time name="total">    4.31    4.36</time>
   <energy>
    <i name="e_fr_energy">    -35.42781695 </i>
    <i name="e_wo_entrp">    -35.37767843 </i>
    <i name="e_0_energy">    -35.41110411 </i>
   </energy>
  </scstep>
  <scstep>
   <time name="dav">    2.91    2.91</time>
   <time name="total">    4.33    4.34</time>
   <energy>
    <i name="e_fr_energy">    -37.85801085 </i>
    <i name="e_wo_entrp">    -37.95463123 </i>
    <i name="e_0_energy">    -37.89021765 </i>
   </energy>
  </scstep>
  <scstep>
   <time name="dav">    2.54    2.54</time>
   <time name="total">    3.95    3.96</time>
   <energy>
    <i name="e_fr_energy">    -35.44252808 </i>
    <i name="e_wo_entrp">    -35.44090100 </i>
    <i name="e_0_energy">    -35.44198572 </i>
   </energy>
  </scstep>
  <scstep>
   <time name="dav">    2.83    2.84</time>
   <time name="total">    4.22    4.23</time>
   <energy>
    <i name="e_fr_energy">    -34.99665264 </i>
    <i name="e_wo_entrp">    -34.94960651 </i>
    <i name="e_0_energy">    -34.98097059 </i>
   </energy>
  </scstep>
  <scstep>
   <time name="dav">    2.91    2.91</time>
   <time name="total">    4.37    4.38</time>
   <energy>
    <i name="e_fr_energy">    -34.86399658 </i>
    <i name="e_wo_entrp">    -34.79492081 </i>
    <i name="e_0_energy">    -34.84097132 </i>
   </energy>
  </scstep>
  <scstep>
   <time name="dav">    2.46    2.46</time>
   <time name="total">    3.90    3.91</time>
   <energy>
    <i name="e_fr_energy">    -34.74491312 </i>
    <i name="e_wo_entrp">    -34.66770368 </i>
    <i name="e_0_energy">    -34.71917664 </i>
   </energy>
  </scstep>
  <scstep>
   <time name="dav">    2.73    2.74</time>
   <time name="total">    4.16    4.18</time>
   <energy>
    <i name="e_fr_energy">    -34.83484604 </i>
    <i name="e_wo_entrp">    -34.78573848 </i>
    <i name="e_0_energy">    -34.81847685 </i>
   </energy>
  </scstep>
  <scstep>
   <time name="dav">    2.42    2.43</time>
   <time name="total">    3.87    3.89</time>
   <energy>
    <i name="e_fr_energy">    -34.64207038 </i>
    <i name="e_wo_entrp">    -34.60628287 </i>
    <i name="e_0_energy">    -34.63014121 </i>
   </energy>
  </scstep>
  <scstep>
   <time name="dav">    2.78    2.79</time>
   <time name="total">    4.21    4.22</time>
   <energy>
    <i name="e_fr_energy">    -34.66764233 </i>
    <i name="e_wo_entrp">    -34.62847224 </i>
    <i name="e_0_energy">    -34.65458564 </i>
   </energy>
  </scstep>
  <scstep>
   <time name="dav">    2.55    2.55</time>
   <time name="total">    3.99    4.00</time>
   <energy>
    <i name="e_fr_energy">    -34.76246951 </i>
    <i name="e_wo_entrp">    -34.72523128 </i>
    <i name="e_0_energy">    -34.75005677 </i>
   </energy>
  </scstep>
  <scstep>
   <time name="dav">    2.47    2.47</time>
   <time name="total">    3.90    3.91</time>
   <energy>
    <i name="e_fr_energy">    -34.80131998 </i>
    <i name="e_wo_entrp">    -34.76718095 </i>
    <i name="e_0_energy">    -34.78994030 </i>
   </energy>
  </scstep>
  <scstep>
   <time name="dav">    2.65    2.66</time>
   <time name="total">    4.12    4.14</time>
   <energy>
    <i name="e_fr_energy">    -35.01858742 </i>
    <i name="e_wo_entrp">    -34.97550032 </i>
    <i name="e_0_energy">    -35.00422505 </i>
   </energy>
  </scstep>
  <scstep>
   <time name="dav">    2.47    2.47</time>
   <time name="total">    3.89    3.91</time>
   <energy>
    <i name="e_fr_energy">    -35.09108644 </i>
    <i name="e_wo_entrp">    -35.04777070 </i>
    <i name="e_0_energy">    -35.07664786 </i>
   </energy>
  </scstep>
  <scstep>
   <time name="dav">    2.52    2.53</time>
   <time name="total">    3.98    3.99</time>
   <energy>
    <i name="e_fr_energy">    -35.29252645 </i>
    <i name="e_wo_entrp">    -35.24610550 </i>
    <i name="e_0_energy">    -35.27705280 </i>
   </energy>
  </scstep>
  <scstep>
   <time name="dav">    2.79    2.80</time>
   <time name="total">    4.24    4.25</time>
   <energy>
    <i name="e_fr_energy">    -35.46599825 </i>
    <i name="e_wo_entrp">    -35.42128614 </i>
    <i name="e_0_energy">    -35.45109422 </i>
   </energy>
  </scstep>
  <scstep>
   <time name="dav">    2.34    2.35</time>
   <time name="total">    3.80    3.81</time>
   <energy>
    <i name="e_fr_energy">    -35.61971582 </i>
    <i name="e_wo_entrp">    -35.57556787 </i>
    <i name="e_0_energy">    -35.60499983 </i>
   </energy>
  </scstep>
  <scstep>
   <time name="dav">    2.55    2.55</time>
   <time name="total">    3.98    3.99</time>
   <energy>
    <i name="e_fr_energy">    -35.76022696 </i>
    <i name="e_wo_entrp">    -35.71758812 </i>
    <i name="e_0_energy">    -35.74601402 </i>
   </energy>
  </scstep>
  <scstep>
   <time name="dav">    2.70    2.85</time>
   <time name="total">    4.23    4.38</time>
   <energy>
    <i name="e_fr_energy">    -35.91374884 </i>
    <i name="e_wo_entrp">    -35.87204036 </i>
    <i name="e_0_energy">    -35.89984601 </i>
   </energy>
  </scstep>
  <scstep>
   <time name="dav">    2.44    2.45</time>
   <time name="total">    3.90    3.91</time>
   <energy>
    <i name="e_fr_energy">    -36.03672879 </i>
    <i name="e_wo_entrp">    -35.99517919 </i>
    <i name="e_0_energy">    -36.02287892 </i>
   </energy>
  </scstep>
  <scstep>
   <time name="dav">    2.47    2.47</time>
   <time name="total">    3.94    3.94</time>
   <energy>
    <i name="e_fr_energy">    -36.13391340 </i>
    <i name="e_wo_entrp">    -36.09211250 </i>
    <i name="e_0_energy">    -36.11997977 </i>
   </energy>
  </scstep>
  <scstep>
   <time name="dav">    2.93    2.99</time>
   <time name="total">    4.42    4.48</time>
   <energy>
    <i name="e_fr_energy">    -36.21710534 </i>
    <i name="e_wo_entrp">    -36.17452315 </i>
    <i name="e_0_energy">    -36.20291128 </i>
   </energy>
  </scstep>
  <scstep>
   <time name="dav">    2.39    2.40</time>
   <time name="total">    3.90    3.91</time>
   <energy>
    <i name="e_fr_energy">    -36.27185319 </i>
    <i name="e_wo_entrp">    -36.22924797 </i>
    <i name="e_0_energy">    -36.25765145 </i>
   </energy>
  </scstep>
  <scstep>
   <time name="dav">    2.16    2.16</time>
   <time name="total">    3.64    3.64</time>
   <energy>
    <i name="e_fr_energy">    -36.29950825 </i>
    <i name="e_wo_entrp">    -36.25679939 </i>
    <i name="e_0_energy">    -36.28527196 </i>
   </energy>
  </scstep>
  <scstep>
   <time name="dav">    2.10    2.11</time>
   <time name="total">    3.62    3.63</time>
   <energy>
    <i name="e_fr_energy">    -36.31911000 </i>
    <i name="e_wo_entrp">    -36.27637033 </i>
    <i name="e_0_energy">    -36.30486344 </i>
   </energy>
  </scstep>
  <scstep>
   <time name="dav">    1.91    1.92</time>
   <time name="total">    3.43    3.44</time>
   <energy>
    <i name="e_fr_energy">    -36.33226114 </i>
    <i name="e_wo_entrp">    -36.28925686 </i>
    <i name="e_0_energy">    -36.31792638 </i>
   </energy>
  </scstep>
  <scstep>
   <time name="dav">    1.99    1.99</time>
   <time name="total">    3.48    3.49</time>
   <energy>
    <i name="e_fr_energy">    -36.34166934 </i>
    <i name="e_wo_entrp">    -36.29859630 </i>
    <i name="e_0_energy">    -36.32731166 </i>
   </energy>
  </scstep>
  <scstep>
   <time name="dav">    1.88    1.88</time>
   <time name="total">    3.39    3.40</time>
   <energy>
    <i name="e_fr_energy">    -36.34792265 </i>
    <i name="e_wo_entrp">    -36.30475552 </i>
    <i name="e_0_energy">    -36.33353360 </i>
   </energy>
  </scstep>
  <scstep>
   <time name="dav">    1.88    1.88</time>
   <time name="total">    3.41    3.42</time>
   <energy>
    <i name="e_fr_energy">    -36.35249412 </i>
    <i name="e_wo_entrp">    -36.30924165 </i>
    <i name="e_0_energy">    -36.33807663 </i>
   </energy>
  </scstep>
  <scstep>
   <time name="dav">    1.86    1.86</time>
   <time name="total">    3.38    3.39</time>
   <energy>
    <i name="e_fr_energy">    -36.35505995 </i>
    <i name="e_wo_entrp">    -36.31183274 </i>
    <i name="e_0_energy">    -36.34065088 </i>
   </energy>
  </scstep>
  <scstep>
   <time name="dav">    1.92    1.92</time>
   <time name="total">    3.45    3.46</time>
   <energy>
    <i name="e_fr_energy">    -36.35633776 </i>
    <i name="e_wo_entrp">    -36.31310534 </i>
    <i name="e_0_energy">    -36.34192695 </i>
   </energy>
  </scstep>
  <scstep>
   <time name="dav">    1.76    1.76</time>
   <time name="total">    3.24    3.25</time>
   <energy>
    <i name="e_fr_energy">    -36.35710528 </i>
    <i name="e_wo_entrp">    -36.31389563 </i>
    <i name="e_0_energy">    -36.34270207 </i>
   </energy>
  </scstep>
  <scstep>
   <time name="dav">    1.81    1.81</time>
   <time name="total">    3.28    3.29</time>
   <energy>
    <i name="e_fr_energy">    -36.35763218 </i>
    <i name="e_wo_entrp">    -36.31440283 </i>
    <i name="e_0_energy">    -36.34322240 </i>
   </energy>
  </scstep>
  <scstep>
   <time name="dav">    1.74    1.74</time>
   <time name="total">    3.25    3.25</time>
   <energy>
    <i name="e_fr_energy">    -36.35801783 </i>
    <i name="e_wo_entrp">    -36.31476528 </i>
    <i name="e_0_energy">    -36.34360031 </i>
   </energy>
  </scstep>
  <scstep>
   <time name="dav">    1.80    1.81</time>
   <time name="total">    3.34    3.35</time>
   <energy>
    <i name="e_fr_energy">    -36.35834324 </i>
    <i name="e_wo_entrp">    -36.31509719 </i>
    <i name="e_0_energy">    -36.34392789 </i>
   </energy>
  </scstep>
  <scstep>
   <time name="dav">    1.75    1.75</time>
   <time name="total">    3.24    3.25</time>
   <energy>
    <i name="e_fr_energy">    -36.35852080 </i>
    <i name="e_wo_entrp">    -36.31528016 </i>
    <i name="e_0_energy">    -36.34410726 </i>
   </energy>
  </scstep>
  <scstep>
   <time name="dav">    1.79    1.79</time>
   <time name="total">    3.28    3.29</time>
   <energy>
    <i name="e_fr_energy">    -36.35871357 </i>
    <i name="e_wo_entrp">    -36.31547412 </i>
    <i name="e_0_energy">    -36.34430042 </i>
   </energy>
  </scstep>
  <scstep>
   <time name="dav">    1.81    1.82</time>
   <time name="total">    3.32    3.33</time>
   <energy>
    <i name="e_fr_energy">    -36.35882141 </i>
    <i name="e_wo_entrp">    -36.31558181 </i>
    <i name="e_0_energy">    -36.34440821 </i>
   </energy>
  </scstep>
  <scstep>
   <time name="dav">    1.75    1.75</time>
   <time name="total">    2.93    2.93</time>
   <energy>
    <i name="alphaZ">      4.46371115 </i>
    <i name="ewald">  13063.12250980 </i>
    <i name="hartreedc"> -22959.56467566 </i>
    <i name="XCdc">    300.54667727 </i>
    <i name="pawpsdc">  10555.61307748 </i>
    <i name="pawaedc"> -11232.75678060 </i>
    <i name="eentropy">     -0.04324262 </i>
    <i name="bandstr">   -544.37855026 </i>
    <i name="atom">  10776.63837129 </i>
    <i name="e_fr_energy">    -36.35890215 </i>
    <i name="e_wo_entrp">    -36.31565953 </i>
    <i name="e_0_energy">    -36.34448795 </i>
   </energy>
  </scstep>
  <structure>
   <crystal>
    <varray name="basis" >
     <v>      21.89443131       0.00000000       0.00000000 </v>
     <v>       0.00000000      23.42070750       0.00000000 </v>
     <v>       0.00000000       0.00000000      22.28103253 </v>
    </varray>
    <i name="volume">  11425.33629857 </i>
    <varray name="rec_basis" >
     <v>       0.04567371       0.00000000       0.00000000 </v>
     <v>       0.00000000       0.04269726       0.00000000 </v>
     <v>       0.00000000       0.00000000       0.04488122 </v>
    </varray>
   </crystal>
   <varray name="positions" >
    <v>       0.47983944       0.59609240       0.51446961 </v>
    <v>       0.55809064       0.52336050       0.50080042 </v>
    <v>       0.45793729       0.56576255       0.41376440 </v>
    <v>       0.47244043       0.47224012       0.45985087 </v>
    <v>       0.54985579       0.51512296       0.39045314 </v>
    <v>       0.39158234       0.53632751       0.49429748 </v>
    <v>       0.57753547       0.43309071       0.44667738 </v>
    <v>       0.55626318       0.60784737       0.43706856 </v>
    <v>       0.46716034       0.50630872       0.56539306 </v>
    <v>       0.53165069       0.42810697       0.54209960 </v>
   </varray>
  </structure>
  <varray name="forces" >
   <v>       0.15416102      -0.74769990      -0.61706902 </v>
   <v>      -0.83934278      -0.41069056      -0.45320541 </v>
   <v>       0.39892929      -0.30720475       0.81046680 </v>
   <v>       0.77751164       0.63700214       0.43173441 </v>
   <v>      -0.23712059       0.16170814       0.81238264 </v>
   <v>       0.93838708      -0.10625573      -0.10867704 </v>
   <v>      -0.76539942       0.66231714       0.21947089 </v>
   <v>      -0.48665001      -0.79632277       0.26359215 </v>
   <v>       0.14668583       0.05588188      -0.84827218 </v>
   <v>      -0.08716207       0.85126441      -0.51042325 </v>
  </varray>
  <energy>
   <i name="e_fr_energy">    -36.35890215 </i>
   <i name="e_wo_entrp">    -36.31565953 </i>
   <i name="e_0_energy">    -36.34448795 </i>
  </energy>
  <time name="totalsc">  174.67  175.38</time>
 </calculation>
 <calculation>
  <scstep>
   <time name="dav">    2.33    2.35</time>
   <time name="total">    3.74    3.76</time>
   <energy>
    <i name="alphaZ">      4.46371115 </i>
    <i name="ewald">  13541.04283735 </i>
    <i name="hartreedc"> -23431.01752374 </i>
    <i name="XCdc">    301.68078914 </i>
    <i name="pawpsdc">  10555.62072137 </i>
    <i name="pawaedc"> -11232.76460685 </i>
    <i name="eentropy">     -0.03097180 </i>
    <i name="bandstr">   -552.17094854 </i>
    <i name="atom">  10776.63837129 </i>
    <i name="e_fr_energy">    -36.53762062 </i>
    <i name="e_wo_entrp">    -36.50664882 </i>
    <i name="e_0_energy">    -36.52729669 </i>
   </energy>
  </scstep>
  <scstep>
   <time name="dav">    3.12    3.13</time>
   <time name="total">    4.52    4.54</time>
   <energy>
    <i name="e_fr_energy">    -37.06533317 </i>
    <i name="e_wo_entrp">    -37.02328314 </i>
    <i name="e_0_energy">    -37.05131649 </i>
   </energy>
  </scstep>
  <scstep>
   <time name="dav">    2.48    2.50</time>
   <time name="total">    3.90    3.92</time>
   <energy>
    <i name="e_fr_energy">    -36.62494464 </i>
    <i name="e_wo_entrp">    -36.60617763 </i>
    <i name="e_0_energy">    -36.61868897 </i>
   </energy>
  </scstep>
  <scstep>
   <time name="dav">    3.00    3.01</time>
   <time name="total">    4.40    4.42</time>
   <energy>
    <i name="e_fr_energy">    -36.75440809 </i>
    <i name="e_wo_entrp">    -36.69137553 </i>
    <i name="e_0_energy">    -36.73339724 </i>
   </energy>
  </scstep>
  <scstep>
   <time name="dav">    2.46    2.48</time>
   <time name="total">    3.86    3.89</time>
   <energy>
    <i name="e_fr_energy">    -36.65502538 </i>
    <i name="e_wo_entrp">    -36.62334025 </i>
    <i name="e_0_energy">    -36.64446367 </i>
   </energy>
  </scstep>
  <scstep>
   <time name="dav">    2.94    2.95</time>
   <time name="total">    4.37    4.39</time>
   <energy>
    <i name="e_fr_energy">    -36.70475863 </i>
    <i name="e_wo_entrp">    -36.68344660 </i>
    <i name="e_0_energy">    -36.69765462 </i>
   </energy>
  </scstep>
  <scstep>
   <time name="dav">    2.64    2.66</time>
   <time name="total">    4.06    4.08</time>
   <energy>
    <i name="e_fr_energy">    -36.68446093 </i>
    <i name="e_wo_entrp">    -36.64991496 </i>
    <i name="e_0_energy">    -36.67294561 </i>
   </energy>
  </scstep>
  <scstep>
   <time name="dav">    2.58    2.59</time>
   <time name="total">    4.01    4.02</time>
   <energy>
    <i name="e_fr_energy">    -36.68774905 </i>
    <i name="e_wo_entrp">    -36.65468504 </i>
    <i name="e_0_energy">    -36.67672771 </i>
   </energy>
  </scstep>
  <scstep>
   <time name="dav">    2.80    2.81</time>
   <time name="total">    4.23    4.25</time>
   <energy>
    <i name="e_fr_energy">    -36.69153378 </i>
    <i name="e_wo_entrp">    -36.66026369 </i>
    <i name="e_0_energy">    -36.68111042 </i>
   </energy>
  </scstep>
  <scstep>
   <time name="dav">    2.63    2.64</time>
   <time name="total">    4.05    4.07</time>
   <energy>
    <i name="e_fr_energy">    -36.67902813 </i>
    <i name="e_wo_entrp">    -36.64439794 </i>
    <i name="e_0_energy">    -36.66748473 </i>
   </energy>
  </scstep>
  <scstep>
   <time name="dav">    2.85    2.86</time>
   <time name="total">    4.30    4.31</time>
   <energy>
    <i name="e_fr_energy">    -36.67869808 </i>
    <i name="e_wo_entrp">    -36.64577331 </i>
    <i name="e_0_energy">    -36.66772316 </i>
   </energy>
  </scstep>
  <scstep>
   <time name="dav">    2.63    2.64</time>
   <time name="total">    4.06    4.07</time>
   <energy>
    <i name="e_fr_energy">    -36.67936875 </i>
    <i name="e_wo_entrp">    -36.64754482 </i>
    <i name="e_0_energy">    -36.66876077 </i>
   </energy>
  </scstep>
  <scstep>
   <time name="dav">    2.86    2.86</time>
   <time name="total">    4.31    4.32</time>
   <energy>
    <i name="e_fr_energy">    -36.68123430 </i>
    <i name="e_wo_entrp">    -36.64900943 </i>
    <i name="e_0_energy">    -36.67049267 </i>
   </energy>
  </scstep>
  <scstep>
   <time name="dav">    2.46    2.48</time>
   <time name="total">    3.89    3.91</time>
   <energy>
    <i name="e_fr_energy">    -36.68074779 </i>
    <i name="e_wo_entrp">    -36.64779258 </i>
    <i name="e_0_energy">    -36.66976272 </i>
   </energy>
  </scstep>
  <scstep>
   <time name="dav">    2.12    2.13</time>
   <time name="total">    3.56    3.57</time>
   <energy>
    <i name="e_fr_energy">    -36.68125760 </i>
    <i name="e_wo_entrp">    -36.64823051 </i>
    <i name="e_0_energy">    -36.67024857 </i>
   </energy>
  </scstep>
  <scstep>
   <time name="dav">    2.30    2.31</time>
   <time name="total">    3.75    3.76</time>
   <energy>
    <i name="e_fr_energy">    -36.68140429 </i>
    <i name="e_wo_entrp">    -36.64853764 </i>
    <i name="e_0_energy">    -36.67044874 </i>
   </energy>
  </scstep>
  <scstep>
   <time name="dav">    1.78    1.78</time>
   <time name="total">    3.19    3.19</time>
   <energy>
    <i name="e_fr_energy">    -36.68156132 </i>
    <i name="e_wo_entrp">    -36.64885532 </i>
    <i name="e_0_energy">    -36.67065932 </i>
   </energy>
  </scstep>
  <scstep>
   <time name="dav">    1.77    1.78</time>
   <time name="total">    3.20    3.23</time>
   <energy>
    <i name="e_fr_energy">    -36.68175265 </i>
    <i name="e_wo_entrp">    -36.64928739 </i>
    <i name="e_0_energy">    -36.67093090 </i>
   </energy>
  </scstep>
  <scstep>
   <time name="dav">    1.77    1.78</time>
   <time name="total">    3.22    3.24</time>
   <energy>
    <i name="e_fr_energy">    -36.68200199 </i>
    <i name="e_wo_entrp">    -36.64958789 </i>
    <i name="e_0_energy">    -36.67119729 </i>
   </energy>
  </scstep>
  <scstep>
   <time name="dav">    1.78    1.80</time>
   <time name="total">    3.23    3.27</time>
   <energy>
    <i name="e_fr_energy">    -36.68218136 </i>
    <i name="e_wo_entrp">    -36.64981172 </i>
    <i name="e_0_energy">    -36.67139148 </i>
   </energy>
  </scstep>
  <scstep>
   <time name="dav">    1.72    1.72</time>
   <time name="total">    3.14    3.15</time>
   <energy>
    <i name="e_fr_energy">    -36.68234710 </i>
    <i name="e_wo_entrp">    -36.64996182 </i>
    <i name="e_0_energy">    -36.67155201 </i>
   </energy>
  </scstep>
  <scstep>
   <time name="dav">    1.80    1.82</time>
   <time name="total">    3.25    3.27</time>
   <energy>
    <i name="e_fr_energy">    -36.68251349 </i>
    <i name="e_wo_entrp">    -36.65011692 </i>
    <i name="e_0_energy">    -36.67171463 </i>
   </energy>
  </scstep>
  <scstep>
   <time name="dav">    1.79    1.80</time>
   <time name="total">    3.24    3.26</time>
   <energy>
    <i name="e_fr_energy">    -36.68266802 </i>
    <i name="e_wo_entrp">    -36.65028401 </i>
    <i name="e_0_energy">    -36.67187335 </i>
   </energy>
  </scstep>
  <scstep>
   <time name="dav">    1.74    1.74</time>
   <time name="total">    3.18    3.19</time>
   <energy>
    <i name="e_fr_energy">    -36.68277386 </i>
    <i name="e_wo_entrp">    -36.65038824 </i>
    <i name="e_0_energy">    -36.67197866 </i>
   </energy>
  </scstep>
  <scstep>
   <time name="dav">    1.70    1.71</time>
   <time name="total">    2.87    2.89</time>
   <energy>
    <i name="alphaZ">      4.46371115 </i>
    <i name="ewald">  13541.04283735 </i>
    <i name="hartreedc"> -23424.66968621 </i>
    <i name="XCdc">    301.32263399 </i>
    <i name="pawpsdc">  10735.97653361 </i>
    <i name="pawaedc"> -11415.33723289 </i>
    <i name="eentropy">     -0.03236838 </i>
    <i name="bandstr">   -556.08764750 </i>
    <i name="atom">  10776.63837129 </i>
    <i name="e_fr_energy">    -36.68284759 </i>
    <i name="e_wo_entrp">    -36.65047921 </i>
    <i name="e_0_energy">    -36.67205813 </i>
   </energy>
  </scstep>
  <structure>
   <crystal>
    <varray name="basis" >
     <v>      21.89443131       0.00000000       0.00000000 </v>
     <v>       0.00000000      23.42070750       0.00000000 </v>
     <v>       0.00000000       0.00000000      22.28103253 </v>
    </varray>
    <i name="volume">  11425.33629857 </i>
    <varray name="rec_basis" >
     <v>       0.04567371       0.00000000       0.00000000 </v>
     <v>       0.00000000       0.04269726       0.00000000 </v>
     <v>       0.00000000       0.00000000       0.04488122 </v>
    </varray>
   </crystal>
   <varray name="positions" >
    <v>       0.48017912       0.59455227       0.51313354 </v>
    <v>       0.55624122       0.52251454       0.49981914 </v>
    <v>       0.45881630       0.56512976       0.41551921 </v>
    <v>       0.47415362       0.47355224       0.46078566 </v>
    <v>       0.54933332       0.51545605       0.39221211 </v>
    <v>       0.39365000       0.53610864       0.49406217 </v>
    <v>       0.57584898       0.43445497       0.44715258 </v>
    <v>       0.55519088       0.60620709       0.43763929 </v>
    <v>       0.46748355       0.50642382       0.56355639 </v>
    <v>       0.53145863       0.42986043       0.54099444 </v>
   </varray>
  </structure>
  <varray name="forces" >
   <v>       0.13492644      -0.28111284      -0.22503884 </v>
   <v>      -0.20839355      -0.09464479      -0.08081348 </v>
   <v>       0.09812270      -0.17612107       0.30350093 </v>
   <v>       0.22475404       0.17812653       0.08049844 </v>
   <v>      -0.05012040       0.09755175       0.26623728 </v>
   <v>       0.40972385      -0.12302954      -0.09292520 </v>
   <v>      -0.42287615       0.29371442      -0.01005932 </v>
   <v>      -0.17548597      -0.38218577       0.16672724 </v>
   <v>       0.00517363       0.01664726      -0.27829004 </v>
   <v>      -0.01582460       0.47105403      -0.12983702 </v>
  </varray>
  <energy>
   <i name="e_fr_energy">    -36.68284759 </i>
   <i name="e_wo_entrp">    -36.65047921 </i>
   <i name="e_0_energy">    -36.67205813 </i>
  </energy>
  <time name="totalsc">   97.59   98.06</time>
 </calculation>
 <calculation>
  <scstep>
   <time name="dav">    2.29    2.30</time>
   <time name="total">    3.72    3.74</time>
   <energy>
    <i name="alphaZ">      4.46371115 </i>
    <i name="ewald">  13784.87895268 </i>
    <i name="hartreedc"> -23664.48408529 </i>
    <i name="XCdc">    301.90529321 </i>
    <i name="pawpsdc">  10735.97740240 </i>
    <i name="pawaedc"> -11415.33730224 </i>
    <i name="eentropy">     -0.02602848 </i>
    <i name="bandstr">   -560.70629036 </i>
    <i name="atom">  10776.63837129 </i>
    <i name="e_fr_energy">    -36.68997563 </i>
    <i name="e_wo_entrp">    -36.66394715 </i>
    <i name="e_0_energy">    -36.68129947 </i>
   </energy>
  </scstep>
  <scstep>
   <time name="dav">    3.18    3.18</time>
   <time name="total">    4.61    4.62</time>
   <energy>
    <i name="e_fr_energy">    -36.82007150 </i>
    <i name="e_wo_entrp">    -36.78318189 </i>
    <i name="e_0_energy">    -36.80777496 </i>
   </energy>
  </scstep>
  <scstep>
   <time name="dav">    2.50    2.50</time>
   <time name="total">    3.90    3.91</time>
   <energy>
    <i name="e_fr_energy">    -36.70215795 </i>
    <i name="e_wo_entrp">    -36.68014037 </i>
    <i name="e_0_energy">    -36.69481876 </i>
   </energy>
  </scstep>
  <scstep>
   <time name="dav">    3.09    3.10</time>
   <time name="total">    4.48    4.49</time>
   <energy>
    <i name="e_fr_energy">    -36.74791072 </i>
    <i name="e_wo_entrp">    -36.71428986 </i>
    <i name="e_0_energy">    -36.73670377 </i>
   </energy>
  </scstep>
  <scstep>
   <time name="dav">    2.60    2.60</time>
   <time name="total">    4.02    4.03</time>
   <energy>
    <i name="e_fr_energy">    -36.72338404 </i>
    <i name="e_wo_entrp">    -36.69172898 </i>
    <i name="e_0_energy">    -36.71283235 </i>
   </energy>
  </scstep>
  <scstep>
   <time name="dav">    2.82    2.82</time>
   <time name="total">    4.24    4.25</time>
   <energy>
    <i name="e_fr_energy">    -36.72193199 </i>
    <i name="e_wo_entrp">    -36.69713238 </i>
    <i name="e_0_energy">    -36.71366545 </i>
   </energy>
  </scstep>
  <scstep>
   <time name="dav">    2.89    2.90</time>
   <time name="total">    4.32    4.34</time>
   <energy>
    <i name="e_fr_energy">    -36.72994970 </i>
    <i name="e_wo_entrp">    -36.70222590 </i>
    <i name="e_0_energy">    -36.72070844 </i>
   </energy>
  </scstep>
  <scstep>
   <time name="dav">    2.65    2.66</time>
   <time name="total">    4.07    4.10</time>
   <energy>
    <i name="e_fr_energy">    -36.73154871 </i>
    <i name="e_wo_entrp">    -36.70373829 </i>
    <i name="e_0_energy">    -36.72227857 </i>
   </energy>
  </scstep>
  <scstep>
   <time name="dav">    2.78    2.80</time>
   <time name="total">    4.20    4.22</time>
   <energy>
    <i name="e_fr_energy">    -36.72441903 </i>
    <i name="e_wo_entrp">    -36.69717841 </i>
    <i name="e_0_energy">    -36.71533882 </i>
   </energy>
  </scstep>
  <scstep>
   <time name="dav">    2.74    2.75</time>
   <time name="total">    4.14    4.16</time>
   <energy>
    <i name="e_fr_energy">    -36.72458295 </i>
    <i name="e_wo_entrp">    -36.69739964 </i>
    <i name="e_0_energy">    -36.71552185 </i>
   </energy>
  </scstep>
  <scstep>
   <time name="dav">    2.78    2.81</time>
   <time name="total">    4.22    4.26</time>
   <energy>
    <i name="e_fr_energy">    -36.72500911 </i>
    <i name="e_wo_entrp">    -36.69783119 </i>
    <i name="e_0_energy">    -36.71594980 </i>
   </energy>
  </scstep>
  <scstep>
   <time name="dav">    2.54    2.54</time>
   <time name="total">    3.99    4.00</time>
   <energy>
    <i name="e_fr_energy">    -36.72555598 </i>
    <i name="e_wo_entrp">    -36.69836044 </i>
    <i name="e_0_energy">    -36.71649080 </i>
   </energy>
  </scstep>
  <scstep>
   <time name="dav">    1.94    1.95</time>
   <time name="total">    3.36    3.38</time>
   <energy>
    <i name="e_fr_energy">    -36.72566848 </i>
    <i name="e_wo_entrp">    -36.69849747 </i>
    <i name="e_0_energy">    -36.71661148 </i>
   </energy>
  </scstep>
  <scstep>
   <time name="dav">    1.88    1.89</time>
   <time name="total">    3.01    3.03</time>
   <energy>
    <i name="alphaZ">      4.46371115 </i>
    <i name="ewald">  13784.87895268 </i>
    <i name="hartreedc"> -23661.52393692 </i>
    <i name="XCdc">    301.74248473 </i>
    <i name="pawpsdc">  10837.78262194 </i>
    <i name="pawaedc"> -11518.41355009 </i>
    <i name="eentropy">     -0.02714136 </i>
    <i name="bandstr">   -562.26723943 </i>
    <i name="atom">  10776.63837129 </i>
    <i name="e_fr_energy">    -36.72572599 </i>
    <i name="e_wo_entrp">    -36.69858464 </i>
    <i name="e_0_energy">    -36.71667888 </i>
   </energy>
  </scstep>
  <structure>
   <crystal>
    <varray name="basis" >
     <v>      21.89443131       0.00000000       0.00000000 </v>
     <v>       0.00000000      23.42070750       0.00000000 </v>
     <v>       0.00000000       0.00000000      22.28103253 </v>
    </varray>
    <i name="volume">  11425.33629857 </i>
    <varray name="rec_basis" >
     <v>       0.04567371       0.00000000       0.00000000 </v>
     <v>       0.00000000       0.04269726       0.00000000 </v>
     <v>       0.00000000       0.00000000       0.04488122 </v>
    </varray>
   </crystal>
   <varray name="positions" >
    <v>       0.48034677       0.59379214       0.51247412 </v>
    <v>       0.55532844       0.52209703       0.49933484 </v>
    <v>       0.45925013       0.56481745       0.41638529 </v>
    <v>       0.47499915       0.47419983       0.46124702 </v>
    <v>       0.54907545       0.51562045       0.39308024 </v>
    <v>       0.39467049       0.53600062       0.49394604 </v>
    <v>       0.57501661       0.43512829       0.44738711 </v>
    <v>       0.55466165       0.60539753       0.43792097 </v>
    <v>       0.46764307       0.50648063       0.56264991 </v>
    <v>       0.53136384       0.43072584       0.54044899 </v>
   </varray>
  </structure>
  <varray name="forces" >
   <v>       0.13805522      -0.00427754       0.02375148 </v>
   <v>       0.19108384       0.13025178       0.16033844 </v>
   <v>      -0.08635012      -0.10761067      -0.01683352 </v>
   <v>      -0.16194042      -0.11394704      -0.15509490 </v>
   <v>       0.06472104       0.05854226      -0.04588556 </v>
   <v>       0.10487769      -0.13201131      -0.07947122 </v>
   <v>      -0.22447420       0.07156845      -0.14507659 </v>
   <v>       0.01419161      -0.13791849       0.11414443 </v>
   <v>      -0.07310812      -0.00496163       0.04447776 </v>
   <v>       0.03294345       0.24036420       0.09964967 </v>
  </varray>
  <energy>
   <i name="e_fr_energy">    -36.72572599 </i>
   <i name="e_wo_entrp">    -36.69858464 </i>
   <i name="e_0_energy">    -36.71667888 </i>
  </energy>
  <time name="totalsc">   60.23   60.53</time>
 </calculation>
 <calculation>
  <scstep>
   <time name="dav">    2.34    2.34</time>
   <time name="total">    3.76    3.78</time>
   <energy>
    <i name="alphaZ">      4.46371115 </i>
    <i name="ewald">  13808.40932403 </i>
    <i name="hartreedc"> -23685.04379740 </i>
    <i name="XCdc">    301.78869535 </i>
    <i name="pawpsdc">  10837.76049132 </i>
    <i name="pawaedc"> -11518.39174259 </i>
    <i name="eentropy">     -0.02474703 </i>
    <i name="bandstr">   -562.33695623 </i>
    <i name="atom">  10776.63837129 </i>
    <i name="e_fr_energy">    -36.73665011 </i>
    <i name="e_wo_entrp">    -36.71190308 </i>
    <i name="e_0_energy">    -36.72840110 </i>
   </energy>
  </scstep>
  <scstep>
   <time name="dav">    2.84    2.85</time>
   <time name="total">    4.26    4.27</time>
   <energy>
    <i name="e_fr_energy">    -36.84171448 </i>
    <i name="e_wo_entrp">    -36.80954783 </i>
    <i name="e_0_energy">    -36.83099227 </i>
   </energy>
  </scstep>
  <scstep>
   <time name="dav">    2.53    2.54</time>
   <time name="total">    3.96    3.98</time>
   <energy>
    <i name="e_fr_energy">    -36.72346150 </i>
    <i name="e_wo_entrp">    -36.70076452 </i>
    <i name="e_0_energy">    -36.71589584 </i>
   </energy>
  </scstep>
  <scstep>
   <time name="dav">    3.14    3.16</time>
   <time name="total">    4.56    4.59</time>
   <energy>
    <i name="e_fr_energy">    -36.74636767 </i>
    <i name="e_wo_entrp">    -36.72091897 </i>
    <i name="e_0_energy">    -36.73788477 </i>
   </energy>
  </scstep>
  <scstep>
   <time name="dav">    2.59    2.62</time>
   <time name="total">    4.00    4.03</time>
   <energy>
    <i name="e_fr_energy">    -36.74475885 </i>
    <i name="e_wo_entrp">    -36.71617215 </i>
    <i name="e_0_energy">    -36.73522995 </i>
   </energy>
  </scstep>
  <scstep>
   <time name="dav">    2.57    2.59</time>
   <time name="total">    3.98    4.00</time>
   <energy>
    <i name="e_fr_energy">    -36.74119004 </i>
    <i name="e_wo_entrp">    -36.71891854 </i>
    <i name="e_0_energy">    -36.73376620 </i>
   </energy>
  </scstep>
  <scstep>
   <time name="dav">    3.02    3.03</time>
   <time name="total">    4.44    4.45</time>
   <energy>
    <i name="e_fr_energy">    -36.74327158 </i>
    <i name="e_wo_entrp">    -36.72038114 </i>
    <i name="e_0_energy">    -36.73564143 </i>
   </energy>
  </scstep>
  <scstep>
   <time name="dav">    2.77    2.78</time>
   <time name="total">    4.18    4.20</time>
   <energy>
    <i name="e_fr_energy">    -36.74388078 </i>
    <i name="e_wo_entrp">    -36.72129960 </i>
    <i name="e_0_energy">    -36.73635372 </i>
   </energy>
  </scstep>
  <scstep>
   <time name="dav">    2.47    2.48</time>
   <time name="total">    3.91    3.93</time>
   <energy>
    <i name="e_fr_energy">    -36.74308820 </i>
    <i name="e_wo_entrp">    -36.72073702 </i>
    <i name="e_0_energy">    -36.73563781 </i>
   </energy>
  </scstep>
  <scstep>
   <time name="dav">    2.49    2.51</time>
   <time name="total">    3.92    3.94</time>
   <energy>
    <i name="e_fr_energy">    -36.74331602 </i>
    <i name="e_wo_entrp">    -36.72084594 </i>
    <i name="e_0_energy">    -36.73582599 </i>
   </energy>
  </scstep>
  <scstep>
   <time name="dav">    2.27    2.28</time>
   <time name="total">    3.71    3.73</time>
   <energy>
    <i name="e_fr_energy">    -36.74329706 </i>
    <i name="e_wo_entrp">    -36.72080089 </i>
    <i name="e_0_energy">    -36.73579834 </i>
   </energy>
  </scstep>
  <scstep>
   <time name="dav">    1.83    1.83</time>
   <time name="total">    3.25    3.26</time>
   <energy>
    <i name="e_fr_energy">    -36.74367560 </i>
    <i name="e_wo_entrp">    -36.72109652 </i>
    <i name="e_0_energy">    -36.73614924 </i>
   </energy>
  </scstep>
  <scstep>
   <time name="dav">    1.74    1.75</time>
   <time name="total">    2.88    2.89</time>
   <energy>
    <i name="alphaZ">      4.46371115 </i>
    <i name="ewald">  13808.40932403 </i>
    <i name="hartreedc"> -23683.86934771 </i>
    <i name="XCdc">    301.75911979 </i>
    <i name="pawpsdc">  10842.86162034 </i>
    <i name="pawaedc"> -11523.58190194 </i>
    <i name="eentropy">     -0.02252993 </i>
    <i name="bandstr">   -563.40211397 </i>
    <i name="atom">  10776.63837129 </i>
    <i name="e_fr_energy">    -36.74374695 </i>
    <i name="e_wo_entrp">    -36.72121702 </i>
    <i name="e_0_energy">    -36.73623698 </i>
   </energy>
  </scstep>
  <structure>
   <crystal>
    <varray name="basis" >
     <v>      21.89443131       0.00000000       0.00000000 </v>
     <v>       0.00000000      23.42070750       0.00000000 </v>
     <v>       0.00000000       0.00000000      22.28103253 </v>
    </varray>
    <i name="volume">  11425.33629857 </i>
    <varray name="rec_basis" >
     <v>       0.04567371       0.00000000       0.00000000 </v>
     <v>       0.00000000       0.04269726       0.00000000 </v>
     <v>       0.00000000       0.00000000       0.04488122 </v>
    </varray>
   </crystal>
   <varray name="positions" >
    <v>       0.48069927       0.59369957       0.51245872 </v>
    <v>       0.55569150       0.52234628       0.49966346 </v>
    <v>       0.45908840       0.56453985       0.41643969 </v>
    <v>       0.47469931       0.47401257       0.46092837 </v>
    <v>       0.54920402       0.51577086       0.39306575 </v>
    <v>       0.39503567       0.53569008       0.49374432 </v>
    <v>       0.57438241       0.43536369       0.44706756 </v>
    <v>       0.55463830       0.60499712       0.43822322 </v>
    <v>       0.46748348       0.50647560       0.56265687 </v>
    <v>       0.53143326       0.43136419       0.54062656 </v>
   </varray>
  </structure>
  <varray name="forces" >
   <v>       0.07814245       0.01874687       0.05098407 </v>
   <v>       0.09158933       0.01756445       0.11027514 </v>
   <v>      -0.05867260      -0.06704777      -0.04954801 </v>
   <v>      -0.03076199      -0.06811482      -0.08547846 </v>
   <v>       0.04275237       0.04818812      -0.05538980 </v>
   <v>       0.03325708      -0.11722340      -0.05573434 </v>
   <v>      -0.20181888       0.03634701      -0.12285774 </v>
   <v>       0.05147785      -0.07002342       0.07549504 </v>
   <v>      -0.05803206       0.00871161       0.04061289 </v>
   <v>       0.05206646       0.19285134       0.09164119 </v>
  </varray>
  <energy>
   <i name="e_fr_energy">    -36.74374695 </i>
   <i name="e_wo_entrp">    -36.72121702 </i>
   <i name="e_0_energy">    -36.73623698 </i>
  </energy>
  <time name="totalsc">   54.72   54.99</time>
 </calculation>
 <calculation>
  <scstep>
   <time name="dav">    2.40    2.40</time>
   <time name="total">    4.14    4.15</time>
   <energy>
    <i name="alphaZ">      4.46371115 </i>
    <i name="ewald">  13852.52522521 </i>
    <i name="hartreedc"> -23727.87529319 </i>
    <i name="XCdc">    301.85329734 </i>
    <i name="pawpsdc">  10843.05597580 </i>
    <i name="pawaedc"> -11523.78390569 </i>
    <i name="eentropy">     -0.01968093 </i>
    <i name="bandstr">   -563.58965296 </i>
    <i name="atom">  10776.63837129 </i>
    <i name="e_fr_energy">    -36.73195199 </i>
    <i name="e_wo_entrp">    -36.71227105 </i>
    <i name="e_0_energy">    -36.72539167 </i>
   </energy>
  </scstep>
  <scstep>
   <time name="dav">    2.81    2.83</time>
   <time name="total">    4.22    4.25</time>
   <energy>
    <i name="e_fr_energy">    -37.15624316 </i>
    <i name="e_wo_entrp">    -37.11807762 </i>
    <i name="e_0_energy">    -37.14352132 </i>
   </energy>
  </scstep>
  <scstep>
   <time name="dav">    2.54    2.54</time>
   <time name="total">    3.94    3.96</time>
   <energy>
    <i name="e_fr_energy">    -36.70265244 </i>
    <i name="e_wo_entrp">    -36.68887415 </i>
    <i name="e_0_energy">    -36.69805968 </i>
   </energy>
  </scstep>
  <scstep>
   <time name="dav">    3.11    3.13</time>
   <time name="total">    4.51    4.53</time>
   <energy>
    <i name="e_fr_energy">    -36.76987621 </i>
    <i name="e_wo_entrp">    -36.73650135 </i>
    <i name="e_0_energy">    -36.75875126 </i>
   </energy>
  </scstep>
  <scstep>
   <time name="dav">    2.46    2.47</time>
   <time name="total">    3.89    3.90</time>
   <energy>
    <i name="e_fr_energy">    -36.75991573 </i>
    <i name="e_wo_entrp">    -36.74416189 </i>
    <i name="e_0_energy">    -36.75466445 </i>
   </energy>
  </scstep>
  <scstep>
   <time name="dav">    2.47    2.49</time>
   <time name="total">    3.88    3.91</time>
   <energy>
    <i name="e_fr_energy">    -36.74960876 </i>
    <i name="e_wo_entrp">    -36.73531640 </i>
    <i name="e_0_energy">    -36.74484464 </i>
   </energy>
  </scstep>
  <scstep>
   <time name="dav">    2.89    2.92</time>
   <time name="total">    4.28    4.31</time>
   <energy>
    <i name="e_fr_energy">    -36.75727853 </i>
    <i name="e_wo_entrp">    -36.74190835 </i>
    <i name="e_0_energy">    -36.75215514 </i>
   </energy>
  </scstep>
  <scstep>
   <time name="dav">    2.60    2.62</time>
   <time name="total">    3.98    4.01</time>
   <energy>
    <i name="e_fr_energy">    -36.75557817 </i>
    <i name="e_wo_entrp">    -36.74237409 </i>
    <i name="e_0_energy">    -36.75117681 </i>
   </energy>
  </scstep>
  <scstep>
   <time name="dav">    2.77    2.80</time>
   <time name="total">    4.28    4.33</time>
   <energy>
    <i name="e_fr_energy">    -36.75534537 </i>
    <i name="e_wo_entrp">    -36.74116425 </i>
    <i name="e_0_energy">    -36.75061833 </i>
   </energy>
  </scstep>
  <scstep>
   <time name="dav">    2.78    2.80</time>
   <time name="total">    4.19    4.21</time>
   <energy>
    <i name="e_fr_energy">    -36.75494102 </i>
    <i name="e_wo_entrp">    -36.74129863 </i>
    <i name="e_0_energy">    -36.75039356 </i>
   </energy>
  </scstep>
  <scstep>
   <time name="dav">    2.59    2.61</time>
   <time name="total">    4.03    4.08</time>
   <energy>
    <i name="e_fr_energy">    -36.75468225 </i>
    <i name="e_wo_entrp">    -36.74074337 </i>
    <i name="e_0_energy">    -36.75003596 </i>
   </energy>
  </scstep>
  <scstep>
   <time name="dav">    2.31    2.31</time>
   <time name="total">    3.72    3.74</time>
   <energy>
    <i name="e_fr_energy">    -36.75558772 </i>
    <i name="e_wo_entrp">    -36.74103511 </i>
    <i name="e_0_energy">    -36.75073685 </i>
   </energy>
  </scstep>
  <scstep>
   <time name="dav">    2.32    2.34</time>
   <time name="total">    3.72    3.75</time>
   <energy>
    <i name="e_fr_energy">    -36.75581520 </i>
    <i name="e_wo_entrp">    -36.74145890 </i>
    <i name="e_0_energy">    -36.75102977 </i>
   </energy>
  </scstep>
  <scstep>
   <time name="dav">    1.84    1.85</time>
   <time name="total">    2.95    2.97</time>
   <energy>
    <i name="alphaZ">      4.46371115 </i>
    <i name="ewald">  13852.52522521 </i>
    <i name="hartreedc"> -23725.68081959 </i>
    <i name="XCdc">    301.79578764 </i>
    <i name="pawpsdc">  10854.77360447 </i>
    <i name="pawaedc"> -11535.72038608 </i>
    <i name="eentropy">     -0.01438999 </i>
    <i name="bandstr">   -565.53693745 </i>
    <i name="atom">  10776.63837129 </i>
    <i name="e_fr_energy">    -36.75583333 </i>
    <i name="e_wo_entrp">    -36.74144334 </i>
    <i name="e_0_energy">    -36.75103667 </i>
   </energy>
  </scstep>
  <structure>
   <crystal>
    <varray name="basis" >
     <v>      21.89443131       0.00000000       0.00000000 </v>
     <v>       0.00000000      23.42070750       0.00000000 </v>
     <v>       0.00000000       0.00000000      22.28103253 </v>
    </varray>
    <i name="volume">  11425.33629857 </i>
    <varray name="rec_basis" >
     <v>       0.04567371       0.00000000       0.00000000 </v>
     <v>       0.00000000       0.04269726       0.00000000 </v>
     <v>       0.00000000       0.00000000       0.04488122 </v>
    </varray>
   </crystal>
   <varray name="positions" >
    <v>       0.48135955       0.59352618       0.51242986 </v>
    <v>       0.55637156       0.52281315       0.50027900 </v>
    <v>       0.45878544       0.56401988       0.41654159 </v>
    <v>       0.47413768       0.47366180       0.46033151 </v>
    <v>       0.54944483       0.51605261       0.39303860 </v>
    <v>       0.39571970       0.53510840       0.49336648 </v>
    <v>       0.57319448       0.43580461       0.44646900 </v>
    <v>       0.55459455       0.60424710       0.43878938 </v>
    <v>       0.46718454       0.50646617       0.56266990 </v>
    <v>       0.53156329       0.43255990       0.54095919 </v>
   </varray>
  </structure>
  <varray name="forces" >
   <v>      -0.03676833       0.04256700       0.09201379 </v>
   <v>      -0.06201074      -0.18243230       0.02897347 </v>
   <v>      -0.01011231       0.02365308      -0.12272219 </v>
   <v>       0.19557993       0.00972406       0.04515852 </v>
   <v>      -0.00299040       0.03028780      -0.05975833 </v>
   <v>      -0.13822248      -0.08403375      -0.00027069 </v>
   <v>      -0.13824169      -0.04539180      -0.08653643 </v>
   <v>       0.13076087       0.07064411      -0.00604241 </v>
   <v>      -0.02501427       0.03466326       0.03402452 </v>
   <v>       0.08701942       0.10031854       0.07515975 </v>
  </varray>
  <energy>
   <i name="e_fr_energy">    -36.75583333 </i>
   <i name="e_wo_entrp">    -36.74144334 </i>
   <i name="e_0_energy">    -36.75103667 </i>
  </energy>
  <time name="totalsc">   59.74   60.13</time>
 </calculation>
 <calculation>
  <scstep>
   <time name="dav">    2.32    2.32</time>
   <time name="total">    3.75    3.76</time>
   <energy>
    <i name="alphaZ">      4.46371115 </i>
    <i name="ewald">  13843.13996887 </i>
    <i name="hartreedc"> -23716.55247376 </i>
    <i name="XCdc">    301.77411501 </i>
    <i name="pawpsdc">  10854.85300363 </i>
    <i name="pawaedc"> -11535.80089930 </i>
    <i name="eentropy">     -0.00980596 </i>
    <i name="bandstr">   -565.26050774 </i>
    <i name="atom">  10776.63837129 </i>
    <i name="e_fr_energy">    -36.75451680 </i>
    <i name="e_wo_entrp">    -36.74471084 </i>
    <i name="e_0_energy">    -36.75124815 </i>
   </energy>
  </scstep>
  <scstep>
   <time name="dav">    2.92    2.95</time>
   <time name="total">    4.32    4.36</time>
   <energy>
    <i name="e_fr_energy">    -36.83351092 </i>
    <i name="e_wo_entrp">    -36.83626794 </i>
    <i name="e_0_energy">    -36.83442993 </i>
   </energy>
  </scstep>
  <scstep>
   <time name="dav">    2.60    2.60</time>
   <time name="total">    4.03    4.04</time>
   <energy>
    <i name="e_fr_energy">    -36.74568928 </i>
    <i name="e_wo_entrp">    -36.73420969 </i>
    <i name="e_0_energy">    -36.74186275 </i>
   </energy>
  </scstep>
  <scstep>
   <time name="dav">    3.07    3.08</time>
   <time name="total">    4.49    4.50</time>
   <energy>
    <i name="e_fr_energy">    -36.77261991 </i>
    <i name="e_wo_entrp">    -36.77025055 </i>
    <i name="e_0_energy">    -36.77183012 </i>
   </energy>
  </scstep>
  <scstep>
   <time name="dav">    2.59    2.59</time>
   <time name="total">    4.04    4.05</time>
   <energy>
    <i name="e_fr_energy">    -36.76269156 </i>
    <i name="e_wo_entrp">    -36.75408680 </i>
    <i name="e_0_energy">    -36.75982331 </i>
   </energy>
  </scstep>
  <scstep>
   <time name="dav">    2.92    2.93</time>
   <time name="total">    4.33    4.34</time>
   <energy>
    <i name="e_fr_energy">    -36.76561640 </i>
    <i name="e_wo_entrp">    -36.75781204 </i>
    <i name="e_0_energy">    -36.76301495 </i>
   </energy>
  </scstep>
  <scstep>
   <time name="dav">    2.63    2.64</time>
   <time name="total">    4.06    4.06</time>
   <energy>
    <i name="e_fr_energy">    -36.76597030 </i>
    <i name="e_wo_entrp">    -36.75923284 </i>
    <i name="e_0_energy">    -36.76372448 </i>
   </energy>
  </scstep>
  <scstep>
   <time name="dav">    2.63    2.64</time>
   <time name="total">    4.06    4.07</time>
   <energy>
    <i name="e_fr_energy">    -36.76599989 </i>
    <i name="e_wo_entrp">    -36.75919562 </i>
    <i name="e_0_energy">    -36.76373180 </i>
   </energy>
  </scstep>
  <scstep>
   <time name="dav">    2.58    2.59</time>
   <time name="total">    3.98    4.00</time>
   <energy>
    <i name="e_fr_energy">    -36.76605699 </i>
    <i name="e_wo_entrp">    -36.75868201 </i>
    <i name="e_0_energy">    -36.76359866 </i>
   </energy>
  </scstep>
  <scstep>
   <time name="dav">    2.70    2.72</time>
   <time name="total">    4.17    4.19</time>
   <energy>
    <i name="e_fr_energy">    -36.76610533 </i>
    <i name="e_wo_entrp">    -36.75948161 </i>
    <i name="e_0_energy">    -36.76389742 </i>
   </energy>
  </scstep>
  <scstep>
   <time name="dav">    2.39    2.42</time>
   <time name="total">    3.81    3.85</time>
   <energy>
    <i name="e_fr_energy">    -36.76642706 </i>
    <i name="e_wo_entrp">    -36.76018776 </i>
    <i name="e_0_energy">    -36.76434729 </i>
   </energy>
  </scstep>
  <scstep>
   <time name="dav">    2.03    2.04</time>
   <time name="total">    3.47    3.49</time>
   <energy>
    <i name="e_fr_energy">    -36.76623599 </i>
    <i name="e_wo_entrp">    -36.75929199 </i>
    <i name="e_0_energy">    -36.76392133 </i>
   </energy>
  </scstep>
  <scstep>
   <time name="dav">    1.80    1.81</time>
   <time name="total">    3.20    3.21</time>
   <energy>
    <i name="e_fr_energy">    -36.76659464 </i>
    <i name="e_wo_entrp">    -36.75961505 </i>
    <i name="e_0_energy">    -36.76426811 </i>
   </energy>
  </scstep>
  <scstep>
   <time name="dav">    1.76    1.77</time>
   <time name="total">    2.93    2.94</time>
   <energy>
    <i name="alphaZ">      4.46371115 </i>
    <i name="ewald">  13843.13996887 </i>
    <i name="hartreedc"> -23715.99471975 </i>
    <i name="XCdc">    301.76872454 </i>
    <i name="pawpsdc">  10849.96975684 </i>
    <i name="pawaedc"> -11530.88333976 </i>
    <i name="eentropy">     -0.00687732 </i>
    <i name="bandstr">   -565.86220708 </i>
    <i name="atom">  10776.63837129 </i>
    <i name="e_fr_energy">    -36.76661122 </i>
    <i name="e_wo_entrp">    -36.75973390 </i>
    <i name="e_0_energy">    -36.76431878 </i>
   </energy>
  </scstep>
  <structure>
   <crystal>
    <varray name="basis" >
     <v>      21.89443131       0.00000000       0.00000000 </v>
     <v>       0.00000000      23.42070750       0.00000000 </v>
     <v>       0.00000000       0.00000000      22.28103253 </v>
    </varray>
    <i name="volume">  11425.33629857 </i>
    <varray name="rec_basis" >
     <v>       0.04567371       0.00000000       0.00000000 </v>
     <v>       0.00000000       0.04269726       0.00000000 </v>
     <v>       0.00000000       0.00000000       0.04488122 </v>
    </varray>
   </crystal>
   <varray name="positions" >
    <v>       0.48149256       0.59359154       0.51271960 </v>
    <v>       0.55642822       0.52242618       0.50061182 </v>
    <v>       0.45863462       0.56389236       0.41617968 </v>
    <v>       0.47457131       0.47355639       0.46024834 </v>
    <v>       0.54952802       0.51625581       0.39283269 </v>
    <v>       0.39552428       0.53462199       0.49321945 </v>
    <v>       0.57227498       0.43583393       0.44595452 </v>
    <v>       0.55501279       0.60417679       0.43898860 </v>
    <v>       0.46698567       0.50657036       0.56278621 </v>
    <v>       0.53190316       0.43333445       0.54133362 </v>
   </varray>
  </structure>
  <varray name="forces" >
   <v>      -0.06349015      -0.02639884      -0.01865293 </v>
   <v>      -0.05234520      -0.04673145      -0.03119139 </v>
   <v>       0.04636890       0.04148648       0.00439058 </v>
   <v>       0.06695749       0.06831866       0.05241147 </v>
   <v>      -0.01309113       0.05612421      -0.04957457 </v>
   <v>      -0.03881130      -0.04962321      -0.01902084 </v>
   <v>      -0.04557315      -0.10779596      -0.07999021 </v>
   <v>       0.05348529       0.01208511       0.02051070 </v>
   <v>      -0.04751501       0.05311296       0.02918615 </v>
   <v>       0.09401426      -0.00057795       0.09193106 </v>
  </varray>
  <energy>
   <i name="e_fr_energy">    -36.76661122 </i>
   <i name="e_wo_entrp">    -36.75973390 </i>
   <i name="e_0_energy">    -36.76431878 </i>
  </energy>
  <time name="totalsc">   58.69   58.98</time>
 </calculation>
 <calculation>
  <scstep>
   <time name="dav">    2.43    2.44</time>
   <time name="total">    3.86    3.86</time>
   <energy>
    <i name="alphaZ">      4.46371115 </i>
    <i name="ewald">  13839.62584671 </i>
    <i name="hartreedc"> -23712.54475268 </i>
    <i name="XCdc">    301.76014729 </i>
    <i name="pawpsdc">  10849.96908830 </i>
    <i name="pawaedc"> -11530.88101613 </i>
    <i name="eentropy">     -0.00532242 </i>
    <i name="bandstr">   -565.79236524 </i>
    <i name="atom">  10776.63837129 </i>
    <i name="e_fr_energy">    -36.76629173 </i>
    <i name="e_wo_entrp">    -36.76096930 </i>
    <i name="e_0_energy">    -36.76451759 </i>
   </energy>
  </scstep>
  <scstep>
   <time name="dav">    3.01    3.03</time>
   <time name="total">    4.66    4.90</time>
   <energy>
    <i name="e_fr_energy">    -36.77419841 </i>
    <i name="e_wo_entrp">    -36.77173136 </i>
    <i name="e_0_energy">    -36.77337606 </i>
   </energy>
  </scstep>
  <scstep>
   <time name="dav">    2.54    2.54</time>
   <time name="total">    3.96    3.97</time>
   <energy>
    <i name="e_fr_energy">    -36.76402724 </i>
    <i name="e_wo_entrp">    -36.75806122 </i>
    <i name="e_0_energy">    -36.76203856 </i>
   </energy>
  </scstep>
  <scstep>
   <time name="dav">    2.96    2.97</time>
   <time name="total">    4.40    4.41</time>
   <energy>
    <i name="e_fr_energy">    -36.76862787 </i>
    <i name="e_wo_entrp">    -36.76631016 </i>
    <i name="e_0_energy">    -36.76785530 </i>
   </energy>
  </scstep>
  <scstep>
   <time name="dav">    2.65    2.65</time>
   <time name="total">    4.07    4.08</time>
   <energy>
    <i name="e_fr_energy">    -36.76713193 </i>
    <i name="e_wo_entrp">    -36.76215552 </i>
    <i name="e_0_energy">    -36.76547313 </i>
   </energy>
  </scstep>
  <scstep>
   <time name="dav">    2.39    2.40</time>
   <time name="total">    3.80    3.82</time>
   <energy>
    <i name="e_fr_energy">    -36.76760584 </i>
    <i name="e_wo_entrp">    -36.76300705 </i>
    <i name="e_0_energy">    -36.76607291 </i>
   </energy>
  </scstep>
  <scstep>
   <time name="dav">    1.80    1.80</time>
   <time name="total">    3.21    3.22</time>
   <energy>
    <i name="e_fr_energy">    -36.76794862 </i>
    <i name="e_wo_entrp">    -36.76366200 </i>
    <i name="e_0_energy">    -36.76651975 </i>
   </energy>
  </scstep>
  <scstep>
   <time name="dav">    1.83    1.84</time>
   <time name="total">    3.29    3.30</time>
   <energy>
    <i name="e_fr_energy">    -36.76776265 </i>
    <i name="e_wo_entrp">    -36.76343394 </i>
    <i name="e_0_energy">    -36.76631975 </i>
   </energy>
  </scstep>
  <scstep>
   <time name="dav">    1.76    1.77</time>
   <time name="total">    3.19    3.19</time>
   <energy>
    <i name="e_fr_energy">    -36.76788839 </i>
    <i name="e_wo_entrp">    -36.76350024 </i>
    <i name="e_0_energy">    -36.76642567 </i>
   </energy>
  </scstep>
  <scstep>
   <time name="dav">    1.77    1.78</time>
   <time name="total">    2.95    2.95</time>
   <energy>
    <i name="alphaZ">      4.46371115 </i>
    <i name="ewald">  13839.62584671 </i>
    <i name="hartreedc"> -23712.34853425 </i>
    <i name="XCdc">    301.75954633 </i>
    <i name="pawpsdc">  10848.51083465 </i>
    <i name="pawaedc"> -11529.41338279 </i>
    <i name="eentropy">     -0.00432969 </i>
    <i name="bandstr">   -566.00001533 </i>
    <i name="atom">  10776.63837129 </i>
    <i name="e_fr_energy">    -36.76795193 </i>
    <i name="e_wo_entrp">    -36.76362224 </i>
    <i name="e_0_energy">    -36.76650870 </i>
   </energy>
  </scstep>
  <structure>
   <crystal>
    <varray name="basis" >
     <v>      21.89443131       0.00000000       0.00000000 </v>
     <v>       0.00000000      23.42070750       0.00000000 </v>
     <v>       0.00000000       0.00000000      22.28103253 </v>
    </varray>
    <i name="volume">  11425.33629857 </i>
    <varray name="rec_basis" >
     <v>       0.04567371       0.00000000       0.00000000 </v>
     <v>       0.00000000       0.04269726       0.00000000 </v>
     <v>       0.00000000       0.00000000       0.04488122 </v>
    </varray>
   </crystal>
   <varray name="positions" >
    <v>       0.48154169       0.59361568       0.51282661 </v>
    <v>       0.55644915       0.52228325       0.50073474 </v>
    <v>       0.45857891       0.56384526       0.41604601 </v>
    <v>       0.47473148       0.47351746       0.46021762 </v>
    <v>       0.54955875       0.51633086       0.39275664 </v>
    <v>       0.39545210       0.53444234       0.49316515 </v>
    <v>       0.57193536       0.43584476       0.44576450 </v>
    <v>       0.55516726       0.60415082       0.43906217 </v>
    <v>       0.46691223       0.50660884       0.56282916 </v>
    <v>       0.53202870       0.43362053       0.54147191 </v>
   </varray>
  </structure>
  <varray name="forces" >
   <v>      -0.07281332      -0.05277150      -0.05836449 </v>
   <v>      -0.04160688       0.00798646      -0.05309251 </v>
   <v>       0.06840161       0.04499852       0.05287596 </v>
   <v>       0.01044096       0.08569772       0.05293029 </v>
   <v>      -0.01790712       0.06341882      -0.04750268 </v>
   <v>      -0.00052794      -0.03820179      -0.02738188 </v>
   <v>      -0.01044902      -0.12913933      -0.07406097 </v>
   <v>       0.02713100      -0.00730073       0.02984058 </v>
   <v>      -0.05802996       0.05989478       0.03389819 </v>
   <v>       0.09536065      -0.03458297       0.09085751 </v>
  </varray>
  <energy>
   <i name="e_fr_energy">    -36.76795193 </i>
   <i name="e_wo_entrp">    -36.76362224 </i>
   <i name="e_0_energy">    -36.76650870 </i>
  </energy>
  <time name="totalsc">   41.44   41.77</time>
 </calculation>
 <calculation>
  <scstep>
   <time name="dav">    2.32    2.33</time>
   <time name="total">    3.77    3.78</time>
   <energy>
    <i name="alphaZ">      4.46371115 </i>
    <i name="ewald">  13833.27331553 </i>
    <i name="hartreedc"> -23706.02586887 </i>
    <i name="XCdc">    301.74797744 </i>
    <i name="pawpsdc">  10848.50103548 </i>
    <i name="pawaedc"> -11529.40627313 </i>
    <i name="eentropy">     -0.00224870 </i>
    <i name="bandstr">   -565.95878518 </i>
    <i name="atom">  10776.63837129 </i>
    <i name="e_fr_energy">    -36.76876499 </i>
    <i name="e_wo_entrp">    -36.76651628 </i>
    <i name="e_0_energy">    -36.76801542 </i>
   </energy>
  </scstep>
  <scstep>
   <time name="dav">    3.14    3.16</time>
   <time name="total">    4.55    4.57</time>
   <energy>
    <i name="e_fr_energy">    -36.78947721 </i>
    <i name="e_wo_entrp">    -36.77538251 </i>
    <i name="e_0_energy">    -36.78477898 </i>
   </energy>
  </scstep>
  <scstep>
   <time name="dav">    2.58    2.58</time>
   <time name="total">    3.98    3.99</time>
   <energy>
    <i name="e_fr_energy">    -36.76918566 </i>
    <i name="e_wo_entrp">    -36.76845433 </i>
    <i name="e_0_energy">    -36.76894188 </i>
   </energy>
  </scstep>
  <scstep>
   <time name="dav">    2.89    2.90</time>
   <time name="total">    4.29    4.30</time>
   <energy>
    <i name="e_fr_energy">    -36.77498159 </i>
    <i name="e_wo_entrp">    -36.77248153 </i>
    <i name="e_0_energy">    -36.77414824 </i>
   </energy>
  </scstep>
  <scstep>
   <time name="dav">    2.54    2.54</time>
   <time name="total">    3.94    3.95</time>
   <energy>
    <i name="e_fr_energy">    -36.77331482 </i>
    <i name="e_wo_entrp">    -36.77010107 </i>
    <i name="e_0_energy">    -36.77224357 </i>
   </energy>
  </scstep>
  <scstep>
   <time name="dav">    2.60    2.60</time>
   <time name="total">    4.03    4.04</time>
   <energy>
    <i name="e_fr_energy">    -36.77324859 </i>
    <i name="e_wo_entrp">    -36.77029427 </i>
    <i name="e_0_energy">    -36.77226381 </i>
   </energy>
  </scstep>
  <scstep>
   <time name="dav">    2.59    2.59</time>
   <time name="total">    3.99    3.99</time>
   <energy>
    <i name="e_fr_energy">    -36.77357364 </i>
    <i name="e_wo_entrp">    -36.77019660 </i>
    <i name="e_0_energy">    -36.77244796 </i>
   </energy>
  </scstep>
  <scstep>
   <time name="dav">    2.52    2.53</time>
   <time name="total">    3.99    4.00</time>
   <energy>
[...]
       <r>    -1.6496     1.2737    60.0142 </r>
       <r>    -1.6031     0.4127    60.0334 </r>
       <r>    -1.5566    -0.0911    60.0291 </r>
       <r>    -1.5100    -0.3114    60.0146 </r>
       <r>    -1.4635    -0.3881    59.9966 </r>
       <r>    -1.4169    -0.4225    59.9769 </r>
       <r>    -1.3704    -0.4190    59.9574 </r>
       <r>    -1.3239    -0.2779    59.9445 </r>
       <r>    -1.2773     0.1666    59.9522 </r>
       <r>    -1.2308     1.0733    60.0022 </r>
       <r>    -1.1843     2.5089    60.1189 </r>
       <r>    -1.1377     4.3876    60.3231 </r>
       <r>    -1.0912     6.4573    60.6236 </r>
       <r>    -1.0447     8.3303    61.0113 </r>
       <r>    -0.9981     9.5582    61.4561 </r>
       <r>    -0.9516     9.7648    61.9105 </r>
       <r>    -0.9050     8.8284    62.3213 </r>
       <r>    -0.8585     7.0207    62.6481 </r>
       <r>    -0.8120     4.9638    62.8790 </r>
       <r>    -0.7654     3.3614    63.0355 </r>
       <r>    -0.7189     2.6439    63.1585 </r>
       <r>    -0.6724     2.7692    63.2874 </r>
       <r>    -0.6258     3.3267    63.4422 </r>
       <r>    -0.5793     3.8570    63.6217 </r>
       <r>    -0.5328     4.1361    63.8142 </r>
       <r>    -0.4862     4.2161    64.0104 </r>
       <r>    -0.4397     4.2452    64.2079 </r>
       <r>    -0.3931     4.2818    64.4072 </r>
       <r>    -0.3466     4.2808    64.6064 </r>
       <r>    -0.3001     4.2208    64.8028 </r>
       <r>    -0.2535     4.1767    64.9972 </r>
       <r>    -0.2070     4.2310    65.1941 </r>
       <r>    -0.1605     4.3256    65.3954 </r>
       <r>    -0.1139     4.2453    65.5929 </r>
       <r>    -0.0674     3.7783    65.7688 </r>
       <r>    -0.0209     2.9040    65.9039 </r>
       <r>     0.0257     1.8292    65.9890 </r>
       <r>     0.0722     0.8511    66.0286 </r>
       <r>     0.1188     0.1775    66.0369 </r>
       <r>     0.1653    -0.1536    66.0297 </r>
       <r>     0.2118    -0.2336    66.0189 </r>
       <r>     0.2584    -0.1898    66.0100 </r>
       <r>     0.3049    -0.1169    66.0046 </r>
       <r>     0.3514    -0.0593    66.0018 </r>
       <r>     0.3980    -0.0256    66.0006 </r>
       <r>     0.4445    -0.0096    66.0002 </r>
       <r>     0.4910    -0.0031    66.0001 </r>
       <r>     0.5376    -0.0009    66.0000 </r>
       <r>     0.5841    -0.0002    66.0000 </r>
       <r>     0.6307    -0.0001    66.0000 </r>
       <r>     0.6772    -0.0000    66.0000 </r>
       <r>     0.7237    -0.0000    66.0000 </r>
       <r>     0.7703    -0.0000    66.0000 </r>
       <r>     0.8168    -0.0000    66.0000 </r>
       <r>     0.8633    -0.0000    66.0000 </r>
       <r>     0.9099    -0.0000    66.0000 </r>
       <r>     0.9564    -0.0000    66.0000 </r>
       <r>     1.0029    -0.0000    66.0000 </r>
       <r>     1.0495    -0.0000    66.0000 </r>
       <r>     1.0960    -0.0000    66.0000 </r>
       <r>     1.1425     0.0000    66.0000 </r>
       <r>     1.1891     0.0000    66.0000 </r>
       <r>     1.2356     0.0000    66.0000 </r>
       <r>     1.2822     0.0000    66.0000 </r>
       <r>     1.3287     0.0000    66.0000 </r>
       <r>     1.3752     0.0000    66.0000 </r>
       <r>     1.4218     0.0000    66.0000 </r>
       <r>     1.4683     0.0000    66.0000 </r>
       <r>     1.5148     0.0000    66.0000 </r>
       <r>     1.5614     0.0000    66.0000 </r>
       <r>     1.6079     0.0000    66.0000 </r>
       <r>     1.6544     0.0000    66.0000 </r>
       <r>     1.7010     0.0000    66.0000 </r>
       <r>     1.7475     0.0000    66.0000 </r>
       <r>     1.7941     0.0000    66.0000 </r>
       <r>     1.8406     0.0000    66.0000 </r>
       <r>     1.8871     0.0000    66.0000 </r>
       <r>     1.9337     0.0000    66.0000 </r>
       <r>     1.9802     0.0000    66.0000 </r>
      </set>
      <set comment="spin 2">
       <r>   -11.9807     0.0000     0.0000 </r>
       <r>   -11.9341     0.0000     0.0000 </r>
       <r>   -11.8876     0.0000     0.0000 </r>
       <r>   -11.8411     0.0000     0.0000 </r>
       <r>   -11.7945     0.0000     0.0000 </r>
       <r>   -11.7480     0.0000     0.0000 </r>
       <r>   -11.7015     0.0000     0.0000 </r>
       <r>   -11.6549     0.0000     0.0000 </r>
       <r>   -11.6084    -0.0000    -0.0000 </r>
       <r>   -11.5618    -0.0000    -0.0000 </r>
       <r>   -11.5153    -0.0000    -0.0000 </r>
       <r>   -11.4688    -0.0000    -0.0000 </r>
       <r>   -11.4222    -0.0000    -0.0000 </r>
       <r>   -11.3757    -0.0000    -0.0000 </r>
       <r>   -11.3292    -0.0000    -0.0000 </r>
       <r>   -11.2826    -0.0000    -0.0000 </r>
       <r>   -11.2361    -0.0000    -0.0000 </r>
       <r>   -11.1896    -0.0000    -0.0000 </r>
       <r>   -11.1430    -0.0000    -0.0000 </r>
       <r>   -11.0965    -0.0000    -0.0000 </r>
       <r>   -11.0499    -0.0000    -0.0000 </r>
       <r>   -11.0034    -0.0000    -0.0000 </r>
       <r>   -10.9569    -0.0000    -0.0000 </r>
       <r>   -10.9103    -0.0000    -0.0000 </r>
       <r>   -10.8638    -0.0000    -0.0000 </r>
       <r>   -10.8173    -0.0000    -0.0000 </r>
       <r>   -10.7707    -0.0000    -0.0000 </r>
       <r>   -10.7242    -0.0000    -0.0000 </r>
       <r>   -10.6777    -0.0001    -0.0000 </r>
       <r>   -10.6311    -0.0003    -0.0000 </r>
       <r>   -10.5846    -0.0011    -0.0001 </r>
       <r>   -10.5380    -0.0037    -0.0002 </r>
       <r>   -10.4915    -0.0112    -0.0008 </r>
       <r>   -10.4450    -0.0293    -0.0021 </r>
       <r>   -10.3984    -0.0662    -0.0052 </r>
       <r>   -10.3519    -0.1268    -0.0111 </r>
       <r>   -10.3054    -0.1973    -0.0203 </r>
       <r>   -10.2588    -0.2238    -0.0307 </r>
       <r>   -10.2123    -0.0992    -0.0353 </r>
       <r>   -10.1658     0.3117    -0.0208 </r>
       <r>   -10.1192     1.0936     0.0301 </r>
       <r>   -10.0727     2.1764     0.1314 </r>
       <r>   -10.0261     3.2903     0.2845 </r>
       <r>    -9.9796     4.0498     0.4729 </r>
       <r>    -9.9331     4.1508     0.6661 </r>
       <r>    -9.8865     3.5507     0.8313 </r>
       <r>    -9.8400     2.4952     0.9475 </r>
       <r>    -9.7935     1.3692     1.0112 </r>
       <r>    -9.7469     0.4891     1.0339 </r>
       <r>    -9.7004    -0.0202     1.0330 </r>
       <r>    -9.6539    -0.2103     1.0232 </r>
       <r>    -9.6073    -0.2125     1.0133 </r>
       <r>    -9.5608    -0.1465     1.0065 </r>
       <r>    -9.5142    -0.0806     1.0028 </r>
       <r>    -9.4677    -0.0372     1.0010 </r>
       <r>    -9.4212    -0.0148     1.0003 </r>
       <r>    -9.3746    -0.0051     1.0001 </r>
       <r>    -9.3281    -0.0016     1.0000 </r>
       <r>    -9.2816    -0.0004     1.0000 </r>
       <r>    -9.2350    -0.0001     1.0000 </r>
       <r>    -9.1885    -0.0000     1.0000 </r>
       <r>    -9.1420    -0.0000     1.0000 </r>
       <r>    -9.0954    -0.0000     1.0000 </r>
       <r>    -9.0489    -0.0000     1.0000 </r>
       <r>    -9.0023    -0.0000     1.0000 </r>
       <r>    -8.9558    -0.0000     1.0000 </r>
       <r>    -8.9093    -0.0000     1.0000 </r>
       <r>    -8.8627    -0.0000     1.0000 </r>
       <r>    -8.8162    -0.0000     1.0000 </r>
       <r>    -8.7697    -0.0002     1.0000 </r>
       <r>    -8.7231    -0.0006     1.0000 </r>
       <r>    -8.6766    -0.0023     0.9999 </r>
       <r>    -8.6301    -0.0073     0.9995 </r>
       <r>    -8.5835    -0.0204     0.9986 </r>
       <r>    -8.5370    -0.0491     0.9963 </r>
       <r>    -8.4905    -0.1015     0.9916 </r>
       <r>    -8.4439    -0.1755     0.9834 </r>
       <r>    -8.3974    -0.2397     0.9722 </r>
       <r>    -8.3508    -0.2149     0.9622 </r>
       <r>    -8.3043     0.0214     0.9632 </r>
       <r>    -8.2578     0.5854     0.9905 </r>
       <r>    -8.2112     1.5044     1.0605 </r>
       <r>    -8.1647     2.6577     1.1842 </r>
       <r>    -8.1182     3.8083     1.3614 </r>
       <r>    -8.0716     4.7233     1.5812 </r>
       <r>    -8.0251     5.2861     1.8272 </r>
       <r>    -7.9786     5.5009     2.0832 </r>
       <r>    -7.9320     5.3981     2.3344 </r>
       <r>    -7.8855     4.9590     2.5652 </r>
       <r>    -7.8389     4.1541     2.7585 </r>
       <r>    -7.7924     3.0453     2.9002 </r>
       <r>    -7.7459     1.8251     2.9851 </r>
       <r>    -7.6993     0.7408     3.0196 </r>
       <r>    -7.6528    -0.0220     3.0186 </r>
       <r>    -7.6063    -0.3852     3.0006 </r>
       <r>    -7.5597    -0.3343     2.9851 </r>
       <r>    -7.5132     0.1369     2.9915 </r>
       <r>    -7.4667     1.0092     3.0384 </r>
       <r>    -7.4201     2.1528     3.1386 </r>
       <r>    -7.3736     3.2708     3.2908 </r>
       <r>    -7.3270     3.9681     3.4755 </r>
       <r>    -7.2805     3.9420     3.6589 </r>
       <r>    -7.2340     3.1690     3.8064 </r>
       <r>    -7.1874     1.9567     3.8975 </r>
       <r>    -7.1409     0.8322     3.9362 </r>
       <r>    -7.0944     0.3529     3.9526 </r>
       <r>    -7.0478     0.9312     3.9959 </r>
       <r>    -7.0013     2.6962     4.1214 </r>
       <r>    -6.9548     5.3860     4.3721 </r>
       <r>    -6.9082     8.3225     4.7594 </r>
       <r>    -6.8617    10.5697     5.2512 </r>
       <r>    -6.8151    11.3015     5.7772 </r>
       <r>    -6.7686    10.2278     6.2531 </r>
       <r>    -6.7221     7.8098     6.6166 </r>
       <r>    -6.6755     5.0883     6.8533 </r>
       <r>    -6.6290     3.1940     7.0020 </r>
       <r>    -6.5825     2.8261     7.1335 </r>
       <r>    -6.5359     4.0037     7.3198 </r>
       <r>    -6.4894     6.2116     7.6089 </r>
       <r>    -6.4429     8.7988     8.0183 </r>
       <r>    -6.3963    11.3200     8.5451 </r>
       <r>    -6.3498    13.5762     9.1769 </r>
       <r>    -6.3032    15.3968     9.8934 </r>
       <r>    -6.2567    16.4710    10.6599 </r>
       <r>    -6.2102    16.4742    11.4266 </r>
       <r>    -6.1636    15.3844    12.1425 </r>
       <r>    -6.1171    13.6162    12.7762 </r>
       <r>    -6.0706    11.7708    13.3239 </r>
       <r>    -6.0240    10.2218    13.7996 </r>
       <r>    -5.9775     8.9483    14.2160 </r>
       <r>    -5.9310     7.7560    14.5770 </r>
       <r>    -5.8844     6.6264    14.8853 </r>
       <r>    -5.8379     5.8472    15.1574 </r>
       <r>    -5.7913     5.8371    15.4291 </r>
       <r>    -5.7448     6.8370    15.7472 </r>
       <r>    -5.6983     8.6759    16.1510 </r>
       <r>    -5.6517    10.7324    16.6504 </r>
       <r>    -5.6052    12.1481    17.2158 </r>
       <r>    -5.5587    12.2604    17.7863 </r>
       <r>    -5.5121    11.0395    18.3000 </r>
       <r>    -5.4656     9.1977    18.7281 </r>
       <r>    -5.4191     7.8167    19.0918 </r>
       <r>    -5.3725     7.7238    19.4513 </r>
       <r>    -5.3260     9.0709    19.8734 </r>
       <r>    -5.2795    11.3833    20.4031 </r>
       <r>    -5.2329    13.9460    21.0521 </r>
       <r>    -5.1864    16.1720    21.8047 </r>
       <r>    -5.1398    17.7283    22.6297 </r>
       <r>    -5.0933    18.4790    23.4897 </r>
       <r>    -5.0468    18.4308    24.3474 </r>
       <r>    -5.0002    17.7393    25.1729 </r>
       <r>    -4.9537    16.6789    25.9490 </r>
       <r>    -4.9072    15.5050    26.6706 </r>
       <r>    -4.8606    14.3090    27.3365 </r>
       <r>    -4.8141    13.0278    27.9427 </r>
       <r>    -4.7676    11.6248    28.4837 </r>
       <r>    -4.7210    10.2780    28.9620 </r>
       <r>    -4.6745     9.4071    29.3998 </r>
       <r>    -4.6279     9.5188    29.8428 </r>
       <r>    -4.5814    10.9805    30.3537 </r>
       <r>    -4.5349    13.8303    30.9974 </r>
       <r>    -4.4883    17.6753    31.8199 </r>
       <r>    -4.4418    21.7138    32.8304 </r>
       <r>    -4.3953    24.9313    33.9906 </r>
       <r>    -4.3487    26.4759    35.2227 </r>
       <r>    -4.3022    26.0773    36.4362 </r>
       <r>    -4.2557    24.2510    37.5648 </r>
       <r>    -4.2091    22.0855    38.5925 </r>
       <r>    -4.1626    20.6786    39.5548 </r>
       <r>    -4.1160    20.5619    40.5117 </r>
       <r>    -4.0695    21.4888    41.5117 </r>
       <r>    -4.0230    22.7138    42.5687 </r>
       <r>    -3.9764    23.5511    43.6647 </r>
       <r>    -3.9299    23.8195    44.7732 </r>
       <r>    -3.8834    23.8755    45.8843 </r>
       <r>    -3.8368    24.2341    47.0120 </r>
       <r>    -3.7903    25.0679    48.1786 </r>
       <r>    -3.7438    25.9460    49.3860 </r>
       <r>    -3.6972    25.9905    50.5955 </r>
       <r>    -3.6507    24.3523    51.7288 </r>
       <r>    -3.6041    20.7161    52.6928 </r>
       <r>    -3.5576    15.5367    53.4158 </r>
       <r>    -3.5111     9.8629    53.8748 </r>
       <r>    -3.4645     4.8479    54.1004 </r>
       <r>    -3.4180     1.2519    54.1587 </r>
       <r>    -3.3715    -0.7669    54.1230 </r>
       <r>    -3.3249    -1.4920    54.0536 </r>
       <r>    -3.2784    -1.2997    53.9931 </r>
       <r>    -3.2319    -0.4005    53.9744 </r>
       <r>    -3.1853     1.1564    54.0283 </r>
       <r>    -3.1388     3.2643    54.1802 </r>
       <r>    -3.0922     5.5400    54.4380 </r>
       <r>    -3.0457     7.3414    54.7796 </r>
       <r>    -2.9992     8.0733    55.1553 </r>
       <r>    -2.9526     7.5751    55.5078 </r>
       <r>    -2.9061     6.2668    55.7995 </r>
       <r>    -2.8596     4.8928    56.0272 </r>
       <r>    -2.8130     4.0404    56.2152 </r>
       <r>    -2.7665     3.7968    56.3919 </r>
       <r>    -2.7200     3.7901    56.5682 </r>
       <r>    -2.6734     3.5367    56.7328 </r>
       <r>    -2.6269     2.7973    56.8630 </r>
       <r>    -2.5803     1.7024    56.9422 </r>
       <r>    -2.5338     0.6323    56.9717 </r>
       <r>    -2.4873     0.0144    56.9723 </r>
       <r>    -2.4407     0.1743    56.9804 </r>
       <r>    -2.3942     1.2491    57.0386 </r>
       <r>    -2.3477     3.1108    57.1833 </r>
       <r>    -2.3011     5.3156    57.4307 </r>
       <r>    -2.2546     7.1790    57.7648 </r>
       <r>    -2.2081     8.0338    58.1386 </r>
       <r>    -2.1615     7.5562    58.4903 </r>
       <r>    -2.1150     5.9396    58.7667 </r>
       <r>    -2.0685     3.7780    58.9425 </r>
       <r>    -2.0219     1.7455    59.0237 </r>
       <r>    -1.9754     0.3071    59.0380 </r>
       <r>    -1.9288    -0.3688    59.0209 </r>
       <r>    -1.8823    -0.3178    59.0061 </r>
       <r>    -1.8358     0.3416    59.0220 </r>
       <r>    -1.7892     1.4351    59.0887 </r>
       <r>    -1.7427     2.6874    59.2138 </r>
       <r>    -1.6962     3.7208    59.3870 </r>
       <r>    -1.6496     4.1749    59.5812 </r>
       <r>    -1.6031     3.8881    59.7622 </r>
       <r>    -1.5566     2.9938    59.9015 </r>
       <r>    -1.5100     1.8411    59.9872 </r>
       <r>    -1.4635     0.7939    60.0241 </r>
       <r>    -1.4169     0.0589    60.0269 </r>
       <r>    -1.3704    -0.3506    60.0106 </r>
       <r>    -1.3239    -0.5244    59.9861 </r>
       <r>    -1.2773    -0.5261    59.9617 </r>
       <r>    -1.2308    -0.3142    59.9470 </r>
       <r>    -1.1843     0.2457    59.9585 </r>
       <r>    -1.1377     1.2880    60.0184 </r>
       <r>    -1.0912     2.8309    60.1501 </r>
       <r>    -1.0447     4.7091    60.3693 </r>
       <r>    -0.9981     6.6018    60.6765 </r>
       <r>    -0.9516     8.1362    61.0551 </r>
       <r>    -0.9050     9.0003    61.4740 </r>
       <r>    -0.8585     9.0123    61.8934 </r>
       <r>    -0.8120     8.1545    62.2729 </r>
       <r>    -0.7654     6.5974    62.5799 </r>
       <r>    -0.7189     4.7063    62.7989 </r>
       <r>    -0.6724     2.9771    62.9374 </r>
       <r>    -0.6258     1.8765    63.0248 </r>
       <r>    -0.5793     1.6423    63.1012 </r>
       <r>    -0.5328     2.1682    63.2021 </r>
       <r>    -0.4862     3.0696    63.3449 </r>
       <r>    -0.4397     3.9089    63.5268 </r>
       <r>    -0.3931     4.4314    63.7331 </r>
       <r>    -0.3466     4.6448    63.9492 </r>
       <r>    -0.3001     4.7078    64.1683 </r>
       <r>    -0.2535     4.7587    64.3898 </r>
       <r>    -0.2070     4.8381    64.6149 </r>
       <r>    -0.1605     4.9282    64.8442 </r>
       <r>    -0.1139     4.9972    65.0768 </r>
       <r>    -0.0674     4.9801    65.3085 </r>
       <r>    -0.0209     4.7503    65.5296 </r>
       <r>     0.0257     4.1779    65.7240 </r>
       <r>     0.0722     3.2492    65.8752 </r>
       <r>     0.1188     2.1270    65.9742 </r>
       <r>     0.1653     1.0748    66.0242 </r>
       <r>     0.2118     0.3078    66.0386 </r>
       <r>     0.2584    -0.1067    66.0336 </r>
       <r>     0.3049    -0.2387    66.0225 </r>
       <r>     0.3514    -0.2143    66.0125 </r>
       <r>     0.3980    -0.1406    66.0060 </r>
       <r>     0.4445    -0.0751    66.0025 </r>
       <r>     0.4910    -0.0339    66.0009 </r>
       <r>     0.5376    -0.0132    66.0003 </r>
       <r>     0.5841    -0.0045    66.0001 </r>
       <r>     0.6307    -0.0013    66.0000 </r>
       <r>     0.6772    -0.0004    66.0000 </r>
       <r>     0.7237    -0.0001    66.0000 </r>
       <r>     0.7703    -0.0000    66.0000 </r>
       <r>     0.8168    -0.0000    66.0000 </r>
       <r>     0.8633    -0.0000    66.0000 </r>
       <r>     0.9099    -0.0000    66.0000 </r>
       <r>     0.9564    -0.0000    66.0000 </r>
       <r>     1.0029    -0.0000    66.0000 </r>
       <r>     1.0495    -0.0000    66.0000 </r>
       <r>     1.0960    -0.0000    66.0000 </r>
       <r>     1.1425    -0.0000    66.0000 </r>
       <r>     1.1891    -0.0000    66.0000 </r>
       <r>     1.2356    -0.0000    66.0000 </r>
       <r>     1.2822     0.0000    66.0000 </r>
       <r>     1.3287     0.0000    66.0000 </r>
       <r>     1.3752     0.0000    66.0000 </r>
       <r>     1.4218     0.0000    66.0000 </r>
       <r>     1.4683     0.0000    66.0000 </r>
       <r>     1.5148     0.0000    66.0000 </r>
       <r>     1.5614     0.0000    66.0000 </r>
       <r>     1.6079     0.0000    66.0000 </r>
       <r>     1.6544     0.0000    66.0000 </r>
       <r>     1.7010     0.0000    66.0000 </r>
       <r>     1.7475     0.0000    66.0000 </r>
       <r>     1.7941     0.0000    66.0000 </r>
       <r>     1.8406     0.0000    66.0000 </r>
       <r>     1.8871     0.0000    66.0000 </r>
       <r>     1.9337     0.0000    66.0000 </r>
       <r>     1.9802     0.0000    66.0000 </r>
      </set>
     </set>
    </array>
   </total>
  </dos>
 </calculation>
 <structure name="finalpos" >
  <crystal>
   <varray name="basis" >
    <v>      21.89443131       0.00000000       0.00000000 </v>
    <v>       0.00000000      23.42070750       0.00000000 </v>
    <v>       0.00000000       0.00000000      22.28103253 </v>
   </varray>
   <i name="volume">  11425.33629857 </i>
   <varray name="rec_basis" >
    <v>       0.04567371       0.00000000       0.00000000 </v>
    <v>       0.00000000       0.04269726       0.00000000 </v>
    <v>       0.00000000       0.00000000       0.04488122 </v>
   </varray>
  </crystal>
  <varray name="positions" >
   <v>       0.48064146       0.59290617       0.51242962 </v>
   <v>       0.55670988       0.52233234       0.50004808 </v>
   <v>       0.45936381       0.56432703       0.41613327 </v>
   <v>       0.47460474       0.47406373       0.46109242 </v>
   <v>       0.54956450       0.51667463       0.39280246 </v>
   <v>       0.39474528       0.53357445       0.49230076 </v>
   <v>       0.56966180       0.43440669       0.44454062 </v>
   <v>       0.55619250       0.60438892       0.44007706 </v>
   <v>       0.46654866       0.50673588       0.56297230 </v>
   <v>       0.53432298       0.43484995       0.54247794 </v>
  </varray>
 </structure>
</modeling>
