unknown system                          
            1
    21.894431    0.000000    0.000000
     0.000000   23.420708    0.000000
     0.000000    0.000000   22.281033
   Ni
    10
Direct configuration=     1
   0.47983944  0.59609240  0.51446961
   0.55809064  0.52336050  0.50080042
   0.45793729  0.56576255  0.41376440
   0.47244043  0.47224012  0.45985087
   0.54985579  0.51512296  0.39045314
   0.39158234  0.53632751  0.49429748
   0.57753547  0.43309071  0.44667738
   0.55626318  0.60784737  0.43706856
   0.46716034  0.50630872  0.56539306
   0.53165069  0.42810697  0.54209960
Direct configuration=     2
   0.48017912  0.59455227  0.51313354
   0.55624122  0.52251454  0.49981914
   0.45881630  0.56512976  0.41551921
   0.47415362  0.47355224  0.46078566
   0.54933332  0.51545605  0.39221211
   0.39365000  0.53610864  0.49406217
   0.57584898  0.43445497  0.44715258
   0.55519088  0.60620709  0.43763929
   0.46748355  0.50642382  0.56355639
   0.53145863  0.42986043  0.54099444
Direct configuration=     3
   0.48034677  0.59379214  0.51247412
   0.55532844  0.52209703  0.49933484
   0.45925013  0.56481745  0.41638529
   0.47499915  0.47419983  0.46124702
   0.54907545  0.51562045  0.39308024
   0.39467049  0.53600062  0.49394604
   0.57501661  0.43512829  0.44738711
   0.55466165  0.60539753  0.43792097
   0.46764307  0.50648063  0.56264991
   0.53136384  0.43072584  0.54044899
Direct configuration=     4
   0.48069927  0.59369957  0.51245872
   0.55569150  0.52234628  0.49966346
   0.45908840  0.56453985  0.41643969
   0.47469931  0.47401257  0.46092837
   0.54920402  0.51577086  0.39306575
   0.39503567  0.53569008  0.49374432
   0.57438241  0.43536369  0.44706756
   0.55463830  0.60499712  0.43822322
   0.46748348  0.50647560  0.56265687
   0.53143326  0.43136419  0.54062656
Direct configuration=     5
   0.48135955  0.59352618  0.51242986
   0.55637156  0.52281315  0.50027900
   0.45878544  0.56401988  0.41654159
   0.47413768  0.47366180  0.46033151
   0.54944483  0.51605261  0.39303860
   0.39571970  0.53510840  0.49336648
   0.57319448  0.43580461  0.44646900
   0.55459455  0.60424710  0.43878938
   0.46718454  0.50646617  0.56266990
   0.53156329  0.43255990  0.54095919
Direct configuration=     6
   0.48149256  0.59359154  0.51271960
   0.55642822  0.52242618  0.50061182
   0.45863462  0.56389236  0.41617968
   0.47457131  0.47355639  0.46024834
   0.54952802  0.51625581  0.39283269
   0.39552428  0.53462199  0.49321945
   0.57227498  0.43583393  0.44595452
   0.55501279  0.60417679  0.43898860
   0.46698567  0.50657036  0.56278621
   0.53190316  0.43333445  0.54133362
Direct configuration=     7
   0.48154169  0.59361568  0.51282661
   0.55644915  0.52228325  0.50073474
   0.45857891  0.56384526  0.41604601
   0.47473148  0.47351746  0.46021762
   0.54955875  0.51633086  0.39275664
   0.39545210  0.53444234  0.49316515
   0.57193536  0.43584476  0.44576450
   0.55516726  0.60415082  0.43906217
   0.46691223  0.50660884  0.56282916
   0.53202870  0.43362053  0.54147191
Direct configuration=     8
   0.48132195  0.59345927  0.51270980
   0.55631770  0.52219220  0.50064956
   0.45877747  0.56395679  0.41612159
   0.47490072  0.47377169  0.46037819
   0.54952006  0.51660455  0.39252718
   0.39539076  0.53416674  0.49302427
   0.57161828  0.43542225  0.44534790
   0.55539146  0.60410504  0.43922757
   0.46664434  0.50684064  0.56298359
   0.53247289  0.43374064  0.54190489
Direct configuration=     9
   0.48108071  0.59328755  0.51258157
   0.55617339  0.52209225  0.50055603
   0.45899545  0.56407924  0.41620456
   0.47508651  0.47405078  0.46055446
   0.54947759  0.51690501  0.39227527
   0.39532341  0.53386417  0.49286960
   0.57127017  0.43495842  0.44489054
   0.55563759  0.60405478  0.43940915
   0.46635026  0.50709511  0.56315312
   0.53296053  0.43387250  0.54238022
Direct configuration=    10
   0.48079056  0.59320672  0.51239510
   0.55626089  0.52201866  0.50038061
   0.45914618  0.56432009  0.41628348
   0.47508870  0.47402520  0.46078391
   0.54956030  0.51681586  0.39219505
   0.39509706  0.53366010  0.49261937
   0.57068856  0.43474920  0.44467932
   0.55596685  0.60424222  0.43966341
   0.46631740  0.50702248  0.56336441
   0.53343911  0.43419928  0.54250987
Direct configuration=    11
   0.48066516  0.59317178  0.51231451
   0.55629870  0.52198686  0.50030479
   0.45921133  0.56442418  0.41631758
   0.47508965  0.47401414  0.46088308
   0.54959605  0.51677734  0.39216039
   0.39499923  0.53357190  0.49251123
   0.57043720  0.43465877  0.44458803
   0.55610915  0.60432323  0.43977329
   0.46630320  0.50699109  0.56345572
   0.53364594  0.43434052  0.54256590
Direct configuration=    12
   0.48061375  0.59305421  0.51230600
   0.55657784  0.52227762  0.50018935
   0.45932228  0.56446915  0.41625670
   0.47471513  0.47396663  0.46100520
   0.54961998  0.51673185  0.39236041
   0.39491620  0.53349247  0.49239665
   0.57007032  0.43451391  0.44453954
   0.55617250  0.60429129  0.43999340
   0.46641639  0.50685198  0.56328317
   0.53393123  0.43461068  0.54254412
Direct configuration=    13
   0.48059892  0.59302030  0.51230354
   0.55665833  0.52236147  0.50015605
   0.45935428  0.56448212  0.41623915
   0.47460712  0.47395294  0.46104042
   0.54962688  0.51671873  0.39241809
   0.39489226  0.53346956  0.49236361
   0.56996452  0.43447214  0.44452555
   0.55619077  0.60428208  0.44005687
   0.46644903  0.50681187  0.56323340
   0.53401350  0.43468860  0.54253783
Direct configuration=    14
   0.48063448  0.59292490  0.51240892
   0.55670142  0.52233713  0.50006580
   0.45936224  0.56435249  0.41615065
   0.47460513  0.47404554  0.46108388
   0.54957474  0.51668187  0.39273936
   0.39476941  0.53355723  0.49231108
   0.56971149  0.43441743  0.44453814
   0.55619222  0.60437138  0.44007374
   0.46653230  0.50674835  0.56301517
   0.53427218  0.43482346  0.54248777
Direct configuration=    15
   0.48064146  0.59290617  0.51242962
   0.55670988  0.52233234  0.50004808
   0.45936381  0.56432703  0.41613327
   0.47460474  0.47406373  0.46109242
   0.54956450  0.51667463  0.39280246
   0.39474528  0.53357445  0.49230076
   0.56966180  0.43440669  0.44454062
   0.55619250  0.60438892  0.44007706
   0.46654866  0.50673588  0.56297230
   0.53432298  0.43484995  0.54247794
