   8   8   0   0
  0.1421408E+04  0.2238768E-08  0.2280516E-08  0.2227237E-08  0.5000000E-15
   1.0000000000000000E-004
  CAR 
 unknown system                          
      2.01658286    -12.79625580  301     -5.17173252      1.00000000
    -12.796  0.0000E+00  0.0000E+00  0.0000E+00  0.0000E+00
    -12.747  0.0000E+00  0.0000E+00  0.0000E+00  0.0000E+00
    -12.698  0.0000E+00  0.0000E+00  0.0000E+00  0.0000E+00
    -12.648  0.0000E+00  0.0000E+00  0.0000E+00  0.0000E+00
    -12.599  0.0000E+00  0.0000E+00  0.0000E+00  0.0000E+00
    -12.549  0.0000E+00  0.0000E+00  0.0000E+00  0.0000E+00
    -12.500  0.0000E+00  0.0000E+00  0.0000E+00  0.0000E+00
    -12.451  0.0000E+00  0.0000E+00  0.0000E+00  0.0000E+00
    -12.401 -0.4929E-29 -0.4929E-29 -0.2434E-30 -0.2434E-30
    -12.352 -0.2315E-27 -0.2315E-27 -0.1167E-28 -0.1167E-28
    -12.302 -0.9788E-26 -0.9788E-26 -0.4950E-27 -0.4950E-27
    -12.253 -0.3659E-24 -0.3659E-24 -0.1856E-25 -0.1856E-25
    -12.204 -0.1209E-22 -0.1209E-22 -0.6154E-24 -0.6154E-24
    -12.154 -0.3529E-21 -0.3529E-21 -0.1804E-22 -0.1804E-22
    -12.105 -0.9105E-20 -0.9105E-20 -0.4676E-21 -0.4676E-21
    -12.056 -0.2075E-18 -0.2075E-18 -0.1071E-19 -0.1071E-19
    -12.006 -0.4177E-17 -0.4177E-17 -0.2169E-18 -0.2169E-18
    -11.957 -0.7199E-16 -0.7199E-16 -0.3772E-17 -0.3772E-17
    -11.907 -0.1128E-14 -0.1128E-14 -0.5946E-16 -0.5946E-16
    -11.858 -0.1556E-13 -0.1556E-13 -0.8279E-15 -0.8279E-15
    -11.809 -0.1894E-12 -0.1894E-12 -0.1018E-13 -0.1018E-13
    -11.759 -0.2032E-11 -0.2032E-11 -0.1105E-12 -0.1105E-12
    -11.710 -0.1920E-10 -0.1920E-10 -0.1058E-11 -0.1058E-11
    -11.661 -0.1596E-09 -0.1596E-09 -0.8938E-11 -0.8938E-11
    -11.611 -0.1166E-08 -0.1166E-08 -0.6654E-10 -0.6654E-10
    -11.562 -0.7488E-08 -0.7488E-08 -0.4363E-09 -0.4363E-09
    -11.512 -0.4214E-07 -0.4214E-07 -0.2517E-08 -0.2517E-08
    -11.463 -0.2076E-06 -0.2076E-06 -0.1277E-07 -0.1277E-07
    -11.414 -0.8925E-06 -0.8925E-06 -0.5683E-07 -0.5683E-07
    -11.364 -0.3337E-05 -0.3337E-05 -0.2216E-06 -0.2216E-06
    -11.315 -0.1079E-04 -0.1079E-04 -0.7546E-06 -0.7546E-06
    -11.266 -0.2997E-04 -0.2997E-04 -0.2234E-05 -0.2234E-05
    -11.216 -0.7048E-04 -0.7048E-04 -0.5715E-05 -0.5715E-05
    -11.167 -0.1370E-03 -0.1370E-03 -0.1248E-04 -0.1248E-04
    -11.117 -0.2087E-03 -0.2087E-03 -0.2279E-04 -0.2279E-04
    -11.068 -0.2100E-03 -0.2100E-03 -0.3315E-04 -0.3315E-04
    -11.019 -0.9019E-06 -0.9021E-06 -0.3320E-04 -0.3320E-04
    -10.969  0.5723E-03  0.5723E-03 -0.4942E-05 -0.4942E-05
    -10.920  0.1555E-02  0.1555E-02  0.7184E-04  0.7184E-04
    -10.871  0.2763E-02  0.2763E-02  0.2083E-03  0.2083E-03
    -10.821  0.3788E-02  0.3788E-02  0.3953E-03  0.3953E-03
    -10.772  0.4196E-02  0.4196E-02  0.6025E-03  0.6025E-03
    -10.722  0.3797E-02  0.3797E-02  0.7899E-03  0.7899E-03
    -10.673  0.2776E-02  0.2776E-02  0.9270E-03  0.9270E-03
    -10.624  0.1567E-02  0.1567E-02  0.1004E-02  0.1004E-02
    -10.574  0.5805E-03  0.5805E-03  0.1033E-02  0.1033E-02
    -10.525  0.1938E-05  0.1938E-05  0.1033E-02  0.1033E-02
    -10.476 -0.2135E-03 -0.2135E-03  0.1023E-02  0.1023E-02
    -10.426 -0.2234E-03 -0.2234E-03  0.1012E-02  0.1012E-02
    -10.377 -0.1770E-03 -0.1770E-03  0.1003E-02  0.1003E-02
    -10.327 -0.1640E-03 -0.1640E-03  0.9948E-03  0.9948E-03
    -10.278 -0.2157E-03 -0.2157E-03  0.9841E-03  0.9841E-03
    -10.229 -0.3090E-03 -0.3090E-03  0.9688E-03  0.9688E-03
    -10.179 -0.3497E-03 -0.3497E-03  0.9516E-03  0.9516E-03
    -10.130 -0.1541E-03 -0.1541E-03  0.9440E-03  0.9440E-03
    -10.081  0.5152E-03  0.5152E-03  0.9694E-03  0.9694E-03
    -10.031  0.1822E-02  0.1822E-02  0.1059E-02  0.1059E-02
     -9.982  0.3685E-02  0.3685E-02  0.1241E-02  0.1241E-02
     -9.932  0.5679E-02  0.5679E-02  0.1522E-02  0.1522E-02
     -9.883  0.7154E-02  0.7154E-02  0.1875E-02  0.1875E-02
     -9.834  0.7537E-02  0.7537E-02  0.2247E-02  0.2247E-02
     -9.784  0.6654E-02  0.6654E-02  0.2576E-02  0.2576E-02
     -9.735  0.4839E-02  0.4839E-02  0.2815E-02  0.2815E-02
     -9.686  0.2767E-02  0.2767E-02  0.2951E-02  0.2951E-02
     -9.636  0.1142E-02  0.1142E-02  0.3008E-02  0.3008E-02
     -9.587  0.4138E-03  0.4138E-03  0.3028E-02  0.3028E-02
     -9.537  0.6581E-03  0.6581E-03  0.3061E-02  0.3061E-02
     -9.488  0.1594E-02  0.1594E-02  0.3139E-02  0.3139E-02
     -9.439  0.2726E-02  0.2726E-02  0.3274E-02  0.3274E-02
     -9.389  0.3599E-02  0.3599E-02  0.3452E-02  0.3452E-02
     -9.340  0.4070E-02  0.4070E-02  0.3653E-02  0.3653E-02
     -9.291  0.4386E-02  0.4386E-02  0.3869E-02  0.3869E-02
     -9.241  0.4936E-02  0.4936E-02  0.4113E-02  0.4113E-02
     -9.192  0.5863E-02  0.5863E-02  0.4402E-02  0.4402E-02
     -9.142  0.6900E-02  0.6900E-02  0.4743E-02  0.4743E-02
     -9.093  0.7665E-02  0.7665E-02  0.5121E-02  0.5121E-02
     -9.044  0.8105E-02  0.8105E-02  0.5522E-02  0.5522E-02
     -8.994  0.8600E-02  0.8600E-02  0.5946E-02  0.5946E-02
     -8.945  0.9554E-02  0.9554E-02  0.6418E-02  0.6418E-02
     -8.896  0.1089E-01  0.1089E-01  0.6956E-02  0.6956E-02
     -8.846  0.1203E-01  0.1203E-01  0.7550E-02  0.7550E-02
     -8.797  0.1238E-01  0.1238E-01  0.8161E-02  0.8161E-02
     -8.747  0.1182E-01  0.1182E-01  0.8744E-02  0.8744E-02
     -8.698  0.1071E-01  0.1071E-01  0.9273E-02  0.9273E-02
     -8.649  0.9493E-02  0.9493E-02  0.9742E-02  0.9742E-02
     -8.599  0.8352E-02  0.8352E-02  0.1015E-01  0.1015E-01
     -8.550  0.7401E-02  0.7401E-02  0.1052E-01  0.1052E-01
     -8.501  0.6929E-02  0.6929E-02  0.1086E-01  0.1086E-01
     -8.451  0.7368E-02  0.7368E-02  0.1123E-01  0.1123E-01
     -8.402  0.8924E-02  0.8924E-02  0.1167E-01  0.1167E-01
     -8.352  0.1129E-01  0.1129E-01  0.1222E-01  0.1222E-01
     -8.303  0.1375E-01  0.1375E-01  0.1290E-01  0.1290E-01
     -8.254  0.1562E-01  0.1562E-01  0.1367E-01  0.1367E-01
     -8.204  0.1657E-01  0.1657E-01  0.1449E-01  0.1449E-01
     -8.155  0.1659E-01  0.1659E-01  0.1531E-01  0.1531E-01
     -8.106  0.1572E-01  0.1572E-01  0.1609E-01  0.1609E-01
     -8.056  0.1393E-01  0.1393E-01  0.1677E-01  0.1677E-01
     -8.007  0.1131E-01  0.1131E-01  0.1733E-01  0.1733E-01
     -7.957  0.8316E-02  0.8316E-02  0.1774E-01  0.1774E-01
     -7.908  0.5672E-02  0.5672E-02  0.1802E-01  0.1802E-01
     -7.859  0.3975E-02  0.3975E-02  0.1822E-01  0.1822E-01
     -7.809  0.3281E-02  0.3281E-02  0.1838E-01  0.1838E-01
     -7.760  0.3152E-02  0.3152E-02  0.1854E-01  0.1854E-01
     -7.711  0.3110E-02  0.3110E-02  0.1869E-01  0.1869E-01
     -7.661  0.3072E-02  0.3072E-02  0.1884E-01  0.1884E-01
     -7.612  0.3385E-02  0.3385E-02  0.1901E-01  0.1901E-01
     -7.562  0.4444E-02  0.4444E-02  0.1923E-01  0.1923E-01
     -7.513  0.6302E-02  0.6302E-02  0.1954E-01  0.1954E-01
     -7.464  0.8574E-02  0.8574E-02  0.1996E-01  0.1996E-01
     -7.414  0.1067E-01  0.1067E-01  0.2049E-01  0.2049E-01
     -7.365  0.1213E-01  0.1213E-01  0.2109E-01  0.2109E-01
     -7.316  0.1280E-01  0.1280E-01  0.2172E-01  0.2172E-01
     -7.266  0.1288E-01  0.1288E-01  0.2236E-01  0.2236E-01
     -7.217  0.1281E-01  0.1281E-01  0.2299E-01  0.2299E-01
     -7.167  0.1305E-01  0.1305E-01  0.2363E-01  0.2363E-01
     -7.118  0.1385E-01  0.1385E-01  0.2432E-01  0.2432E-01
     -7.069  0.1497E-01  0.1497E-01  0.2506E-01  0.2506E-01
     -7.019  0.1576E-01  0.1576E-01  0.2584E-01  0.2584E-01
     -6.970  0.1550E-01  0.1550E-01  0.2660E-01  0.2660E-01
     -6.920  0.1398E-01  0.1398E-01  0.2729E-01  0.2729E-01
     -6.871  0.1175E-01  0.1175E-01  0.2787E-01  0.2787E-01
     -6.822  0.9886E-02  0.9886E-02  0.2836E-01  0.2836E-01
     -6.772  0.9320E-02  0.9320E-02  0.2882E-01  0.2882E-01
     -6.723  0.1035E-01  0.1035E-01  0.2933E-01  0.2933E-01
     -6.674  0.1251E-01  0.1251E-01  0.2995E-01  0.2995E-01
     -6.624  0.1488E-01  0.1488E-01  0.3068E-01  0.3068E-01
     -6.575  0.1656E-01  0.1656E-01  0.3150E-01  0.3150E-01
     -6.525  0.1704E-01  0.1704E-01  0.3234E-01  0.3234E-01
     -6.476  0.1636E-01  0.1636E-01  0.3315E-01  0.3315E-01
     -6.427  0.1507E-01  0.1507E-01  0.3389E-01  0.3389E-01
     -6.377  0.1399E-01  0.1399E-01  0.3459E-01  0.3459E-01
     -6.328  0.1391E-01  0.1391E-01  0.3527E-01  0.3527E-01
     -6.279  0.1508E-01  0.1508E-01  0.3602E-01  0.3602E-01
     -6.229  0.1702E-01  0.1702E-01  0.3686E-01  0.3686E-01
     -6.180  0.1866E-01  0.1866E-01  0.3778E-01  0.3778E-01
     -6.130  0.1901E-01  0.1901E-01  0.3872E-01  0.3872E-01
     -6.081  0.1776E-01  0.1776E-01  0.3959E-01  0.3959E-01
     -6.032  0.1528E-01  0.1528E-01  0.4035E-01  0.4035E-01
     -5.982  0.1225E-01  0.1225E-01  0.4095E-01  0.4095E-01
     -5.933  0.9193E-02  0.9193E-02  0.4141E-01  0.4141E-01
     -5.884  0.6332E-02  0.6332E-02  0.4172E-01  0.4172E-01
     -5.834  0.3830E-02  0.3830E-02  0.4191E-01  0.4191E-01
     -5.785  0.1955E-02  0.1955E-02  0.4201E-01  0.4201E-01
     -5.735  0.1009E-02  0.1009E-02  0.4206E-01  0.4206E-01
     -5.686  0.1099E-02  0.1099E-02  0.4211E-01  0.4211E-01
     -5.637  0.1974E-02  0.1974E-02  0.4221E-01  0.4221E-01
     -5.587  0.3126E-02  0.3126E-02  0.4236E-01  0.4236E-01
     -5.538  0.4067E-02  0.4067E-02  0.4256E-01  0.4256E-01
     -5.489  0.4591E-02  0.4591E-02  0.4279E-01  0.4279E-01
     -5.439  0.4789E-02  0.4789E-02  0.4303E-01  0.4303E-01
     -5.390  0.4817E-02  0.4817E-02  0.4326E-01  0.4326E-01
     -5.340  0.4672E-02  0.4672E-02  0.4349E-01  0.4349E-01
     -5.291  0.4199E-02  0.4199E-02  0.4370E-01  0.4370E-01
     -5.242  0.3314E-02  0.3314E-02  0.4387E-01  0.4387E-01
     -5.192  0.2164E-02  0.2164E-02  0.4397E-01  0.4397E-01
     -5.143  0.1060E-02  0.1060E-02  0.4402E-01  0.4402E-01
     -5.094  0.2683E-03  0.2683E-03  0.4404E-01  0.4404E-01
     -5.044 -0.1333E-03 -0.1333E-03  0.4403E-01  0.4403E-01
     -4.995 -0.2370E-03 -0.2370E-03  0.4402E-01  0.4402E-01
     -4.945 -0.1927E-03 -0.1927E-03  0.4401E-01  0.4401E-01
     -4.896 -0.1147E-03 -0.1147E-03  0.4400E-01  0.4400E-01
     -4.847 -0.5511E-04 -0.5511E-04  0.4400E-01  0.4400E-01
     -4.797 -0.2215E-04 -0.2215E-04  0.4400E-01  0.4400E-01
     -4.748 -0.7585E-05 -0.7585E-05  0.4400E-01  0.4400E-01
     -4.699 -0.2238E-05 -0.2238E-05  0.4400E-01  0.4400E-01
     -4.649 -0.5797E-06 -0.5797E-06  0.4400E-01  0.4400E-01
     -4.600 -0.1703E-06 -0.1703E-06  0.4400E-01  0.4400E-01
     -4.550 -0.2358E-06 -0.2358E-06  0.4400E-01  0.4400E-01
     -4.501 -0.9102E-06 -0.9102E-06  0.4400E-01  0.4400E-01
     -4.452 -0.3384E-05 -0.3384E-05  0.4400E-01  0.4400E-01
     -4.402 -0.1094E-04 -0.1094E-04  0.4400E-01  0.4400E-01
     -4.353 -0.3036E-04 -0.3036E-04  0.4400E-01  0.4400E-01
     -4.304 -0.7148E-04 -0.7148E-04  0.4399E-01  0.4399E-01
     -4.254 -0.1396E-03 -0.1396E-03  0.4399E-01  0.4399E-01
     -4.205 -0.2157E-03 -0.2157E-03  0.4398E-01  0.4398E-01
     -4.155 -0.2297E-03 -0.2297E-03  0.4397E-01  0.4397E-01
     -4.106 -0.5293E-04 -0.5293E-04  0.4396E-01  0.4396E-01
     -4.057  0.4507E-03  0.4507E-03  0.4398E-01  0.4398E-01
     -4.007  0.1317E-02  0.1317E-02  0.4405E-01  0.4405E-01
     -3.958  0.2394E-02  0.2394E-02  0.4417E-01  0.4417E-01
     -3.909  0.3404E-02  0.3404E-02  0.4434E-01  0.4434E-01
     -3.859  0.4157E-02  0.4157E-02  0.4454E-01  0.4454E-01
     -3.810  0.4742E-02  0.4742E-02  0.4478E-01  0.4478E-01
     -3.760  0.5450E-02  0.5450E-02  0.4504E-01  0.4504E-01
     -3.711  0.6434E-02  0.6434E-02  0.4536E-01  0.4536E-01
     -3.662  0.7437E-02  0.7437E-02  0.4573E-01  0.4573E-01
     -3.612  0.7923E-02  0.7923E-02  0.4612E-01  0.4612E-01
     -3.563  0.7547E-02  0.7547E-02  0.4649E-01  0.4649E-01
     -3.514  0.6499E-02  0.6499E-02  0.4681E-01  0.4681E-01
     -3.464  0.5362E-02  0.5362E-02  0.4708E-01  0.4708E-01
     -3.415  0.4604E-02  0.4604E-02  0.4731E-01  0.4731E-01
     -3.365  0.4223E-02  0.4223E-02  0.4752E-01  0.4752E-01
     -3.316  0.3852E-02  0.3852E-02  0.4771E-01  0.4771E-01
     -3.267  0.3161E-02  0.3161E-02  0.4786E-01  0.4786E-01
     -3.217  0.2152E-02  0.2152E-02  0.4797E-01  0.4797E-01
     -3.168  0.1103E-02  0.1103E-02  0.4802E-01  0.4802E-01
     -3.119  0.3085E-03  0.3085E-03  0.4804E-01  0.4804E-01
     -3.069 -0.1134E-03 -0.1134E-03  0.4803E-01  0.4803E-01
     -3.020 -0.2334E-03 -0.2334E-03  0.4802E-01  0.4802E-01
     -2.970 -0.1962E-03 -0.1962E-03  0.4801E-01  0.4801E-01
     -2.921 -0.1190E-03 -0.1190E-03  0.4800E-01  0.4800E-01
     -2.872 -0.5796E-04 -0.5796E-04  0.4800E-01  0.4800E-01
     -2.822 -0.2357E-04 -0.2357E-04  0.4800E-01  0.4800E-01
     -2.773 -0.8215E-05 -0.8215E-05  0.4800E-01  0.4800E-01
     -2.724 -0.2726E-05 -0.2726E-05  0.4800E-01  0.4800E-01
     -2.674 -0.1876E-05 -0.1876E-05  0.4800E-01  0.4800E-01
     -2.625 -0.4697E-05 -0.4697E-05  0.4800E-01  0.4800E-01
     -2.575 -0.1443E-04 -0.1443E-04  0.4800E-01  0.4800E-01
     -2.526 -0.3924E-04 -0.3924E-04  0.4800E-01  0.4800E-01
     -2.477 -0.9102E-04 -0.9102E-04  0.4799E-01  0.4799E-01
     -2.427 -0.1763E-03 -0.1763E-03  0.4798E-01  0.4798E-01
     -2.378 -0.2730E-03 -0.2730E-03  0.4797E-01  0.4797E-01
     -2.329 -0.2981E-03 -0.2981E-03  0.4796E-01  0.4796E-01
     -2.279 -0.9209E-04 -0.9209E-04  0.4795E-01  0.4795E-01
     -2.230  0.5402E-03  0.5402E-03  0.4798E-01  0.4798E-01
     -2.180  0.1719E-02  0.1719E-02  0.4806E-01  0.4806E-01
     -2.131  0.3361E-02  0.3361E-02  0.4823E-01  0.4823E-01
     -2.082  0.5127E-02  0.5127E-02  0.4848E-01  0.4848E-01
     -2.032  0.6519E-02  0.6519E-02  0.4880E-01  0.4880E-01
     -1.983  0.7088E-02  0.7088E-02  0.4915E-01  0.4915E-01
     -1.934  0.6640E-02  0.6640E-02  0.4948E-01  0.4948E-01
     -1.884  0.5327E-02  0.5327E-02  0.4974E-01  0.4974E-01
     -1.835  0.3572E-02  0.3572E-02  0.4992E-01  0.4992E-01
     -1.785  0.1874E-02  0.1874E-02  0.5001E-01  0.5001E-01
     -1.736  0.5896E-03  0.5896E-03  0.5004E-01  0.5004E-01
     -1.687 -0.1715E-03 -0.1715E-03  0.5003E-01  0.5003E-01
     -1.637 -0.4931E-03 -0.4931E-03  0.5001E-01  0.5001E-01
     -1.588 -0.4983E-03 -0.4983E-03  0.4999E-01  0.4999E-01
     -1.538 -0.2195E-03 -0.2195E-03  0.4997E-01  0.4997E-01
     -1.489  0.4061E-03  0.4061E-03  0.4999E-01  0.4999E-01
     -1.440  0.1407E-02  0.1407E-02  0.5006E-01  0.5006E-01
     -1.390  0.2618E-02  0.2618E-02  0.5019E-01  0.5019E-01
     -1.341  0.3648E-02  0.3648E-02  0.5037E-01  0.5037E-01
     -1.292  0.4056E-02  0.4056E-02  0.5057E-01  0.5057E-01
     -1.242  0.3650E-02  0.3650E-02  0.5075E-01  0.5075E-01
     -1.193  0.2661E-02  0.2661E-02  0.5089E-01  0.5089E-01
     -1.143  0.1652E-02  0.1652E-02  0.5097E-01  0.5097E-01
     -1.094  0.1196E-02  0.1196E-02  0.5103E-01  0.5103E-01
     -1.045  0.1548E-02  0.1548E-02  0.5110E-01  0.5110E-01
     -0.995  0.2495E-02  0.2495E-02  0.5123E-01  0.5123E-01
     -0.946  0.3471E-02  0.3471E-02  0.5140E-01  0.5140E-01
     -0.897  0.3890E-02  0.3890E-02  0.5159E-01  0.5159E-01
     -0.847  0.3497E-02  0.3497E-02  0.5176E-01  0.5176E-01
     -0.798  0.2523E-02  0.2523E-02  0.5189E-01  0.5189E-01
     -0.748  0.1542E-02  0.1542E-02  0.5196E-01  0.5196E-01
     -0.699  0.1134E-02  0.1134E-02  0.5202E-01  0.5202E-01
     -0.650  0.1564E-02  0.1564E-02  0.5210E-01  0.5210E-01
     -0.600  0.2681E-02  0.2681E-02  0.5223E-01  0.5223E-01
     -0.551  0.4047E-02  0.4047E-02  0.5243E-01  0.5243E-01
     -0.502  0.5191E-02  0.5191E-02  0.5268E-01  0.5268E-01
     -0.452  0.5811E-02  0.5811E-02  0.5297E-01  0.5297E-01
     -0.403  0.5847E-02  0.5847E-02  0.5326E-01  0.5326E-01
     -0.353  0.5444E-02  0.5444E-02  0.5353E-01  0.5353E-01
     -0.304  0.4892E-02  0.4892E-02  0.5377E-01  0.5377E-01
     -0.255  0.4527E-02  0.4527E-02  0.5399E-01  0.5399E-01
     -0.205  0.4585E-02  0.4585E-02  0.5422E-01  0.5422E-01
     -0.156  0.5066E-02  0.5066E-02  0.5447E-01  0.5447E-01
     -0.107  0.5720E-02  0.5720E-02  0.5475E-01  0.5475E-01
     -0.057  0.6172E-02  0.6172E-02  0.5506E-01  0.5506E-01
     -0.008  0.6104E-02  0.6104E-02  0.5536E-01  0.5536E-01
      0.042  0.5391E-02  0.5391E-02  0.5562E-01  0.5562E-01
      0.091  0.4144E-02  0.4144E-02  0.5583E-01  0.5583E-01
      0.140  0.2666E-02  0.2666E-02  0.5596E-01  0.5596E-01
      0.190  0.1321E-02  0.1321E-02  0.5603E-01  0.5603E-01
      0.239  0.3695E-03  0.3696E-03  0.5604E-01  0.5604E-01
      0.288 -0.1261E-03 -0.1261E-03  0.5604E-01  0.5604E-01
      0.338 -0.2718E-03 -0.2718E-03  0.5602E-01  0.5602E-01
      0.387 -0.2341E-03 -0.2341E-03  0.5601E-01  0.5601E-01
      0.437 -0.1459E-03 -0.1459E-03  0.5601E-01  0.5601E-01
      0.486 -0.7316E-04 -0.7316E-04  0.5600E-01  0.5600E-01
      0.535 -0.3067E-04 -0.3067E-04  0.5600E-01  0.5600E-01
      0.585 -0.1095E-04 -0.1095E-04  0.5600E-01  0.5600E-01
      0.634 -0.3368E-05 -0.3368E-05  0.5600E-01  0.5600E-01
      0.683 -0.8979E-06 -0.8980E-06  0.5600E-01  0.5600E-01
      0.733 -0.2084E-06 -0.2084E-06  0.5600E-01  0.5600E-01
      0.782 -0.4225E-07 -0.4226E-07  0.5600E-01  0.5600E-01
      0.832 -0.7501E-08 -0.7501E-08  0.5600E-01  0.5600E-01
      0.881 -0.1168E-08 -0.1168E-08  0.5600E-01  0.5600E-01
      0.930 -0.1597E-09 -0.1597E-09  0.5600E-01  0.5600E-01
      0.980 -0.1920E-10 -0.1921E-10  0.5600E-01  0.5600E-01
      1.029 -0.2032E-11 -0.2033E-11  0.5600E-01  0.5600E-01
      1.078 -0.1895E-12 -0.1895E-12  0.5600E-01  0.5600E-01
      1.128 -0.1557E-13 -0.1556E-13  0.5600E-01  0.5600E-01
      1.177 -0.1124E-14 -0.1129E-14  0.5600E-01  0.5600E-01
      1.227 -0.7195E-16 -0.7195E-16  0.5600E-01  0.5600E-01
      1.276 -0.4497E-17 -0.4497E-17  0.5600E-01  0.5600E-01
      1.325  0.0000E+00  0.0000E+00  0.5600E-01  0.5600E-01
      1.375  0.0000E+00  0.0000E+00  0.5600E-01  0.5600E-01
      1.424  0.0000E+00  0.0000E+00  0.5600E-01  0.5600E-01
      1.473  0.0000E+00  0.0000E+00  0.5600E-01  0.5600E-01
      1.523  0.0000E+00  0.0000E+00  0.5600E-01  0.5600E-01
      1.572  0.0000E+00  0.0000E+00  0.5600E-01  0.5600E-01
      1.622  0.0000E+00  0.0000E+00  0.5600E-01  0.5600E-01
      1.671  0.0000E+00  0.0000E+00  0.5600E-01  0.5600E-01
      1.720  0.0000E+00  0.0000E+00  0.5600E-01  0.5600E-01
      1.770  0.0000E+00  0.0000E+00  0.5600E-01  0.5600E-01
      1.819  0.0000E+00  0.0000E+00  0.5600E-01  0.5600E-01
      1.868  0.0000E+00  0.0000E+00  0.5600E-01  0.5600E-01
      1.918  0.0000E+00  0.0000E+00  0.5600E-01  0.5600E-01
      1.967  0.0000E+00  0.0000E+00  0.5600E-01  0.5600E-01
      2.017  0.0000E+00  0.0000E+00  0.5600E-01  0.5600E-01
