    8    8 1000    2
  0.1421408E+04  0.2238768E-08  0.2280516E-08  0.2227237E-08  0.5000000E-15
   1.0000000000000000E-004
  CAR 
 unknown system                          
     88      1     56
 
  0.1262379E-14  0.1262379E-14  0.1262379E-14  0.1000000E+01
    1      -10.796256    -10.796256   1.000000   1.000000
    2       -9.915572     -9.915572   1.000000   1.000000
    3       -9.818173     -9.818173   1.000000   1.000000
    4       -9.391649     -9.391649   1.000000   1.000000
    5       -9.148606     -9.148606   1.000000   1.000000
    6       -9.085019     -9.085019   1.000000   1.000000
    7       -8.891600     -8.891600   1.000000   1.000000
    8       -8.845586     -8.845586   1.000000   1.000000
    9       -8.813787     -8.813787   1.000000   1.000000
   10       -8.648827     -8.648827   1.000000   1.000000
   11       -8.587147     -8.587147   1.000000   1.000000
   12       -8.390328     -8.390328   1.000000   1.000000
   13       -8.322183     -8.322183   1.000000   1.000000
   14       -8.255040     -8.255040   1.000000   1.000000
   15       -8.230530     -8.230530   1.000000   1.000000
   16       -8.124946     -8.124945   1.000000   1.000000
   17       -8.066581     -8.066581   1.000000   1.000000
   18       -8.032942     -8.032942   1.000000   1.000000
   19       -7.764683     -7.764683   1.000000   1.000000
   20       -7.500956     -7.500956   1.000000   1.000000
   21       -7.410428     -7.410428   1.000000   1.000000
   22       -7.341571     -7.341571   1.000000   1.000000
   23       -7.259046     -7.259046   1.000000   1.000000
   24       -7.187768     -7.187768   1.000000   1.000000
   25       -7.085508     -7.085508   1.000000   1.000000
   26       -7.014712     -7.014712   1.000000   1.000000
   27       -6.980693     -6.980693   1.000000   1.000000
   28       -6.955789     -6.955790   1.000000   1.000000
   29       -6.804579     -6.804580   1.000000   1.000000
   30       -6.673400     -6.673400   1.000000   1.000000
   31       -6.616233     -6.616233   1.000000   1.000000
   32       -6.607302     -6.607302   1.000000   1.000000
   33       -6.495885     -6.495885   1.000000   1.000000
   34       -6.480515     -6.480515   1.000000   1.000000
   35       -6.403402     -6.403402   1.000000   1.000000
   36       -6.295828     -6.295828   1.000000   1.000000
   37       -6.207748     -6.207748   1.000000   1.000000
   38       -6.186291     -6.186291   1.000000   1.000000
   39       -6.151066     -6.151065   1.000000   1.000000
   40       -6.126877     -6.126877   1.000000   1.000000
   41       -6.011577     -6.011577   1.000000   1.000000
   42       -5.927079     -5.927079   1.000001   1.000001
   43       -5.556736     -5.556736   1.010109   1.010109
   44       -5.331610     -5.331610   0.989890   0.989890
   45       -3.884118     -3.884118  -0.000000  -0.000000
   46       -3.654655     -3.654655  -0.000000  -0.000000
   47       -3.599903     -3.599903  -0.000000  -0.000000
   48       -3.353416     -3.353416  -0.000000  -0.000000
   49       -2.068084     -2.068084  -0.000000  -0.000000
   50       -1.940953     -1.940952  -0.000000  -0.000000
   51       -1.311984     -1.311984  -0.000000  -0.000000
   52       -0.919806     -0.919806  -0.000000  -0.000000
   53       -0.535850     -0.535850  -0.000000  -0.000000
   54       -0.367190     -0.367190  -0.000000  -0.000000
   55       -0.140155     -0.140155  -0.000000  -0.000000
   56        0.016582      0.016583  -0.000000  -0.000000
