       N       E                     dE             d eps       ncg     rms          rms(c)
DAV:   1     0.756451430397E+03    0.75645E+03   -0.13339E+04   224   0.707E+02
DAV:   2     0.445778776325E+03   -0.31067E+03   -0.29274E+03   432   0.726E+01
DAV:   3     0.125299435260E+03   -0.32048E+03   -0.30010E+03   416   0.690E+01
DAV:   4     0.959441033575E+01   -0.11571E+03   -0.11015E+03   304   0.514E+01
DAV:   5    -0.137693095876E+02   -0.23364E+02   -0.22300E+02   296   0.197E+01    0.234E+01
DAV:   6    -0.775698151303E+01    0.60123E+01   -0.40835E+01   248   0.163E+01    0.164E+01
DAV:   7    -0.186486552698E+01    0.58921E+01   -0.98650E+00   248   0.995E+00    0.789E+00
DAV:   8    -0.568600278174E+01   -0.38211E+01   -0.16450E+00   264   0.402E+00    0.248E+00
DAV:   9    -0.805054377561E+01   -0.23645E+01   -0.67245E-01   248   0.286E+00    0.174E+00
DAV:  10    -0.969475646596E+01   -0.16442E+01   -0.36240E-01   248   0.172E+00    0.133E+00
DAV:  11    -0.125642824251E+02   -0.28695E+01   -0.11894E+00   248   0.254E+00    0.864E-01
DAV:  12    -0.136933835410E+02   -0.11291E+01   -0.35015E-01   256   0.134E+00    0.679E-01
DAV:  13    -0.145265679943E+02   -0.83318E+00   -0.23766E-01   240   0.115E+00    0.499E-01
DAV:  14    -0.150220539881E+02   -0.49549E+00   -0.12460E-01   248   0.837E-01    0.310E-01
DAV:  15    -0.153746540315E+02   -0.35260E+00   -0.46327E-02   224   0.499E-01    0.214E-01
DAV:  16    -0.156160265268E+02   -0.24137E+00   -0.11779E-02   248   0.292E-01    0.135E-01
DAV:  17    -0.158218654439E+02   -0.20584E+00   -0.93063E-03   240   0.274E-01    0.718E-02
DAV:  18    -0.158768130652E+02   -0.54948E-01   -0.84993E-04   192   0.105E-01    0.445E-02
DAV:  19    -0.158959992849E+02   -0.19186E-01   -0.33173E-04   152   0.500E-02    0.218E-02
DAV:  20    -0.159078593649E+02   -0.11860E-01   -0.21578E-04   176   0.316E-02    0.122E-02
DAV:  21    -0.159128539505E+02   -0.49946E-02   -0.70294E-05   160   0.179E-02    0.734E-03
DAV:  22    -0.159137010192E+02   -0.84707E-03   -0.27586E-05   152   0.121E-02    0.500E-03
DAV:  23    -0.159146293578E+02   -0.92834E-03   -0.24053E-05   152   0.119E-02    0.339E-03
DAV:  24    -0.159152565934E+02   -0.62724E-03   -0.10776E-05   160   0.782E-03    0.272E-03
DAV:  25    -0.159159280394E+02   -0.67145E-03   -0.48290E-06   160   0.543E-03    0.148E-03
DAV:  26    -0.159162748243E+02   -0.34678E-03   -0.19703E-06   144   0.363E-03    0.760E-04
DAV:  27    -0.159163801321E+02   -0.10531E-03   -0.96310E-07   144   0.222E-03    0.426E-04
DAV:  28    -0.159164002940E+02   -0.20162E-04   -0.34167E-07   144   0.137E-03
   1 F= -.15916400E+02 E0= -.15920266E+02  d E =-.159164E+02  mag=     0.0002
       N       E                     dE             d eps       ncg     rms          rms(c)
DAV:   1    -0.162185314138E+02   -0.30215E+00   -0.50192E+02   224   0.791E+01    0.578E+00
DAV:   2    -0.166758416946E+02   -0.45731E+00   -0.47572E+00   256   0.105E+01    0.388E+00
DAV:   3    -0.166460742990E+02    0.29767E-01   -0.41969E-01   224   0.234E+00    0.183E+00
DAV:   4    -0.166474795042E+02   -0.14052E-02   -0.21253E-02   272   0.858E-01    0.415E-01
DAV:   5    -0.166406041185E+02    0.68754E-02   -0.27306E-02   224   0.549E-01    0.111E-01
DAV:   6    -0.166405748180E+02    0.29301E-04   -0.19784E-03   272   0.142E-01    0.354E-02
DAV:   7    -0.166406471604E+02   -0.72342E-04   -0.38322E-05   128   0.252E-02
   2 F= -.16640647E+02 E0= -.16644514E+02  d E =-.724247E+00  mag=     0.0001
       N       E                     dE             d eps       ncg     rms          rms(c)
DAV:   1    -0.166410370227E+02   -0.46220E-03   -0.30023E+00   224   0.598E+00    0.382E-01
DAV:   2    -0.166441441840E+02   -0.31072E-02   -0.32768E-02   256   0.857E-01    0.223E-01
DAV:   3    -0.166439719488E+02    0.17224E-03   -0.25298E-03   256   0.188E-01    0.130E-01
DAV:   4    -0.166440634125E+02   -0.91464E-04   -0.21915E-04   160   0.697E-02
   3 F= -.16644063E+02 E0= -.16647931E+02  d E =-.727663E+00  mag=     0.0000
       N       E                     dE             d eps       ncg     rms          rms(c)
DAV:   1    -0.166554637461E+02   -0.11492E-01   -0.62937E+00   224   0.842E+00    0.194E-01
DAV:   2    -0.166622268076E+02   -0.67631E-02   -0.71279E-02   256   0.123E+00    0.127E-01
DAV:   3    -0.166620967447E+02    0.13006E-03   -0.21381E-03   256   0.203E-01    0.881E-02
DAV:   4    -0.166620003460E+02    0.96399E-04   -0.33892E-04   240   0.656E-02
   4 F= -.16662000E+02 E0= -.16665869E+02  d E =-.179369E-01  mag=     0.0000
       N       E                     dE             d eps       ncg     rms          rms(c)
DAV:   1    -0.166393891148E+02    0.22708E-01   -0.56967E+01   224   0.255E+01    0.644E-01
DAV:   2    -0.167002782194E+02   -0.60889E-01   -0.64657E-01   240   0.370E+00    0.387E-01
DAV:   3    -0.166989655267E+02    0.13127E-02   -0.19772E-02   256   0.618E-01    0.261E-01
DAV:   4    -0.166978782451E+02    0.10873E-02   -0.33578E-03   256   0.205E-01    0.104E-01
DAV:   5    -0.166979630035E+02   -0.84758E-04   -0.84320E-04   256   0.103E-01
   5 F= -.16697963E+02 E0= -.16701840E+02  d E =-.538996E-01  mag=     0.0000
       N       E                     dE             d eps       ncg     rms          rms(c)
DAV:   1    -0.164350987816E+02    0.26278E+00   -0.23155E+02   224   0.520E+01    0.158E+00
DAV:   2    -0.166794543208E+02   -0.24436E+00   -0.25921E+00   232   0.745E+00    0.840E-01
DAV:   3    -0.166735006062E+02    0.59537E-02   -0.82484E-02   272   0.127E+00    0.545E-01
DAV:   4    -0.166697151178E+02    0.37855E-02   -0.17013E-02   256   0.462E-01    0.179E-01
DAV:   5    -0.166699321262E+02   -0.21701E-03   -0.11541E-03   272   0.141E-01    0.668E-02
DAV:   6    -0.166698221237E+02    0.11000E-03   -0.53382E-04   256   0.782E-02    0.243E-02
DAV:   7    -0.166698491375E+02   -0.27014E-04   -0.22905E-05   160   0.206E-02
   6 F= -.16669849E+02 E0= -.16673814E+02  d E =-.257857E-01  mag=     0.0000
       N       E                     dE             d eps       ncg     rms          rms(c)
DAV:   1    -0.165932897156E+02    0.76532E-01   -0.11249E+02   224   0.361E+01    0.951E-01
DAV:   2    -0.167098746500E+02   -0.11658E+00   -0.12286E+00   248   0.510E+00    0.635E-01
DAV:   3    -0.167071242233E+02    0.27504E-02   -0.37745E-02   256   0.836E-01    0.432E-01
DAV:   4    -0.167049856619E+02    0.21386E-02   -0.92467E-03   256   0.341E-01    0.143E-01
DAV:   5    -0.167051938023E+02   -0.20814E-03   -0.92343E-04   256   0.116E-01    0.647E-02
DAV:   6    -0.167050674667E+02    0.12634E-03   -0.44782E-04   256   0.700E-02    0.197E-02
DAV:   7    -0.167050688979E+02   -0.14312E-05   -0.38524E-05   160   0.230E-02
   7 F= -.16705069E+02 E0= -.16708957E+02  d E =-.610055E-01  mag=     0.0000
       N       E                     dE             d eps       ncg     rms          rms(c)
DAV:   1    -0.167040954087E+02    0.97206E-03   -0.16834E+01   224   0.140E+01    0.434E-01
DAV:   2    -0.167220143634E+02   -0.17919E-01   -0.18953E-01   256   0.204E+00    0.320E-01
DAV:   3    -0.167214301665E+02    0.58420E-03   -0.60883E-03   272   0.344E-01    0.211E-01
DAV:   4    -0.167210934174E+02    0.33675E-03   -0.20267E-03   256   0.159E-01    0.648E-02
DAV:   5    -0.167211226315E+02   -0.29214E-04   -0.86594E-05   160   0.454E-02
   8 F= -.16721123E+02 E0= -.16725023E+02  d E =-.160537E-01  mag=    -0.0000
       N       E                     dE             d eps       ncg     rms          rms(c)
DAV:   1    -0.167048815102E+02    0.16212E-01   -0.21580E+01   224   0.159E+01    0.482E-01
DAV:   2    -0.167278994211E+02   -0.23018E-01   -0.24393E-01   256   0.232E+00    0.352E-01
DAV:   3    -0.167271815940E+02    0.71783E-03   -0.77369E-03   272   0.388E-01    0.233E-01
DAV:   4    -0.167267397639E+02    0.44183E-03   -0.24614E-03   256   0.175E-01    0.737E-02
DAV:   5    -0.167267833047E+02   -0.43541E-04   -0.13353E-04   176   0.526E-02
   9 F= -.16726783E+02 E0= -.16730704E+02  d E =-.217144E-01  mag=    -0.0000
       N       E                     dE             d eps       ncg     rms          rms(c)
DAV:   1    -0.167227841058E+02    0.39557E-02   -0.16660E+01   224   0.139E+01    0.275E-01
DAV:   2    -0.167405300564E+02   -0.17746E-01   -0.18509E-01   256   0.202E+00    0.202E-01
DAV:   3    -0.167401354199E+02    0.39464E-03   -0.50105E-03   272   0.317E-01    0.148E-01
DAV:   4    -0.167396865449E+02    0.44887E-03   -0.96967E-04   256   0.112E-01    0.644E-02
DAV:   5    -0.167396924385E+02   -0.58936E-05   -0.54003E-04   240   0.790E-02
  10 F= -.16739692E+02 E0= -.16743641E+02  d E =-.129091E-01  mag=    -0.0000
       N       E                     dE             d eps       ncg     rms          rms(c)
DAV:   1    -0.166026332534E+02    0.13705E+00   -0.15203E+02   224   0.424E+01    0.938E-01
DAV:   2    -0.167631440099E+02   -0.16051E+00   -0.16751E+00   256   0.606E+00    0.613E-01
DAV:   3    -0.167593845654E+02    0.37594E-02   -0.46568E-02   272   0.959E-01    0.439E-01
DAV:   4    -0.167553721689E+02    0.40124E-02   -0.10640E-02   256   0.371E-01    0.162E-01
DAV:   5    -0.167554488425E+02   -0.76674E-04   -0.24775E-03   256   0.171E-01    0.684E-02
DAV:   6    -0.167553894374E+02    0.59405E-04   -0.49783E-04   256   0.742E-02
  11 F= -.16755389E+02 E0= -.16759526E+02  d E =-.286061E-01  mag=    -0.0000
       N       E                     dE             d eps       ncg     rms          rms(c)
DAV:   1    -0.167355656819E+02    0.19883E-01   -0.29575E+01   224   0.187E+01    0.462E-01
DAV:   2    -0.167668822337E+02   -0.31317E-01   -0.32525E-01   240   0.271E+00    0.337E-01
DAV:   3    -0.167659294697E+02    0.95276E-03   -0.94135E-03   272   0.437E-01    0.230E-01
DAV:   4    -0.167651449827E+02    0.78449E-03   -0.30291E-03   240   0.204E-01    0.844E-02
DAV:   5    -0.167652549583E+02   -0.10998E-03   -0.48360E-04   256   0.804E-02    0.436E-02
DAV:   6    -0.167652205085E+02    0.34450E-04   -0.19467E-04   144   0.491E-02
  12 F= -.16765221E+02 E0= -.16769572E+02  d E =-.983107E-02  mag=    -0.0000
       N       E                     dE             d eps       ncg     rms          rms(c)
DAV:   1    -0.167649636944E+02    0.29126E-03   -0.75087E-01   224   0.297E+00    0.726E-02
DAV:   2    -0.167657754454E+02   -0.81175E-03   -0.83145E-03   240   0.435E-01    0.546E-02
DAV:   3    -0.167657544207E+02    0.21025E-04   -0.21133E-04   144   0.699E-02
  13 F= -.16765754E+02 E0= -.16770146E+02  d E =-.103650E-01  mag=    -0.0000
       N       E                     dE             d eps       ncg     rms          rms(c)
DAV:   1    -0.167645900684E+02    0.11854E-02   -0.97606E+00   224   0.108E+01    0.263E-01
DAV:   2    -0.167747631799E+02   -0.10173E-01   -0.10908E-01   256   0.155E+00    0.182E-01
DAV:   3    -0.167745114429E+02    0.25174E-03   -0.32190E-03   272   0.255E-01    0.123E-01
DAV:   4    -0.167743064302E+02    0.20501E-03   -0.74764E-04   256   0.998E-02    0.459E-02
DAV:   5    -0.167743355309E+02   -0.29101E-04   -0.13051E-04   160   0.461E-02
  14 F= -.16774336E+02 E0= -.16778838E+02  d E =-.858111E-02  mag=    -0.0000
       N       E                     dE             d eps       ncg     rms          rms(c)
DAV:   1    -0.167604753080E+02    0.13831E-01   -0.15921E+01   224   0.137E+01    0.332E-01
DAV:   2    -0.167770942515E+02   -0.16619E-01   -0.17874E-01   256   0.199E+00    0.230E-01
DAV:   3    -0.167766986444E+02    0.39561E-03   -0.52282E-03   272   0.325E-01    0.155E-01
DAV:   4    -0.167763480533E+02    0.35059E-03   -0.11568E-03   248   0.124E-01    0.597E-02
DAV:   5    -0.167763791017E+02   -0.31048E-04   -0.23210E-04   160   0.606E-02
  15 F= -.16776379E+02 E0= -.16781042E+02  d E =-.106247E-01  mag=    -0.0000
       N       E                     dE             d eps       ncg     rms          rms(c)
DAV:   1    -0.167773074064E+02   -0.95935E-03   -0.24698E+00   224   0.541E+00    0.991E-02
DAV:   2    -0.167799321312E+02   -0.26247E-02   -0.27326E-02   248   0.782E-01    0.747E-02
DAV:   3    -0.167798799967E+02    0.52134E-04   -0.73018E-04   232   0.124E-01
  16 F= -.16779880E+02 E0= -.16784581E+02  d E =-.350090E-02  mag=    -0.0000
       N       E                     dE             d eps       ncg     rms          rms(c)
DAV:   1    -0.167655999662E+02    0.14332E-01   -0.22353E+01   224   0.163E+01    0.284E-01
DAV:   2    -0.167890766746E+02   -0.23477E-01   -0.24125E-01   256   0.234E+00    0.241E-01
DAV:   3    -0.167885003078E+02    0.57637E-03   -0.64726E-03   272   0.368E-01    0.178E-01
DAV:   4    -0.167877562926E+02    0.74402E-03   -0.13988E-03   240   0.136E-01    0.817E-02
DAV:   5    -0.167877302260E+02    0.26067E-04   -0.10980E-03   256   0.111E-01    0.355E-02
DAV:   6    -0.167877217561E+02    0.84699E-05   -0.69725E-05   144   0.323E-02
  17 F= -.16787722E+02 E0= -.16792601E+02  d E =-.113427E-01  mag=    -0.0000
       N       E                     dE             d eps       ncg     rms          rms(c)
DAV:   1    -0.167029629777E+02    0.84767E-01   -0.89664E+01   224   0.327E+01    0.580E-01
DAV:   2    -0.167967343481E+02   -0.93771E-01   -0.96780E-01   256   0.466E+00    0.467E-01
DAV:   3    -0.167947413712E+02    0.19930E-02   -0.25988E-02   272   0.735E-01    0.338E-01
DAV:   4    -0.167919504400E+02    0.27909E-02   -0.47825E-03   256   0.252E-01    0.164E-01
DAV:   5    -0.167917000409E+02    0.25040E-03   -0.40461E-03   256   0.213E-01    0.644E-02
DAV:   6    -0.167916698470E+02    0.30194E-04   -0.24051E-04   176   0.598E-02
  18 F= -.16791670E+02 E0= -.16796961E+02  d E =-.152907E-01  mag=    -0.0000
       N       E                     dE             d eps       ncg     rms          rms(c)
DAV:   1    -0.167868828902E+02    0.48172E-02   -0.18734E+01   224   0.149E+01    0.293E-01
DAV:   2    -0.168068336329E+02   -0.19951E-01   -0.20571E-01   240   0.215E+00    0.231E-01
DAV:   3    -0.168063214195E+02    0.51221E-03   -0.56917E-03   272   0.340E-01    0.166E-01
DAV:   4    -0.168057197311E+02    0.60169E-03   -0.14518E-03   240   0.135E-01    0.694E-02
DAV:   5    -0.168057512094E+02   -0.31478E-04   -0.65443E-04   256   0.860E-02
  19 F= -.16805751E+02 E0= -.16811107E+02  d E =-.140814E-01  mag=    -0.0000
       N       E                     dE             d eps       ncg     rms          rms(c)
DAV:   1    -0.166536652228E+02    0.15205E+00   -0.16992E+02   224   0.452E+01    0.959E-01
DAV:   2    -0.168316991933E+02   -0.17803E+00   -0.18326E+00   224   0.640E+00    0.690E-01
DAV:   3    -0.168270124189E+02    0.46868E-02   -0.51341E-02   272   0.101E+00    0.484E-01
DAV:   4    -0.168215648971E+02    0.54475E-02   -0.14546E-02   240   0.423E-01    0.182E-01
DAV:   5    -0.168216972340E+02   -0.13234E-03   -0.35510E-03   256   0.201E-01    0.849E-02
DAV:   6    -0.168215974198E+02    0.99814E-04   -0.67316E-04   256   0.881E-02
  20 F= -.16821597E+02 E0= -.16827132E+02  d E =-.299276E-01  mag=    -0.0000
       N       E                     dE             d eps       ncg     rms          rms(c)
DAV:   1    -0.167985640820E+02    0.23133E-01   -0.42863E+01   224   0.224E+01    0.483E-01
DAV:   2    -0.168436287260E+02   -0.45065E-01   -0.46535E-01   256   0.323E+00    0.399E-01
DAV:   3    -0.168423671898E+02    0.12615E-02   -0.13142E-02   272   0.513E-01    0.287E-01
DAV:   4    -0.168408528488E+02    0.15143E-02   -0.44409E-03   256   0.229E-01    0.112E-01
DAV:   5    -0.168409688972E+02   -0.11605E-03   -0.12285E-03   256   0.118E-01    0.568E-02
DAV:   6    -0.168409146384E+02    0.54259E-04   -0.28284E-04   192   0.579E-02
  21 F= -.16840915E+02 E0= -.16846817E+02  d E =-.193172E-01  mag=    -0.0000
       N       E                     dE             d eps       ncg     rms          rms(c)
DAV:   1    -0.168353400639E+02    0.56288E-02   -0.10267E+01   224   0.110E+01    0.233E-01
DAV:   2    -0.168462174835E+02   -0.10877E-01   -0.11234E-01   256   0.159E+00    0.192E-01
DAV:   3    -0.168458987551E+02    0.31873E-03   -0.31750E-03   272   0.252E-01    0.139E-01
DAV:   4    -0.168455466034E+02    0.35215E-03   -0.10578E-03   256   0.112E-01    0.541E-02
DAV:   5    -0.168455841827E+02   -0.37579E-04   -0.29460E-04   208   0.595E-02
  22 F= -.16845584E+02 E0= -.16851686E+02  d E =-.239868E-01  mag=     0.0000
       N       E                     dE             d eps       ncg     rms          rms(c)
DAV:   1    -0.168046313969E+02    0.40915E-01   -0.41126E+01   224   0.220E+01    0.464E-01
DAV:   2    -0.168478837524E+02   -0.43252E-01   -0.44649E-01   256   0.317E+00    0.384E-01
DAV:   3    -0.168466641264E+02    0.12196E-02   -0.12537E-02   272   0.502E-01    0.276E-01
DAV:   4    -0.168451862647E+02    0.14779E-02   -0.41116E-03   256   0.221E-01    0.110E-01
DAV:   5    -0.168452756556E+02   -0.89391E-04   -0.12777E-03   256   0.119E-01    0.553E-02
DAV:   6    -0.168452199214E+02    0.55734E-04   -0.27290E-04   208   0.566E-02
  23 F= -.16845220E+02 E0= -.16851723E+02  d E =-.236225E-01  mag=     0.0000
       N       E                     dE             d eps       ncg     rms          rms(c)
DAV:   1    -0.168365404050E+02    0.87353E-02   -0.10514E+01   224   0.111E+01    0.240E-01
DAV:   2    -0.168477004366E+02   -0.11160E-01   -0.11497E-01   256   0.161E+00    0.190E-01
DAV:   3    -0.168473734847E+02    0.32695E-03   -0.32892E-03   272   0.256E-01    0.135E-01
DAV:   4    -0.168470489638E+02    0.32452E-03   -0.10781E-03   256   0.113E-01    0.502E-02
DAV:   5    -0.168470887339E+02   -0.39770E-04   -0.24993E-04   208   0.552E-02
  24 F= -.16847089E+02 E0= -.16853379E+02  d E =-.254913E-01  mag=    -0.0000
       N       E                     dE             d eps       ncg     rms          rms(c)
DAV:   1    -0.168084857637E+02    0.38563E-01   -0.59545E+01   224   0.263E+01    0.537E-01
DAV:   2    -0.168698226457E+02   -0.61337E-01   -0.63503E-01   240   0.380E+00    0.495E-01
DAV:   3    -0.168681640070E+02    0.16586E-02   -0.17438E-02   272   0.607E-01    0.351E-01
DAV:   4    -0.168657117528E+02    0.24523E-02   -0.52474E-03   224   0.254E-01    0.174E-01
DAV:   5    -0.168656688583E+02    0.42895E-04   -0.29930E-03   256   0.180E-01    0.733E-02
DAV:   6    -0.168655863116E+02    0.82547E-04   -0.40593E-04   256   0.694E-02
  25 F= -.16865586E+02 E0= -.16872735E+02  d E =-.184976E-01  mag=    -0.0000
       N       E                     dE             d eps       ncg     rms          rms(c)
DAV:   1    -0.168607394833E+02    0.49294E-02   -0.79819E+00   224   0.962E+00    0.200E-01
DAV:   2    -0.168690692187E+02   -0.83297E-02   -0.86369E-02   240   0.140E+00    0.182E-01
DAV:   3    -0.168688342723E+02    0.23495E-03   -0.23706E-03   272   0.224E-01    0.129E-01
DAV:   4    -0.168685233497E+02    0.31092E-03   -0.71936E-04   224   0.939E-02    0.630E-02
DAV:   5    -0.168685406877E+02   -0.17338E-04   -0.40008E-04   224   0.662E-02
  26 F= -.16868541E+02 E0= -.16875999E+02  d E =-.214520E-01  mag=     0.0000
       N       E                     dE             d eps       ncg     rms          rms(c)
DAV:   1    -0.168364881488E+02    0.32035E-01   -0.31963E+01   224   0.193E+01    0.413E-01
DAV:   2    -0.168696881519E+02   -0.33200E-01   -0.34380E-01   240   0.279E+00    0.369E-01
DAV:   3    -0.168687605145E+02    0.92764E-03   -0.94419E-03   272   0.448E-01    0.258E-01
DAV:   4    -0.168675091377E+02    0.12514E-02   -0.29708E-03   240   0.190E-01    0.122E-01
DAV:   5    -0.168675454705E+02   -0.36333E-04   -0.14073E-03   256   0.124E-01    0.528E-02
DAV:   6    -0.168675077771E+02    0.37693E-04   -0.22552E-04   192   0.520E-02
  27 F= -.16867508E+02 E0= -.16875493E+02  d E =-.204190E-01  mag=     0.0000
       N       E                     dE             d eps       ncg     rms          rms(c)
DAV:   1    -0.168590643190E+02    0.84812E-02   -0.10435E+01   224   0.110E+01    0.236E-01
DAV:   2    -0.168699645928E+02   -0.10900E-01   -0.11252E-01   240   0.160E+00    0.209E-01
DAV:   3    -0.168696679541E+02    0.29664E-03   -0.30958E-03   272   0.256E-01    0.147E-01
DAV:   4    -0.168692975184E+02    0.37044E-03   -0.99999E-04   224   0.110E-01    0.670E-02
DAV:   5    -0.168693332093E+02   -0.35691E-04   -0.42812E-04   224   0.688E-02
  28 F= -.16869333E+02 E0= -.16877022E+02  d E =-.222445E-01  mag=    -0.0000
       N       E                     dE             d eps       ncg     rms          rms(c)
DAV:   1    -0.168419594248E+02    0.27338E-01   -0.40686E+01   224   0.216E+01    0.487E-01
DAV:   2    -0.168841722217E+02   -0.42213E-01   -0.42968E-01   256   0.307E+00    0.329E-01
DAV:   3    -0.168826658316E+02    0.15064E-02   -0.11855E-02   272   0.485E-01    0.240E-01
DAV:   4    -0.168813524701E+02    0.13134E-02   -0.47673E-03   240   0.233E-01    0.644E-02
DAV:   5    -0.168814113785E+02   -0.58908E-04   -0.34424E-04   240   0.647E-02
  29 F= -.16881411E+02 E0= -.16889862E+02  d E =-.120782E-01  mag=    -0.0000
       N       E                     dE             d eps       ncg     rms          rms(c)
DAV:   1    -0.168541558429E+02    0.27197E-01   -0.29983E+01   224   0.186E+01    0.424E-01
DAV:   2    -0.168854959012E+02   -0.31340E-01   -0.31895E-01   256   0.265E+00    0.286E-01
DAV:   3    -0.168843936129E+02    0.11023E-02   -0.88212E-03   272   0.418E-01    0.208E-01
DAV:   4    -0.168834692033E+02    0.92441E-03   -0.35411E-03   256   0.202E-01    0.562E-02
DAV:   5    -0.168835404680E+02   -0.71265E-04   -0.23091E-04   208   0.554E-02
  30 F= -.16883540E+02 E0= -.16892162E+02  d E =-.142073E-01  mag=     0.0000
       N       E                     dE             d eps       ncg     rms          rms(c)
DAV:   1    -0.168423521844E+02    0.41117E-01   -0.54316E+01   224   0.250E+01    0.425E-01
DAV:   2    -0.168983033816E+02   -0.55951E-01   -0.56702E-01   256   0.356E+00    0.385E-01
DAV:   3    -0.168969650073E+02    0.13384E-02   -0.14286E-02   272   0.545E-01    0.294E-01
DAV:   4    -0.168948640752E+02    0.21009E-02   -0.39962E-03   256   0.219E-01    0.131E-01
DAV:   5    -0.168947877832E+02    0.76292E-04   -0.26187E-03   256   0.165E-01    0.629E-02
DAV:   6    -0.168947853864E+02    0.23968E-05   -0.30321E-04   224   0.622E-02
  31 F= -.16894785E+02 E0= -.16903123E+02  d E =-.112449E-01  mag=    -0.0000
       N       E                     dE             d eps       ncg     rms          rms(c)
DAV:   1    -0.168631749786E+02    0.31613E-01   -0.37176E+01   224   0.207E+01    0.354E-01
DAV:   2    -0.169016029752E+02   -0.38428E-01   -0.38972E-01   256   0.295E+00    0.318E-01
DAV:   3    -0.169006627191E+02    0.94026E-03   -0.98286E-03   272   0.453E-01    0.243E-01
DAV:   4    -0.168992428521E+02    0.14199E-02   -0.27440E-03   256   0.182E-01    0.107E-01
DAV:   5    -0.168992124733E+02    0.30379E-04   -0.18072E-03   240   0.137E-01    0.518E-02
DAV:   6    -0.168992097988E+02    0.26745E-05   -0.17554E-04   160   0.491E-02
  32 F= -.16899210E+02 E0= -.16907197E+02  d E =-.156693E-01  mag=    -0.0000
       N       E                     dE             d eps       ncg     rms          rms(c)
DAV:   1    -0.168726665363E+02    0.26546E-01   -0.39294E+01   224   0.214E+01    0.479E-01
DAV:   2    -0.169136203087E+02   -0.40954E-01   -0.42192E-01   256   0.310E+00    0.396E-01
DAV:   3    -0.169123675136E+02    0.12528E-02   -0.11481E-02   256   0.494E-01    0.280E-01
DAV:   4    -0.169109073359E+02    0.14602E-02   -0.42326E-03   256   0.227E-01    0.113E-01
DAV:   5    -0.169110077617E+02   -0.10043E-03   -0.10163E-03   256   0.108E-01    0.548E-02
DAV:   6    -0.169109679243E+02    0.39837E-04   -0.24816E-04   176   0.550E-02
  33 F= -.16910968E+02 E0= -.16918746E+02  d E =-.117581E-01  mag=    -0.0000
       N       E                     dE             d eps       ncg     rms          rms(c)
DAV:   1    -0.169066804143E+02    0.43273E-02   -0.65006E+00   224   0.871E+00    0.196E-01
DAV:   2    -0.169134850912E+02   -0.68047E-02   -0.70142E-02   256   0.126E+00    0.164E-01
DAV:   3    -0.169132747524E+02    0.21034E-03   -0.19071E-03   256   0.202E-01    0.116E-01
DAV:   4    -0.169130512147E+02    0.22354E-03   -0.70038E-04   256   0.924E-02    0.482E-02
DAV:   5    -0.169130823554E+02   -0.31141E-04   -0.16276E-04   160   0.462E-02
  34 F= -.16913082E+02 E0= -.16920838E+02  d E =-.138726E-01  mag=     0.0000
       N       E                     dE             d eps       ncg     rms          rms(c)
DAV:   1    -0.169065909940E+02    0.64602E-02   -0.77272E+00   224   0.960E+00    0.373E-01
DAV:   2    -0.169144018259E+02   -0.78108E-02   -0.90156E-02   256   0.142E+00    0.256E-01
DAV:   3    -0.169141497468E+02    0.25208E-03   -0.33258E-03   256   0.256E-01    0.144E-01
DAV:   4    -0.169140710227E+02    0.78724E-04   -0.65978E-04   256   0.108E-01
  35 F= -.16914071E+02 E0= -.16921856E+02  d E =-.988667E-03  mag=    -0.0000
       N       E                     dE             d eps       ncg     rms          rms(c)
DAV:   1    -0.169141684859E+02   -0.18739E-04   -0.12214E+00   224   0.382E+00    0.147E-01
DAV:   2    -0.169153959766E+02   -0.12275E-02   -0.13641E-02   256   0.559E-01    0.107E-01
DAV:   3    -0.169153430976E+02    0.52879E-04   -0.51674E-04   256   0.100E-01
  36 F= -.16915343E+02 E0= -.16923110E+02  d E =-.226074E-02  mag=     0.0000
       N       E                     dE             d eps       ncg     rms          rms(c)
DAV:   1    -0.169133308529E+02    0.20651E-02   -0.50437E+00   224   0.775E+00    0.182E-01
DAV:   2    -0.169185980067E+02   -0.52672E-02   -0.54703E-02   256   0.113E+00    0.157E-01
DAV:   3    -0.169184368477E+02    0.16116E-03   -0.15283E-03   272   0.182E-01    0.109E-01
DAV:   4    -0.169182552648E+02    0.18158E-03   -0.54083E-04   256   0.843E-02    0.487E-02
DAV:   5    -0.169182697960E+02   -0.14531E-04   -0.13453E-04   160   0.433E-02
  37 F= -.16918270E+02 E0= -.16926111E+02  d E =-.292670E-02  mag=     0.0000
       N       E                     dE             d eps       ncg     rms          rms(c)
DAV:   1    -0.168787698712E+02    0.39485E-01   -0.40868E+01   224   0.221E+01    0.509E-01
DAV:   2    -0.169211143701E+02   -0.42344E-01   -0.44037E-01   256   0.320E+00    0.440E-01
DAV:   3    -0.169199515984E+02    0.11628E-02   -0.12279E-02   272   0.515E-01    0.305E-01
DAV:   4    -0.169184470248E+02    0.15046E-02   -0.40828E-03   256   0.233E-01    0.140E-01
DAV:   5    -0.169185367524E+02   -0.89728E-04   -0.13245E-03   256   0.125E-01    0.611E-02
DAV:   6    -0.169184668825E+02    0.69870E-04   -0.31884E-04   224   0.626E-02
  38 F= -.16918467E+02 E0= -.16926787E+02  d E =-.312378E-02  mag=     0.0000
       N       E                     dE             d eps       ncg     rms          rms(c)
DAV:   1    -0.169110893791E+02    0.74474E-02   -0.90193E+00   224   0.104E+01    0.236E-01
DAV:   2    -0.169204596117E+02   -0.93702E-02   -0.97589E-02   256   0.151E+00    0.207E-01
DAV:   3    -0.169202117158E+02    0.24790E-03   -0.27188E-03   272   0.244E-01    0.144E-01
DAV:   4    -0.169199033042E+02    0.30841E-03   -0.87672E-04   256   0.107E-01    0.676E-02
DAV:   5    -0.169199319726E+02   -0.28668E-04   -0.30172E-04   224   0.611E-02
  39 F= -.16919932E+02 E0= -.16927983E+02  d E =-.458887E-02  mag=     0.0000
       N       E                     dE             d eps       ncg     rms          rms(c)
DAV:   1    -0.169204410051E+02   -0.53770E-03   -0.78986E-01   224   0.306E+00    0.470E-02
DAV:   2    -0.169212587176E+02   -0.81771E-03   -0.83026E-03   256   0.439E-01    0.479E-02
DAV:   3    -0.169212350320E+02    0.23686E-04   -0.18835E-04   160   0.687E-02
  40 F= -.16921235E+02 E0= -.16929369E+02  d E =-.130306E-02  mag=     0.0000
       N       E                     dE             d eps       ncg     rms          rms(c)
DAV:   1    -0.169202311976E+02    0.10275E-02   -0.36760E+00   224   0.660E+00    0.107E-01
DAV:   2    -0.169240124396E+02   -0.37812E-02   -0.38497E-02   256   0.945E-01    0.110E-01
DAV:   3    -0.169239081274E+02    0.10431E-03   -0.99399E-04   272   0.147E-01    0.860E-02
DAV:   4    -0.169237556766E+02    0.15245E-03   -0.21970E-04   176   0.552E-02    0.472E-02
DAV:   5    -0.169237446575E+02    0.11019E-04   -0.34989E-04   240   0.673E-02
  41 F= -.16923745E+02 E0= -.16932079E+02  d E =-.381268E-02  mag=     0.0000
       N       E                     dE             d eps       ncg     rms          rms(c)
DAV:   1    -0.169133059093E+02    0.10450E-01   -0.14633E+01   224   0.132E+01    0.220E-01
DAV:   2    -0.169286377415E+02   -0.15332E-01   -0.15676E-01   256   0.189E+00    0.206E-01
DAV:   3    -0.169282789893E+02    0.35875E-03   -0.41373E-03   272   0.298E-01    0.154E-01
DAV:   4    -0.169277408281E+02    0.53816E-03   -0.80245E-04   256   0.101E-01    0.842E-02
DAV:   5    -0.169276631785E+02    0.77650E-04   -0.90124E-04   256   0.996E-02
  42 F= -.16927663E+02 E0= -.16936265E+02  d E =-.773121E-02  mag=     0.0000
       N       E                     dE             d eps       ncg     rms          rms(c)
DAV:   1    -0.168717339825E+02    0.56007E-01   -0.58713E+01   224   0.264E+01    0.452E-01
DAV:   2    -0.169324969370E+02   -0.60763E-01   -0.62138E-01   256   0.377E+00    0.413E-01
DAV:   3    -0.169309461179E+02    0.15508E-02   -0.16483E-02   256   0.593E-01    0.308E-01
DAV:   4    -0.169286144325E+02    0.23317E-02   -0.36669E-03   256   0.216E-01    0.162E-01
DAV:   5    -0.169282624102E+02    0.35202E-03   -0.33056E-03   256   0.191E-01    0.642E-02
DAV:   6    -0.169282927031E+02   -0.30293E-04   -0.18964E-04   176   0.539E-02
  43 F= -.16928293E+02 E0= -.16935829E+02  d E =-.836073E-02  mag=     0.0000
       N       E                     dE             d eps       ncg     rms          rms(c)
DAV:   1    -0.169228403358E+02    0.54221E-02   -0.67385E+00   224   0.892E+00    0.155E-01
DAV:   2    -0.169299063992E+02   -0.70661E-02   -0.71836E-02   256   0.128E+00    0.140E-01
DAV:   3    -0.169297553139E+02    0.15109E-03   -0.19208E-03   272   0.204E-01    0.104E-01
DAV:   4    -0.169295531160E+02    0.20220E-03   -0.42156E-04   240   0.731E-02    0.552E-02
DAV:   5    -0.169295737412E+02   -0.20625E-04   -0.38737E-04   256   0.667E-02
  44 F= -.16929574E+02 E0= -.16937765E+02  d E =-.964177E-02  mag=    -0.0000
       N       E                     dE             d eps       ncg     rms          rms(c)
DAV:   1    -0.169260227491E+02    0.35304E-02   -0.84533E+00   224   0.996E+00    0.193E-01
DAV:   2    -0.169348081306E+02   -0.87854E-02   -0.90319E-02   256   0.144E+00    0.167E-01
DAV:   3    -0.169345302776E+02    0.27785E-03   -0.24681E-03   272   0.230E-01    0.122E-01
DAV:   4    -0.169341921291E+02    0.33815E-03   -0.71038E-04   256   0.934E-02    0.573E-02
DAV:   5    -0.169341759780E+02    0.16151E-04   -0.37043E-04   224   0.649E-02
  45 F= -.16934176E+02 E0= -.16941638E+02  d E =-.460224E-02  mag=     0.0000
       N       E                     dE             d eps       ncg     rms          rms(c)
DAV:   1    -0.168622243197E+02    0.71968E-01   -0.76281E+01   224   0.300E+01    0.620E-01
DAV:   2    -0.169412008824E+02   -0.78977E-01   -0.81356E-01   256   0.432E+00    0.499E-01
DAV:   3    -0.169386694795E+02    0.25314E-02   -0.22756E-02   272   0.691E-01    0.356E-01
DAV:   4    -0.169357069069E+02    0.29626E-02   -0.67382E-03   240   0.287E-01    0.156E-01
DAV:   5    -0.169356447062E+02    0.62201E-04   -0.25046E-03   256   0.167E-01    0.679E-02
DAV:   6    -0.169356636792E+02   -0.18973E-04   -0.44474E-04   240   0.734E-02
  46 F= -.16935664E+02 E0= -.16940838E+02  d E =-.608994E-02  mag=    -0.0000
       N       E                     dE             d eps       ncg     rms          rms(c)
DAV:   1    -0.169257134970E+02    0.99312E-02   -0.11856E+01   224   0.118E+01    0.224E-01
DAV:   2    -0.169380949448E+02   -0.12381E-01   -0.12616E-01   256   0.171E+00    0.204E-01
DAV:   3    -0.169377982320E+02    0.29671E-03   -0.34201E-03   272   0.271E-01    0.150E-01
DAV:   4    -0.169374022739E+02    0.39596E-03   -0.96908E-04   224   0.110E-01    0.742E-02
DAV:   5    -0.169374451404E+02   -0.42867E-04   -0.61327E-04   240   0.826E-02
  47 F= -.16937445E+02 E0= -.16943412E+02  d E =-.787140E-02  mag=    -0.0000
       N       E                     dE             d eps       ncg     rms          rms(c)
DAV:   1    -0.169369973723E+02    0.40490E-03   -0.36419E+00   224   0.657E+00    0.167E-01
DAV:   2    -0.169406936432E+02   -0.36963E-02   -0.40658E-02   256   0.941E-01    0.118E-01
DAV:   3    -0.169406025437E+02    0.91100E-04   -0.12277E-03   256   0.156E-01    0.769E-02
DAV:   4    -0.169405309773E+02    0.71566E-04   -0.27347E-04   208   0.638E-02
  48 F= -.16940531E+02 E0= -.16946278E+02  d E =-.308584E-02  mag=    -0.0000
       N       E                     dE             d eps       ncg     rms          rms(c)
DAV:   1    -0.169399530663E+02    0.64948E-03   -0.72425E-01   224   0.293E+00    0.807E-02
DAV:   2    -0.169406815102E+02   -0.72844E-03   -0.83188E-03   256   0.421E-01    0.503E-02
DAV:   3    -0.169406704967E+02    0.11014E-04   -0.23754E-04   192   0.708E-02
  49 F= -.16940670E+02 E0= -.16946341E+02  d E =-.322536E-02  mag=    -0.0000
       N       E                     dE             d eps       ncg     rms          rms(c)
DAV:   1    -0.169404887617E+02    0.19275E-03   -0.13046E+00   224   0.390E+00    0.183E-01
DAV:   2    -0.169417899225E+02   -0.13012E-02   -0.15338E-02   256   0.578E-01    0.123E-01
DAV:   3    -0.169417402874E+02    0.49635E-04   -0.67513E-04   256   0.110E-01
  50 F= -.16941740E+02 E0= -.16947472E+02  d E =-.106979E-02  mag=    -0.0000
       N       E                     dE             d eps       ncg     rms          rms(c)
DAV:   1    -0.169417269339E+02    0.62989E-04   -0.35422E-02   256   0.642E-01    0.165E-02
DAV:   2    -0.169417615905E+02   -0.34657E-04   -0.36191E-04   224   0.986E-02
  51 F= -.16941762E+02 E0= -.16947486E+02  d E =-.109109E-02  mag=    -0.0000
