 vasp.6.1.2 22Jul20 (build Jan 14 2022 17:24:41) gamma-only                      
 executed on             LinuxPGI date 2022.01.26  10:33:05
 running on    8 total cores
 distrk:  each k-point on    8 cores,    1 groups
 distr:  one band on NCORE=   8 cores,    1 groups


--------------------------------------------------------------------------------------------------------


 INCAR:
 POTCAR:    PAW_PBE Au 04Oct2007                  
 -----------------------------------------------------------------------------
|                                                                             |
|           W    W    AA    RRRRR   N    N  II  N    N   GGGG   !!!           |
|           W    W   A  A   R    R  NN   N  II  NN   N  G    G  !!!           |
|           W    W  A    A  R    R  N N  N  II  N N  N  G       !!!           |
|           W WW W  AAAAAA  RRRRR   N  N N  II  N  N N  G  GGG   !            |
|           WW  WW  A    A  R   R   N   NN  II  N   NN  G    G                |
|           W    W  A    A  R    R  N    N  II  N    N   GGGG   !!!           |
|                                                                             |
|     You use a magnetic or noncollinear calculation, but did not specify     |
|     the initial magnetic moment with the MAGMOM tag. Note that a            |
|     default of 1 will be used for all atoms. This ferromagnetic setup       |
|     may break the symmetry of the crystal, in particular it may rule        |
|     out finding an antiferromagnetic solution. Thence, we recommend         |
|     setting the initial magnetic moment manually or verifying carefully     |
|     that this magnetic setup is desired.                                    |
|                                                                             |
 -----------------------------------------------------------------------------

 -----------------------------------------------------------------------------
|                                                                             |
|           W    W    AA    RRRRR   N    N  II  N    N   GGGG   !!!           |
|           W    W   A  A   R    R  NN   N  II  NN   N  G    G  !!!           |
|           W    W  A    A  R    R  N N  N  II  N N  N  G       !!!           |
|           W WW W  AAAAAA  RRRRR   N  N N  II  N  N N  G  GGG   !            |
|           WW  WW  A    A  R   R   N   NN  II  N   NN  G    G                |
|           W    W  A    A  R    R  N    N  II  N    N   GGGG   !!!           |
|                                                                             |
|     For optimal performance we recommend to set                             |
|       NCORE = 4 - approx SQRT(number of cores).                             |
|     NCORE specifies how many cores store one orbital (NPAR=cpu/NCORE).      |
|     This setting can greatly improve the performance of VASP for DFT.       |
|     The default, NCORE=1 might be grossly inefficient on modern             |
|     multi-core architectures or massively parallel machines. Do your        |
|     own testing!!!!                                                         |
|     Unfortunately you need to use the default for GW and RPA                |
|     calculations (for HF NCORE is supported but not extensively tested      |
|     yet).                                                                   |
|                                                                             |
 -----------------------------------------------------------------------------

 POTCAR:    PAW_PBE Au 04Oct2007                  
   SHA256 =  d0044ae04e2bdce24051b198fc5c053d722a5bc6fe3c3b100514a13fc5d2db88 Au/POTCAR             
   COPYR  = (c) Copyright 04Oct2007 Georg Kresse                                                    
   COPYR  = This file is part of the software VASP. Any use, copying, and all other rights are regul
   COPYR  = If you do not have a valid VASP license, you may not use, copy or distribute this file. 
   VRHFIN =Au: s1d10                                                                                
   LEXCH  = PE                                                                                      
   EATOM  =   926.0867 eV,   68.0654 Ry                                                             
                                                                                                    
   TITEL  = PAW_PBE Au 04Oct2007                                                                    
   LULTRA =        F    use ultrasoft PP ?                                                          
   IUNSCR =        1    unscreen: 0-lin 1-nonlin 2-no                                               
   RPACOR =    2.330    partial core radius                                                         
   POMASS =  196.966; ZVAL   =   11.000    mass and valenz                                          
   RCORE  =    2.500    outmost cutoff radius                                                       
   RWIGS  =    2.840; RWIGS  =    1.503    wigner-seitz radius (au A)                               
   ENMAX  =  229.943; ENMIN  =  172.457 eV                                                          
   ICORE  =        3    local potential                                                             
   LCOR   =        T    correct aug charges                                                         
   LPAW   =        T    paw PP                                                                      
   EAUG   =  356.670                                                                                
   DEXC   =    0.000                                                                                
   RMAX   =    2.562    core radius for proj-oper                                                   
   RAUG   =    1.300    factor for augmentation sphere                                              
   RDEP   =    2.598    radius for radial grids                                                     
   RDEPT  =    2.193    core radius for aug-charge                                                  
                                                                                                    
   Atomic configuration                                                                             
   16 entries                                                                                       
     n  l   j            E        occ.                                                              
     1  0  0.50    -80748.5001   2.0000                                                             
     2  0  0.50    -14244.7466   2.0000                                                             
     2  1  1.50    -12310.9591   6.0000                                                             
     3  0  0.50     -3362.1768   2.0000                                                             
     3  1  1.50     -2801.5463   6.0000                                                             
     3  2  2.50     -2203.8206  10.0000                                                             
     4  0  0.50      -729.8168   2.0000                                                             
     4  1  1.50      -546.0527   6.0000                                                             
     4  2  2.50      -325.7302  10.0000                                                             
     4  3  3.50       -81.1472  14.0000                                                             
     5  0  0.50      -108.3201   2.0000                                                             
     5  1  1.50       -59.7479   6.0000                                                             
     5  2  2.50        -6.8783  10.0000                                                             
     6  0  0.50        -5.7602   1.0000                                                             
     6  1  1.50        -6.8029   0.0000                                                             
     5  3  2.50        -1.3606   0.0000                                                             
   Description                                                                                      
     l       E           TYP  RCUT    TYP  RCUT                                                     
     2     -6.8782861     23  2.500                                                                 
     2     -8.2388687     23  2.500                                                                 
     0     -5.7601759     23  2.500                                                                 
     0     -0.8493231     23  2.500                                                                 
     1     -2.7211652     23  2.500                                                                 
     1     27.2116520     23  2.500                                                                 
     3     -1.3605826     23  2.500                                                                 
  local pseudopotential read in
  partial core-charges read in
  partial kinetic energy density read in
  atomic valenz-charges read in
  non local Contribution for L=            2  read in
    real space projection operators read in
  non local Contribution for L=            2  read in
    real space projection operators read in
  non local Contribution for L=            0  read in
    real space projection operators read in
  non local Contribution for L=            0  read in
    real space projection operators read in
  non local Contribution for L=            1  read in
    real space projection operators read in
  non local Contribution for L=            1  read in
    real space projection operators read in
    PAW grid and wavefunctions read in
 
   number of l-projection  operators is LMAX  =            6
   number of lm-projection operators is LMMAX =           18
 
  PAW_PBE Au 04Oct2007                  :
 energy of atom  1       EATOM= -926.0867
 kinetic energy error for atom=    0.0062 (will be added to EATOM!!)
 
 
 POSCAR: Au
  positions in cartesian coordinates
  No initial velocities read in
 exchange correlation table for  LEXCH =        8
   RHO(1)=    0.500       N(1)  =     2000
   RHO(2)=  100.500       N(2)  =     4000
 


--------------------------------------------------------------------------------------------------------


 ion  position               nearest neighbor table
   1  0.565  0.451  0.485-   6 2.59   8 2.66   5 2.70   3 2.73   2 2.75
   2  0.464  0.492  0.542-   6 2.64   8 2.68   4 2.68   7 2.70   1 2.75   3 2.76   5 2.94
   3  0.467  0.482  0.419-   6 2.58   4 2.66   5 2.70   1 2.73   2 2.76
   4  0.421  0.577  0.470-   7 2.61   5 2.66   3 2.66   2 2.68
   5  0.539  0.565  0.464-   4 2.66   8 2.66   7 2.66   3 2.70   1 2.70   2 2.94
   6  0.467  0.390  0.486-   3 2.58   1 2.59   2 2.64
   7  0.486  0.607  0.562-   4 2.61   8 2.62   5 2.66   2 2.70
   8  0.572  0.530  0.573-   7 2.62   1 2.66   5 2.66   2 2.68
 

IMPORTANT INFORMATION: All symmetrisations will be switched off!
NOSYMM: (Re-)initialisation of all symmetry stuff for point group C_1.


----------------------------------------------------------------------------------------

                                     Primitive cell                                     

  volume of cell :   11371.2648

  direct lattice vectors                    reciprocal lattice vectors
    22.387680446  0.000000000  0.000000000     0.044667423  0.000000000  0.000000000
     0.000000000 22.805161801  0.000000000     0.000000000  0.043849722  0.000000000
     0.000000000  0.000000000 22.272374333     0.000000000  0.000000000  0.044898671

  length of vectors
    22.387680446 22.805161801 22.272374333     0.044667423  0.043849722  0.044898671

  position of ions in fractional coordinates (direct lattice)
     0.564507476  0.451206731  0.485216889
     0.463543231  0.492245530  0.541805071
     0.467112991  0.481556681  0.418596917
     0.421444061  0.576986180  0.469911637
     0.539364116  0.565225739  0.464142424
     0.467306174  0.389930511  0.486475633
     0.486453251  0.606837506  0.562417623
     0.572493880  0.529850215  0.572958174

  ion indices of the primitive-cell ions
   primitive index   ion index
                 1           1
                 2           2
                 3           3
                 4           4
                 5           5
                 6           6
                 7           7
                 8           8

----------------------------------------------------------------------------------------

 
 
 KPOINTS: KPOINTS created by Atomic Simulation Env

Automatic generation of k-mesh.
Space group operators:
 irot       det(A)        alpha          n_x          n_y          n_z        tau_x        tau_y        tau_z
    1     1.000000     0.000000     1.000000     0.000000     0.000000     0.000000     0.000000     0.000000
 
 Subroutine IBZKPT returns following result:
 ===========================================
 
 Found      1 irreducible k-points:
 
 Following reciprocal coordinates:
            Coordinates               Weight
  0.000000  0.000000  0.000000      1.000000
 
 Following cartesian coordinates:
            Coordinates               Weight
  0.000000  0.000000  0.000000      1.000000
 


--------------------------------------------------------------------------------------------------------




 Dimension of arrays:
   k-points           NKPTS =      1   k-points in BZ     NKDIM =      1   number of bands    NBANDS=     56
   number of dos      NEDOS =    301   number of ions     NIONS =      8
   non local maximal  LDIM  =      6   non local SUM 2l+1 LMDIM =     18
   total plane-waves  NPLWV = ******
   max r-space proj   IRMAX =      1   max aug-charges    IRDMAX=   7754
   dimension x,y,z NGX =   112 NGY =  112 NGZ =  112
   dimension x,y,z NGXF=   224 NGYF=  224 NGZF=  224
   support grid    NGXF=   224 NGYF=  224 NGZF=  224
   ions per type =               8
   NGX,Y,Z   is equivalent  to a cutoff of   8.32,  8.16,  8.36 a.u.
   NGXF,Y,Z  is equivalent  to a cutoff of  16.63, 16.33, 16.72 a.u.

 SYSTEM =  unknown system                          
 POSCAR =  Au                                      

 Startparameter for this run:
   NWRITE =      2    write-flag & timer
   PREC   = normal    normal or accurate (medium, high low for compatibility)
   ISTART =      0    job   : 0-new  1-cont  2-samecut
   ICHARG =      2    charge: 1-file 2-atom 10-const
   ISPIN  =      2    spin polarized calculation?
   LNONCOLLINEAR =      F non collinear calculations
   LSORBIT =      F    spin-orbit coupling
   INIWAV =      1    electr: 0-lowe 1-rand  2-diag
   LASPH  =      F    aspherical Exc in radial PAW
   METAGGA=      F    non-selfconsistent MetaGGA calc.

 Electronic Relaxation 1
   ENCUT  =  400.0 eV  29.40 Ry    5.42 a.u.  36.51 37.19 36.32*2*pi/ulx,y,z
   ENINI  =  400.0     initial cutoff
   ENAUG  =  356.7 eV  augmentation charge cutoff
   NELM   =     60;   NELMIN=  2; NELMDL=  0     # of ELM steps 
   EDIFF  = 0.1E-03   stopping-criterion for ELM
   LREAL  =      F    real-space projection
   NLSPLINE    = F    spline interpolate recip. space projectors
   LCOMPAT=      F    compatible to vasp.4.4
   GGA_COMPAT  = T    GGA compatible to vasp.4.4-vasp.4.6
   LMAXPAW     = -100 max onsite density
   LMAXMIX     =    2 max onsite mixed and CHGCAR
   VOSKOWN=      0    Vosko Wilk Nusair interpolation
   ROPT   =    0.00000
 Ionic relaxation
   EDIFFG = 0.1E-02   stopping-criterion for IOM
   NSW    =   1000    number of steps for IOM
   NBLOCK =      1;   KBLOCK =   1000    inner block; outer block 
   IBRION =      2    ionic relax: 0-MD 1-quasi-New 2-CG
   NFREE  =      1    steps in history (QN), initial steepest desc. (CG)
   ISIF   =      0    stress and relaxation
   IWAVPR =     11    prediction:  0-non 1-charg 2-wave 3-comb
   ISYM   =      0    0-nonsym 1-usesym 2-fastsym
   LCORR  =      T    Harris-Foulkes like correction to forces

   POTIM  = 0.5000    time-step for ionic-motion
   TEIN   =    0.0    initial temperature
   TEBEG  =    0.0;   TEEND  =   0.0 temperature during run
   SMASS  =  -3.00    Nose mass-parameter (am)
   estimated Nose-frequenzy (Omega)   =  0.10E-29 period in steps = 0.13E+47 mass=  -0.115E-25a.u.
   SCALEE = 1.0000    scale energy and forces
   NPACO  =    256;   APACO  = 16.0  distance and # of slots for P.C.
   PSTRESS=    0.0 pullay stress

  Mass of Ions in am
   POMASS = 196.97
  Ionic Valenz
   ZVAL   =  11.00
  Atomic Wigner-Seitz radii
   RWIGS  =  -1.00
  virtual crystal weights 
   VCA    =   1.00
   NELECT =      88.0000    total number of electrons
   NUPDOWN=      -1.0000    fix difference up-down

 DOS related values:
   EMIN   =  10.00;   EMAX   =-10.00  energy-range for DOS
   EFERMI =   0.00
   ISMEAR =     1;   SIGMA  =   0.20  broadening in eV -4-tet -1-fermi 0-gaus

 Electronic relaxation 2 (details)
   IALGO  =     38    algorithm
   LDIAG  =      T    sub-space diagonalisation (order eigenvalues)
   LSUBROT=      F    optimize rotation matrix (better conditioning)
   TURBO    =      0    0=normal 1=particle mesh
   IRESTART =      0    0=no restart 2=restart with 2 vectors
   NREBOOT  =      0    no. of reboots
   NMIN     =      0    reboot dimension
   EREF     =   0.00    reference energy to select bands
   IMIX   =      4    mixing-type and parameters
     AMIX     =   0.40;   BMIX     =  1.00
     AMIX_MAG =   1.60;   BMIX_MAG =  1.00
     AMIN     =   0.10
     WC   =   100.;   INIMIX=   1;  MIXPRE=   1;  MAXMIX= -45

 Intra band minimization:
   WEIMIN = 0.0010     energy-eigenvalue tresh-hold
   EBREAK =  0.45E-06  absolut break condition
   DEPER  =   0.30     relativ break condition  

   TIME   =   0.40     timestep for ELM

  volume/ion in A,a.u.               =    1421.41      9592.14
  Fermi-wavevector in a.u.,A,eV,Ry     =   0.323817  0.611925  1.426671  0.104857
  Thomas-Fermi vector in A             =   1.213399
 
 Write flags
   LWAVE        =      F    write WAVECAR
   LDOWNSAMPLE  =      F    k-point downsampling of WAVECAR
   LCHARG       =      F    write CHGCAR
   LVTOT        =      F    write LOCPOT, total local potential
   LVHAR        =      F    write LOCPOT, Hartree potential only
   LELF         =      F    write electronic localiz. function (ELF)
   LORBIT       =      0    0 simple, 1 ext, 2 COOP (PROOUT), +10 PAW based schemes


 Dipole corrections
   LMONO  =      F    monopole corrections only (constant potential shift)
   LDIPOL =      F    correct potential (dipole corrections)
   IDIPOL =      0    1-x, 2-y, 3-z, 4-all directions 
   EPSILON=  1.0000000 bulk dielectric constant

 Exchange correlation treatment:
   GGA     =    PE    GGA type
   LEXCH   =     8    internal setting for exchange type
   VOSKOWN=      0    Vosko Wilk Nusair interpolation
   LHFCALC =     F    Hartree Fock is set to
   LHFONE  =     F    Hartree Fock one center treatment
   AEXX    =    0.0000 exact exchange contribution

 Linear response parameters
   LEPSILON=     F    determine dielectric tensor
   LRPA    =     F    only Hartree local field effects (RPA)
   LNABLA  =     F    use nabla operator in PAW spheres
   LVEL    =     F    velocity operator in full k-point grid
   LINTERFAST=   F  fast interpolation
   KINTER  =     0    interpolate to denser k-point grid
   CSHIFT  =0.1000    complex shift for real part using Kramers Kronig
   OMEGAMAX=  -1.0    maximum frequency
   DEG_THRESHOLD= 0.2000000E-02 threshold for treating states as degnerate
   RTIME   =   -0.100 relaxation time in fs
  (WPLASMAI=    0.000 imaginary part of plasma frequency in eV, 0.658/RTIME)
   DFIELD  = 0.0000000 0.0000000 0.0000000 field for delta impulse in time
 
 Orbital magnetization related:
   ORBITALMAG=     F  switch on orbital magnetization
   LCHIMAG   =     F  perturbation theory with respect to B field
   DQ        =  0.001000  dq finite difference perturbation B field
   LLRAUG    =     F  two centre corrections for induced B field



--------------------------------------------------------------------------------------------------------


 conjugate gradient relaxation of ions
 charge density and potential will be updated during run
 spin polarized calculation
 Variant of blocked Davidson
 Davidson routine will perform the subspace rotation
 perform sub-space diagonalisation
    after iterative eigenvector-optimisation
 modified Broyden-mixing scheme, WC =      100.0
 initial mixing is a Kerker type mixing with AMIX =  0.4000 and BMIX =      1.0000
 Hartree-type preconditioning will be used
 using additional bands            12
 reciprocal scheme for non local part
 use partial core corrections
 calculate Harris-corrections to forces 
   (improved forces if not selfconsistent)
 use gradient corrections 
 use of overlap-Matrix (Vanderbilt PP)
 Methfessel and Paxton  Order N= 1 SIGMA  =   0.20


--------------------------------------------------------------------------------------------------------


  energy-cutoff  :      400.00
  volume of cell :    11371.26
      direct lattice vectors                 reciprocal lattice vectors
    22.387680446  0.000000000  0.000000000     0.044667423  0.000000000  0.000000000
     0.000000000 22.805161801  0.000000000     0.000000000  0.043849722  0.000000000
     0.000000000  0.000000000 22.272374333     0.000000000  0.000000000  0.044898671

  length of vectors
    22.387680446 22.805161801 22.272374333     0.044667423  0.043849722  0.044898671


 
 k-points in units of 2pi/SCALE and weight: KPOINTS created by Atomic Simulation Env
   0.00000000  0.00000000  0.00000000       1.000
 
 k-points in reciprocal lattice and weights: KPOINTS created by Atomic Simulation Env
   0.00000000  0.00000000  0.00000000       1.000
 
 position of ions in fractional coordinates (direct lattice) 
   0.56450748  0.45120673  0.48521689
   0.46354323  0.49224553  0.54180507
   0.46711299  0.48155668  0.41859692
   0.42144406  0.57698618  0.46991164
   0.53936412  0.56522574  0.46414242
   0.46730617  0.38993051  0.48647563
   0.48645325  0.60683751  0.56241762
   0.57249388  0.52985022  0.57295817
 
 position of ions in cartesian coordinates  (Angst):
  12.63801297 10.28984251 10.80693219
  10.37765773 11.22573895 12.06728536
  10.45757638 10.98197803  9.32314722
   9.43515496 13.15826319 10.46604788
  12.07511147 12.89006444 10.33755381
  10.46190128  8.89242840 10.83496741
  10.89055994 13.83902751 12.52637584
  12.81681005 12.08331989 12.76113893
 


--------------------------------------------------------------------------------------------------------


 use parallel FFT for orbitals z direction half grid
 k-point   1 :   0.0000 0.0000 0.0000  plane waves:  103310

 maximum and minimum number of plane-waves per node :     12919    12909

 maximum number of plane-waves:    103310
 maximum index in each direction: 
   IXMAX=   36   IYMAX=   37   IZMAX=   36
   IXMIN=  -36   IYMIN=  -37   IZMIN=    0


 parallel 3D FFT for wavefunctions:
    minimum data exchange during FFTs selected (reduces bandwidth)
 parallel 3D FFT for charge:
    minimum data exchange during FFTs selected (reduces bandwidth)


 total amount of memory used by VASP MPI-rank0   223939. kBytes
=======================================================================

   base      :      30000. kBytes
   nonl-proj :       3513. kBytes
   fftplans  :      51292. kBytes
   grid      :     115956. kBytes
   one-center:         15. kBytes
   wavefun   :      23163. kBytes
 
     INWAV:  cpu time    0.0001: real time    0.0001
 Broyden mixing: mesh for mixing (old mesh)
   NGX = 73   NGY = 75   NGZ = 73
  (NGX  =224   NGY  =224   NGZ  =224)
  gives a total of 399675 points

 initial charge density was supplied:
 charge density of overlapping atoms calculated
 number of electron      88.0000000 magnetization       8.0000000
 keeping initial charge density in first step


--------------------------------------------------------------------------------------------------------


 Maximum index for augmentation-charges           966 (set IRDMAX)


--------------------------------------------------------------------------------------------------------


 First call to EWALD:  gamma=   0.079
 Maximum number of real-space cells 3x 3x 3
 Maximum number of reciprocal cells 3x 3x 3

    FEWALD:  cpu time    0.0014: real time    0.0014


--------------------------------------- Iteration      1(   1)  ---------------------------------------


    POTLOK:  cpu time    3.8104: real time    3.8679
    SETDIJ:  cpu time    0.0264: real time    0.0265
     EDDAV:  cpu time    6.6967: real time    6.7050
       DOS:  cpu time    0.0059: real time    0.0059
    --------------------------------------------
      LOOP:  cpu time   10.5394: real time   10.6052

 eigenvalue-minimisations  :   224
 total energy-change (2. order) : 0.7564514E+03  (-0.1333865E+04)
 number of electron      88.0000000 magnetization       8.0000000
 augmentation part       88.0000000 magnetization       8.0000000

 Free energy of the ion-electron system (eV)
  ---------------------------------------------------
  alpha Z        PSCENC =         6.55573045
  Ewald energy   TEWEN  =      8968.30240711
  -Hartree energ DENC   =    -16043.01236647
  -exchange      EXHF   =         0.00000000
  -V(xc)+E(xc)   XCENC  =       119.43331471
  PAW double counting   =      6992.17180065    -6807.49900724
  entropy T*S    EENTRO =         0.00346439
  eigenvalues    EBANDS =       111.85193665
  atomic energy  EATOM  =      7408.64415014
  Solvation  Ediel_sol  =         0.00000000
  ---------------------------------------------------
  free energy    TOTEN  =       756.45143040 eV

  energy without entropy =      756.44796601  energy(sigma->0) =      756.45027560


--------------------------------------------------------------------------------------------------------




--------------------------------------- Iteration      1(   2)  ---------------------------------------


     EDDAV:  cpu time   11.0407: real time   11.0560
       DOS:  cpu time    0.0010: real time    0.0009
    --------------------------------------------
      LOOP:  cpu time   11.0417: real time   11.0570

 eigenvalue-minimisations  :   432
 total energy-change (2. order) :-0.3106727E+03  (-0.2927390E+03)
 number of electron      88.0000000 magnetization       8.0000000
 augmentation part       88.0000000 magnetization       8.0000000

 Free energy of the ion-electron system (eV)
  ---------------------------------------------------
  alpha Z        PSCENC =         6.55573045
  Ewald energy   TEWEN  =      8968.30240711
  -Hartree energ DENC   =    -16043.01236647
  -exchange      EXHF   =         0.00000000
  -V(xc)+E(xc)   XCENC  =       119.43331471
  PAW double counting   =      6992.17180065    -6807.49900724
  entropy T*S    EENTRO =        -0.11431940
  eigenvalues    EBANDS =      -198.70293363
  atomic energy  EATOM  =      7408.64415014
  Solvation  Ediel_sol  =         0.00000000
  ---------------------------------------------------
  free energy    TOTEN  =       445.77877633 eV

  energy without entropy =      445.89309573  energy(sigma->0) =      445.81688279


--------------------------------------------------------------------------------------------------------




--------------------------------------- Iteration      1(   3)  ---------------------------------------


     EDDAV:  cpu time   10.8483: real time   10.8646
       DOS:  cpu time    0.0011: real time    0.0011
    --------------------------------------------
      LOOP:  cpu time   10.8494: real time   10.8658

 eigenvalue-minimisations  :   416
 total energy-change (2. order) :-0.3204793E+03  (-0.3001020E+03)
 number of electron      88.0000000 magnetization       8.0000000
 augmentation part       88.0000000 magnetization       8.0000000

 Free energy of the ion-electron system (eV)
  ---------------------------------------------------
  alpha Z        PSCENC =         6.55573045
  Ewald energy   TEWEN  =      8968.30240711
  -Hartree energ DENC   =    -16043.01236647
  -exchange      EXHF   =         0.00000000
  -V(xc)+E(xc)   XCENC  =       119.43331471
  PAW double counting   =      6992.17180065    -6807.49900724
  entropy T*S    EENTRO =        -0.00089730
  eigenvalues    EBANDS =      -519.29569679
  atomic energy  EATOM  =      7408.64415014
  Solvation  Ediel_sol  =         0.00000000
  ---------------------------------------------------
  free energy    TOTEN  =       125.29943526 eV

  energy without entropy =      125.30033256  energy(sigma->0) =      125.29973436


--------------------------------------------------------------------------------------------------------




--------------------------------------- Iteration      1(   4)  ---------------------------------------


     EDDAV:  cpu time    8.4611: real time    8.4711
       DOS:  cpu time    0.0056: real time    0.0078
    --------------------------------------------
      LOOP:  cpu time    8.4667: real time    8.4789

 eigenvalue-minimisations  :   304
 total energy-change (2. order) :-0.1157050E+03  (-0.1101463E+03)
 number of electron      88.0000000 magnetization       8.0000000
 augmentation part       88.0000000 magnetization       8.0000000

 Free energy of the ion-electron system (eV)
  ---------------------------------------------------
  alpha Z        PSCENC =         6.55573045
  Ewald energy   TEWEN  =      8968.30240711
  -Hartree energ DENC   =    -16043.01236647
  -exchange      EXHF   =         0.00000000
  -V(xc)+E(xc)   XCENC  =       119.43331471
  PAW double counting   =      6992.17180065    -6807.49900724
  entropy T*S    EENTRO =         0.01743806
  eigenvalues    EBANDS =      -635.01905709
  atomic energy  EATOM  =      7408.64415014
  Solvation  Ediel_sol  =         0.00000000
  ---------------------------------------------------
  free energy    TOTEN  =         9.59441034 eV

  energy without entropy =        9.57697227  energy(sigma->0) =        9.58859765


--------------------------------------------------------------------------------------------------------




--------------------------------------- Iteration      1(   5)  ---------------------------------------


     EDDAV:  cpu time    8.2137: real time    8.2277
       DOS:  cpu time    0.0010: real time    0.0010
    CHARGE:  cpu time    0.8400: real time    0.8409
    MIXING:  cpu time    0.0631: real time    0.0632
    --------------------------------------------
      LOOP:  cpu time    9.1177: real time    9.1327

 eigenvalue-minimisations  :   296
 total energy-change (2. order) :-0.2336372E+02  (-0.2229989E+02)
 number of electron      88.0000004 magnetization       7.3315547
 augmentation part       31.0045794 magnetization       5.8501374

 Broyden mixing:
  rms(total) = 0.23370E+01    rms(broyden)= 0.23370E+01
  rms(prec ) = 0.23593E+01
  weight for this iteration     100.00

 Free energy of the ion-electron system (eV)
  ---------------------------------------------------
  alpha Z        PSCENC =         6.55573045
  Ewald energy   TEWEN  =      8968.30240711
  -Hartree energ DENC   =    -16043.01236647
  -exchange      EXHF   =         0.00000000
  -V(xc)+E(xc)   XCENC  =       119.43331471
  PAW double counting   =      6992.17180065    -6807.49900724
  entropy T*S    EENTRO =         0.00971505
  eigenvalues    EBANDS =      -658.37505400
  atomic energy  EATOM  =      7408.64415014
  Solvation  Ediel_sol  =         0.00000000
  ---------------------------------------------------
  free energy    TOTEN  =       -13.76930959 eV

  energy without entropy =      -13.77902464  energy(sigma->0) =      -13.77254794


--------------------------------------------------------------------------------------------------------




--------------------------------------- Iteration      1(   6)  ---------------------------------------


    POTLOK:  cpu time    3.9592: real time    3.9671
    SETDIJ:  cpu time    0.0272: real time    0.0273
     EDDAV:  cpu time    7.3817: real time    7.3924
       DOS:  cpu time    0.0066: real time    0.0066
    CHARGE:  cpu time    0.8684: real time    0.8693
    MIXING:  cpu time    0.0815: real time    0.0816
    --------------------------------------------
      LOOP:  cpu time   12.3246: real time   12.3443

 eigenvalue-minimisations  :   248
 total energy-change (2. order) : 0.6012328E+01  (-0.4083517E+01)
 number of electron      88.0000004 magnetization       6.4274436
 augmentation part       32.4735390 magnetization       5.3733952

 Broyden mixing:
  rms(total) = 0.16398E+01    rms(broyden)= 0.16398E+01
  rms(prec ) = 0.16440E+01
  weight for this iteration     100.00

 eigenvalues of (default mixing * dielectric matrix)
  average eigenvalue GAMMA=   0.9488
  0.9488

 Free energy of the ion-electron system (eV)
  ---------------------------------------------------
  alpha Z        PSCENC =         6.55573045
  Ewald energy   TEWEN  =      8968.30240711
  -Hartree energ DENC   =    -15979.10568627
  -exchange      EXHF   =         0.00000000
  -V(xc)+E(xc)   XCENC  =       121.84669822
  PAW double counting   =      7428.33181964    -7252.35990405
  entropy T*S    EENTRO =        -0.04422059
  eigenvalues    EBANDS =      -709.92797616
  atomic energy  EATOM  =      7408.64415014
  Solvation  Ediel_sol  =         0.00000000
  ---------------------------------------------------
  free energy    TOTEN  =        -7.75698151 eV

  energy without entropy =       -7.71276092  energy(sigma->0) =       -7.74224132


--------------------------------------------------------------------------------------------------------




--------------------------------------- Iteration      1(   7)  ---------------------------------------


    POTLOK:  cpu time    3.9905: real time    3.9997
    SETDIJ:  cpu time    0.0288: real time    0.0289
     EDDAV:  cpu time    7.4246: real time    7.4336
       DOS:  cpu time    0.0069: real time    0.0069
    CHARGE:  cpu time    0.7981: real time    0.7990
    MIXING:  cpu time    0.0834: real time    0.0835
    --------------------------------------------
      LOOP:  cpu time   12.3323: real time   12.3515

 eigenvalue-minimisations  :   248
 total energy-change (2. order) : 0.5892116E+01  (-0.9864984E+00)
 number of electron      88.0000005 magnetization       5.3811640
 augmentation part       32.4509504 magnetization       4.2229840

 Broyden mixing:
  rms(total) = 0.78936E+00    rms(broyden)= 0.78936E+00
  rms(prec ) = 0.79185E+00
  weight for this iteration     100.00

 eigenvalues of (default mixing * dielectric matrix)
  average eigenvalue GAMMA=   1.2505
  1.8477  0.6534

 Free energy of the ion-electron system (eV)
  ---------------------------------------------------
  alpha Z        PSCENC =         6.55573045
  Ewald energy   TEWEN  =      8968.30240711
  -Hartree energ DENC   =    -16000.66571670
  -exchange      EXHF   =         0.00000000
  -V(xc)+E(xc)   XCENC  =       127.46563689
  PAW double counting   =      7845.11714218    -7672.99364995
  entropy T*S    EENTRO =        -0.04326707
  eigenvalues    EBANDS =      -684.24729857
  atomic energy  EATOM  =      7408.64415014
  Solvation  Ediel_sol  =         0.00000000
  ---------------------------------------------------
  free energy    TOTEN  =        -1.86486553 eV

  energy without entropy =       -1.82159845  energy(sigma->0) =       -1.85044317


--------------------------------------------------------------------------------------------------------




--------------------------------------- Iteration      1(   8)  ---------------------------------------


    POTLOK:  cpu time    3.8749: real time    3.8882
    SETDIJ:  cpu time    0.0256: real time    0.0257
     EDDAV:  cpu time    7.5548: real time    7.5640
       DOS:  cpu time    0.0054: real time    0.0054
    CHARGE:  cpu time    0.7693: real time    0.7720
    MIXING:  cpu time    0.0795: real time    0.0795
    --------------------------------------------
      LOOP:  cpu time   12.3095: real time   12.3349

 eigenvalue-minimisations  :   264
 total energy-change (2. order) :-0.3821137E+01  (-0.1645020E+00)
 number of electron      88.0000004 magnetization       4.8634377
 augmentation part       32.2785934 magnetization       4.1909357

 Broyden mixing:
  rms(total) = 0.24829E+00    rms(broyden)= 0.24829E+00
  rms(prec ) = 0.25235E+00
  weight for this iteration     100.00

 eigenvalues of (default mixing * dielectric matrix)
  average eigenvalue GAMMA=   1.2082
  1.9999  0.9669  0.6577

 Free energy of the ion-electron system (eV)
  ---------------------------------------------------
  alpha Z        PSCENC =         6.55573045
  Ewald energy   TEWEN  =      8968.30240711
  -Hartree energ DENC   =    -16022.38412781
  -exchange      EXHF   =         0.00000000
  -V(xc)+E(xc)   XCENC  =       124.78187510
  PAW double counting   =      8195.16840493    -8025.90167170
  entropy T*S    EENTRO =        -0.02294344
  eigenvalues    EBANDS =      -660.82982756
  atomic energy  EATOM  =      7408.64415014
  Solvation  Ediel_sol  =         0.00000000
  ---------------------------------------------------
  free energy    TOTEN  =        -5.68600278 eV

  energy without entropy =       -5.66305934  energy(sigma->0) =       -5.67835497


--------------------------------------------------------------------------------------------------------




--------------------------------------- Iteration      1(   9)  ---------------------------------------


    POTLOK:  cpu time    3.9514: real time    3.9580
    SETDIJ:  cpu time    0.0279: real time    0.0279
     EDDAV:  cpu time    7.3703: real time    7.3810
       DOS:  cpu time    0.0070: real time    0.0070
    CHARGE:  cpu time    0.7928: real time    0.7937
    MIXING:  cpu time    0.0881: real time    0.0882
    --------------------------------------------
      LOOP:  cpu time   12.2375: real time   12.2558

 eigenvalue-minimisations  :   248
 total energy-change (2. order) :-0.2364541E+01  (-0.6724455E-01)
 number of electron      88.0000004 magnetization       4.2812566
 augmentation part       32.2961167 magnetization       4.0009739

 Broyden mixing:
  rms(total) = 0.17399E+00    rms(broyden)= 0.17399E+00
  rms(prec ) = 0.17704E+00
  weight for this iteration     100.00

 eigenvalues of (default mixing * dielectric matrix)
  average eigenvalue GAMMA=   1.1519
  2.0708  1.0862  0.8352  0.6153

 Free energy of the ion-electron system (eV)
  ---------------------------------------------------
  alpha Z        PSCENC =         6.55573045
  Ewald energy   TEWEN  =      8968.30240711
  -Hartree energ DENC   =    -16020.43805153
  -exchange      EXHF   =         0.00000000
  -V(xc)+E(xc)   XCENC  =       122.96509661
  PAW double counting   =      8219.86960657    -8050.93628463
  entropy T*S    EENTRO =         0.01389593
  eigenvalues    EBANDS =      -663.02709443
  atomic energy  EATOM  =      7408.64415014
  Solvation  Ediel_sol  =         0.00000000
  ---------------------------------------------------
  free energy    TOTEN  =        -8.05054378 eV

  energy without entropy =       -8.06443971  energy(sigma->0) =       -8.05517575


--------------------------------------------------------------------------------------------------------




--------------------------------------- Iteration      1(  10)  ---------------------------------------


    POTLOK:  cpu time    3.9043: real time    3.9108
    SETDIJ:  cpu time    0.0264: real time    0.0265
     EDDAV:  cpu time    7.4279: real time    7.4376
       DOS:  cpu time    0.0070: real time    0.0070
    CHARGE:  cpu time    0.8239: real time    0.8248
    MIXING:  cpu time    0.0971: real time    0.0972
    --------------------------------------------
      LOOP:  cpu time   12.2866: real time   12.3039

 eigenvalue-minimisations  :   248
 total energy-change (2. order) :-0.1644213E+01  (-0.3623972E-01)
 number of electron      88.0000004 magnetization       3.1497671
 augmentation part       32.3190191 magnetization       2.9977513

 Broyden mixing:
  rms(total) = 0.13334E+00    rms(broyden)= 0.13334E+00
  rms(prec ) = 0.13489E+00
  weight for this iteration     100.00

 eigenvalues of (default mixing * dielectric matrix)
  average eigenvalue GAMMA=   1.2526
  2.3065  1.6470  0.8197  0.8197  0.6703

 Free energy of the ion-electron system (eV)
  ---------------------------------------------------
  alpha Z        PSCENC =         6.55573045
  Ewald energy   TEWEN  =      8968.30240711
  -Hartree energ DENC   =    -16018.77165282
  -exchange      EXHF   =         0.00000000
  -V(xc)+E(xc)   XCENC  =       121.69313496
  PAW double counting   =      8226.66670066    -8057.96010041
  entropy T*S    EENTRO =         0.02534208
  eigenvalues    EBANDS =      -664.85046864
  atomic energy  EATOM  =      7408.64415014
  Solvation  Ediel_sol  =         0.00000000
  ---------------------------------------------------
  free energy    TOTEN  =        -9.69475647 eV

  energy without entropy =       -9.72009855  energy(sigma->0) =       -9.70320383


--------------------------------------------------------------------------------------------------------




--------------------------------------- Iteration      1(  11)  ---------------------------------------


    POTLOK:  cpu time    3.9224: real time    3.9293
    SETDIJ:  cpu time    0.0252: real time    0.0252
     EDDAV:  cpu time    7.3033: real time    7.3160
       DOS:  cpu time    0.0018: real time    0.0018
    CHARGE:  cpu time    0.8045: real time    0.8054
    MIXING:  cpu time    0.1059: real time    0.1060
    --------------------------------------------
      LOOP:  cpu time   12.1631: real time   12.1837

 eigenvalue-minimisations  :   248
 total energy-change (2. order) :-0.2869526E+01  (-0.1189396E+00)
 number of electron      88.0000004 magnetization       2.6096178
 augmentation part       32.3352144 magnetization       2.4701715

 Broyden mixing:
  rms(total) = 0.86433E-01    rms(broyden)= 0.86432E-01
  rms(prec ) = 0.87520E-01
  weight for this iteration     100.00

 eigenvalues of (default mixing * dielectric matrix)
  average eigenvalue GAMMA=   1.2759
  2.4636  1.9369  0.9634  0.9634  0.6428  0.6854

 Free energy of the ion-electron system (eV)
  ---------------------------------------------------
  alpha Z        PSCENC =         6.55573045
  Ewald energy   TEWEN  =      8968.30240711
  -Hartree energ DENC   =    -16017.01095347
  -exchange      EXHF   =         0.00000000
  -V(xc)+E(xc)   XCENC  =       119.45148600
  PAW double counting   =      8225.12347245    -8056.61539627
  entropy T*S    EENTRO =         0.00883210
  eigenvalues    EBANDS =      -667.02401093
  atomic energy  EATOM  =      7408.64415014
  Solvation  Ediel_sol  =         0.00000000
  ---------------------------------------------------
  free energy    TOTEN  =       -12.56428243 eV

  energy without entropy =      -12.57311452  energy(sigma->0) =      -12.56722646


--------------------------------------------------------------------------------------------------------




--------------------------------------- Iteration      1(  12)  ---------------------------------------


    POTLOK:  cpu time    3.8604: real time    3.8678
    SETDIJ:  cpu time    0.0245: real time    0.0254
     EDDAV:  cpu time    6.9227: real time    6.9308
       DOS:  cpu time    0.0016: real time    0.0016
    CHARGE:  cpu time    0.7834: real time    0.7865
    MIXING:  cpu time    0.1041: real time    0.1042
    --------------------------------------------
      LOOP:  cpu time   11.6967: real time   11.7163

 eigenvalue-minimisations  :   256
 total energy-change (2. order) :-0.1129101E+01  (-0.3501469E-01)
 number of electron      88.0000004 magnetization       1.9473213
 augmentation part       32.3293597 magnetization       1.8224414

 Broyden mixing:
  rms(total) = 0.67853E-01    rms(broyden)= 0.67853E-01
  rms(prec ) = 0.69395E-01
  weight for this iteration     100.00

 eigenvalues of (default mixing * dielectric matrix)
  average eigenvalue GAMMA=   1.3454
  2.7170  2.4338  1.1177  1.1177  0.7637  0.6434  0.6243

 Free energy of the ion-electron system (eV)
  ---------------------------------------------------
  alpha Z        PSCENC =         6.55573045
  Ewald energy   TEWEN  =      8968.30240711
  -Hartree energ DENC   =    -16014.86065949
  -exchange      EXHF   =         0.00000000
  -V(xc)+E(xc)   XCENC  =       118.53680994
  PAW double counting   =      8209.19358671    -8040.58339210
  entropy T*S    EENTRO =         0.01144904
  eigenvalues    EBANDS =      -669.49346534
  atomic energy  EATOM  =      7408.64415014
  Solvation  Ediel_sol  =         0.00000000
  ---------------------------------------------------
  free energy    TOTEN  =       -13.69338354 eV

  energy without entropy =      -13.70483258  energy(sigma->0) =      -13.69719989


--------------------------------------------------------------------------------------------------------




--------------------------------------- Iteration      1(  13)  ---------------------------------------


    POTLOK:  cpu time    3.9582: real time    3.9701
    SETDIJ:  cpu time    0.0279: real time    0.0279
     EDDAV:  cpu time    6.9997: real time    7.0097
       DOS:  cpu time    0.0017: real time    0.0017
    CHARGE:  cpu time    0.7997: real time    0.8005
    MIXING:  cpu time    0.1109: real time    0.1110
    --------------------------------------------
      LOOP:  cpu time   11.8980: real time   11.9209

 eigenvalue-minimisations  :   240
 total energy-change (2. order) :-0.8331845E+00  (-0.2376623E-01)
 number of electron      88.0000004 magnetization       1.2797296
 augmentation part       32.3513702 magnetization       1.1656217

 Broyden mixing:
  rms(total) = 0.49864E-01    rms(broyden)= 0.49864E-01
  rms(prec ) = 0.50975E-01
  weight for this iteration     100.00

 eigenvalues of (default mixing * dielectric matrix)
  average eigenvalue GAMMA=   1.4026
  3.6199  1.8663  1.6456  1.1007  0.8678  0.8678  0.6263  0.6263

 Free energy of the ion-electron system (eV)
  ---------------------------------------------------
  alpha Z        PSCENC =         6.55573045
  Ewald energy   TEWEN  =      8968.30240711
  -Hartree energ DENC   =    -16009.79271659
  -exchange      EXHF   =         0.00000000
  -V(xc)+E(xc)   XCENC  =       117.75962783
  PAW double counting   =      8183.81406911    -8015.03768218
  entropy T*S    EENTRO =         0.01290621
  eigenvalues    EBANDS =      -674.78506008
  atomic energy  EATOM  =      7408.64415014
  Solvation  Ediel_sol  =         0.00000000
  ---------------------------------------------------
  free energy    TOTEN  =       -14.52656799 eV

  energy without entropy =      -14.53947421  energy(sigma->0) =      -14.53087007


--------------------------------------------------------------------------------------------------------




--------------------------------------- Iteration      1(  14)  ---------------------------------------


    POTLOK:  cpu time    4.4782: real time    4.5133
    SETDIJ:  cpu time    0.0270: real time    0.0271
     EDDAV:  cpu time    6.8518: real time    6.8613
       DOS:  cpu time    0.0021: real time    0.0020
    CHARGE:  cpu time    0.8074: real time    0.8083
    MIXING:  cpu time    0.1245: real time    0.1246
    --------------------------------------------
      LOOP:  cpu time   12.2910: real time   12.3366

 eigenvalue-minimisations  :   248
 total energy-change (2. order) :-0.4954860E+00  (-0.1246017E-01)
 number of electron      88.0000004 magnetization       0.8205293
 augmentation part       32.3599157 magnetization       0.7454279

 Broyden mixing:
  rms(total) = 0.30988E-01    rms(broyden)= 0.30988E-01
  rms(prec ) = 0.32035E-01
  weight for this iteration     100.00

 eigenvalues of (default mixing * dielectric matrix)
  average eigenvalue GAMMA=   1.5538
  4.8419  2.0958  2.0958  1.0871  0.9489  0.9489  0.7238  0.6208  0.6208

 Free energy of the ion-electron system (eV)
  ---------------------------------------------------
  alpha Z        PSCENC =         6.55573045
  Ewald energy   TEWEN  =      8968.30240711
  -Hartree energ DENC   =    -16005.71901450
  -exchange      EXHF   =         0.00000000
  -V(xc)+E(xc)   XCENC  =       117.26088026
  PAW double counting   =      8175.92242299    -8007.07520350
  entropy T*S    EENTRO =         0.01233782
  eigenvalues    EBANDS =      -678.92576476
  atomic energy  EATOM  =      7408.64415014
  Solvation  Ediel_sol  =         0.00000000
  ---------------------------------------------------
  free energy    TOTEN  =       -15.02205399 eV

  energy without entropy =      -15.03439181  energy(sigma->0) =      -15.02616659


--------------------------------------------------------------------------------------------------------




--------------------------------------- Iteration      1(  15)  ---------------------------------------


    POTLOK:  cpu time    3.9866: real time    4.0012
    SETDIJ:  cpu time    0.0270: real time    0.0270
     EDDAV:  cpu time    6.3442: real time    6.3532
       DOS:  cpu time    0.0016: real time    0.0016
    CHARGE:  cpu time    0.8021: real time    0.8031
    MIXING:  cpu time    0.1346: real time    0.1347
    --------------------------------------------
      LOOP:  cpu time   11.2961: real time   11.3207

 eigenvalue-minimisations  :   224
 total energy-change (2. order) :-0.3526000E+00  (-0.4632655E-02)
 number of electron      88.0000004 magnetization       0.5004609
 augmentation part       32.3598958 magnetization       0.4547303

 Broyden mixing:
  rms(total) = 0.21361E-01    rms(broyden)= 0.21360E-01
  rms(prec ) = 0.22229E-01
  weight for this iteration     100.00

 eigenvalues of (default mixing * dielectric matrix)
  average eigenvalue GAMMA=   1.6040
  5.6143  2.4165  1.6299  1.6299  1.0001  1.0001  0.7672  0.7672  0.6072  0.6072

 Free energy of the ion-electron system (eV)
  ---------------------------------------------------
  alpha Z        PSCENC =         6.55573045
  Ewald energy   TEWEN  =      8968.30240711
  -Hartree energ DENC   =    -16002.73767256
  -exchange      EXHF   =         0.00000000
  -V(xc)+E(xc)   XCENC  =       116.88690390
  PAW double counting   =      8171.08409182    -8002.13282025
  entropy T*S    EENTRO =         0.01188837
  eigenvalues    EBANDS =      -681.98933303
  atomic energy  EATOM  =      7408.64415014
  Solvation  Ediel_sol  =         0.00000000
  ---------------------------------------------------
  free energy    TOTEN  =       -15.37465403 eV

  energy without entropy =      -15.38654240  energy(sigma->0) =      -15.37861682


--------------------------------------------------------------------------------------------------------




--------------------------------------- Iteration      1(  16)  ---------------------------------------


    POTLOK:  cpu time    3.9900: real time    3.9994
    SETDIJ:  cpu time    0.0263: real time    0.0263
     EDDAV:  cpu time    6.8546: real time    6.8639
       DOS:  cpu time    0.0027: real time    0.0027
    CHARGE:  cpu time    0.8158: real time    0.8166
    MIXING:  cpu time    0.1441: real time    0.1442
    --------------------------------------------
      LOOP:  cpu time   11.8334: real time   11.8533

 eigenvalue-minimisations  :   248
 total energy-change (2. order) :-0.2413725E+00  (-0.1177945E-02)
 number of electron      88.0000004 magnetization       0.1609372
 augmentation part       32.3589329 magnetization       0.1403390

 Broyden mixing:
  rms(total) = 0.13485E-01    rms(broyden)= 0.13485E-01
  rms(prec ) = 0.14249E-01
  weight for this iteration     100.00

 eigenvalues of (default mixing * dielectric matrix)
  average eigenvalue GAMMA=   1.7519
  6.9230  2.4808  2.0766  2.0766  1.1348  0.9461  0.9461  0.7781  0.6977  0.6056
  0.6056

 Free energy of the ion-electron system (eV)
  ---------------------------------------------------
  alpha Z        PSCENC =         6.55573045
  Ewald energy   TEWEN  =      8968.30240711
  -Hartree energ DENC   =    -16000.77613878
  -exchange      EXHF   =         0.00000000
  -V(xc)+E(xc)   XCENC  =       116.62772835
  PAW double counting   =      8175.07829339    -8006.09926130
  entropy T*S    EENTRO =         0.01165590
  eigenvalues    EBANDS =      -683.96059179
  atomic energy  EATOM  =      7408.64415014
  Solvation  Ediel_sol  =         0.00000000
  ---------------------------------------------------
  free energy    TOTEN  =       -15.61602653 eV

  energy without entropy =      -15.62768242  energy(sigma->0) =      -15.61991183


--------------------------------------------------------------------------------------------------------




--------------------------------------- Iteration      1(  17)  ---------------------------------------


    POTLOK:  cpu time    3.9634: real time    3.9697
    SETDIJ:  cpu time    0.0265: real time    0.0265
     EDDAV:  cpu time    6.1136: real time    6.1192
       DOS:  cpu time    0.0026: real time    0.0026
    CHARGE:  cpu time    0.6861: real time    0.6887
    MIXING:  cpu time    0.1319: real time    0.1320
    --------------------------------------------
      LOOP:  cpu time   10.9241: real time   10.9387

 eigenvalue-minimisations  :   240
 total energy-change (2. order) :-0.2058389E+00  (-0.9306344E-03)
 number of electron      88.0000004 magnetization       0.0751397
 augmentation part       32.3634425 magnetization       0.0805619

 Broyden mixing:
  rms(total) = 0.71802E-02    rms(broyden)= 0.71785E-02
  rms(prec ) = 0.79275E-02
  weight for this iteration     100.00

 eigenvalues of (default mixing * dielectric matrix)
  average eigenvalue GAMMA=   1.8107
  7.8145  2.7418  2.3336  2.1747  1.2682  0.9923  0.9923  0.7756  0.7756  0.6435
  0.6155  0.6005

 Free energy of the ion-electron system (eV)
  ---------------------------------------------------
  alpha Z        PSCENC =         6.55573045
  Ewald energy   TEWEN  =      8968.30240711
  -Hartree energ DENC   =    -15998.29708045
  -exchange      EXHF   =         0.00000000
  -V(xc)+E(xc)   XCENC  =       116.39252995
  PAW double counting   =      8181.36126357    -8012.38710030
  entropy T*S    EENTRO =         0.01160218
  eigenvalues    EBANDS =      -686.40536808
  atomic energy  EATOM  =      7408.64415014
  Solvation  Ediel_sol  =         0.00000000
  ---------------------------------------------------
  free energy    TOTEN  =       -15.82186544 eV

  energy without entropy =      -15.83346762  energy(sigma->0) =      -15.82573284


--------------------------------------------------------------------------------------------------------




--------------------------------------- Iteration      1(  18)  ---------------------------------------


    POTLOK:  cpu time    3.6104: real time    3.6155
    SETDIJ:  cpu time    0.0233: real time    0.0234
     EDDAV:  cpu time    5.0643: real time    5.0727
       DOS:  cpu time    0.0028: real time    0.0028
    CHARGE:  cpu time    0.7731: real time    0.7740
    MIXING:  cpu time    0.1665: real time    0.1667
    --------------------------------------------
      LOOP:  cpu time    9.6404: real time    9.6551

 eigenvalue-minimisations  :   192
 total energy-change (2. order) :-0.5494762E-01  (-0.8499296E-04)
 number of electron      88.0000004 magnetization       0.0547472
 augmentation part       32.3615905 magnetization       0.0583125

 Broyden mixing:
  rms(total) = 0.44522E-02    rms(broyden)= 0.44517E-02
  rms(prec ) = 0.49609E-02
  weight for this iteration     100.00

 eigenvalues of (default mixing * dielectric matrix)
  average eigenvalue GAMMA=   1.8108
  8.2251  3.3116  2.0091  2.0091  1.7931  1.0223  0.9018  0.9018  0.8477  0.6854
  0.6516  0.6115  0.5706

 Free energy of the ion-electron system (eV)
  ---------------------------------------------------
  alpha Z        PSCENC =         6.55573045
  Ewald energy   TEWEN  =      8968.30240711
  -Hartree energ DENC   =    -15997.50390749
  -exchange      EXHF   =         0.00000000
  -V(xc)+E(xc)   XCENC  =       116.33337764
  PAW double counting   =      8184.82722836    -8015.86359046
  entropy T*S    EENTRO =         0.01159951
  eigenvalues    EBANDS =      -687.18380832
  atomic energy  EATOM  =      7408.64415014
  Solvation  Ediel_sol  =         0.00000000
  ---------------------------------------------------
  free energy    TOTEN  =       -15.87681307 eV

  energy without entropy =      -15.88841257  energy(sigma->0) =      -15.88067957


--------------------------------------------------------------------------------------------------------




--------------------------------------- Iteration      1(  19)  ---------------------------------------


    POTLOK:  cpu time    4.0165: real time    4.0297
    SETDIJ:  cpu time    0.0260: real time    0.0260
     EDDAV:  cpu time    5.0804: real time    5.0921
       DOS:  cpu time    0.0028: real time    0.0028
    CHARGE:  cpu time    0.7739: real time    0.7748
    MIXING:  cpu time    0.1826: real time    0.1828
    --------------------------------------------
      LOOP:  cpu time   10.0823: real time   10.1082

 eigenvalue-minimisations  :   152
 total energy-change (2. order) :-0.1918622E-01  (-0.3317301E-04)
 number of electron      88.0000004 magnetization       0.0330013
 augmentation part       32.3616047 magnetization       0.0326096

 Broyden mixing:
  rms(total) = 0.21805E-02    rms(broyden)= 0.21804E-02
  rms(prec ) = 0.27299E-02
  weight for this iteration     100.00

 eigenvalues of (default mixing * dielectric matrix)
  average eigenvalue GAMMA=   1.8371
  8.4973  3.6985  2.2484  1.9842  1.9842  1.2593  0.9239  0.9239  0.8346  0.8346
  0.6683  0.6683  0.5966  0.5966

 Free energy of the ion-electron system (eV)
  ---------------------------------------------------
  alpha Z        PSCENC =         6.55573045
  Ewald energy   TEWEN  =      8968.30240711
  -Hartree energ DENC   =    -15997.01509927
  -exchange      EXHF   =         0.00000000
  -V(xc)+E(xc)   XCENC  =       116.31219352
  PAW double counting   =      8184.61632778    -8015.65391089
  entropy T*S    EENTRO =         0.01159710
  eigenvalues    EBANDS =      -687.66939523
  atomic energy  EATOM  =      7408.64415014
  Solvation  Ediel_sol  =         0.00000000
  ---------------------------------------------------
  free energy    TOTEN  =       -15.89599928 eV

  energy without entropy =      -15.90759639  energy(sigma->0) =      -15.89986499


--------------------------------------------------------------------------------------------------------




--------------------------------------- Iteration      1(  20)  ---------------------------------------


    POTLOK:  cpu time    3.7675: real time    3.7759
    SETDIJ:  cpu time    0.0260: real time    0.0260
     EDDAV:  cpu time    5.5387: real time    5.5467
       DOS:  cpu time    0.0025: real time    0.0025
    CHARGE:  cpu time    0.7562: real time    0.7571
    MIXING:  cpu time    0.1855: real time    0.1876
    --------------------------------------------
      LOOP:  cpu time   10.2764: real time   10.2958

 eigenvalue-minimisations  :   176
 total energy-change (2. order) :-0.1186008E-01  (-0.2157756E-04)
 number of electron      88.0000004 magnetization       0.0198351
 augmentation part       32.3621643 magnetization       0.0189369

 Broyden mixing:
  rms(total) = 0.12150E-02    rms(broyden)= 0.12150E-02
  rms(prec ) = 0.16942E-02
  weight for this iteration     100.00

 eigenvalues of (default mixing * dielectric matrix)
  average eigenvalue GAMMA=   1.8345
  8.6348  4.0705  2.3997  2.0770  2.0770  1.3540  0.9177  0.9177  0.8487  0.8487
  0.8531  0.6819  0.6442  0.6103  0.5827

 Free energy of the ion-electron system (eV)
  ---------------------------------------------------
  alpha Z        PSCENC =         6.55573045
  Ewald energy   TEWEN  =      8968.30240711
  -Hartree energ DENC   =    -15996.52795814
  -exchange      EXHF   =         0.00000000
  -V(xc)+E(xc)   XCENC  =       116.29796160
  PAW double counting   =      8184.10734790    -8015.14690253
  entropy T*S    EENTRO =         0.01159726
  eigenvalues    EBANDS =      -688.15219315
  atomic energy  EATOM  =      7408.64415014
  Solvation  Ediel_sol  =         0.00000000
  ---------------------------------------------------
  free energy    TOTEN  =       -15.90785936 eV

  energy without entropy =      -15.91945663  energy(sigma->0) =      -15.91172512


--------------------------------------------------------------------------------------------------------




--------------------------------------- Iteration      1(  21)  ---------------------------------------


    POTLOK:  cpu time    3.7398: real time    3.7466
    SETDIJ:  cpu time    0.0254: real time    0.0254
     EDDAV:  cpu time    5.1962: real time    5.2039
       DOS:  cpu time    0.0027: real time    0.0027
    CHARGE:  cpu time    0.7776: real time    0.7785
    MIXING:  cpu time    0.2012: real time    0.2034
    --------------------------------------------
      LOOP:  cpu time    9.9430: real time    9.9605

 eigenvalue-minimisations  :   160
 total energy-change (2. order) :-0.4994586E-02  (-0.7029395E-05)
 number of electron      88.0000004 magnetization       0.0123426
 augmentation part       32.3622762 magnetization       0.0114558

 Broyden mixing:
  rms(total) = 0.73362E-03    rms(broyden)= 0.73360E-03
  rms(prec ) = 0.11337E-02
  weight for this iteration     100.00

 eigenvalues of (default mixing * dielectric matrix)
  average eigenvalue GAMMA=   1.8290
  8.7205  4.3959  2.4775  2.1514  2.1514  1.3985  1.1549  0.8857  0.8857  0.9194
  0.9194  0.7294  0.6465  0.6465  0.5964  0.5849

 Free energy of the ion-electron system (eV)
  ---------------------------------------------------
  alpha Z        PSCENC =         6.55573045
  Ewald energy   TEWEN  =      8968.30240711
  -Hartree energ DENC   =    -15996.20263195
  -exchange      EXHF   =         0.00000000
  -V(xc)+E(xc)   XCENC  =       116.29151692
  PAW double counting   =      8183.85645130    -8014.89587841
  entropy T*S    EENTRO =         0.01159720
  eigenvalues    EBANDS =      -688.47619671
  atomic energy  EATOM  =      7408.64415014
  Solvation  Ediel_sol  =         0.00000000
  ---------------------------------------------------
  free energy    TOTEN  =       -15.91285395 eV

  energy without entropy =      -15.92445116  energy(sigma->0) =      -15.91671969


--------------------------------------------------------------------------------------------------------




--------------------------------------- Iteration      1(  22)  ---------------------------------------


    POTLOK:  cpu time    3.7388: real time    3.7565
    SETDIJ:  cpu time    0.0254: real time    0.0254
     EDDAV:  cpu time    5.1529: real time    5.1586
       DOS:  cpu time    0.0027: real time    0.0027
    CHARGE:  cpu time    0.7910: real time    0.7918
    MIXING:  cpu time    0.2246: real time    0.2248
    --------------------------------------------
      LOOP:  cpu time    9.9353: real time    9.9599

 eigenvalue-minimisations  :   152
 total energy-change (2. order) :-0.8470687E-03  (-0.2758599E-05)
 number of electron      88.0000004 magnetization       0.0053226
 augmentation part       32.3624913 magnetization       0.0046162

 Broyden mixing:
  rms(total) = 0.49965E-03    rms(broyden)= 0.49964E-03
  rms(prec ) = 0.81671E-03
  weight for this iteration     100.00

 eigenvalues of (default mixing * dielectric matrix)
  average eigenvalue GAMMA=   1.8275
  8.7798  4.4964  2.7786  2.0508  2.0508  1.9294  1.1749  1.1749  0.9095  0.9095
  0.8226  0.8226  0.6753  0.6753  0.6269  0.5871  0.6039

 Free energy of the ion-electron system (eV)
  ---------------------------------------------------
  alpha Z        PSCENC =         6.55573045
  Ewald energy   TEWEN  =      8968.30240711
  -Hartree energ DENC   =    -15995.97350289
  -exchange      EXHF   =         0.00000000
  -V(xc)+E(xc)   XCENC  =       116.28916749
  PAW double counting   =      8183.65883078    -8014.69719848
  entropy T*S    EENTRO =         0.01159715
  eigenvalues    EBANDS =      -688.70488277
  atomic energy  EATOM  =      7408.64415014
  Solvation  Ediel_sol  =         0.00000000
  ---------------------------------------------------
  free energy    TOTEN  =       -15.91370102 eV

  energy without entropy =      -15.92529817  energy(sigma->0) =      -15.91756674


--------------------------------------------------------------------------------------------------------




--------------------------------------- Iteration      1(  23)  ---------------------------------------


    POTLOK:  cpu time    3.7441: real time    3.7543
    SETDIJ:  cpu time    0.0253: real time    0.0253
     EDDAV:  cpu time    5.1692: real time    5.1750
       DOS:  cpu time    0.0027: real time    0.0027
    CHARGE:  cpu time    0.7942: real time    0.7970
    MIXING:  cpu time    0.2354: real time    0.2357
    --------------------------------------------
      LOOP:  cpu time    9.9708: real time    9.9900

 eigenvalue-minimisations  :   152
 total energy-change (2. order) :-0.9283386E-03  (-0.2405347E-05)
 number of electron      88.0000004 magnetization       0.0027576
 augmentation part       32.3627281 magnetization       0.0026651

 Broyden mixing:
  rms(total) = 0.33902E-03    rms(broyden)= 0.33899E-03
  rms(prec ) = 0.52327E-03
  weight for this iteration     100.00

 eigenvalues of (default mixing * dielectric matrix)
  average eigenvalue GAMMA=   1.8350
  8.8061  4.6600  3.1130  2.1228  2.1228  2.1656  1.3714  1.1508  0.9292  0.9292
  0.8678  0.8678  0.7271  0.7271  0.6543  0.5832  0.6263  0.6056

 Free energy of the ion-electron system (eV)
  ---------------------------------------------------
  alpha Z        PSCENC =         6.55573045
  Ewald energy   TEWEN  =      8968.30240711
  -Hartree energ DENC   =    -15995.70579783
  -exchange      EXHF   =         0.00000000
  -V(xc)+E(xc)   XCENC  =       116.28618834
  PAW double counting   =      8183.57411370    -8014.61106709
  entropy T*S    EENTRO =         0.01159709
  eigenvalues    EBANDS =      -688.97195126
  atomic energy  EATOM  =      7408.64415014
  Solvation  Ediel_sol  =         0.00000000
  ---------------------------------------------------
  free energy    TOTEN  =       -15.91462936 eV

  energy without entropy =      -15.92622644  energy(sigma->0) =      -15.91849505


--------------------------------------------------------------------------------------------------------




--------------------------------------- Iteration      1(  24)  ---------------------------------------


    POTLOK:  cpu time    3.7272: real time    3.7326
    SETDIJ:  cpu time    0.0252: real time    0.0252
     EDDAV:  cpu time    5.2253: real time    5.2309
       DOS:  cpu time    0.0027: real time    0.0027
    CHARGE:  cpu time    0.7748: real time    0.7756
    MIXING:  cpu time    0.2381: real time    0.2384
    --------------------------------------------
      LOOP:  cpu time    9.9933: real time   10.0054

 eigenvalue-minimisations  :   160
 total energy-change (2. order) :-0.6272356E-03  (-0.1077639E-05)
 number of electron      88.0000004 magnetization       0.0014916
 augmentation part       32.3626652 magnetization       0.0013762

 Broyden mixing:
  rms(total) = 0.27193E-03    rms(broyden)= 0.27192E-03
  rms(prec ) = 0.36049E-03
  weight for this iteration     100.00

 eigenvalues of (default mixing * dielectric matrix)
  average eigenvalue GAMMA=   1.8448
  8.8050  4.9015  3.3385  2.3892  2.1103  2.1103  1.6681  1.1478  1.1478  0.9126
  0.9126  0.8529  0.8529  0.7366  0.6970  0.6655  0.5817  0.6103  0.6103

 Free energy of the ion-electron system (eV)
  ---------------------------------------------------
  alpha Z        PSCENC =         6.55573045
  Ewald energy   TEWEN  =      8968.30240711
  -Hartree energ DENC   =    -15995.53749886
  -exchange      EXHF   =         0.00000000
  -V(xc)+E(xc)   XCENC  =       116.28451728
  PAW double counting   =      8183.70135018    -8014.73755691
  entropy T*S    EENTRO =         0.01159709
  eigenvalues    EBANDS =      -689.13995307
  atomic energy  EATOM  =      7408.64415014
  Solvation  Ediel_sol  =         0.00000000
  ---------------------------------------------------
  free energy    TOTEN  =       -15.91525659 eV

  energy without entropy =      -15.92685368  energy(sigma->0) =      -15.91912229


--------------------------------------------------------------------------------------------------------




--------------------------------------- Iteration      1(  25)  ---------------------------------------


    POTLOK:  cpu time    3.7311: real time    3.7414
    SETDIJ:  cpu time    0.0260: real time    0.0260
     EDDAV:  cpu time    5.3371: real time    5.3451
       DOS:  cpu time    0.0028: real time    0.0028
    CHARGE:  cpu time    0.7910: real time    0.7918
    MIXING:  cpu time    0.2642: real time    0.2645
    --------------------------------------------
      LOOP:  cpu time   10.1521: real time   10.1716

 eigenvalue-minimisations  :   160
 total energy-change (2. order) :-0.6714460E-03  (-0.4828956E-06)
 number of electron      88.0000004 magnetization       0.0004029
 augmentation part       32.3627094 magnetization       0.0002802

 Broyden mixing:
  rms(total) = 0.14830E-03    rms(broyden)= 0.14828E-03
  rms(prec ) = 0.19291E-03
  weight for this iteration     100.00

 eigenvalues of (default mixing * dielectric matrix)
  average eigenvalue GAMMA=   1.8922
  8.8225  5.4345  3.9825  2.5718  2.1647  2.1647  1.9171  1.4725  0.9547  0.9547
  0.9736  0.8761  0.8761  0.8262  0.7323  0.6644  0.6644  0.5816  0.6049  0.6049

 Free energy of the ion-electron system (eV)
  ---------------------------------------------------
  alpha Z        PSCENC =         6.55573045
  Ewald energy   TEWEN  =      8968.30240711
  -Hartree energ DENC   =    -15995.40810683
  -exchange      EXHF   =         0.00000000
  -V(xc)+E(xc)   XCENC  =       116.28294072
  PAW double counting   =      8183.80704228    -8014.84322791
  entropy T*S    EENTRO =         0.01159709
  eigenvalues    EBANDS =      -689.26846107
  atomic energy  EATOM  =      7408.64415014
  Solvation  Ediel_sol  =         0.00000000
  ---------------------------------------------------
  free energy    TOTEN  =       -15.91592804 eV

  energy without entropy =      -15.92752513  energy(sigma->0) =      -15.91979373


--------------------------------------------------------------------------------------------------------




--------------------------------------- Iteration      1(  26)  ---------------------------------------


    POTLOK:  cpu time    3.7309: real time    3.7408
    SETDIJ:  cpu time    0.0267: real time    0.0267
     EDDAV:  cpu time    4.9375: real time    4.9431
       DOS:  cpu time    0.0114: real time    0.0114
    CHARGE:  cpu time    0.7708: real time    0.7716
    MIXING:  cpu time    0.2754: real time    0.2758
    --------------------------------------------
      LOOP:  cpu time    9.7527: real time    9.7693

 eigenvalue-minimisations  :   144
 total energy-change (2. order) :-0.3467849E-03  (-0.1970341E-06)
 number of electron      88.0000004 magnetization       0.0001923
 augmentation part       32.3627315 magnetization       0.0002316

 Broyden mixing:
  rms(total) = 0.75967E-04    rms(broyden)= 0.75958E-04
  rms(prec ) = 0.10360E-03
  weight for this iteration     100.00

 eigenvalues of (default mixing * dielectric matrix)
  average eigenvalue GAMMA=   1.9701
  8.8490  6.9044  4.4084  2.8246  2.4056  2.0421  2.0421  1.5404  1.1459  1.0351
  0.9028  0.9028  0.8823  0.8823  0.7658  0.7106  0.6837  0.6429  0.5830  0.6100
  0.6081

 Free energy of the ion-electron system (eV)
  ---------------------------------------------------
  alpha Z        PSCENC =         6.55573045
  Ewald energy   TEWEN  =      8968.30240711
  -Hartree energ DENC   =    -15995.34180423
  -exchange      EXHF   =         0.00000000
  -V(xc)+E(xc)   XCENC  =       116.28213039
  PAW double counting   =      8183.89943723    -8014.93602302
  entropy T*S    EENTRO =         0.01159708
  eigenvalues    EBANDS =      -689.33389998
  atomic energy  EATOM  =      7408.64415014
  Solvation  Ediel_sol  =         0.00000000
  ---------------------------------------------------
  free energy    TOTEN  =       -15.91627482 eV

  energy without entropy =      -15.92787191  energy(sigma->0) =      -15.92014052


--------------------------------------------------------------------------------------------------------




--------------------------------------- Iteration      1(  27)  ---------------------------------------


    POTLOK:  cpu time    3.6788: real time    3.6861
    SETDIJ:  cpu time    0.0250: real time    0.0250
     EDDAV:  cpu time    4.8588: real time    4.8641
       DOS:  cpu time    0.0028: real time    0.0028
    CHARGE:  cpu time    0.7641: real time    0.7688
    MIXING:  cpu time    0.2991: real time    0.2995
    --------------------------------------------
      LOOP:  cpu time    9.6286: real time    9.6463

 eigenvalue-minimisations  :   144
 total energy-change (2. order) :-0.1053078E-03  (-0.9631034E-07)
 number of electron      88.0000004 magnetization       0.0002536
 augmentation part       32.3627216 magnetization       0.0002769

 Broyden mixing:
  rms(total) = 0.42612E-04    rms(broyden)= 0.42607E-04
  rms(prec ) = 0.64278E-04
  weight for this iteration     100.00

 eigenvalues of (default mixing * dielectric matrix)
  average eigenvalue GAMMA=   1.9730
  8.8784  7.6258  4.4849  2.8667  2.4783  2.0780  2.0780  1.6218  1.2479  1.0689
  0.9260  0.9260  0.8874  0.8874  0.7742  0.7742  0.6836  0.6836  0.5843  0.5996
  0.6256  0.6256

 Free energy of the ion-electron system (eV)
  ---------------------------------------------------
  alpha Z        PSCENC =         6.55573045
  Ewald energy   TEWEN  =      8968.30240711
  -Hartree energ DENC   =    -15995.31724156
  -exchange      EXHF   =         0.00000000
  -V(xc)+E(xc)   XCENC  =       116.28191123
  PAW double counting   =      8183.93365621    -8014.97045639
  entropy T*S    EENTRO =         0.01159708
  eigenvalues    EBANDS =      -689.35813440
  atomic energy  EATOM  =      7408.64415014
  Solvation  Ediel_sol  =         0.00000000
  ---------------------------------------------------
  free energy    TOTEN  =       -15.91638013 eV

  energy without entropy =      -15.92797722  energy(sigma->0) =      -15.92024583


--------------------------------------------------------------------------------------------------------




--------------------------------------- Iteration      1(  28)  ---------------------------------------


    POTLOK:  cpu time    3.6754: real time    3.6812
    SETDIJ:  cpu time    0.0253: real time    0.0254
     EDDAV:  cpu time    4.8846: real time    4.8900
       DOS:  cpu time    0.0027: real time    0.0027
    --------------------------------------------
      LOOP:  cpu time    8.5880: real time    8.5992

 eigenvalue-minimisations  :   144
 total energy-change (2. order) :-0.2016198E-04  (-0.3416654E-07)
 number of electron      88.0000004 magnetization       0.0002536
 augmentation part       32.3627216 magnetization       0.0002769

 Free energy of the ion-electron system (eV)
  ---------------------------------------------------
  alpha Z        PSCENC =         6.55573045
  Ewald energy   TEWEN  =      8968.30240711
  -Hartree energ DENC   =    -15995.31102042
  -exchange      EXHF   =         0.00000000
  -V(xc)+E(xc)   XCENC  =       116.28191011
  PAW double counting   =      8183.91973685    -8014.95657011
  entropy T*S    EENTRO =         0.01159708
  eigenvalues    EBANDS =      -689.36434151
  atomic energy  EATOM  =      7408.64415014
  Solvation  Ediel_sol  =         0.00000000
  ---------------------------------------------------
  free energy    TOTEN  =       -15.91640029 eV

  energy without entropy =      -15.92799738  energy(sigma->0) =      -15.92026599


--------------------------------------------------------------------------------------------------------




 average (electrostatic) potential at core
  the test charge radii are     1.2098
  (the norm of the test charge is              1.0000)
       1 -77.2371       2 -77.4638       3 -77.2379       4 -77.1706       5 -77.2519
       6 -77.2819       7 -77.3210       8 -77.1717
 
 
 
 E-fermi :  -4.8622     XC(G=0):  -0.3484     alpha+bet : -0.1671


 spin component 1

 k-point     1 :       0.0000    0.0000    0.0000
  band No.  band energies     occupation 
      1     -11.7413      1.00000
      2     -10.7980      1.00000
      3     -10.3706      1.00000
      4     -10.2974      1.00000
      5      -9.8894      1.00000
      6      -9.8130      1.00000
      7      -9.6183      1.00000
      8      -9.3628      1.00000
      9      -9.3117      1.00000
     10      -9.2346      1.00000
     11      -9.1871      1.00000
     12      -9.1733      1.00000
     13      -9.0236      1.00000
     14      -8.9102      1.00000
     15      -8.6619      1.00000
     16      -8.5556      1.00000
     17      -8.2553      1.00000
     18      -8.1924      1.00000
     19      -7.8718      1.00000
     20      -7.8687      1.00000
     21      -7.6409      1.00000
     22      -7.5404      1.00000
     23      -7.4337      1.00000
     24      -7.2471      1.00000
     25      -7.1933      1.00000
     26      -7.1388      1.00000
     27      -7.1045      1.00000
     28      -7.0405      1.00000
     29      -6.9491      1.00000
     30      -6.7791      1.00000
     31      -6.7339      1.00000
     32      -6.6353      1.00000
     33      -6.5129      1.00000
     34      -6.4308      1.00000
     35      -6.3996      1.00000
     36      -6.3642      1.00000
     37      -6.3320      1.00000
     38      -6.1616      1.00000
     39      -6.1569      1.00000
     40      -6.1022      1.00000
     41      -6.0660      1.00000
     42      -5.9377      1.00000
     43      -5.6139      1.00000
     44      -5.0306      1.00000
     45      -4.0754     -0.00000
     46      -3.7476     -0.00000
     47      -3.3684     -0.00000
     48      -3.2124     -0.00000
     49      -1.8059     -0.00000
     50      -1.5788     -0.00000
     51      -1.3294     -0.00000
     52      -0.7187     -0.00000
     53      -0.6535     -0.00000
     54      -0.6038     -0.00000
     55      -0.5306     -0.00000
     56       0.1185     -0.00000

 spin component 2

 k-point     1 :       0.0000    0.0000    0.0000
  band No.  band energies     occupation 
      1     -11.7413      1.00000
      2     -10.7980      1.00000
      3     -10.3706      1.00000
      4     -10.2974      1.00000
      5      -9.8894      1.00000
      6      -9.8130      1.00000
      7      -9.6183      1.00000
      8      -9.3628      1.00000
      9      -9.3117      1.00000
     10      -9.2346      1.00000
     11      -9.1871      1.00000
     12      -9.1733      1.00000
     13      -9.0236      1.00000
     14      -8.9102      1.00000
     15      -8.6619      1.00000
     16      -8.5556      1.00000
     17      -8.2553      1.00000
     18      -8.1924      1.00000
     19      -7.8718      1.00000
     20      -7.8687      1.00000
     21      -7.6409      1.00000
     22      -7.5404      1.00000
     23      -7.4337      1.00000
     24      -7.2471      1.00000
     25      -7.1933      1.00000
     26      -7.1388      1.00000
     27      -7.1045      1.00000
     28      -7.0405      1.00000
     29      -6.9491      1.00000
     30      -6.7791      1.00000
     31      -6.7339      1.00000
     32      -6.6353      1.00000
     33      -6.5129      1.00000
     34      -6.4308      1.00000
     35      -6.3996      1.00000
[...]
  -Hartree energ DENC   =    -15247.55506418
  -exchange      EXHF   =         0.00000000
  -V(xc)+E(xc)   XCENC  =       114.47401925
  PAW double counting   =      7792.26797965    -7620.10568022
  entropy T*S    EENTRO =         0.01716697
  eigenvalues    EBANDS =      -663.48242437
  atomic energy  EATOM  =      7408.64415014
  Solvation  Ediel_sol  =         0.00000000
  ---------------------------------------------------
  free energy    TOTEN  =       -16.94172693 eV

  energy without entropy =      -16.95889390  energy(sigma->0) =      -16.94744926


--------------------------------------------------------------------------------------------------------




--------------------------------------- Iteration     51(   2)  ---------------------------------------


    POTLOK:  cpu time    3.6600: real time    3.6681
    SETDIJ:  cpu time    0.0256: real time    0.0256
     EDDAV:  cpu time    6.9290: real time    6.9464
       DOS:  cpu time    0.0034: real time    0.0034
    --------------------------------------------
      LOOP:  cpu time   10.6179: real time   10.6435

 eigenvalue-minimisations  :   224
 total energy-change (2. order) :-0.3465655E-04  (-0.3619056E-04)
 number of electron      87.9999993 magnetization      -0.0000000
 augmentation part       32.4647584 magnetization      -0.0000002

 Free energy of the ion-electron system (eV)
  ---------------------------------------------------
  alpha Z        PSCENC =         6.55573045
  Ewald energy   TEWEN  =      8192.24239537
  -Hartree energ DENC   =    -15247.54862009
  -exchange      EXHF   =         0.00000000
  -V(xc)+E(xc)   XCENC  =       114.47396475
  PAW double counting   =      7792.24302009    -7620.08091974
  entropy T*S    EENTRO =         0.01717282
  eigenvalues    EBANDS =      -663.48865539
  atomic energy  EATOM  =      7408.64415014
  Solvation  Ediel_sol  =         0.00000000
  ---------------------------------------------------
  free energy    TOTEN  =       -16.94176159 eV

  energy without entropy =      -16.95893442  energy(sigma->0) =      -16.94748587


--------------------------------------------------------------------------------------------------------




 average (electrostatic) potential at core
  the test charge radii are     1.2098
  (the norm of the test charge is              1.0000)
       1 -77.0187       2 -77.2437       3 -77.0196       4 -76.8771       5 -76.8474
       6 -77.2238       7 -77.1797       8 -76.8777
 
 
 
 E-fermi :  -5.1717     XC(G=0):  -0.3519     alpha+bet : -0.1671


 spin component 1

 k-point     1 :       0.0000    0.0000    0.0000
  band No.  band energies     occupation 
      1     -10.7963      1.00000
      2      -9.9156      1.00000
      3      -9.8182      1.00000
      4      -9.3916      1.00000
      5      -9.1486      1.00000
      6      -9.0850      1.00000
      7      -8.8916      1.00000
      8      -8.8456      1.00000
      9      -8.8138      1.00000
     10      -8.6488      1.00000
     11      -8.5871      1.00000
     12      -8.3903      1.00000
     13      -8.3222      1.00000
     14      -8.2550      1.00000
     15      -8.2305      1.00000
     16      -8.1249      1.00000
     17      -8.0666      1.00000
     18      -8.0329      1.00000
     19      -7.7647      1.00000
     20      -7.5010      1.00000
     21      -7.4104      1.00000
     22      -7.3416      1.00000
     23      -7.2590      1.00000
     24      -7.1878      1.00000
     25      -7.0855      1.00000
     26      -7.0147      1.00000
     27      -6.9807      1.00000
     28      -6.9558      1.00000
     29      -6.8046      1.00000
     30      -6.6734      1.00000
     31      -6.6162      1.00000
     32      -6.6073      1.00000
     33      -6.4959      1.00000
     34      -6.4805      1.00000
     35      -6.4034      1.00000
     36      -6.2958      1.00000
     37      -6.2077      1.00000
     38      -6.1863      1.00000
     39      -6.1511      1.00000
     40      -6.1269      1.00000
     41      -6.0116      1.00000
     42      -5.9271      1.00000
     43      -5.5567      1.01011
     44      -5.3316      0.98989
     45      -3.8841     -0.00000
     46      -3.6547     -0.00000
     47      -3.5999     -0.00000
     48      -3.3534     -0.00000
     49      -2.0681     -0.00000
     50      -1.9410     -0.00000
     51      -1.3120     -0.00000
     52      -0.9198     -0.00000
     53      -0.5358     -0.00000
     54      -0.3672     -0.00000
     55      -0.1402     -0.00000
     56       0.0166     -0.00000

 spin component 2

 k-point     1 :       0.0000    0.0000    0.0000
  band No.  band energies     occupation 
      1     -10.7963      1.00000
      2      -9.9156      1.00000
      3      -9.8182      1.00000
      4      -9.3916      1.00000
      5      -9.1486      1.00000
      6      -9.0850      1.00000
      7      -8.8916      1.00000
      8      -8.8456      1.00000
      9      -8.8138      1.00000
     10      -8.6488      1.00000
     11      -8.5871      1.00000
     12      -8.3903      1.00000
     13      -8.3222      1.00000
     14      -8.2550      1.00000
     15      -8.2305      1.00000
     16      -8.1249      1.00000
     17      -8.0666      1.00000
     18      -8.0329      1.00000
     19      -7.7647      1.00000
     20      -7.5010      1.00000
     21      -7.4104      1.00000
     22      -7.3416      1.00000
     23      -7.2590      1.00000
     24      -7.1878      1.00000
     25      -7.0855      1.00000
     26      -7.0147      1.00000
     27      -6.9807      1.00000
     28      -6.9558      1.00000
     29      -6.8046      1.00000
     30      -6.6734      1.00000
     31      -6.6162      1.00000
     32      -6.6073      1.00000
     33      -6.4959      1.00000
     34      -6.4805      1.00000
     35      -6.4034      1.00000
     36      -6.2958      1.00000
     37      -6.2077      1.00000
     38      -6.1863      1.00000
     39      -6.1511      1.00000
     40      -6.1269      1.00000
     41      -6.0116      1.00000
     42      -5.9271      1.00000
     43      -5.5567      1.01011
     44      -5.3316      0.98989
     45      -3.8841     -0.00000
     46      -3.6547     -0.00000
     47      -3.5999     -0.00000
     48      -3.3534     -0.00000
     49      -2.0681     -0.00000
     50      -1.9410     -0.00000
     51      -1.3120     -0.00000
     52      -0.9198     -0.00000
     53      -0.5358     -0.00000
     54      -0.3672     -0.00000
     55      -0.1402     -0.00000
     56       0.0166     -0.00000


--------------------------------------------------------------------------------------------------------


 soft charge-density along one line, spin component            1
         0         1         2         3         4         5         6         7         8         9
 total charge-density along one line
 
 soft charge-density along one line, spin component            2
         0         1         2         3         4         5         6         7         8         9
 total charge-density along one line
 
 pseudopotential strength for first ion, spin component:            1
 -9.349   0.002   0.018  -0.008   0.005  -9.468   0.002   0.018
  0.002  -9.354  -0.003  -0.015   0.007   0.002  -9.472  -0.003
  0.018  -0.003  -9.329  -0.001  -0.013   0.018  -0.003  -9.448
 -0.008  -0.015  -0.001  -9.329   0.003  -0.007  -0.014  -0.001
  0.005   0.007  -0.013   0.003  -9.350   0.005   0.006  -0.012
 -9.468   0.002   0.018  -0.007   0.005  -9.571   0.001   0.018
  0.002  -9.472  -0.003  -0.014   0.006   0.001  -9.575  -0.003
  0.018  -0.003  -9.448  -0.001  -0.012   0.018  -0.003  -9.552
 -0.007  -0.014  -0.001  -9.448   0.003  -0.007  -0.014  -0.001
  0.005   0.006  -0.012   0.003  -9.468   0.005   0.006  -0.012
  0.013   0.005  -0.008  -0.000  -0.008   0.013   0.005  -0.008
  0.019   0.007  -0.011  -0.001  -0.012   0.018   0.007  -0.011
  0.012  -0.005   0.010  -0.000   0.018   0.012  -0.005   0.010
 -0.000  -0.019  -0.006   0.013  -0.000  -0.000  -0.019  -0.006
 -0.019  -0.000  -0.007  -0.005   0.012  -0.018  -0.000  -0.006
  0.013  -0.006   0.012  -0.000   0.021   0.013  -0.006   0.012
 -0.000  -0.022  -0.007   0.014  -0.000  -0.000  -0.021  -0.007
 -0.022  -0.000  -0.007  -0.006   0.013  -0.022  -0.000  -0.007
 pseudopotential strength for first ion, spin component:            2
 -9.349   0.002   0.018  -0.008   0.005  -9.468   0.002   0.018
  0.002  -9.354  -0.003  -0.015   0.007   0.002  -9.472  -0.003
  0.018  -0.003  -9.329  -0.001  -0.013   0.018  -0.003  -9.448
 -0.008  -0.015  -0.001  -9.329   0.003  -0.007  -0.014  -0.001
  0.005   0.007  -0.013   0.003  -9.350   0.005   0.006  -0.012
 -9.468   0.002   0.018  -0.007   0.005  -9.571   0.001   0.018
  0.002  -9.472  -0.003  -0.014   0.006   0.001  -9.575  -0.003
  0.018  -0.003  -9.448  -0.001  -0.012   0.018  -0.003  -9.552
 -0.007  -0.014  -0.001  -9.448   0.003  -0.007  -0.014  -0.001
  0.005   0.006  -0.012   0.003  -9.468   0.005   0.006  -0.012
  0.013   0.005  -0.008  -0.000  -0.008   0.013   0.005  -0.008
  0.019   0.007  -0.011  -0.001  -0.012   0.018   0.007  -0.011
  0.012  -0.005   0.010  -0.000   0.018   0.012  -0.005   0.010
 -0.000  -0.019  -0.006   0.013  -0.000  -0.000  -0.019  -0.006
 -0.019  -0.000  -0.007  -0.005   0.012  -0.018  -0.000  -0.006
  0.013  -0.006   0.012  -0.000   0.021   0.013  -0.006   0.012
 -0.000  -0.022  -0.007   0.014  -0.000  -0.000  -0.021  -0.007
 -0.022  -0.000  -0.007  -0.006   0.013  -0.022  -0.000  -0.007
 total augmentation occupancy for first ion, spin component:            1
  3.751   0.040  -0.106   0.004   0.267  -1.712  -0.043   0.179  -0.033  -0.188  -0.372  -0.034   0.226  -0.008  -0.009   0.004
  0.040   3.647   0.051  -0.382  -0.063  -0.044  -1.673  -0.047   0.320   0.076  -0.195   0.015  -0.002  -0.225  -0.012  -0.004
 -0.106   0.051   3.143  -0.003  -0.164   0.180  -0.047  -1.009  -0.021   0.123   0.545  -0.153  -0.017  -0.009  -0.134   0.007
  0.004  -0.382  -0.003   3.394   0.017  -0.033   0.320  -0.021  -1.318   0.004  -0.007   0.006  -0.009   0.179   0.001   0.000
  0.267  -0.063  -0.164   0.017   4.212  -0.188   0.076   0.124   0.004  -2.151   0.264   0.014   0.305   0.015   0.277   0.007
 -1.712  -0.044   0.180  -0.033  -0.188   1.633   0.047  -0.233   0.056   0.130   0.293   0.029  -0.223   0.007   0.020   0.005
 -0.043  -1.673  -0.047   0.320   0.076   0.047   1.642   0.045  -0.274  -0.088   0.171  -0.016   0.016   0.247   0.010  -0.001
  0.179  -0.047  -1.009  -0.021   0.124  -0.233   0.045   0.854   0.037  -0.094  -0.504   0.164   0.005   0.010   0.138   0.001
 -0.033   0.320  -0.021  -1.318   0.004   0.056  -0.274   0.037   1.202  -0.022   0.011  -0.009   0.007  -0.184   0.008  -0.000
 -0.188   0.076   0.123   0.004  -2.151   0.130  -0.088  -0.094  -0.022   2.056  -0.225  -0.011  -0.304  -0.013  -0.271   0.009
 -0.372  -0.195   0.545  -0.007   0.264   0.293   0.171  -0.504   0.011  -0.225   2.189  -0.467   0.169   0.024  -0.189  -0.012
 -0.034   0.015  -0.153   0.006   0.014   0.029  -0.016   0.164  -0.009  -0.011  -0.467   0.138  -0.047   0.002   0.076   0.003
  0.226  -0.002  -0.017  -0.009   0.305  -0.223   0.016   0.005   0.007  -0.304   0.169  -0.047   0.112   0.002   0.029  -0.004
 -0.008  -0.225  -0.009   0.179   0.015   0.007   0.247   0.010  -0.184  -0.013   0.024   0.002   0.002   0.066   0.004  -0.000
 -0.009  -0.012  -0.134   0.001   0.277   0.020   0.010   0.138   0.008  -0.271  -0.189   0.076   0.029   0.004   0.092  -0.000
  0.004  -0.004   0.007   0.000   0.007   0.005  -0.001   0.001  -0.000   0.009  -0.012   0.003  -0.004  -0.000  -0.000   0.000
  0.000  -0.011  -0.007   0.004  -0.001  -0.000  -0.007   0.001   0.005   0.001  -0.002   0.000  -0.000  -0.002   0.000   0.000
 -0.015  -0.000   0.000  -0.005  -0.000   0.000  -0.000  -0.005  -0.000   0.009   0.013  -0.004  -0.000  -0.000  -0.004  -0.000
 total augmentation occupancy for first ion, spin component:            2
  0.000   0.000   0.000   0.000  -0.000  -0.000  -0.000  -0.000  -0.000   0.000   0.000  -0.000   0.000   0.000  -0.000  -0.000
  0.000  -0.000   0.000  -0.000  -0.000  -0.000   0.000  -0.000   0.000   0.000  -0.000  -0.000  -0.000  -0.000  -0.000   0.000
  0.000   0.000  -0.000   0.000   0.000  -0.000  -0.000   0.000   0.000  -0.000   0.000  -0.000   0.000   0.000   0.000  -0.000
  0.000  -0.000   0.000   0.000  -0.000  -0.000  -0.000  -0.000  -0.000   0.000  -0.000   0.000  -0.000   0.000   0.000  -0.000
 -0.000  -0.000   0.000  -0.000  -0.000   0.000   0.000  -0.000   0.000   0.000   0.000  -0.000  -0.000   0.000  -0.000   0.000
 -0.000  -0.000  -0.000  -0.000   0.000   0.000  -0.000   0.000   0.000  -0.000   0.000  -0.000  -0.000   0.000   0.000   0.000
 -0.000   0.000  -0.000  -0.000   0.000  -0.000   0.000   0.000   0.000  -0.000  -0.000   0.000   0.000   0.000   0.000  -0.000
 -0.000  -0.000   0.000  -0.000  -0.000   0.000   0.000  -0.000   0.000   0.000   0.000  -0.000  -0.000   0.000  -0.000   0.000
 -0.000   0.000   0.000  -0.000   0.000   0.000   0.000   0.000   0.000  -0.000   0.000   0.000   0.000  -0.000  -0.000   0.000
  0.000   0.000  -0.000   0.000   0.000  -0.000  -0.000   0.000  -0.000  -0.000  -0.000   0.000   0.000  -0.000   0.000  -0.000
  0.000  -0.000   0.000  -0.000   0.000   0.000  -0.000   0.000   0.000  -0.000   0.000  -0.000  -0.000   0.000   0.000   0.000
 -0.000  -0.000  -0.000   0.000  -0.000  -0.000   0.000  -0.000   0.000   0.000  -0.000   0.000  -0.000  -0.000  -0.000   0.000
  0.000  -0.000   0.000  -0.000  -0.000  -0.000   0.000  -0.000   0.000   0.000  -0.000  -0.000  -0.000   0.000  -0.000   0.000
  0.000  -0.000   0.000   0.000   0.000   0.000   0.000   0.000  -0.000  -0.000   0.000  -0.000   0.000   0.000   0.000  -0.000
 -0.000  -0.000   0.000   0.000  -0.000   0.000   0.000  -0.000  -0.000   0.000   0.000  -0.000  -0.000   0.000  -0.000   0.000
 -0.000   0.000  -0.000  -0.000   0.000   0.000  -0.000   0.000   0.000  -0.000   0.000   0.000   0.000  -0.000   0.000   0.000
 -0.000   0.000  -0.000  -0.000  -0.000   0.000  -0.000   0.000   0.000   0.000  -0.000   0.000  -0.000  -0.000   0.000  -0.000
  0.000   0.000   0.000  -0.000   0.000  -0.000  -0.000   0.000   0.000  -0.000   0.000   0.000   0.000  -0.000   0.000   0.000


------------------------ aborting loop because EDIFF is reached ----------------------------------------


    CHARGE:  cpu time    0.8416: real time    0.8425
    FORLOC:  cpu time    0.1084: real time    0.1085
    FORNL :  cpu time    3.6914: real time    3.6946
    FORCOR:  cpu time    3.6190: real time    3.6261
    FORHAR:  cpu time    0.4630: real time    0.4635
    MIXING:  cpu time    0.0730: real time    0.0731
    OFIELD:  cpu time    0.0000: real time    0.0000

 VOLUME and BASIS-vectors are now :
 -----------------------------------------------------------------------------
  energy-cutoff  :      400.00
  volume of cell :    11371.26
      direct lattice vectors                 reciprocal lattice vectors
    22.387680446  0.000000000  0.000000000     0.044667423  0.000000000  0.000000000
     0.000000000 22.805161801  0.000000000     0.000000000  0.043849722  0.000000000
     0.000000000  0.000000000 22.272374333     0.000000000  0.000000000  0.044898671

  length of vectors
    22.387680446 22.805161801 22.272374333     0.044667423  0.043849722  0.044898671


 FORCES acting on ions
    electron-ion (+dipol)            ewald-force                    non-local-force                 convergence-correction
 -----------------------------------------------------------------------------------------------
   -.647E+03 0.519E+03 0.314E+02   0.646E+03 -.517E+03 -.305E+02   0.105E+01 -.250E+01 -.926E+00   -.527E-01 0.185E-01 -.176E-01
   0.437E+03 0.275E+03 -.515E+03   -.437E+03 -.274E+03 0.515E+03   -.123E+00 -.270E+00 0.580E-01   -.494E-02 -.705E-01 -.274E-01
   0.366E+03 0.196E+03 0.718E+03   -.365E+03 -.194E+03 -.716E+03   -.511E+00 -.200E+01 -.199E+01   0.388E-01 -.101E-01 0.458E-01
   0.467E+03 -.625E+03 0.268E+03   -.466E+03 0.623E+03 -.269E+03   -.115E+01 0.266E+01 0.392E+00   -.386E-02 0.119E-01 -.259E-01
   -.509E+03 -.387E+03 0.567E+03   0.507E+03 0.385E+03 -.565E+03   0.216E+01 0.196E+01 -.226E+01   0.264E-02 0.192E-01 0.608E-02
   0.245E+03 0.789E+03 0.992E+01   -.244E+03 -.783E+03 -.951E+01   -.149E+01 -.561E+01 -.438E+00   -.763E-02 0.288E-01 0.241E-01
   0.260E+03 -.487E+03 -.613E+03   -.259E+03 0.483E+03 0.609E+03   -.135E+01 0.403E+01 0.388E+01   -.369E-02 0.444E-01 0.269E-01
   -.619E+03 -.279E+03 -.468E+03   0.618E+03 0.277E+03 0.466E+03   0.107E+01 0.195E+01 0.190E+01   0.272E-01 0.114E-02 -.580E-02
 -----------------------------------------------------------------------------------------------
   0.350E+00 -.268E+00 -.644E+00   0.114E-12 -.227E-12 0.114E-12   -.346E+00 0.221E+00 0.617E+00   -.418E-02 0.434E-01 0.261E-01
 
 
 POSITION                                       TOTAL-FORCE (eV/Angst)
 -----------------------------------------------------------------------------------
     12.66908     10.27122     10.92958         0.041623     -0.014901      0.032469
     10.24585     11.10110     12.19601         0.011094     -0.016721     -0.022517
     10.32928     11.01898      9.34217        -0.048210      0.011612     -0.030015
     10.01212     13.41931     10.52909         0.018893     -0.005238      0.019461
     12.51381     12.70145      9.60676        -0.008575     -0.046859     -0.010464
     10.37390      8.76829     10.91056         0.020204      0.047110     -0.007199
     10.30205     13.52095     13.25324        -0.013512      0.015347      0.025424
     12.70670     12.55936     12.35605        -0.021516      0.009650     -0.007160
 -----------------------------------------------------------------------------------
    total drift:                               -0.000048     -0.002850     -0.000374


--------------------------------------------------------------------------------------------------------



  FREE ENERGIE OF THE ION-ELECTRON SYSTEM (eV)
  ---------------------------------------------------
  free  energy   TOTEN  =       -16.94176159 eV

  energy  without entropy=      -16.95893442  energy(sigma->0) =      -16.94748587
 
 d Force = 0.1710006E-05[-0.841E-04, 0.876E-04]  d Energy = 0.2130305E-04-0.196E-04
 d Force =-0.2883766E+00[-0.289E+00,-0.287E+00]  d Ewald  =-0.2883767E+00 0.931E-07


--------------------------------------------------------------------------------------------------------


    POTLOK:  cpu time    3.7116: real time    3.7185


--------------------------------------------------------------------------------------------------------




--------------------------------------------------------------------------------------------------------


  
 reached required accuracy - stopping structural energy minimisation
     LOOP+:  cpu time   35.6789: real time   35.7492
    4ORBIT:  cpu time    0.0000: real time    0.0000

 total amount of memory used by VASP MPI-rank0   223939. kBytes
=======================================================================

   base      :      30000. kBytes
   nonl-proj :       3513. kBytes
   fftplans  :      51292. kBytes
   grid      :     115956. kBytes
   one-center:         15. kBytes
   wavefun   :      23163. kBytes
 
  
  
 General timing and accounting informations for this job:
 ========================================================
  
                  Total CPU time used (sec):     3867.492
                            User time (sec):     3821.887
                          System time (sec):       45.605
                         Elapsed time (sec):     3888.080
  
                   Maximum memory used (kb):      451312.
                   Average memory used (kb):           0.
  
                          Minor page faults:     16144319
                          Major page faults:        31992
                 Voluntary context switches:         4063
