<?xml version="1.0" encoding="ISO-8859-1"?>
<modeling>
 <generator>
  <i name="program" type="string">vasp </i>
  <i name="version" type="string">6.1.2  </i>
  <i name="subversion" type="string">22Jul20 (build Jan 14 2022 17:24:41) gamma-only                       parallel </i>
  <i name="platform" type="string">LinuxPGI </i>
  <i name="date" type="string">2022 01 26 </i>
  <i name="time" type="string">10:33:05 </i>
 </generator>
 <incar>
  <i type="int" name="ISPIN">     2</i>
  <i type="int" name="IBRION">     2</i>
  <i type="int" name="NSW">  1000</i>
  <i type="int" name="ISIF">     0</i>
  <i type="int" name="ISYM">     0</i>
  <i name="ENCUT">    400.00000000</i>
  <i type="logical" name="LREAL"> F  </i>
  <i type="int" name="ISMEAR">     1</i>
  <i name="SIGMA">      0.20000000</i>
  <i type="logical" name="LWAVE"> F  </i>
  <i type="logical" name="LCHARG"> F  </i>
  <i type="int" name="KPAR">     1</i>
  <i type="int" name="NCORE">     8</i>
  <i type="string" name="GGA"> PE</i>
  <i type="int" name="ISPIN">     2</i>
 </incar>
 <structure name="primitive_cell" >
  <crystal>
   <varray name="basis" >
    <v>      22.38768045       0.00000000       0.00000000 </v>
    <v>       0.00000000      22.80516180       0.00000000 </v>
    <v>       0.00000000       0.00000000      22.27237433 </v>
   </varray>
   <i name="volume">  11371.26483766 </i>
   <varray name="rec_basis" >
    <v>       0.04466742       0.00000000       0.00000000 </v>
    <v>       0.00000000       0.04384972       0.00000000 </v>
    <v>       0.00000000       0.00000000       0.04489867 </v>
   </varray>
  </crystal>
  <varray name="positions" >
   <v>       0.56450748       0.45120673       0.48521689 </v>
   <v>       0.46354323       0.49224553       0.54180507 </v>
   <v>       0.46711299       0.48155668       0.41859692 </v>
   <v>       0.42144406       0.57698618       0.46991164 </v>
   <v>       0.53936412       0.56522574       0.46414242 </v>
   <v>       0.46730617       0.38993051       0.48647563 </v>
   <v>       0.48645325       0.60683751       0.56241762 </v>
   <v>       0.57249388       0.52985022       0.57295817 </v>
  </varray>
 </structure>
 <varray name="primitive_index" >
  <v type="int" >        1 </v>
  <v type="int" >        2 </v>
  <v type="int" >        3 </v>
  <v type="int" >        4 </v>
  <v type="int" >        5 </v>
  <v type="int" >        6 </v>
  <v type="int" >        7 </v>
  <v type="int" >        8 </v>
 </varray>
 <kpoints>
  <generation param="Gamma">
   <v type="int" name="divisions">       1        1        1 </v>
   <v name="usershift">      0.00000000       0.00000000       0.00000000 </v>
   <v name="genvec1">      1.00000000       0.00000000       0.00000000 </v>
   <v name="genvec2">      0.00000000       1.00000000       0.00000000 </v>
   <v name="genvec3">      0.00000000       0.00000000       1.00000000 </v>
   <v name="shift">      0.00000000       0.00000000       0.00000000 </v>
  </generation>
  <varray name="kpointlist" >
   <v>       0.00000000       0.00000000       0.00000000 </v>
  </varray>
  <varray name="weights" >
   <v>       1.00000000 </v>
  </varray>
 </kpoints>
 <parameters>
  <separator name="general" >
   <i type="string" name="SYSTEM">unknown system</i>
   <i type="logical" name="LCOMPAT"> F  </i>
  </separator>
  <separator name="electronic" >
   <i type="string" name="PREC">normal</i>
   <i name="ENMAX">    400.00000000</i>
   <i name="ENAUG">    356.67000000</i>
   <i name="EDIFF">      0.00010000</i>
   <i type="int" name="IALGO">    38</i>
   <i type="int" name="IWAVPR">    11</i>
   <i type="int" name="NBANDS">    56</i>
   <i type="int" name="NBANDSLOW">    -1</i>
   <i type="int" name="NBANDSHIGH">    -1</i>
   <i name="NELECT">     88.00000000</i>
   <i type="int" name="TURBO">     0</i>
   <i type="int" name="IRESTART">     0</i>
   <i type="int" name="NREBOOT">     0</i>
   <i type="int" name="NMIN">     0</i>
   <i name="EREF">      0.00000000</i>
   <separator name="electronic smearing" >
    <i type="int" name="ISMEAR">     1</i>
    <i name="SIGMA">      0.20000000</i>
    <i name="KSPACING">      0.50000000</i>
    <i type="logical" name="KGAMMA"> T  </i>
    <i type="logical" name="KBLOWUP"> T  </i>
   </separator>
   <separator name="electronic projectors" >
    <i type="logical" name="LREAL"> F  </i>
    <v name="ROPT">      0.00000000</v>
    <i type="int" name="LMAXPAW">  -100</i>
    <i type="int" name="LMAXMIX">     2</i>
    <i type="logical" name="NLSPLINE"> F  </i>
   </separator>
   <separator name="electronic startup" >
    <i type="int" name="ISTART">     0</i>
    <i type="int" name="ICHARG">     2</i>
    <i type="int" name="INIWAV">     1</i>
   </separator>
   <separator name="electronic spin" >
    <i type="int" name="ISPIN">     2</i>
    <i type="logical" name="LNONCOLLINEAR"> F  </i>
    <v name="MAGMOM">      1.00000000      1.00000000      1.00000000      1.00000000      1.00000000      1.00000000      1.00000000      1.00000000</v>
    <i name="NUPDOWN">     -1.00000000</i>
    <i type="logical" name="LSORBIT"> F  </i>
    <v name="SAXIS">      0.00000000      0.00000000      1.00000000</v>
    <i type="logical" name="LSPIRAL"> F  </i>
    <v name="QSPIRAL">      0.00000000      0.00000000      0.00000000</v>
    <i type="logical" name="LZEROZ"> F  </i>
   </separator>
   <separator name="electronic exchange-correlation" >
    <i type="logical" name="LASPH"> F  </i>
    <i type="logical" name="LMETAGGA"> F  </i>
   </separator>
   <separator name="electronic convergence" >
    <i type="int" name="NELM">    60</i>
    <i type="int" name="NELMDL">     0</i>
    <i type="int" name="NELMIN">     2</i>
    <i name="ENINI">    400.00000000</i>
    <separator name="electronic convergence detail" >
     <i type="logical" name="LDIAG"> T  </i>
     <i type="logical" name="LSUBROT"> F  </i>
     <i name="WEIMIN">      0.00100000</i>
     <i name="EBREAK">      0.00000045</i>
     <i name="DEPER">      0.30000000</i>
     <i type="int" name="NRMM">     4</i>
     <i name="TIME">      0.40000000</i>
    </separator>
   </separator>
   <separator name="electronic mixer" >
    <i name="AMIX">      0.40000000</i>
    <i name="BMIX">      1.00000000</i>
    <i name="AMIN">      0.10000000</i>
    <i name="AMIX_MAG">      1.60000000</i>
    <i name="BMIX_MAG">      1.00000000</i>
    <separator name="electronic mixer details" >
     <i type="int" name="IMIX">     4</i>
     <i type="logical" name="MIXFIRST"> F  </i>
     <i type="int" name="MAXMIX">   -45</i>
     <i name="WC">    100.00000000</i>
     <i type="int" name="INIMIX">     1</i>
     <i type="int" name="MIXPRE">     1</i>
     <i type="int" name="MREMOVE">     5</i>
    </separator>
   </separator>
   <separator name="electronic dipolcorrection" >
    <i type="logical" name="LDIPOL"> F  </i>
    <i type="logical" name="LMONO"> F  </i>
    <i type="int" name="IDIPOL">     0</i>
    <i name="EPSILON">      1.00000000</i>
    <v name="DIPOL">   -100.00000000   -100.00000000   -100.00000000</v>
    <i name="EFIELD">      0.00000000</i>
   </separator>
  </separator>
  <separator name="grids" >
   <i type="int" name="NGX">   112</i>
   <i type="int" name="NGY">   112</i>
   <i type="int" name="NGZ">   112</i>
   <i type="int" name="NGXF">   224</i>
   <i type="int" name="NGYF">   224</i>
   <i type="int" name="NGZF">   224</i>
   <i type="logical" name="ADDGRID"> F  </i>
  </separator>
  <separator name="ionic" >
   <i type="int" name="NSW">  1000</i>
   <i type="int" name="IBRION">     2</i>
   <i type="int" name="MDALGO">     0</i>
   <i type="int" name="ISIF">     0</i>
   <i name="PSTRESS">      0.00000000</i>
   <i name="EDIFFG">      0.00100000</i>
   <i type="int" name="NFREE">     1</i>
   <i name="POTIM">      0.50000000</i>
   <i name="SMASS">     -3.00000000</i>
   <i name="SCALEE">      1.00000000</i>
  </separator>
  <separator name="ionic md" >
   <i name="TEBEG">      0.00010000</i>
   <i name="TEEND">      0.00010000</i>
   <i type="int" name="NBLOCK">     1</i>
   <i type="int" name="KBLOCK">  1000</i>
   <i type="int" name="NPACO">   256</i>
   <i name="APACO">     16.00000000</i>
  </separator>
  <separator name="symmetry" >
   <i type="int" name="ISYM">     0</i>
   <i name="SYMPREC">      0.00001000</i>
  </separator>
  <separator name="dos" >
   <i type="int" name="LORBIT">     0</i>
   <v name="RWIGS">     -1.00000000</v>
   <i type="int" name="NEDOS">   301</i>
   <i name="EMIN">     10.00000000</i>
   <i name="EMAX">    -10.00000000</i>
   <i name="EFERMI">      0.00000000</i>
  </separator>
  <separator name="writing" >
   <i type="int" name="NWRITE">     2</i>
   <i type="logical" name="LWAVE"> F  </i>
   <i type="logical" name="LDOWNSAMPLE"> F  </i>
   <i type="logical" name="LCHARG"> F  </i>
   <i type="logical" name="LPARD"> F  </i>
   <i type="logical" name="LVTOT"> F  </i>
   <i type="logical" name="LVHAR"> F  </i>
   <i type="logical" name="LELF"> F  </i>
   <i type="logical" name="LOPTICS"> F  </i>
   <v name="STM">      0.00000000      0.00000000      0.00000000      0.00000000      0.00000000      0.00000000      0.00000000</v>
  </separator>
  <separator name="performance" >
   <i type="int" name="NPAR">     1</i>
   <i type="int" name="NSIM">     4</i>
   <i type="int" name="NBLK">    -1</i>
   <i type="logical" name="LPLANE"> T  </i>
   <i type="logical" name="LSCALAPACK"> T  </i>
   <i type="logical" name="LSCAAWARE"> F  </i>
   <i type="logical" name="LSCALU"> F  </i>
   <i type="logical" name="LASYNC"> F  </i>
   <i type="logical" name="LORBITALREAL"> F  </i>
  </separator>
  <separator name="miscellaneous" >
   <i type="int" name="IDIOT">     3</i>
   <i type="int" name="PHON_NSTRUCT">    -1</i>
   <i type="logical" name="LMUSIC"> F  </i>
   <v name="POMASS">    196.96600000</v>
   <v name="DARWINR">      0.00000000</v>
   <v name="DARWINV">      1.00000000</v>
   <i type="logical" name="LCORR"> T  </i>
  </separator>
  <i type="logical" name="GGA_COMPAT"> T  </i>
  <i type="logical" name="LBERRY"> F  </i>
  <i type="int" name="ICORELEVEL">     0</i>
  <i type="logical" name="LDAU"> F  </i>
  <i type="int" name="I_CONSTRAINED_M">     0</i>
  <separator name="electronic exchange-correlation" >
   <i type="string" name="GGA">PE</i>
   <i type="int" name="VOSKOWN">     0</i>
   <i type="logical" name="LHFCALC"> F  </i>
   <i type="string" name="PRECFOCK"></i>
   <i type="logical" name="LSYMGRAD"> F  </i>
   <i type="logical" name="LHFONE"> F  </i>
   <i type="logical" name="LRHFCALC"> F  </i>
   <i type="logical" name="LTHOMAS"> F  </i>
   <i type="logical" name="LMODELHF"> F  </i>
   <i type="logical" name="LFOCKACE"> F  </i>
   <i name="ENCUT4O">     -1.00000000</i>
   <i type="int" name="EXXOEP">     0</i>
   <i type="int" name="FOURORBIT">     0</i>
   <i name="AEXX">      0.00000000</i>
   <i name="HFALPHA">      0.00000000</i>
   <i name="MCALPHA">      0.00000000</i>
   <i name="ALDAX">      1.00000000</i>
   <i name="AGGAX">      1.00000000</i>
   <i name="ALDAC">      1.00000000</i>
   <i name="AGGAC">      1.00000000</i>
   <i type="int" name="NKREDX">     1</i>
   <i type="int" name="NKREDY">     1</i>
   <i type="int" name="NKREDZ">     1</i>
   <i type="logical" name="SHIFTRED"> F  </i>
   <i type="logical" name="ODDONLY"> F  </i>
   <i type="logical" name="EVENONLY"> F  </i>
   <i type="int" name="LMAXFOCK">     0</i>
   <i type="int" name="NMAXFOCKAE">     0</i>
   <i type="logical" name="LFOCKAEDFT"> F  </i>
   <i name="HFSCREEN">      0.00000000</i>
   <i name="HFSCREENC">      0.00000000</i>
   <i type="int" name="NBANDSGWLOW">     0</i>
  </separator>
  <separator name="vdW DFT" >
   <i type="logical" name="LUSE_VDW"> F  </i>
   <i name="Zab_VDW">     -0.84910000</i>
   <i name="PARAM1">      0.12340000</i>
   <i name="PARAM2">      1.00000000</i>
   <i name="PARAM3">      0.00000000</i>
  </separator>
  <separator name="model GW" >
   <i type="int" name="MODEL_GW">     0</i>
   <i name="MODEL_EPS0">    852.84486282</i>
   <i name="MODEL_ALPHA">      1.00000000</i>
  </separator>
  <separator name="linear response parameters" >
   <i type="logical" name="LEPSILON"> F  </i>
   <i type="logical" name="LRPA"> F  </i>
   <i type="logical" name="LNABLA"> F  </i>
   <i type="logical" name="LVEL"> F  </i>
   <i type="int" name="KINTER">     0</i>
   <i name="CSHIFT">      0.10000000</i>
   <i name="OMEGAMAX">     -1.00000000</i>
   <i name="DEG_THRESHOLD">      0.00200000</i>
   <i name="RTIME">     -0.10000000</i>
   <i name="WPLASMAI">      0.00000000</i>
   <v name="DFIELD">      0.00000000      0.00000000      0.00000000</v>
   <v name="WPLASMA">      0.00000000      0.00000000      0.00000000      0.00000000      0.00000000      0.00000000      0.00000000      0.00000000      0.00000000</v>
  </separator>
  <separator name="orbital magnetization" >
   <i type="logical" name="NUCIND"> F  </i>
   <v name="MAGPOS">      0.00000000      0.00000000      0.00000000</v>
   <i type="logical" name="LNICSALL"> T  </i>
   <i type="logical" name="ORBITALMAG"> F  </i>
   <i type="logical" name="LMAGBLOCH"> F  </i>
   <i type="logical" name="LCHIMAG"> F  </i>
   <i type="logical" name="LGAUGE"> T  </i>
   <i type="int" name="MAGATOM">     0</i>
   <v name="MAGDIPOL">      0.00000000      0.00000000      0.00000000</v>
   <v name="AVECCONST">      0.00000000      0.00000000      0.00000000</v>
  </separator>
  <separator name="response functions" >
   <i type="logical" name="LFINITE_TEMPERATURE"> F  </i>
   <i type="logical" name="LADDER"> F  </i>
   <i type="logical" name="LRPAFORCE"> F  </i>
   <i type="logical" name="LFXC"> F  </i>
   <i type="logical" name="LHARTREE"> T  </i>
   <i type="int" name="IBSE">     0</i>
   <v type="int" name="KPOINT">    -1     0     0     0</v>
   <i type="logical" name="LTCTC"> F  </i>
   <i type="logical" name="LTCTE"> F  </i>
   <i type="logical" name="LTETE"> F  </i>
   <i type="logical" name="LTRIPLET"> F  </i>
   <i type="logical" name="LFXCEPS"> F  </i>
   <i type="logical" name="LFXHEG"> F  </i>
   <i type="int" name="NATURALO">     2</i>
   <i type="logical" name="LHOLEGF"> F  </i>
   <i type="logical" name="L2ORDER"> F  </i>
   <i type="logical" name="LDMP1"> F  </i>
   <i type="logical" name="LMP2LT"> F  </i>
   <i type="logical" name="LSMP2LT"> F  </i>
   <i type="logical" name="LGWLF"> F  </i>
   <i name="ENCUTGW">     -2.00000000</i>
   <i name="ENCUTGWSOFT">     -2.00000000</i>
   <i name="ENCUTLF">     -1.00000000</i>
   <i type="logical" name="LESF_SPLINES"> F  </i>
   <i type="int" name="LMAXMP2">    -1</i>
   <i name="SCISSOR">      0.00000000</i>
   <i type="int" name="NOMEGA">     0</i>
   <i type="int" name="NOMEGAR">     0</i>
   <i type="int" name="NBANDSGW">    -1</i>
   <i type="int" name="NBANDSO">    -1</i>
   <i type="int" name="NBANDSV">    -1</i>
   <i type="int" name="NELM">     1</i>
   <i type="int" name="NELMHF">     1</i>
   <i type="int" name="DIM">     3</i>
   <i type="int" name="IESPILON">     4</i>
   <i type="int" name="ANTIRES">     0</i>
   <i name="OMEGAMAX">    -30.00000000</i>
   <i name="OMEGAMIN">    -30.00000000</i>
   <i name="OMEGATL">   -200.00000000</i>
   <i type="int" name="OMEGAGRID">     0</i>
   <i name="CSHIFT">     -0.10000000</i>
   <i type="logical" name="LSELFENERGY"> F  </i>
   <i type="logical" name="LSPECTRAL"> F  </i>
   <i type="logical" name="LSPECTRALGW"> F  </i>
   <i type="logical" name="LSINGLES"> F  </i>
   <i type="logical" name="LFERMIGW"> F  </i>
   <i type="logical" name="ODDONLYGW"> F  </i>
   <i type="logical" name="EVENONLYGW"> F  </i>
   <i type="int" name="NKREDLFX">     1</i>
   <i type="int" name="NKREDLFY">     1</i>
   <i type="int" name="NKREDLFZ">     1</i>
   <i type="int" name="MAXMEM">  2800</i>
   <i type="int" name="TELESCOPE">     0</i>
   <i type="int" name="NTAUPAR">    -1</i>
   <i type="int" name="NOMEGAPAR">    -1</i>
   <i name="LAMBDA">      1.00000000</i>
  </separator>
  <separator name="External order field" >
   <i name="OFIELD_KAPPA">      0.00000000</i>
   <v name="OFIELD_K">      0.00000000      0.00000000      0.00000000</v>
   <i name="OFIELD_Q6_NEAR">      0.00000000</i>
   <i name="OFIELD_Q6_FAR">      0.00000000</i>
   <i name="OFIELD_A">      0.00000000</i>
  </separator>
 </parameters>
 <atominfo>
  <atoms>       8 </atoms>
  <types>       1 </types>
  <array name="atoms" >
   <dimension dim="1">ion</dimension>
   <field type="string">element</field>
   <field type="int">atomtype</field>
   <set>
    <rc><c>Au</c><c>   1</c></rc>
    <rc><c>Au</c><c>   1</c></rc>
    <rc><c>Au</c><c>   1</c></rc>
    <rc><c>Au</c><c>   1</c></rc>
    <rc><c>Au</c><c>   1</c></rc>
    <rc><c>Au</c><c>   1</c></rc>
    <rc><c>Au</c><c>   1</c></rc>
    <rc><c>Au</c><c>   1</c></rc>
   </set>
  </array>
  <array name="atomtypes" >
   <dimension dim="1">type</dimension>
   <field type="int">atomspertype</field>
   <field type="string">element</field>
   <field>mass</field>
   <field>valence</field>
   <field type="string">pseudopotential</field>
   <set>
    <rc><c>   8</c><c>Au</c><c>    196.96600000</c><c>     11.00000000</c><c>  PAW_PBE Au 04Oct2007                  </c></rc>
   </set>
  </array>
 </atominfo>
 <structure name="initialpos" >
  <crystal>
   <varray name="basis" >
    <v>      22.38768045       0.00000000       0.00000000 </v>
    <v>       0.00000000      22.80516180       0.00000000 </v>
    <v>       0.00000000       0.00000000      22.27237433 </v>
   </varray>
   <i name="volume">  11371.26483766 </i>
   <varray name="rec_basis" >
    <v>       0.04466742       0.00000000       0.00000000 </v>
    <v>       0.00000000       0.04384972       0.00000000 </v>
    <v>       0.00000000       0.00000000       0.04489867 </v>
   </varray>
  </crystal>
  <varray name="positions" >
   <v>       0.56450748       0.45120673       0.48521689 </v>
   <v>       0.46354323       0.49224553       0.54180507 </v>
   <v>       0.46711299       0.48155668       0.41859692 </v>
   <v>       0.42144406       0.57698618       0.46991164 </v>
   <v>       0.53936412       0.56522574       0.46414242 </v>
   <v>       0.46730617       0.38993051       0.48647563 </v>
   <v>       0.48645325       0.60683751       0.56241762 </v>
   <v>       0.57249388       0.52985022       0.57295817 </v>
  </varray>
 </structure>
 <calculation>
  <scstep>
   <time name="dav">    6.70    6.71</time>
   <time name="total">   10.54   10.61</time>
   <energy>
    <i name="alphaZ">      6.55573045 </i>
    <i name="ewald">   8968.30240711 </i>
    <i name="hartreedc"> -16043.01236647 </i>
    <i name="XCdc">    119.43331471 </i>
    <i name="pawpsdc">   6992.17180065 </i>
    <i name="pawaedc">  -6807.49900724 </i>
    <i name="eentropy">      0.00346439 </i>
    <i name="bandstr">    111.85193665 </i>
    <i name="atom">   7408.64415014 </i>
    <i name="e_fr_energy">    756.45143040 </i>
    <i name="e_wo_entrp">    756.44796601 </i>
    <i name="e_0_energy">    756.45027560 </i>
   </energy>
  </scstep>
  <scstep>
   <time name="dav">   11.04   11.06</time>
   <time name="total">   11.04   11.06</time>
   <energy>
    <i name="e_fr_energy">    445.77877633 </i>
    <i name="e_wo_entrp">    445.89309573 </i>
    <i name="e_0_energy">    445.81688279 </i>
   </energy>
  </scstep>
  <scstep>
   <time name="dav">   10.85   10.86</time>
   <time name="total">   10.85   10.87</time>
   <energy>
    <i name="e_fr_energy">    125.29943526 </i>
    <i name="e_wo_entrp">    125.30033256 </i>
    <i name="e_0_energy">    125.29973436 </i>
   </energy>
  </scstep>
  <scstep>
   <time name="dav">    8.46    8.47</time>
   <time name="total">    8.47    8.48</time>
   <energy>
    <i name="e_fr_energy">      9.59441034 </i>
    <i name="e_wo_entrp">      9.57697227 </i>
    <i name="e_0_energy">      9.58859765 </i>
   </energy>
  </scstep>
  <scstep>
   <time name="dav">    8.21    8.23</time>
   <time name="total">    9.12    9.13</time>
   <energy>
    <i name="e_fr_energy">    -13.76930959 </i>
    <i name="e_wo_entrp">    -13.77902464 </i>
    <i name="e_0_energy">    -13.77254794 </i>
   </energy>
  </scstep>
  <scstep>
   <time name="dav">    7.38    7.39</time>
   <time name="total">   12.32   12.34</time>
   <energy>
    <i name="e_fr_energy">     -7.75698151 </i>
    <i name="e_wo_entrp">     -7.71276092 </i>
    <i name="e_0_energy">     -7.74224132 </i>
   </energy>
  </scstep>
  <scstep>
   <time name="dav">    7.42    7.43</time>
   <time name="total">   12.33   12.35</time>
   <energy>
    <i name="e_fr_energy">     -1.86486553 </i>
    <i name="e_wo_entrp">     -1.82159845 </i>
    <i name="e_0_energy">     -1.85044317 </i>
   </energy>
  </scstep>
  <scstep>
   <time name="dav">    7.55    7.56</time>
   <time name="total">   12.31   12.33</time>
   <energy>
    <i name="e_fr_energy">     -5.68600278 </i>
    <i name="e_wo_entrp">     -5.66305934 </i>
    <i name="e_0_energy">     -5.67835497 </i>
   </energy>
  </scstep>
  <scstep>
   <time name="dav">    7.37    7.38</time>
   <time name="total">   12.24   12.26</time>
   <energy>
    <i name="e_fr_energy">     -8.05054378 </i>
    <i name="e_wo_entrp">     -8.06443971 </i>
    <i name="e_0_energy">     -8.05517575 </i>
   </energy>
  </scstep>
  <scstep>
   <time name="dav">    7.43    7.44</time>
   <time name="total">   12.29   12.30</time>
   <energy>
    <i name="e_fr_energy">     -9.69475647 </i>
    <i name="e_wo_entrp">     -9.72009855 </i>
    <i name="e_0_energy">     -9.70320383 </i>
   </energy>
  </scstep>
  <scstep>
   <time name="dav">    7.30    7.32</time>
   <time name="total">   12.16   12.18</time>
   <energy>
    <i name="e_fr_energy">    -12.56428243 </i>
    <i name="e_wo_entrp">    -12.57311452 </i>
    <i name="e_0_energy">    -12.56722646 </i>
   </energy>
  </scstep>
  <scstep>
   <time name="dav">    6.92    6.93</time>
   <time name="total">   11.70   11.72</time>
   <energy>
    <i name="e_fr_energy">    -13.69338354 </i>
    <i name="e_wo_entrp">    -13.70483258 </i>
    <i name="e_0_energy">    -13.69719989 </i>
   </energy>
  </scstep>
  <scstep>
   <time name="dav">    7.00    7.01</time>
   <time name="total">   11.90   11.92</time>
   <energy>
    <i name="e_fr_energy">    -14.52656799 </i>
    <i name="e_wo_entrp">    -14.53947421 </i>
    <i name="e_0_energy">    -14.53087007 </i>
   </energy>
  </scstep>
  <scstep>
   <time name="dav">    6.85    6.86</time>
   <time name="total">   12.29   12.34</time>
   <energy>
    <i name="e_fr_energy">    -15.02205399 </i>
    <i name="e_wo_entrp">    -15.03439181 </i>
    <i name="e_0_energy">    -15.02616659 </i>
   </energy>
  </scstep>
  <scstep>
   <time name="dav">    6.34    6.35</time>
   <time name="total">   11.30   11.32</time>
   <energy>
    <i name="e_fr_energy">    -15.37465403 </i>
    <i name="e_wo_entrp">    -15.38654240 </i>
    <i name="e_0_energy">    -15.37861682 </i>
   </energy>
  </scstep>
  <scstep>
   <time name="dav">    6.85    6.86</time>
   <time name="total">   11.83   11.85</time>
   <energy>
    <i name="e_fr_energy">    -15.61602653 </i>
    <i name="e_wo_entrp">    -15.62768242 </i>
    <i name="e_0_energy">    -15.61991183 </i>
   </energy>
  </scstep>
  <scstep>
   <time name="dav">    6.11    6.12</time>
   <time name="total">   10.92   10.94</time>
   <energy>
    <i name="e_fr_energy">    -15.82186544 </i>
    <i name="e_wo_entrp">    -15.83346762 </i>
    <i name="e_0_energy">    -15.82573284 </i>
   </energy>
  </scstep>
  <scstep>
   <time name="dav">    5.06    5.07</time>
   <time name="total">    9.64    9.66</time>
   <energy>
    <i name="e_fr_energy">    -15.87681307 </i>
    <i name="e_wo_entrp">    -15.88841257 </i>
    <i name="e_0_energy">    -15.88067957 </i>
   </energy>
  </scstep>
  <scstep>
   <time name="dav">    5.08    5.09</time>
   <time name="total">   10.08   10.11</time>
   <energy>
    <i name="e_fr_energy">    -15.89599928 </i>
    <i name="e_wo_entrp">    -15.90759639 </i>
    <i name="e_0_energy">    -15.89986499 </i>
   </energy>
  </scstep>
  <scstep>
   <time name="dav">    5.54    5.55</time>
   <time name="total">   10.28   10.30</time>
   <energy>
    <i name="e_fr_energy">    -15.90785936 </i>
    <i name="e_wo_entrp">    -15.91945663 </i>
    <i name="e_0_energy">    -15.91172512 </i>
   </energy>
  </scstep>
  <scstep>
   <time name="dav">    5.20    5.20</time>
   <time name="total">    9.94    9.96</time>
   <energy>
    <i name="e_fr_energy">    -15.91285395 </i>
    <i name="e_wo_entrp">    -15.92445116 </i>
    <i name="e_0_energy">    -15.91671969 </i>
   </energy>
  </scstep>
  <scstep>
   <time name="dav">    5.15    5.16</time>
   <time name="total">    9.94    9.96</time>
   <energy>
    <i name="e_fr_energy">    -15.91370102 </i>
    <i name="e_wo_entrp">    -15.92529817 </i>
    <i name="e_0_energy">    -15.91756674 </i>
   </energy>
  </scstep>
  <scstep>
   <time name="dav">    5.17    5.18</time>
   <time name="total">    9.97    9.99</time>
   <energy>
    <i name="e_fr_energy">    -15.91462936 </i>
    <i name="e_wo_entrp">    -15.92622644 </i>
    <i name="e_0_energy">    -15.91849505 </i>
   </energy>
  </scstep>
  <scstep>
   <time name="dav">    5.23    5.23</time>
   <time name="total">    9.99   10.01</time>
   <energy>
    <i name="e_fr_energy">    -15.91525659 </i>
    <i name="e_wo_entrp">    -15.92685368 </i>
    <i name="e_0_energy">    -15.91912229 </i>
   </energy>
  </scstep>
  <scstep>
   <time name="dav">    5.34    5.35</time>
   <time name="total">   10.15   10.17</time>
   <energy>
    <i name="e_fr_energy">    -15.91592804 </i>
    <i name="e_wo_entrp">    -15.92752513 </i>
    <i name="e_0_energy">    -15.91979373 </i>
   </energy>
  </scstep>
  <scstep>
   <time name="dav">    4.94    4.94</time>
   <time name="total">    9.75    9.77</time>
   <energy>
    <i name="e_fr_energy">    -15.91627482 </i>
    <i name="e_wo_entrp">    -15.92787191 </i>
    <i name="e_0_energy">    -15.92014052 </i>
   </energy>
  </scstep>
  <scstep>
   <time name="dav">    4.86    4.86</time>
   <time name="total">    9.63    9.65</time>
   <energy>
    <i name="e_fr_energy">    -15.91638013 </i>
    <i name="e_wo_entrp">    -15.92797722 </i>
    <i name="e_0_energy">    -15.92024583 </i>
   </energy>
  </scstep>
  <scstep>
   <time name="dav">    4.88    4.89</time>
   <time name="total">    8.59    8.60</time>
   <energy>
    <i name="alphaZ">      6.55573045 </i>
    <i name="ewald">   8968.30240711 </i>
    <i name="hartreedc"> -15995.31102042 </i>
    <i name="XCdc">    116.28191011 </i>
    <i name="pawpsdc">   8183.91973685 </i>
    <i name="pawaedc">  -8014.95657011 </i>
    <i name="eentropy">      0.01159708 </i>
    <i name="bandstr">   -689.36434151 </i>
    <i name="atom">   7408.64415014 </i>
    <i name="e_fr_energy">    -15.91640029 </i>
    <i name="e_wo_entrp">    -15.92799738 </i>
    <i name="e_0_energy">    -15.92026599 </i>
   </energy>
  </scstep>
  <structure>
   <crystal>
    <varray name="basis" >
     <v>      22.38768045       0.00000000       0.00000000 </v>
     <v>       0.00000000      22.80516180       0.00000000 </v>
     <v>       0.00000000       0.00000000      22.27237433 </v>
    </varray>
    <i name="volume">  11371.26483766 </i>
    <varray name="rec_basis" >
     <v>       0.04466742       0.00000000       0.00000000 </v>
     <v>       0.00000000       0.04384972       0.00000000 </v>
     <v>       0.00000000       0.00000000       0.04489867 </v>
    </varray>
   </crystal>
   <varray name="positions" >
    <v>       0.56450748       0.45120673       0.48521689 </v>
    <v>       0.46354323       0.49224553       0.54180507 </v>
    <v>       0.46711299       0.48155668       0.41859692 </v>
    <v>       0.42144406       0.57698618       0.46991164 </v>
    <v>       0.53936412       0.56522574       0.46414242 </v>
    <v>       0.46730617       0.38993051       0.48647563 </v>
    <v>       0.48645325       0.60683751       0.56241762 </v>
    <v>       0.57249388       0.52985022       0.57295817 </v>
   </varray>
  </structure>
  <varray name="forces" >
   <v>       1.80128086      -0.35523722      -0.32357723 </v>
   <v>      -1.07430294      -0.51883078       1.30732832 </v>
   <v>      -0.37428217       0.38840163      -1.81138593 </v>
   <v>      -1.59712465       0.77055756      -0.91862424 </v>
   <v>       1.28554464       0.52868894      -1.61811089 </v>
   <v>      -0.96511442      -1.83237102       0.60676467 </v>
   <v>      -0.62852253       1.21215972       1.53183662 </v>
   <v>       1.55252121      -0.19336883       1.22576868 </v>
  </varray>
  <energy>
   <i name="e_fr_energy">    -15.91640029 </i>
   <i name="e_wo_entrp">    -15.92799738 </i>
   <i name="e_0_energy">    -15.92026599 </i>
  </energy>
  <time name="totalsc">  314.92  315.57</time>
 </calculation>
 <calculation>
  <scstep>
   <time name="dav">    6.62    6.63</time>
   <time name="total">   11.23   11.25</time>
   <energy>
    <i name="alphaZ">      6.55573045 </i>
    <i name="ewald">   8337.87003971 </i>
    <i name="hartreedc"> -15375.69909194 </i>
    <i name="XCdc">    114.27587648 </i>
    <i name="pawpsdc">   8183.91215021 </i>
    <i name="pawaedc">  -8014.94902837 </i>
    <i name="eentropy">      0.01159909 </i>
    <i name="bandstr">   -676.83995719 </i>
    <i name="atom">   7408.64415014 </i>
    <i name="e_fr_energy">    -16.21853141 </i>
    <i name="e_wo_entrp">    -16.23013051 </i>
    <i name="e_0_energy">    -16.22239778 </i>
   </energy>
  </scstep>
  <scstep>
   <time name="dav">    7.39    7.40</time>
   <time name="total">   12.09   12.11</time>
   <energy>
    <i name="e_fr_energy">    -16.67584169 </i>
    <i name="e_wo_entrp">    -16.68744049 </i>
    <i name="e_0_energy">    -16.67970796 </i>
   </energy>
  </scstep>
  <scstep>
   <time name="dav">    6.83    6.85</time>
   <time name="total">   11.51   11.53</time>
   <energy>
    <i name="e_fr_energy">    -16.64607430 </i>
    <i name="e_wo_entrp">    -16.65767613 </i>
    <i name="e_0_energy">    -16.64994158 </i>
   </energy>
  </scstep>
  <scstep>
   <time name="dav">    7.82    7.83</time>
   <time name="total">   12.43   12.45</time>
   <energy>
    <i name="e_fr_energy">    -16.64747950 </i>
    <i name="e_wo_entrp">    -16.65908167 </i>
    <i name="e_0_energy">    -16.65134689 </i>
   </energy>
  </scstep>
  <scstep>
   <time name="dav">    6.91    6.92</time>
   <time name="total">   11.63   11.65</time>
   <energy>
    <i name="e_fr_energy">    -16.64060412 </i>
    <i name="e_wo_entrp">    -16.65220516 </i>
    <i name="e_0_energy">    -16.64447113 </i>
   </energy>
  </scstep>
  <scstep>
   <time name="dav">    7.90    7.91</time>
   <time name="total">   12.67   12.69</time>
   <energy>
    <i name="e_fr_energy">    -16.64057482 </i>
    <i name="e_wo_entrp">    -16.65217563 </i>
    <i name="e_0_energy">    -16.64444176 </i>
   </energy>
  </scstep>
  <scstep>
   <time name="dav">    4.79    4.80</time>
   <time name="total">    8.52    8.54</time>
   <energy>
    <i name="alphaZ">      6.55573045 </i>
    <i name="ewald">   8337.87003971 </i>
    <i name="hartreedc"> -15388.36615048 </i>
    <i name="XCdc">    114.56035658 </i>
    <i name="pawpsdc">   7802.99470414 </i>
    <i name="pawaedc">  -7630.60759295 </i>
    <i name="eentropy">      0.01160081 </i>
    <i name="bandstr">   -668.30348556 </i>
    <i name="atom">   7408.64415014 </i>
    <i name="e_fr_energy">    -16.64064716 </i>
    <i name="e_wo_entrp">    -16.65224797 </i>
    <i name="e_0_energy">    -16.64451410 </i>
   </energy>
  </scstep>
  <structure>
   <crystal>
    <varray name="basis" >
     <v>      22.38768045       0.00000000       0.00000000 </v>
     <v>       0.00000000      22.80516180       0.00000000 </v>
     <v>       0.00000000       0.00000000      22.27237433 </v>
    </varray>
    <i name="volume">  11371.26483766 </i>
    <varray name="rec_basis" >
     <v>       0.04466742       0.00000000       0.00000000 </v>
     <v>       0.00000000       0.04384972       0.00000000 </v>
     <v>       0.00000000       0.00000000       0.04489867 </v>
    </varray>
   </crystal>
   <varray name="positions" >
    <v>       0.56838901       0.45045525       0.48451601 </v>
    <v>       0.46122824       0.49114798       0.54463679 </v>
    <v>       0.46630646       0.48237832       0.41467340 </v>
    <v>       0.41800246       0.57861624       0.46792187 </v>
    <v>       0.54213430       0.56634414       0.46063755 </v>
    <v>       0.46522647       0.38605426       0.48778990 </v>
    <v>       0.48509886       0.60940174       0.56573563 </v>
    <v>       0.57583937       0.52944116       0.57561323 </v>
   </varray>
  </structure>
  <varray name="forces" >
   <v>       0.07958651       0.08319949      -0.10923971 </v>
   <v>      -0.07180600       0.00066321       0.09442233 </v>
   <v>       0.10230829       0.08053436      -0.09514574 </v>
   <v>      -0.02398964       0.10526193      -0.10487413 </v>
   <v>       0.11215904      -0.11162165      -0.20743161 </v>
   <v>      -0.12794271       0.07392845       0.23219141 </v>
   <v>      -0.21388421      -0.28865421       0.18302669 </v>
   <v>       0.14356873       0.05668843       0.00705074 </v>
  </varray>
  <energy>
   <i name="e_fr_energy">    -16.64064716 </i>
   <i name="e_wo_entrp">    -16.65224797 </i>
   <i name="e_0_energy">    -16.64451410 </i>
  </energy>
  <time name="totalsc">   93.60   93.80</time>
 </calculation>
 <calculation>
  <scstep>
   <time name="dav">    6.98    6.99</time>
   <time name="total">   11.70   11.72</time>
   <energy>
    <i name="alphaZ">      6.55573045 </i>
    <i name="ewald">   8290.79223319 </i>
    <i name="hartreedc"> -15342.23682109 </i>
    <i name="XCdc">    114.42391311 </i>
    <i name="pawpsdc">   7801.63413373 </i>
    <i name="pawaedc">  -7629.24246359 </i>
    <i name="eentropy">      0.01160132 </i>
    <i name="bandstr">   -667.22351429 </i>
    <i name="atom">   7408.64415014 </i>
    <i name="e_fr_energy">    -16.64103702 </i>
    <i name="e_wo_entrp">    -16.65263835 </i>
    <i name="e_0_energy">    -16.64490413 </i>
   </energy>
  </scstep>
  <scstep>
   <time name="dav">    7.24    7.25</time>
   <time name="total">   11.89   11.91</time>
   <energy>
    <i name="e_fr_energy">    -16.64414418 </i>
    <i name="e_wo_entrp">    -16.65574553 </i>
    <i name="e_0_energy">    -16.64801130 </i>
   </energy>
  </scstep>
  <scstep>
   <time name="dav">    6.99    7.00</time>
   <time name="total">   11.93   11.95</time>
   <energy>
    <i name="e_fr_energy">    -16.64397195 </i>
    <i name="e_wo_entrp">    -16.65557355 </i>
    <i name="e_0_energy">    -16.64783915 </i>
   </energy>
  </scstep>
  <scstep>
   <time name="dav">    5.12    5.13</time>
   <time name="total">    8.95    8.97</time>
   <energy>
    <i name="alphaZ">      6.55573045 </i>
    <i name="ewald">   8290.79223319 </i>
    <i name="hartreedc"> -15343.69800369 </i>
    <i name="XCdc">    114.44891622 </i>
    <i name="pawpsdc">   7777.25858527 </i>
    <i name="pawaedc">  -7604.62442249 </i>
    <i name="eentropy">      0.01160166 </i>
    <i name="bandstr">   -666.03285416 </i>
    <i name="atom">   7408.64415014 </i>
    <i name="e_fr_energy">    -16.64406341 </i>
    <i name="e_wo_entrp">    -16.65566507 </i>
    <i name="e_0_energy">    -16.64793063 </i>
   </energy>
  </scstep>
  <structure>
   <crystal>
    <varray name="basis" >
     <v>      22.38768045       0.00000000       0.00000000 </v>
     <v>       0.00000000      22.80516180       0.00000000 </v>
     <v>       0.00000000       0.00000000      22.27237433 </v>
    </varray>
    <i name="volume">  11371.26483766 </i>
    <varray name="rec_basis" >
     <v>       0.04466742       0.00000000       0.00000000 </v>
     <v>       0.00000000       0.04384972       0.00000000 </v>
     <v>       0.00000000       0.00000000       0.04489867 </v>
    </varray>
   </crystal>
   <varray name="positions" >
    <v>       0.56869263       0.45039647       0.48446119 </v>
    <v>       0.46104716       0.49106213       0.54485828 </v>
    <v>       0.46624337       0.48244259       0.41436650 </v>
    <v>       0.41773325       0.57874374       0.46776623 </v>
    <v>       0.54235099       0.56643162       0.46036339 </v>
    <v>       0.46506380       0.38575106       0.48789271 </v>
    <v>       0.48499292       0.60960232       0.56599517 </v>
    <v>       0.57610106       0.52940916       0.57582091 </v>
   </varray>
  </structure>
  <varray name="forces" >
   <v>      -0.00381770       0.11616196      -0.09518497 </v>
   <v>      -0.02260113       0.02595747       0.03451877 </v>
   <v>       0.12701444       0.07739881      -0.00752378 </v>
   <v>       0.05779701       0.06639370      -0.06459295 </v>
   <v>       0.05669773      -0.15442148      -0.14589150 </v>
   <v>      -0.08846512       0.17178768       0.21891983 </v>
   <v>      -0.19640406      -0.36927614       0.11872430 </v>
   <v>       0.06977884       0.06599799      -0.05896969 </v>
  </varray>
  <energy>
   <i name="e_fr_energy">    -16.64406341 </i>
   <i name="e_wo_entrp">    -16.65566507 </i>
   <i name="e_0_energy">    -16.64793063 </i>
  </energy>
  <time name="totalsc">   57.92   58.08</time>
 </calculation>
 <calculation>
  <scstep>
   <time name="dav">    6.37    6.38</time>
   <time name="total">   11.14   11.15</time>
   <energy>
    <i name="alphaZ">      6.55573045 </i>
    <i name="ewald">   8299.49248286 </i>
    <i name="hartreedc"> -15352.29422529 </i>
    <i name="XCdc">    114.47652453 </i>
    <i name="pawpsdc">   7777.79886749 </i>
    <i name="pawaedc">  -7605.17346682 </i>
    <i name="eentropy">      0.01160467 </i>
    <i name="bandstr">   -666.16713178 </i>
    <i name="atom">   7408.64415014 </i>
    <i name="e_fr_energy">    -16.65546375 </i>
    <i name="e_wo_entrp">    -16.66706842 </i>
    <i name="e_0_energy">    -16.65933197 </i>
   </energy>
  </scstep>
  <scstep>
   <time name="dav">    6.99    7.00</time>
   <time name="total">   11.64   11.67</time>
   <energy>
    <i name="e_fr_energy">    -16.66222681 </i>
    <i name="e_wo_entrp">    -16.67383130 </i>
    <i name="e_0_energy">    -16.66609497 </i>
   </energy>
  </scstep>
  <scstep>
   <time name="dav">    6.07    6.08</time>
   <time name="total">   10.40   10.41</time>
   <energy>
    <i name="e_fr_energy">    -16.66209674 </i>
    <i name="e_wo_entrp">    -16.67370148 </i>
    <i name="e_0_energy">    -16.66596499 </i>
   </energy>
  </scstep>
  <scstep>
   <time name="dav">    6.88    6.93</time>
   <time name="total">   10.38   10.44</time>
   <energy>
    <i name="alphaZ">      6.55573045 </i>
    <i name="ewald">   8299.49248286 </i>
    <i name="hartreedc"> -15352.34108494 </i>
    <i name="XCdc">    114.47504974 </i>
    <i name="pawpsdc">   7781.67594181 </i>
    <i name="pawaedc">  -7609.08917402 </i>
    <i name="eentropy">      0.01160492 </i>
    <i name="bandstr">   -666.08670131 </i>
    <i name="atom">   7408.64415014 </i>
    <i name="e_fr_energy">    -16.66200035 </i>
    <i name="e_wo_entrp">    -16.67360526 </i>
    <i name="e_0_energy">    -16.66586865 </i>
   </energy>
  </scstep>
  <structure>
   <crystal>
    <varray name="basis" >
     <v>      22.38768045       0.00000000       0.00000000 </v>
     <v>       0.00000000      22.80516180       0.00000000 </v>
     <v>       0.00000000       0.00000000      22.27237433 </v>
    </varray>
    <i name="volume">  11371.26483766 </i>
    <varray name="rec_basis" >
     <v>       0.04466742       0.00000000       0.00000000 </v>
     <v>       0.00000000       0.04384972       0.00000000 </v>
     <v>       0.00000000       0.00000000       0.04489867 </v>
    </varray>
   </crystal>
   <varray name="positions" >
    <v>       0.56872549       0.45063807       0.48424435 </v>
    <v>       0.46097312       0.49110625       0.54496429 </v>
    <v>       0.46651279       0.48261760       0.41430828 </v>
    <v>       0.41782320       0.57890370       0.46760300 </v>
    <v>       0.54250449       0.56611172       0.46000522 </v>
    <v>       0.46484810       0.38607899       0.48838827 </v>
    <v>       0.48454869       0.60883615       0.56629158 </v>
    <v>       0.57628930       0.52954662       0.57571937 </v>
   </varray>
  </structure>
  <varray name="forces" >
   <v>       0.00059645       0.06937283      -0.07877994 </v>
   <v>      -0.02480087       0.01997339       0.03689030 </v>
   <v>       0.09278536       0.04118911      -0.01753474 </v>
   <v>       0.06186211       0.06383473      -0.07344811 </v>
   <v>       0.05953302      -0.08176473      -0.11679797 </v>
   <v>      -0.07839854       0.16288128       0.19950799 </v>
   <v>      -0.18590713      -0.33716015       0.11720505 </v>
   <v>       0.07432959       0.06167354      -0.06704258 </v>
  </varray>
  <energy>
   <i name="e_fr_energy">    -16.66200035 </i>
   <i name="e_wo_entrp">    -16.67360526 </i>
   <i name="e_0_energy">    -16.66586865 </i>
  </energy>
  <time name="totalsc">   56.69   56.83</time>
 </calculation>
 <calculation>
  <scstep>
   <time name="dav">    6.44    6.45</time>
   <time name="total">   11.02   11.03</time>
   <energy>
    <i name="alphaZ">      6.55573045 </i>
    <i name="ewald">   8325.14007113 </i>
    <i name="hartreedc"> -15378.02780406 </i>
    <i name="XCdc">    114.56431390 </i>
    <i name="pawpsdc">   7782.38498748 </i>
    <i name="pawaedc">  -7609.80784188 </i>
    <i name="eentropy">      0.01162755 </i>
    <i name="bandstr">   -666.10462383 </i>
    <i name="atom">   7408.64415014 </i>
    <i name="e_fr_energy">    -16.63938911 </i>
    <i name="e_wo_entrp">    -16.65101666 </i>
    <i name="e_0_energy">    -16.64326496 </i>
   </energy>
  </scstep>
  <scstep>
   <time name="dav">    7.01    7.02</time>
   <time name="total">   11.60   11.62</time>
   <energy>
    <i name="e_fr_energy">    -16.70027822 </i>
    <i name="e_wo_entrp">    -16.71190342 </i>
    <i name="e_0_energy">    -16.70415329 </i>
   </energy>
  </scstep>
  <scstep>
   <time name="dav">    7.30    7.31</time>
   <time name="total">   11.86   11.88</time>
   <energy>
    <i name="e_fr_energy">    -16.69896553 </i>
    <i name="e_wo_entrp">    -16.71059335 </i>
    <i name="e_0_energy">    -16.70284147 </i>
   </energy>
  </scstep>
  <scstep>
   <time name="dav">    7.26    7.27</time>
   <time name="total">   11.78   11.80</time>
   <energy>
    <i name="e_fr_energy">    -16.69787825 </i>
    <i name="e_wo_entrp">    -16.70950787 </i>
    <i name="e_0_energy">    -16.70175479 </i>
   </energy>
  </scstep>
  <scstep>
   <time name="dav">    7.21    7.22</time>
   <time name="total">   10.93   10.94</time>
   <energy>
    <i name="alphaZ">      6.55573045 </i>
    <i name="ewald">   8325.14007113 </i>
    <i name="hartreedc"> -15377.86483258 </i>
    <i name="XCdc">    114.55352067 </i>
    <i name="pawpsdc">   7797.92002430 </i>
    <i name="pawaedc">  -7625.50074718 </i>
    <i name="eentropy">      0.01162991 </i>
    <i name="bandstr">   -666.15750983 </i>
    <i name="atom">   7408.64415014 </i>
    <i name="e_fr_energy">    -16.69796300 </i>
    <i name="e_wo_entrp">    -16.70959291 </i>
    <i name="e_0_energy">    -16.70183964 </i>
   </energy>
  </scstep>
  <structure>
   <crystal>
    <varray name="basis" >
     <v>      22.38768045       0.00000000       0.00000000 </v>
     <v>       0.00000000      22.80516180       0.00000000 </v>
     <v>       0.00000000       0.00000000      22.27237433 </v>
    </varray>
    <i name="volume">  11371.26483766 </i>
    <varray name="rec_basis" >
     <v>       0.04466742       0.00000000       0.00000000 </v>
     <v>       0.00000000       0.04384972       0.00000000 </v>
     <v>       0.00000000       0.00000000       0.04489867 </v>
    </varray>
   </crystal>
   <varray name="positions" >
    <v>       0.56882407       0.45136286       0.48359382 </v>
    <v>       0.46075097       0.49123859       0.54528231 </v>
    <v>       0.46732104       0.48314266       0.41413364 </v>
    <v>       0.41809304       0.57938357       0.46711332 </v>
    <v>       0.54296501       0.56515202       0.45893072 </v>
    <v>       0.46420101       0.38706277       0.48987495 </v>
    <v>       0.48321601       0.60653764       0.56718083 </v>
    <v>       0.57685402       0.52995898       0.57541477 </v>
   </varray>
  </structure>
  <varray name="forces" >
   <v>       0.02810040      -0.09299075      -0.01788683 </v>
   <v>      -0.04141918      -0.02432827       0.04635886 </v>
   <v>      -0.03265065      -0.07637744      -0.06129280 </v>
   <v>       0.06667713       0.05573538      -0.09401635 </v>
   <v>       0.07977852       0.16742317      -0.03357025 </v>
   <v>      -0.04444924       0.10818536       0.12189481 </v>
   <v>      -0.14135375      -0.18506736       0.12142912 </v>
   <v>       0.08531677       0.04741992      -0.08291656 </v>
  </varray>
  <energy>
   <i name="e_fr_energy">    -16.69796300 </i>
   <i name="e_wo_entrp">    -16.70959291 </i>
   <i name="e_0_energy">    -16.70183964 </i>
  </energy>
  <time name="totalsc">   70.24   70.50</time>
 </calculation>
 <calculation>
  <scstep>
   <time name="dav">    6.55    6.56</time>
   <time name="total">   11.10   11.12</time>
   <energy>
    <i name="alphaZ">      6.55573045 </i>
    <i name="ewald">   8374.50724173 </i>
    <i name="hartreedc"> -15427.02024293 </i>
    <i name="XCdc">    114.76791818 </i>
    <i name="pawpsdc">   7797.86320946 </i>
    <i name="pawaedc">  -7625.44430791 </i>
    <i name="eentropy">      0.01189525 </i>
    <i name="bandstr">   -666.32069316 </i>
    <i name="atom">   7408.64415014 </i>
    <i name="e_fr_energy">    -16.43509878 </i>
    <i name="e_wo_entrp">    -16.44699403 </i>
    <i name="e_0_energy">    -16.43906387 </i>
   </energy>
  </scstep>
  <scstep>
   <time name="dav">    6.88    6.89</time>
   <time name="total">   11.41   11.43</time>
   <energy>
    <i name="e_fr_energy">    -16.67945432 </i>
    <i name="e_wo_entrp">    -16.69129509 </i>
    <i name="e_0_energy">    -16.68340125 </i>
   </energy>
  </scstep>
  <scstep>
   <time name="dav">    7.80    7.82</time>
   <time name="total">   12.37   12.40</time>
   <energy>
    <i name="e_fr_energy">    -16.67350061 </i>
    <i name="e_wo_entrp">    -16.68538491 </i>
    <i name="e_0_energy">    -16.67746204 </i>
   </energy>
  </scstep>
  <scstep>
   <time name="dav">    7.64    7.65</time>
   <time name="total">   12.42   12.45</time>
   <energy>
    <i name="e_fr_energy">    -16.66971512 </i>
    <i name="e_wo_entrp">    -16.68162661 </i>
    <i name="e_0_energy">    -16.67368562 </i>
   </energy>
  </scstep>
  <scstep>
   <time name="dav">    7.87    7.88</time>
   <time name="total">   12.64   12.67</time>
   <energy>
    <i name="e_fr_energy">    -16.66993213 </i>
    <i name="e_wo_entrp">    -16.68183787 </i>
    <i name="e_0_energy">    -16.67390071 </i>
   </energy>
  </scstep>
  <scstep>
   <time name="dav">    7.57    7.58</time>
   <time name="total">   12.43   12.45</time>
   <energy>
    <i name="e_fr_energy">    -16.66982212 </i>
    <i name="e_wo_entrp">    -16.68172018 </i>
    <i name="e_0_energy">    -16.67378814 </i>
   </energy>
  </scstep>
  <scstep>
   <time name="dav">    5.36    5.37</time>
   <time name="total">    9.15    9.16</time>
   <energy>
    <i name="alphaZ">      6.55573045 </i>
    <i name="ewald">   8374.50724173 </i>
    <i name="hartreedc"> -15426.18475278 </i>
    <i name="XCdc">    114.73542379 </i>
    <i name="pawpsdc">   7839.47972854 </i>
    <i name="pawaedc">  -7667.49923384 </i>
    <i name="eentropy">      0.01189604 </i>
    <i name="bandstr">   -666.92003321 </i>
    <i name="atom">   7408.64415014 </i>
    <i name="e_fr_energy">    -16.66984914 </i>
    <i name="e_wo_entrp">    -16.68174518 </i>
    <i name="e_0_energy">    -16.67381448 </i>
   </energy>
  </scstep>
  <structure>
   <crystal>
    <varray name="basis" >
     <v>      22.38768045       0.00000000       0.00000000 </v>
     <v>       0.00000000      22.80516180       0.00000000 </v>
     <v>       0.00000000       0.00000000      22.27237433 </v>
    </varray>
    <i name="volume">  11371.26483766 </i>
    <varray name="rec_basis" >
     <v>       0.04466742       0.00000000       0.00000000 </v>
     <v>       0.00000000       0.04384972       0.00000000 </v>
     <v>       0.00000000       0.00000000       0.04489867 </v>
    </varray>
   </crystal>
   <varray name="positions" >
    <v>       0.56902125       0.45281244       0.48229277 </v>
    <v>       0.46030669       0.49150329       0.54591836 </v>
    <v>       0.46893755       0.48419276       0.41378435 </v>
    <v>       0.41863273       0.58034332       0.46613395 </v>
    <v>       0.54388603       0.56323261       0.45678172 </v>
    <v>       0.46290682       0.38903035       0.49284832 </v>
    <v>       0.48055063       0.60194063       0.56895933 </v>
    <v>       0.57798348       0.53078370       0.57480556 </v>
   </varray>
  </structure>
  <varray name="forces" >
   <v>       0.12324856      -0.52665182       0.15375982 </v>
   <v>      -0.10808903      -0.26872757       0.03987792 </v>
   <v>      -0.37723298      -0.36984683      -0.19175499 </v>
   <v>       0.08965003       0.04168999      -0.11504285 </v>
   <v>       0.17597258       0.81831771       0.11776762 </v>
   <v>       0.02886980      -0.08704343      -0.08505962 </v>
   <v>      -0.02021576       0.35971611       0.19808169 </v>
   <v>       0.08779680       0.03254584      -0.11762960 </v>
  </varray>
  <energy>
   <i name="e_fr_energy">    -16.66984914 </i>
   <i name="e_wo_entrp">    -16.68174518 </i>
   <i name="e_0_energy">    -16.67381448 </i>
  </energy>
  <time name="totalsc">   94.98   95.34</time>
 </calculation>
 <calculation>
  <scstep>
   <time name="dav">    6.72    6.73</time>
   <time name="total">   11.45   11.47</time>
   <energy>
    <i name="alphaZ">      6.55573045 </i>
    <i name="ewald">   8340.15442972 </i>
    <i name="hartreedc"> -15392.27377175 </i>
    <i name="XCdc">    114.58826870 </i>
    <i name="pawpsdc">   7839.22778908 </i>
    <i name="pawaedc">  -7667.24835192 </i>
    <i name="eentropy">      0.01166919 </i>
    <i name="bandstr">   -666.25320332 </i>
    <i name="atom">   7408.64415014 </i>
    <i name="e_fr_energy">    -16.59328972 </i>
    <i name="e_wo_entrp">    -16.60495891 </i>
    <i name="e_0_energy">    -16.59717945 </i>
   </energy>
  </scstep>
  <scstep>
   <time name="dav">    6.79    6.80</time>
   <time name="total">   11.44   11.46</time>
   <energy>
    <i name="e_fr_energy">    -16.70987465 </i>
    <i name="e_wo_entrp">    -16.72155046 </i>
    <i name="e_0_energy">    -16.71376659 </i>
   </energy>
  </scstep>
  <scstep>
   <time name="dav">    7.02    7.03</time>
   <time name="total">   11.81   11.82</time>
   <energy>
    <i name="e_fr_energy">    -16.70712422 </i>
    <i name="e_wo_entrp">    -16.71879111 </i>
    <i name="e_0_energy">    -16.71101319 </i>
   </energy>
  </scstep>
  <scstep>
   <time name="dav">    6.89    6.90</time>
   <time name="total">   11.65   11.67</time>
   <energy>
    <i name="e_fr_energy">    -16.70498566 </i>
    <i name="e_wo_entrp">    -16.71664725 </i>
    <i name="e_0_energy">    -16.70887286 </i>
   </energy>
  </scstep>
  <scstep>
   <time name="dav">    6.89    6.90</time>
   <time name="total">   11.63   11.65</time>
   <energy>
    <i name="e_fr_energy">    -16.70519380 </i>
    <i name="e_wo_entrp">    -16.71685537 </i>
    <i name="e_0_energy">    -16.70908099 </i>
   </energy>
  </scstep>
  <scstep>
   <time name="dav">    6.98    6.99</time>
   <time name="total">   11.73   11.75</time>
   <energy>
    <i name="e_fr_energy">    -16.70506747 </i>
    <i name="e_wo_entrp">    -16.71673062 </i>
    <i name="e_0_energy">    -16.70895518 </i>
   </energy>
  </scstep>
  <scstep>
   <time name="dav">    4.75    4.76</time>
   <time name="total">    8.58    8.60</time>
   <energy>
    <i name="alphaZ">      6.55573045 </i>
    <i name="ewald">   8340.15442972 </i>
    <i name="hartreedc"> -15392.67491485 </i>
    <i name="XCdc">    114.60352356 </i>
    <i name="pawpsdc">   7808.72914890 </i>
    <i name="pawaedc">  -7636.42627578 </i>
    <i name="eentropy">      0.01166370 </i>
    <i name="bandstr">   -666.30252475 </i>
    <i name="atom">   7408.64415014 </i>
    <i name="e_fr_energy">    -16.70506890 </i>
    <i name="e_wo_entrp">    -16.71673260 </i>
    <i name="e_0_energy">    -16.70895680 </i>
   </energy>
  </scstep>
  <structure>
   <crystal>
    <varray name="basis" >
     <v>      22.38768045       0.00000000       0.00000000 </v>
     <v>       0.00000000      22.80516180       0.00000000 </v>
     <v>       0.00000000       0.00000000      22.27237433 </v>
    </varray>
    <i name="volume">  11371.26483766 </i>
    <varray name="rec_basis" >
     <v>       0.04466742       0.00000000       0.00000000 </v>
     <v>       0.00000000       0.04384972       0.00000000 </v>
     <v>       0.00000000       0.00000000       0.04489867 </v>
    </varray>
   </crystal>
   <varray name="positions" >
    <v>       0.56888300       0.45179606       0.48320501 </v>
    <v>       0.46061820       0.49131770       0.54547240 </v>
    <v>       0.46780413       0.48345648       0.41402926 </v>
    <v>       0.41825433       0.57967039       0.46682063 </v>
    <v>       0.54324025       0.56457840       0.45828850 </v>
    <v>       0.46381424       0.38765078       0.49076354 </v>
    <v>       0.48241946       0.60516383       0.56771233 </v>
    <v>       0.57719156       0.53020545       0.57523271 </v>
   </varray>
  </structure>
  <varray name="forces" >
   <v>       0.05085243      -0.20841321       0.02693341 </v>
   <v>      -0.05611169      -0.07356724       0.04852366 </v>
   <v>      -0.12322170      -0.15704325      -0.09400262 </v>
   <v>       0.07196099       0.05023855      -0.10297327 </v>
   <v>       0.09979387       0.34160911       0.01522474 </v>
   <v>      -0.02209448       0.05893930       0.06414921 </v>
   <v>      -0.10960273      -0.05202441       0.13542982 </v>
   <v>       0.08842331       0.04026114      -0.09328494 </v>
  </varray>
  <energy>
   <i name="e_fr_energy">    -16.70506890 </i>
   <i name="e_wo_entrp">    -16.71673260 </i>
   <i name="e_0_energy">    -16.70895680 </i>
  </energy>
  <time name="totalsc">   90.91   93.20</time>
 </calculation>
 <calculation>
  <scstep>
   <time name="dav">    6.61    6.62</time>
   <time name="total">   11.39   11.40</time>
   <energy>
    <i name="alphaZ">      6.55573045 </i>
    <i name="ewald">   8309.85213366 </i>
    <i name="hartreedc"> -15362.87447722 </i>
    <i name="XCdc">    114.52081238 </i>
    <i name="pawpsdc">   7808.53715021 </i>
    <i name="pawaedc">  -7636.23404648 </i>
    <i name="eentropy">      0.01168755 </i>
    <i name="bandstr">   -665.71723610 </i>
    <i name="atom">   7408.64415014 </i>
    <i name="e_fr_energy">    -16.70409541 </i>
    <i name="e_wo_entrp">    -16.71578296 </i>
    <i name="e_0_energy">    -16.70799126 </i>
   </energy>
  </scstep>
  <scstep>
   <time name="dav">    7.53    7.54</time>
   <time name="total">   12.14   12.15</time>
   <energy>
    <i name="e_fr_energy">    -16.72201436 </i>
    <i name="e_wo_entrp">    -16.73370679 </i>
    <i name="e_0_energy">    -16.72591184 </i>
   </energy>
  </scstep>
  <scstep>
   <time name="dav">    7.72    7.73</time>
   <time name="total">   12.25   12.27</time>
   <energy>
    <i name="e_fr_energy">    -16.72143017 </i>
    <i name="e_wo_entrp">    -16.73312585 </i>
    <i name="e_0_energy">    -16.72532873 </i>
   </energy>
  </scstep>
  <scstep>
   <time name="dav">    7.38    7.39</time>
   <time name="total">   11.92   11.94</time>
   <energy>
    <i name="e_fr_energy">    -16.72109342 </i>
    <i name="e_wo_entrp">    -16.73279393 </i>
    <i name="e_0_energy">    -16.72499359 </i>
   </energy>
  </scstep>
  <scstep>
   <time name="dav">    5.29    5.30</time>
   <time name="total">    8.94    8.96</time>
   <energy>
    <i name="alphaZ">      6.55573045 </i>
    <i name="ewald">   8309.85213366 </i>
    <i name="hartreedc"> -15363.52721053 </i>
    <i name="XCdc">    114.53047086 </i>
    <i name="pawpsdc">   7793.66094422 </i>
    <i name="pawaedc">  -7621.23413666 </i>
    <i name="eentropy">      0.01170060 </i>
    <i name="bandstr">   -665.21490536 </i>
    <i name="atom">   7408.64415014 </i>
    <i name="e_fr_energy">    -16.72112263 </i>
    <i name="e_wo_entrp">    -16.73282323 </i>
    <i name="e_0_energy">    -16.72502283 </i>
   </energy>
  </scstep>
  <structure>
   <crystal>
    <varray name="basis" >
     <v>      22.38768045       0.00000000       0.00000000 </v>
     <v>       0.00000000      22.80516180       0.00000000 </v>
     <v>       0.00000000       0.00000000      22.27237433 </v>
    </varray>
    <i name="volume">  11371.26483766 </i>
    <varray name="rec_basis" >
     <v>       0.04466742       0.00000000       0.00000000 </v>
     <v>       0.00000000       0.04384972       0.00000000 </v>
     <v>       0.00000000       0.00000000       0.04489867 </v>
    </varray>
   </crystal>
   <varray name="positions" >
    <v>       0.56906894       0.45143772       0.48305965 </v>
    <v>       0.46037363       0.49114828       0.54572842 </v>
    <v>       0.46771753       0.48317913       0.41368672 </v>
    <v>       0.41856276       0.57998429       0.46634170 </v>
    <v>       0.54369797       0.56524511       0.45796067 </v>
    <v>       0.46352343       0.38816530       0.49147261 </v>
    <v>       0.48162934       0.60421259       0.56842746 </v>
    <v>       0.57765159       0.53046666       0.57484715 </v>
   </varray>
  </structure>
  <varray name="forces" >
   <v>      -0.01626450      -0.07259531       0.03226831 </v>
   <v>      -0.02810654      -0.02493501       0.03092279 </v>
   <v>      -0.05241939      -0.06210742       0.00667678 </v>
   <v>       0.13574335       0.00297843      -0.09879316 </v>
   <v>       0.01821640       0.16211518       0.04674223 </v>
   <v>      -0.01515200      -0.02063066       0.01364250 </v>
   <v>      -0.08963853      -0.01169436       0.12625951 </v>
   <v>       0.04762122       0.02686915      -0.15771895 </v>
  </varray>
  <energy>
   <i name="e_fr_energy">    -16.72112263 </i>
   <i name="e_wo_entrp">    -16.73282323 </i>
   <i name="e_0_energy">    -16.72502283 </i>
  </energy>
  <time name="totalsc">   69.97   70.17</time>
 </calculation>
 <calculation>
  <scstep>
   <time name="dav">    6.63    6.64</time>
   <time name="total">   11.26   11.28</time>
   <energy>
    <i name="alphaZ">      6.55573045 </i>
    <i name="ewald">   8275.19611531 </i>
    <i name="hartreedc"> -15329.36847543 </i>
    <i name="XCdc">    114.43959610 </i>
    <i name="pawpsdc">   7794.14839429 </i>
    <i name="pawaedc">  -7621.72517858 </i>
    <i name="eentropy">      0.01174123 </i>
    <i name="bandstr">   -664.60695501 </i>
    <i name="atom">   7408.64415014 </i>
    <i name="e_fr_energy">    -16.70488151 </i>
    <i name="e_wo_entrp">    -16.71662274 </i>
    <i name="e_0_energy">    -16.70879525 </i>
   </energy>
  </scstep>
  <scstep>
   <time name="dav">    7.37    7.38</time>
   <time name="total">   11.99   12.01</time>
   <energy>
    <i name="e_fr_energy">    -16.72789942 </i>
    <i name="e_wo_entrp">    -16.73964797 </i>
    <i name="e_0_energy">    -16.73181560 </i>
   </energy>
  </scstep>
  <scstep>
   <time name="dav">    7.72    7.74</time>
   <time name="total">   12.29   12.32</time>
   <energy>
    <i name="e_fr_energy">    -16.72718159 </i>
    <i name="e_wo_entrp">    -16.73893578 </i>
    <i name="e_0_energy">    -16.73109966 </i>
   </energy>
  </scstep>
  <scstep>
   <time name="dav">    7.44    7.45</time>
   <time name="total">   12.06   12.07</time>
   <energy>
    <i name="e_fr_energy">    -16.72673976 </i>
    <i name="e_wo_entrp">    -16.73850199 </i>
    <i name="e_0_energy">    -16.73066051 </i>
   </energy>
  </scstep>
  <scstep>
   <time name="dav">    5.84    5.85</time>
   <time name="total">    9.68    9.70</time>
   <energy>
    <i name="alphaZ">      6.55573045 </i>
    <i name="ewald">   8275.19611531 </i>
    <i name="hartreedc"> -15330.09820605 </i>
    <i name="XCdc">    114.45058740 </i>
    <i name="pawpsdc">   7778.45350674 </i>
    <i name="pawaedc">  -7605.90125166 </i>
    <i name="eentropy">      0.01176252 </i>
    <i name="bandstr">   -664.03917816 </i>
    <i name="atom">   7408.64415014 </i>
    <i name="e_fr_energy">    -16.72678330 </i>
    <i name="e_wo_entrp">    -16.73854583 </i>
    <i name="e_0_energy">    -16.73070415 </i>
   </energy>
  </scstep>
  <structure>
   <crystal>
    <varray name="basis" >
     <v>      22.38768045       0.00000000       0.00000000 </v>
     <v>       0.00000000      22.80516180       0.00000000 </v>
     <v>       0.00000000       0.00000000      22.27237433 </v>
    </varray>
    <i name="volume">  11371.26483766 </i>
    <varray name="rec_basis" >
     <v>       0.04466742       0.00000000       0.00000000 </v>
     <v>       0.00000000       0.04384972       0.00000000 </v>
     <v>       0.00000000       0.00000000       0.04489867 </v>
    </varray>
   </crystal>
   <varray name="positions" >
    <v>       0.56927957       0.45103183       0.48289500 </v>
    <v>       0.46009659       0.49095639       0.54601841 </v>
    <v>       0.46761943       0.48286498       0.41329872 </v>
    <v>       0.41891213       0.58033984       0.46579920 </v>
    <v>       0.54421644       0.56600029       0.45758934 </v>
    <v>       0.46319401       0.38874811       0.49227578 </v>
    <v>       0.48073435       0.60313511       0.56923749 </v>
    <v>       0.57817267       0.53076255       0.57441042 </v>
   </varray>
  </structure>
  <varray name="forces" >
   <v>      -0.08786074       0.07037342       0.03979982 </v>
   <v>      -0.00050784       0.03169795       0.01761733 </v>
   <v>       0.02053471       0.03756249       0.11414764 </v>
   <v>       0.20534314      -0.04964231      -0.08854575 </v>
   <v>      -0.06785978      -0.02498980       0.08116377 </v>
   <v>      -0.00487002      -0.12240237      -0.05168636 </v>
   <v>      -0.06251607       0.04444224       0.11375095 </v>
   <v>      -0.00226340       0.01295838      -0.22624740 </v>
  </varray>
  <energy>
   <i name="e_fr_energy">    -16.72678330 </i>
   <i name="e_wo_entrp">    -16.73854583 </i>
   <i name="e_0_energy">    -16.73070415 </i>
  </energy>
  <time name="totalsc">   70.74   70.94</time>
 </calculation>
 <calculation>
  <scstep>
   <time name="dav">    6.85    6.87</time>
   <time name="total">   11.69   11.72</time>
   <energy>
    <i name="alphaZ">      6.55573045 </i>
    <i name="ewald">   8281.03713938 </i>
    <i name="hartreedc"> -15335.91932048 </i>
    <i name="XCdc">    114.47778677 </i>
    <i name="pawpsdc">   7778.98327016 </i>
    <i name="pawaedc">  -7606.43472254 </i>
    <i name="eentropy">      0.01182720 </i>
    <i name="bandstr">   -664.07864518 </i>
    <i name="atom">   7408.64415014 </i>
    <i name="e_fr_energy">    -16.72278411 </i>
    <i name="e_wo_entrp">    -16.73461130 </i>
    <i name="e_0_energy">    -16.72672650 </i>
   </energy>
  </scstep>
  <scstep>
   <time name="dav">    7.28    7.30</time>
   <time name="total">   11.95   11.98</time>
   <energy>
    <i name="e_fr_energy">    -16.74053006 </i>
    <i name="e_wo_entrp">    -16.75235580 </i>
    <i name="e_0_energy">    -16.74447197 </i>
   </energy>
  </scstep>
  <scstep>
   <time name="dav">    8.12    8.16</time>
   <time name="total">   12.89   12.95</time>
   <energy>
    <i name="e_fr_energy">    -16.74013542 </i>
    <i name="e_wo_entrp">    -16.75196841 </i>
    <i name="e_0_energy">    -16.74407975 </i>
   </energy>
  </scstep>
  <scstep>
   <time name="dav">    7.96    7.97</time>
   <time name="total">   12.78   12.80</time>
   <energy>
    <i name="e_fr_energy">    -16.73968654 </i>
    <i name="e_wo_entrp">    -16.75152758 </i>
    <i name="e_0_energy">    -16.74363356 </i>
   </energy>
  </scstep>
  <scstep>
   <time name="dav">    6.80    6.81</time>
   <time name="total">   10.58   10.59</time>
   <energy>
    <i name="alphaZ">      6.55573045 </i>
    <i name="ewald">   8281.03713938 </i>
    <i name="hartreedc"> -15335.76475907 </i>
    <i name="XCdc">    114.47121175 </i>
    <i name="pawpsdc">   7783.24753102 </i>
    <i name="pawaedc">  -7610.75696697 </i>
    <i name="eentropy">      0.01184663 </i>
    <i name="bandstr">   -664.18557576 </i>
    <i name="atom">   7408.64415014 </i>
    <i name="e_fr_energy">    -16.73969244 </i>
    <i name="e_wo_entrp">    -16.75153907 </i>
    <i name="e_0_energy">    -16.74364131 </i>
   </energy>
  </scstep>
  <structure>
   <crystal>
    <varray name="basis" >
     <v>      22.38768045       0.00000000       0.00000000 </v>
     <v>       0.00000000      22.80516180       0.00000000 </v>
     <v>       0.00000000       0.00000000      22.27237433 </v>
    </varray>
    <i name="volume">  11371.26483766 </i>
    <varray name="rec_basis" >
     <v>       0.04466742       0.00000000       0.00000000 </v>
     <v>       0.00000000       0.04384972       0.00000000 </v>
     <v>       0.00000000       0.00000000       0.04489867 </v>
    </varray>
   </crystal>
   <varray name="positions" >
    <v>       0.56909239       0.45102583       0.48293641 </v>
    <v>       0.45991813       0.49094790       0.54626806 </v>
    <v>       0.46763202       0.48279963       0.41347115 </v>
    <v>       0.41988606       0.58038821       0.46512777 </v>
    <v>       0.54429868       0.56639193       0.45765110 </v>
    <v>       0.46296621       0.38868002       0.49259769 </v>
    <v>       0.47993512       0.60260787       0.57017215 </v>
    <v>       0.57849655       0.53099770       0.57330003 </v>
   </varray>
  </structure>
  <varray name="forces" >
   <v>      -0.09632765       0.04217134       0.01827184 </v>
   <v>      -0.00312394      -0.01025919       0.00178847 </v>
   <v>       0.02999263       0.00310603       0.10548066 </v>
   <v>       0.17788829      -0.00203282      -0.06207835 </v>
   <v>      -0.05876541      -0.04403854       0.05816225 </v>
   <v>       0.00589772      -0.10906772      -0.06193506 </v>
   <v>      -0.05725992       0.06888170       0.11845493 </v>
   <v>       0.00169829       0.05123920      -0.17814473 </v>
  </varray>
  <energy>
   <i name="e_fr_energy">    -16.73969244 </i>
   <i name="e_wo_entrp">    -16.75153907 </i>
   <i name="e_0_energy">    -16.74364131 </i>
  </energy>
  <time name="totalsc">   73.31   73.59</time>
 </calculation>
 <calculation>
  <scstep>
   <time name="dav">    6.49    6.50</time>
   <time name="total">   11.25   11.27</time>
   <energy>
    <i name="alphaZ">      6.55573045 </i>
    <i name="ewald">   8295.05796091 </i>
    <i name="hartreedc"> -15349.85898893 </i>
    <i name="XCdc">    114.56107230 </i>
    <i name="pawpsdc">   7783.21344058 </i>
    <i name="pawaedc">  -7610.72300334 </i>
    <i name="eentropy">      0.01227252 </i>
    <i name="bandstr">   -664.06526787 </i>
    <i name="atom">   7408.64415014 </i>
    <i name="e_fr_energy">    -16.60263325 </i>
    <i name="e_wo_entrp">    -16.61490578 </i>
    <i name="e_0_energy">    -16.60672409 </i>
   </energy>
  </scstep>
  <scstep>
   <time name="dav">    7.09    7.11</time>
   <time name="total">   11.86   11.88</time>
   <energy>
    <i name="e_fr_energy">    -16.76314401 </i>
    <i name="e_wo_entrp">    -16.77539847 </i>
    <i name="e_0_energy">    -16.76722883 </i>
   </energy>
  </scstep>
  <scstep>
   <time name="dav">    7.36    7.37</time>
   <time name="total">   12.16   12.18</time>
   <energy>
    <i name="e_fr_energy">    -16.75938457 </i>
    <i name="e_wo_entrp">    -16.77170351 </i>
    <i name="e_0_energy">    -16.76349088 </i>
   </energy>
  </scstep>
  <scstep>
   <time name="dav">    6.27    6.28</time>
   <time name="total">   10.69   10.74</time>
   <energy>
    <i name="e_fr_energy">    -16.75537217 </i>
    <i name="e_wo_entrp">    -16.76776607 </i>
    <i name="e_0_energy">    -16.75950347 </i>
   </energy>
  </scstep>
  <scstep>
   <time name="dav">    7.22    7.27</time>
   <time name="total">   11.60   11.66</time>
   <energy>
    <i name="e_fr_energy">    -16.75544884 </i>
    <i name="e_wo_entrp">    -16.76787290 </i>
    <i name="e_0_energy">    -16.75959019 </i>
   </energy>
  </scstep>
  <scstep>
   <time name="dav">    7.23    7.24</time>
   <time name="total">   10.92   10.94</time>
   <energy>
    <i name="alphaZ">      6.55573045 </i>
    <i name="ewald">   8295.05796091 </i>
    <i name="hartreedc"> -15349.13997060 </i>
    <i name="XCdc">    114.53479846 </i>
    <i name="pawpsdc">   7798.88088985 </i>
    <i name="pawaedc">  -7626.60232648 </i>
    <i name="eentropy">      0.01240926 </i>
    <i name="bandstr">   -664.69903143 </i>
    <i name="atom">   7408.64415014 </i>
    <i name="e_fr_energy">    -16.75538944 </i>
    <i name="e_wo_entrp">    -16.76779870 </i>
    <i name="e_0_energy">    -16.75952586 </i>
   </energy>
  </scstep>
  <structure>
   <crystal>
    <varray name="basis" >
     <v>      22.38768045       0.00000000       0.00000000 </v>
     <v>       0.00000000      22.80516180       0.00000000 </v>
     <v>       0.00000000       0.00000000      22.27237433 </v>
    </varray>
    <i name="volume">  11371.26483766 </i>
    <varray name="rec_basis" >
     <v>       0.04466742       0.00000000       0.00000000 </v>
     <v>       0.00000000       0.04384972       0.00000000 </v>
     <v>       0.00000000       0.00000000       0.04489867 </v>
    </varray>
   </crystal>
   <varray name="positions" >
    <v>       0.56853088       0.45100784       0.48306062 </v>
    <v>       0.45938277       0.49092245       0.54701700 </v>
    <v>       0.46766979       0.48260357       0.41398845 </v>
    <v>       0.42280788       0.58053329       0.46311347 </v>
    <v>       0.54454539       0.56756687       0.45783639 </v>
    <v>       0.46228281       0.38847575       0.49356344 </v>
    <v>       0.47753745       0.60102617       0.57297615 </v>
    <v>       0.57946821       0.53170316       0.56996886 </v>
   </varray>
  </structure>
  <varray name="forces" >
   <v>      -0.11229992      -0.07580741      -0.05932500 </v>
   <v>      -0.00669108      -0.14602242      -0.05712502 </v>
   <v>       0.05309354      -0.12854474       0.05665714 </v>
   <v>       0.00850882       0.16701643       0.06404228 </v>
   <v>       0.00583055      -0.08215250      -0.05670568 </v>
   <v>       0.04712836      -0.05815870      -0.10100244 </v>
   <v>      -0.00650529       0.15727331       0.08418855 </v>
   <v>       0.01093502       0.16639603       0.06927017 </v>
  </varray>
  <energy>
   <i name="e_fr_energy">    -16.75538944 </i>
   <i name="e_wo_entrp">    -16.76779870 </i>
   <i name="e_0_energy">    -16.75952586 </i>
  </energy>
  <time name="totalsc">   81.70   81.92</time>
 </calculation>
 <calculation>
  <scstep>
   <time name="dav">    6.76    6.77</time>
   <time name="total">   11.40   11.43</time>
   <energy>
    <i name="alphaZ">      6.55573045 </i>
    <i name="ewald">   8277.84933127 </i>
    <i name="hartreedc"> -15332.11525007 </i>
    <i name="XCdc">    114.50680824 </i>
    <i name="pawpsdc">   7798.52424753 </i>
    <i name="pawaedc">  -7626.24761189 </i>
    <i name="eentropy">      0.01291789 </i>
    <i name="bandstr">   -664.46588924 </i>
    <i name="atom">   7408.64415014 </i>
    <i name="e_fr_energy">    -16.73556568 </i>
    <i name="e_wo_entrp">    -16.74848357 </i>
    <i name="e_0_energy">    -16.73987164 </i>
   </energy>
  </scstep>
  <scstep>
   <time name="dav">    7.02    7.03</time>
   <time name="total">   11.60   11.62</time>
   <energy>
    <i name="e_fr_energy">    -16.76688223 </i>
    <i name="e_wo_entrp">    -16.77979766 </i>
    <i name="e_0_energy">    -16.77118737 </i>
   </energy>
  </scstep>
  <scstep>
   <time name="dav">    7.77    7.78</time>
   <time name="total">   12.37   12.40</time>
   <energy>
    <i name="e_fr_energy">    -16.76592947 </i>
    <i name="e_wo_entrp">    -16.77890305 </i>
    <i name="e_0_energy">    -16.77025400 </i>
   </energy>
  </scstep>
  <scstep>
   <time name="dav">    6.95    6.96</time>
   <time name="total">   11.58   11.60</time>
   <energy>
    <i name="e_fr_energy">    -16.76514498 </i>
    <i name="e_wo_entrp">    -16.77819405 </i>
    <i name="e_0_energy">    -16.76949467 </i>
   </energy>
  </scstep>
  <scstep>
   <time name="dav">    7.38    7.39</time>
   <time name="total">   12.01   12.04</time>
   <energy>
    <i name="e_fr_energy">    -16.76525496 </i>
    <i name="e_wo_entrp">    -16.77832779 </i>
    <i name="e_0_energy">    -16.76961257 </i>
   </energy>
  </scstep>
  <scstep>
   <time name="dav">    5.02    5.03</time>
   <time name="total">    8.76    8.77</time>
   <energy>
    <i name="alphaZ">      6.55573045 </i>
    <i name="ewald">   8277.84933127 </i>
    <i name="hartreedc"> -15332.20983332 </i>
    <i name="XCdc">    114.50652964 </i>
    <i name="pawpsdc">   7793.73422118 </i>
    <i name="pawaedc">  -7621.43290620 </i>
    <i name="eentropy">      0.01305528 </i>
    <i name="bandstr">   -664.42549895 </i>
    <i name="atom">   7408.64415014 </i>
    <i name="e_fr_energy">    -16.76522051 </i>
    <i name="e_wo_entrp">    -16.77827579 </i>
    <i name="e_0_energy">    -16.76957227 </i>
   </energy>
  </scstep>
  <structure>
   <crystal>
    <varray name="basis" >
     <v>      22.38768045       0.00000000       0.00000000 </v>
     <v>       0.00000000      22.80516180       0.00000000 </v>
     <v>       0.00000000       0.00000000      22.27237433 </v>
    </varray>
    <i name="volume">  11371.26483766 </i>
    <varray name="rec_basis" >
     <v>       0.04466742       0.00000000       0.00000000 </v>
     <v>       0.00000000       0.04384972       0.00000000 </v>
     <v>       0.00000000       0.00000000       0.04489867 </v>
    </varray>
   </crystal>
   <varray name="positions" >
    <v>       0.56785760       0.45069908       0.48286700 </v>
    <v>       0.45914789       0.49033127       0.54707476 </v>
    <v>       0.46789975       0.48201576       0.41442013 </v>
    <v>       0.42397616       0.58125447       0.46259290 </v>
    <v>       0.54466477       0.56769574       0.45767715 </v>
    <v>       0.46220873       0.38816496       0.49352648 </v>
    <v>       0.47658068       0.60103850       0.57440736 </v>
    <v>       0.57988959       0.53263931       0.56895860 </v>
   </varray>
  </structure>
  <varray name="forces" >
   <v>      -0.02832443      -0.03788388       0.01231815 </v>
   <v>       0.03629390       0.06585602      -0.02112904 </v>
   <v>      -0.01781685      -0.04575727       0.02263189 </v>
   <v>      -0.00074326       0.12449334       0.10307613 </v>
   <v>       0.03457837      -0.07946049      -0.08963931 </v>
   <v>       0.01989194      -0.13406709      -0.09714918 </v>
   <v>      -0.00389068      -0.02909801      -0.00544825 </v>
   <v>      -0.03998899       0.13591737       0.07533960 </v>
  </varray>
  <energy>
   <i name="e_fr_energy">    -16.76522051 </i>
   <i name="e_wo_entrp">    -16.77827579 </i>
   <i name="e_0_energy">    -16.76957227 </i>
  </energy>
  <time name="totalsc">   80.93   81.14</time>
 </calculation>
 <calculation>
  <scstep>
   <time name="dav">    6.95    6.96</time>
   <time name="total">   11.62   11.64</time>
   <energy>
    <i name="alphaZ">      6.55573045 </i>
    <i name="ewald">   8275.04481055 </i>
    <i name="hartreedc"> -15329.42486292 </i>
    <i name="XCdc">    114.50216574 </i>
    <i name="pawpsdc">   7793.57971419 </i>
    <i name="pawaedc">  -7621.27819094 </i>
    <i name="eentropy">      0.01316383 </i>
    <i name="bandstr">   -664.40164474 </i>
    <i name="atom">   7408.64415014 </i>
    <i name="e_fr_energy">    -16.76496369 </i>
    <i name="e_wo_entrp">    -16.77812753 </i>
    <i name="e_0_energy">    -16.76935164 </i>
   </energy>
  </scstep>
  <scstep>
   <time name="dav">    7.17    7.18</time>
   <time name="total">   11.98   12.01</time>
   <energy>
    <i name="e_fr_energy">    -16.76577545 </i>
    <i name="e_wo_entrp">    -16.77894103 </i>
    <i name="e_0_energy">    -16.77016397 </i>
   </energy>
  </scstep>
  <scstep>
   <time name="dav">    5.22    5.23</time>
   <time name="total">    9.13    9.15</time>
   <energy>
    <i name="alphaZ">      6.55573045 </i>
    <i name="ewald">   8275.04481055 </i>
    <i name="hartreedc"> -15329.44152108 </i>
    <i name="XCdc">    114.50215483 </i>
    <i name="pawpsdc">   7793.26641878 </i>
    <i name="pawaedc">  -7620.96327521 </i>
    <i name="eentropy">      0.01317603 </i>
    <i name="bandstr">   -664.38739890 </i>
    <i name="atom">   7408.64415014 </i>
    <i name="e_fr_energy">    -16.76575442 </i>
    <i name="e_wo_entrp">    -16.77893045 </i>
    <i name="e_0_energy">    -16.77014643 </i>
   </energy>
  </scstep>
  <structure>
   <crystal>
    <varray name="basis" >
     <v>      22.38768045       0.00000000       0.00000000 </v>
     <v>       0.00000000      22.80516180       0.00000000 </v>
     <v>       0.00000000       0.00000000      22.27237433 </v>
    </varray>
    <i name="volume">  11371.26483766 </i>
    <varray name="rec_basis" >
     <v>       0.04466742       0.00000000       0.00000000 </v>
     <v>       0.00000000       0.04384972       0.00000000 </v>
     <v>       0.00000000       0.00000000       0.04489867 </v>
    </varray>
   </crystal>
   <varray name="positions" >
    <v>       0.56775019       0.45064982       0.48283611 </v>
    <v>       0.45911042       0.49023696       0.54708398 </v>
    <v>       0.46793644       0.48192198       0.41448900 </v>
    <v>       0.42416255       0.58136953       0.46250984 </v>
    <v>       0.54468382       0.56771630       0.45765174 </v>
    <v>       0.46219692       0.38811537       0.49352058 </v>
    <v>       0.47642804       0.60104047       0.57463570 </v>
    <v>       0.57995681       0.53278866       0.56879742 </v>
   </varray>
  </structure>
  <varray name="forces" >
   <v>      -0.00520263      -0.02805962       0.02733164 </v>
   <v>       0.04524617       0.10701527      -0.01501930 </v>
   <v>      -0.03341928      -0.02435920       0.01117606 </v>
   <v>      -0.01589025       0.11037106       0.11432866 </v>
   <v>       0.03972962      -0.08213717      -0.09635019 </v>
   <v>       0.01610751      -0.14361167      -0.09618264 </v>
   <v>       0.00510797      -0.05996889      -0.03313039 </v>
   <v>      -0.05167912       0.12075022       0.08784616 </v>
  </varray>
  <energy>
   <i name="e_fr_energy">    -16.76575442 </i>
   <i name="e_wo_entrp">    -16.77893045 </i>
   <i name="e_0_energy">    -16.77014643 </i>
  </energy>
  <time name="totalsc">   46.17   46.32</time>
 </calculation>
 <calculation>
  <scstep>
   <time name="dav">    6.94    6.95</time>
   <time name="total">   11.75   11.76</time>
   <energy>
    <i name="alphaZ">      6.55573045 </i>
    <i name="ewald">   8261.06621619 </i>
    <i name="hartreedc"> -15315.59829662 </i>
    <i name="XCdc">    114.46845565 </i>
    <i name="pawpsdc">   7792.99262436 </i>
    <i name="pawaedc">  -7620.68839436 </i>
    <i name="eentropy">      0.01344340 </i>
    <i name="bandstr">   -664.21851928 </i>
    <i name="atom">   7408.64415014 </i>
    <i name="e_fr_energy">    -16.76459007 </i>
    <i name="e_wo_entrp">    -16.77803347 </i>
    <i name="e_0_energy">    -16.76907120 </i>
   </energy>
  </scstep>
  <scstep>
   <time name="dav">    7.67    7.69</time>
   <time name="total">   12.59   12.61</time>
   <energy>
    <i name="e_fr_energy">    -16.77476318 </i>
[...]
       <r>    -1.9335     6.6402    49.4815 </r>
       <r>    -1.8841     5.3266    49.7445 </r>
       <r>    -1.8348     3.5719    49.9209 </r>
       <r>    -1.7854     1.8739    50.0134 </r>
       <r>    -1.7360     0.5896    50.0425 </r>
       <r>    -1.6866    -0.1715    50.0340 </r>
       <r>    -1.6373    -0.4931    50.0097 </r>
       <r>    -1.5879    -0.4983    49.9851 </r>
       <r>    -1.5385    -0.2195    49.9742 </r>
       <r>    -1.4891     0.4061    49.9943 </r>
       <r>    -1.4397     1.4072    50.0638 </r>
       <r>    -1.3904     2.6185    50.1931 </r>
       <r>    -1.3410     3.6478    50.3732 </r>
       <r>    -1.2916     4.0560    50.5734 </r>
       <r>    -1.2422     3.6498    50.7537 </r>
       <r>    -1.1929     2.6611    50.8850 </r>
       <r>    -1.1435     1.6517    50.9666 </r>
       <r>    -1.0941     1.1958    51.0256 </r>
       <r>    -1.0447     1.5482    51.1021 </r>
       <r>    -0.9954     2.4946    51.2253 </r>
       <r>    -0.9460     3.4709    51.3966 </r>
       <r>    -0.8966     3.8905    51.5887 </r>
       <r>    -0.8472     3.4972    51.7614 </r>
       <r>    -0.7979     2.5226    51.8860 </r>
       <r>    -0.7485     1.5424    51.9621 </r>
       <r>    -0.6991     1.1344    52.0181 </r>
       <r>    -0.6497     1.5642    52.0954 </r>
       <r>    -0.6004     2.6805    52.2277 </r>
       <r>    -0.5510     4.0466    52.4275 </r>
       <r>    -0.5016     5.1906    52.6838 </r>
       <r>    -0.4522     5.8111    52.9708 </r>
       <r>    -0.4028     5.8465    53.2594 </r>
       <r>    -0.3535     5.4437    53.5282 </r>
       <r>    -0.3041     4.8920    53.7698 </r>
       <r>    -0.2547     4.5270    53.9933 </r>
       <r>    -0.2053     4.5850    54.2197 </r>
       <r>    -0.1560     5.0664    54.4698 </r>
       <r>    -0.1066     5.7200    54.7523 </r>
       <r>    -0.0572     6.1716    55.0570 </r>
       <r>    -0.0078     6.1044    55.3584 </r>
       <r>     0.0415     5.3914    55.6246 </r>
       <r>     0.0909     4.1437    55.8292 </r>
       <r>     0.1403     2.6655    55.9608 </r>
       <r>     0.1897     1.3208    56.0261 </r>
       <r>     0.2390     0.3695    56.0443 </r>
       <r>     0.2884    -0.1261    56.0381 </r>
       <r>     0.3378    -0.2718    56.0247 </r>
       <r>     0.3872    -0.2341    56.0131 </r>
       <r>     0.4365    -0.1459    56.0059 </r>
       <r>     0.4859    -0.0732    56.0023 </r>
       <r>     0.5353    -0.0307    56.0008 </r>
       <r>     0.5847    -0.0110    56.0002 </r>
       <r>     0.6341    -0.0034    56.0001 </r>
       <r>     0.6834    -0.0009    56.0000 </r>
       <r>     0.7328    -0.0002    56.0000 </r>
       <r>     0.7822    -0.0000    56.0000 </r>
       <r>     0.8316    -0.0000    56.0000 </r>
       <r>     0.8809    -0.0000    56.0000 </r>
       <r>     0.9303    -0.0000    56.0000 </r>
       <r>     0.9797    -0.0000    56.0000 </r>
       <r>     1.0291    -0.0000    56.0000 </r>
       <r>     1.0784    -0.0000    56.0000 </r>
       <r>     1.1278    -0.0000    56.0000 </r>
       <r>     1.1772    -0.0000    56.0000 </r>
       <r>     1.2266    -0.0000    56.0000 </r>
       <r>     1.2759    -0.0000    56.0000 </r>
       <r>     1.3253     0.0000    56.0000 </r>
       <r>     1.3747     0.0000    56.0000 </r>
       <r>     1.4241     0.0000    56.0000 </r>
       <r>     1.4734     0.0000    56.0000 </r>
       <r>     1.5228     0.0000    56.0000 </r>
       <r>     1.5722     0.0000    56.0000 </r>
       <r>     1.6216     0.0000    56.0000 </r>
       <r>     1.6709     0.0000    56.0000 </r>
       <r>     1.7203     0.0000    56.0000 </r>
       <r>     1.7697     0.0000    56.0000 </r>
       <r>     1.8191     0.0000    56.0000 </r>
       <r>     1.8685     0.0000    56.0000 </r>
       <r>     1.9178     0.0000    56.0000 </r>
       <r>     1.9672     0.0000    56.0000 </r>
       <r>     2.0166     0.0000    56.0000 </r>
      </set>
      <set comment="spin 2">
       <r>   -12.7963     0.0000     0.0000 </r>
       <r>   -12.7469     0.0000     0.0000 </r>
       <r>   -12.6975     0.0000     0.0000 </r>
       <r>   -12.6481     0.0000     0.0000 </r>
       <r>   -12.5988     0.0000     0.0000 </r>
       <r>   -12.5494     0.0000     0.0000 </r>
       <r>   -12.5000     0.0000     0.0000 </r>
       <r>   -12.4506     0.0000     0.0000 </r>
       <r>   -12.4012    -0.0000    -0.0000 </r>
       <r>   -12.3519    -0.0000    -0.0000 </r>
       <r>   -12.3025    -0.0000    -0.0000 </r>
       <r>   -12.2531    -0.0000    -0.0000 </r>
       <r>   -12.2037    -0.0000    -0.0000 </r>
       <r>   -12.1544    -0.0000    -0.0000 </r>
       <r>   -12.1050    -0.0000    -0.0000 </r>
       <r>   -12.0556    -0.0000    -0.0000 </r>
       <r>   -12.0062    -0.0000    -0.0000 </r>
       <r>   -11.9569    -0.0000    -0.0000 </r>
       <r>   -11.9075    -0.0000    -0.0000 </r>
       <r>   -11.8581    -0.0000    -0.0000 </r>
       <r>   -11.8087    -0.0000    -0.0000 </r>
       <r>   -11.7594    -0.0000    -0.0000 </r>
       <r>   -11.7100    -0.0000    -0.0000 </r>
       <r>   -11.6606    -0.0000    -0.0000 </r>
       <r>   -11.6112    -0.0000    -0.0000 </r>
       <r>   -11.5619    -0.0000    -0.0000 </r>
       <r>   -11.5125    -0.0000    -0.0000 </r>
       <r>   -11.4631    -0.0002    -0.0000 </r>
       <r>   -11.4137    -0.0009    -0.0001 </r>
       <r>   -11.3643    -0.0033    -0.0002 </r>
       <r>   -11.3150    -0.0108    -0.0008 </r>
       <r>   -11.2656    -0.0300    -0.0022 </r>
       <r>   -11.2162    -0.0705    -0.0057 </r>
       <r>   -11.1668    -0.1370    -0.0125 </r>
       <r>   -11.1175    -0.2087    -0.0228 </r>
       <r>   -11.0681    -0.2100    -0.0332 </r>
       <r>   -11.0187    -0.0009    -0.0332 </r>
       <r>   -10.9693     0.5723    -0.0049 </r>
       <r>   -10.9200     1.5551     0.0718 </r>
       <r>   -10.8706     2.7630     0.2083 </r>
       <r>   -10.8212     3.7882     0.3953 </r>
       <r>   -10.7718     4.1958     0.6025 </r>
       <r>   -10.7225     3.7965     0.7899 </r>
       <r>   -10.6731     2.7759     0.9270 </r>
       <r>   -10.6237     1.5674     1.0044 </r>
       <r>   -10.5743     0.5805     1.0331 </r>
       <r>   -10.5250     0.0019     1.0332 </r>
       <r>   -10.4756    -0.2135     1.0226 </r>
       <r>   -10.4262    -0.2234     1.0116 </r>
       <r>   -10.3768    -0.1770     1.0029 </r>
       <r>   -10.3274    -0.1640     0.9948 </r>
       <r>   -10.2781    -0.2157     0.9841 </r>
       <r>   -10.2287    -0.3090     0.9688 </r>
       <r>   -10.1793    -0.3497     0.9516 </r>
       <r>   -10.1299    -0.1541     0.9440 </r>
       <r>   -10.0806     0.5152     0.9694 </r>
       <r>   -10.0312     1.8224     1.0594 </r>
       <r>    -9.9818     3.6847     1.2413 </r>
       <r>    -9.9324     5.6787     1.5217 </r>
       <r>    -9.8831     7.1537     1.8749 </r>
       <r>    -9.8337     7.5374     2.2471 </r>
       <r>    -9.7843     6.6545     2.5757 </r>
       <r>    -9.7349     4.8388     2.8146 </r>
       <r>    -9.6856     2.7675     2.9513 </r>
       <r>    -9.6362     1.1420     3.0076 </r>
       <r>    -9.5868     0.4138     3.0281 </r>
       <r>    -9.5374     0.6581     3.0606 </r>
       <r>    -9.4881     1.5937     3.1393 </r>
       <r>    -9.4387     2.7257     3.2738 </r>
       <r>    -9.3893     3.5990     3.4515 </r>
       <r>    -9.3399     4.0703     3.6525 </r>
       <r>    -9.2906     4.3857     3.8691 </r>
       <r>    -9.2412     4.9364     4.1128 </r>
       <r>    -9.1918     5.8627     4.4023 </r>
       <r>    -9.1424     6.9001     4.7430 </r>
       <r>    -9.0930     7.6653     5.1215 </r>
       <r>    -9.0437     8.1055     5.5217 </r>
       <r>    -8.9943     8.6004     5.9463 </r>
       <r>    -8.9449     9.5541     6.4181 </r>
       <r>    -8.8955    10.8922     6.9559 </r>
       <r>    -8.8462    12.0309     7.5499 </r>
       <r>    -8.7968    12.3754     8.1610 </r>
       <r>    -8.7474    11.8153     8.7444 </r>
       <r>    -8.6980    10.7141     9.2734 </r>
       <r>    -8.6487     9.4935     9.7422 </r>
       <r>    -8.5993     8.3521    10.1546 </r>
       <r>    -8.5499     7.4007    10.5200 </r>
       <r>    -8.5005     6.9291    10.8621 </r>
       <r>    -8.4512     7.3683    11.2259 </r>
       <r>    -8.4018     8.9244    11.6666 </r>
       <r>    -8.3524    11.2869    12.2239 </r>
       <r>    -8.3030    13.7462    12.9026 </r>
       <r>    -8.2537    15.6180    13.6738 </r>
       <r>    -8.2043    16.5705    14.4920 </r>
       <r>    -8.1549    16.5898    15.3111 </r>
       <r>    -8.1055    15.7176    16.0872 </r>
       <r>    -8.0561    13.9289    16.7749 </r>
       <r>    -8.0068    11.3127    17.3335 </r>
       <r>    -7.9574     8.3158    17.7441 </r>
       <r>    -7.9080     5.6719    18.0242 </r>
       <r>    -7.8586     3.9747    18.2204 </r>
       <r>    -7.8093     3.2811    18.3824 </r>
       <r>    -7.7599     3.1523    18.5381 </r>
       <r>    -7.7105     3.1095    18.6916 </r>
       <r>    -7.6611     3.0724    18.8433 </r>
       <r>    -7.6118     3.3848    19.0104 </r>
       <r>    -7.5624     4.4441    19.2299 </r>
       <r>    -7.5130     6.3024    19.5411 </r>
       <r>    -7.4636     8.5744    19.9644 </r>
       <r>    -7.4143    10.6710    20.4913 </r>
       <r>    -7.3649    12.1260    21.0901 </r>
       <r>    -7.3155    12.7959    21.7219 </r>
       <r>    -7.2661    12.8786    22.3578 </r>
       <r>    -7.2168    12.8069    22.9901 </r>
       <r>    -7.1674    13.0511    23.6346 </r>
       <r>    -7.1180    13.8491    24.3184 </r>
       <r>    -7.0686    14.9746    25.0578 </r>
       <r>    -7.0192    15.7622    25.8360 </r>
       <r>    -6.9699    15.5002    26.6014 </r>
       <r>    -6.9205    13.9779    27.2915 </r>
       <r>    -6.8711    11.7533    27.8719 </r>
       <r>    -6.8217     9.8864    28.3600 </r>
       <r>    -6.7724     9.3196    28.8202 </r>
       <r>    -6.7230    10.3492    29.3312 </r>
       <r>    -6.6736    12.5109    29.9489 </r>
       <r>    -6.6242    14.8830    30.6838 </r>
       <r>    -6.5749    16.5618    31.5016 </r>
       <r>    -6.5255    17.0410    32.3430 </r>
       <r>    -6.4761    16.3626    33.1509 </r>
       <r>    -6.4267    15.0678    33.8949 </r>
       <r>    -6.3774    13.9926    34.5858 </r>
       <r>    -6.3280    13.9094    35.2726 </r>
       <r>    -6.2786    15.0848    36.0174 </r>
       <r>    -6.2292    17.0196    36.8578 </r>
       <r>    -6.1799    18.6580    37.7790 </r>
       <r>    -6.1305    19.0148    38.7179 </r>
       <r>    -6.0811    17.7574    39.5947 </r>
       <r>    -6.0317    15.2753    40.3489 </r>
       <r>    -5.9824    12.2507    40.9538 </r>
       <r>    -5.9330     9.1926    41.4077 </r>
       <r>    -5.8836     6.3320    41.7204 </r>
       <r>    -5.8342     3.8299    41.9095 </r>
       <r>    -5.7848     1.9545    42.0060 </r>
       <r>    -5.7355     1.0095    42.0558 </r>
       <r>    -5.6861     1.0987    42.1101 </r>
       <r>    -5.6367     1.9741    42.2075 </r>
       <r>    -5.5873     3.1259    42.3619 </r>
       <r>    -5.5380     4.0668    42.5627 </r>
       <r>    -5.4886     4.5911    42.7894 </r>
       <r>    -5.4392     4.7890    43.0258 </r>
       <r>    -5.3898     4.8174    43.2637 </r>
       <r>    -5.3405     4.6717    43.4944 </r>
       <r>    -5.2911     4.1988    43.7017 </r>
       <r>    -5.2417     3.3142    43.8653 </r>
       <r>    -5.1923     2.1643    43.9722 </r>
       <r>    -5.1430     1.0601    44.0246 </r>
       <r>    -5.0936     0.2683    44.0378 </r>
       <r>    -5.0442    -0.1333    44.0312 </r>
       <r>    -4.9948    -0.2370    44.0195 </r>
       <r>    -4.9455    -0.1927    44.0100 </r>
       <r>    -4.8961    -0.1147    44.0043 </r>
       <r>    -4.8467    -0.0551    44.0016 </r>
       <r>    -4.7973    -0.0221    44.0005 </r>
       <r>    -4.7479    -0.0076    44.0001 </r>
       <r>    -4.6986    -0.0022    44.0000 </r>
       <r>    -4.6492    -0.0006    44.0000 </r>
       <r>    -4.5998    -0.0002    44.0000 </r>
       <r>    -4.5504    -0.0002    44.0000 </r>
       <r>    -4.5011    -0.0009    43.9999 </r>
       <r>    -4.4517    -0.0034    43.9998 </r>
       <r>    -4.4023    -0.0109    43.9992 </r>
       <r>    -4.3529    -0.0304    43.9977 </r>
       <r>    -4.3036    -0.0715    43.9942 </r>
       <r>    -4.2542    -0.1396    43.9873 </r>
       <r>    -4.2048    -0.2157    43.9767 </r>
       <r>    -4.1554    -0.2297    43.9653 </r>
       <r>    -4.1061    -0.0529    43.9627 </r>
       <r>    -4.0567     0.4507    43.9850 </r>
       <r>    -4.0073     1.3168    44.0500 </r>
       <r>    -3.9579     2.3942    44.1682 </r>
       <r>    -3.9086     3.4043    44.3363 </r>
       <r>    -3.8592     4.1571    44.5416 </r>
       <r>    -3.8098     4.7417    44.7757 </r>
       <r>    -3.7604     5.4496    45.0448 </r>
       <r>    -3.7110     6.4341    45.3625 </r>
       <r>    -3.6617     7.4374    45.7297 </r>
       <r>    -3.6123     7.9233    46.1209 </r>
       <r>    -3.5629     7.5467    46.4935 </r>
       <r>    -3.5135     6.4993    46.8144 </r>
       <r>    -3.4642     5.3621    47.0792 </r>
       <r>    -3.4148     4.6040    47.3065 </r>
       <r>    -3.3654     4.2233    47.5151 </r>
       <r>    -3.3160     3.8519    47.7052 </r>
       <r>    -3.2667     3.1613    47.8613 </r>
       <r>    -3.2173     2.1521    47.9676 </r>
       <r>    -3.1679     1.1025    48.0220 </r>
       <r>    -3.1185     0.3085    48.0373 </r>
       <r>    -3.0692    -0.1134    48.0317 </r>
       <r>    -3.0198    -0.2334    48.0201 </r>
       <r>    -2.9704    -0.1962    48.0105 </r>
       <r>    -2.9210    -0.1190    48.0046 </r>
       <r>    -2.8717    -0.0580    48.0017 </r>
       <r>    -2.8223    -0.0236    48.0006 </r>
       <r>    -2.7729    -0.0082    48.0002 </r>
       <r>    -2.7235    -0.0027    48.0000 </r>
       <r>    -2.6741    -0.0019    47.9999 </r>
       <r>    -2.6248    -0.0047    47.9997 </r>
       <r>    -2.5754    -0.0144    47.9990 </r>
       <r>    -2.5260    -0.0392    47.9970 </r>
       <r>    -2.4766    -0.0910    47.9926 </r>
       <r>    -2.4273    -0.1763    47.9838 </r>
       <r>    -2.3779    -0.2730    47.9704 </r>
       <r>    -2.3285    -0.2981    47.9556 </r>
       <r>    -2.2791    -0.0921    47.9511 </r>
       <r>    -2.2298     0.5402    47.9778 </r>
       <r>    -2.1804     1.7192    48.0627 </r>
       <r>    -2.1310     3.3608    48.2286 </r>
       <r>    -2.0816     5.1266    48.4817 </r>
       <r>    -2.0323     6.5189    48.8036 </r>
       <r>    -1.9829     7.0882    49.1536 </r>
       <r>    -1.9335     6.6402    49.4815 </r>
       <r>    -1.8841     5.3266    49.7445 </r>
       <r>    -1.8348     3.5719    49.9208 </r>
       <r>    -1.7854     1.8740    50.0134 </r>
       <r>    -1.7360     0.5896    50.0425 </r>
       <r>    -1.6866    -0.1715    50.0340 </r>
       <r>    -1.6373    -0.4931    50.0097 </r>
       <r>    -1.5879    -0.4983    49.9851 </r>
       <r>    -1.5385    -0.2195    49.9742 </r>
       <r>    -1.4891     0.4061    49.9943 </r>
       <r>    -1.4397     1.4072    50.0638 </r>
       <r>    -1.3904     2.6185    50.1931 </r>
       <r>    -1.3410     3.6478    50.3732 </r>
       <r>    -1.2916     4.0560    50.5734 </r>
       <r>    -1.2422     3.6498    50.7537 </r>
       <r>    -1.1929     2.6611    50.8850 </r>
       <r>    -1.1435     1.6517    50.9666 </r>
       <r>    -1.0941     1.1958    51.0256 </r>
       <r>    -1.0447     1.5482    51.1021 </r>
       <r>    -0.9954     2.4946    51.2253 </r>
       <r>    -0.9460     3.4709    51.3966 </r>
       <r>    -0.8966     3.8905    51.5887 </r>
       <r>    -0.8472     3.4972    51.7614 </r>
       <r>    -0.7979     2.5226    51.8860 </r>
       <r>    -0.7485     1.5424    51.9621 </r>
       <r>    -0.6991     1.1344    52.0181 </r>
       <r>    -0.6497     1.5642    52.0954 </r>
       <r>    -0.6004     2.6805    52.2277 </r>
       <r>    -0.5510     4.0466    52.4275 </r>
       <r>    -0.5016     5.1906    52.6838 </r>
       <r>    -0.4522     5.8111    52.9708 </r>
       <r>    -0.4028     5.8465    53.2594 </r>
       <r>    -0.3535     5.4437    53.5282 </r>
       <r>    -0.3041     4.8920    53.7698 </r>
       <r>    -0.2547     4.5270    53.9933 </r>
       <r>    -0.2053     4.5850    54.2197 </r>
       <r>    -0.1560     5.0664    54.4698 </r>
       <r>    -0.1066     5.7200    54.7523 </r>
       <r>    -0.0572     6.1716    55.0570 </r>
       <r>    -0.0078     6.1044    55.3584 </r>
       <r>     0.0415     5.3914    55.6246 </r>
       <r>     0.0909     4.1437    55.8292 </r>
       <r>     0.1403     2.6655    55.9608 </r>
       <r>     0.1897     1.3208    56.0261 </r>
       <r>     0.2390     0.3696    56.0443 </r>
       <r>     0.2884    -0.1261    56.0381 </r>
       <r>     0.3378    -0.2718    56.0247 </r>
       <r>     0.3872    -0.2341    56.0131 </r>
       <r>     0.4365    -0.1459    56.0059 </r>
       <r>     0.4859    -0.0732    56.0023 </r>
       <r>     0.5353    -0.0307    56.0008 </r>
       <r>     0.5847    -0.0110    56.0002 </r>
       <r>     0.6341    -0.0034    56.0001 </r>
       <r>     0.6834    -0.0009    56.0000 </r>
       <r>     0.7328    -0.0002    56.0000 </r>
       <r>     0.7822    -0.0000    56.0000 </r>
       <r>     0.8316    -0.0000    56.0000 </r>
       <r>     0.8809    -0.0000    56.0000 </r>
       <r>     0.9303    -0.0000    56.0000 </r>
       <r>     0.9797    -0.0000    56.0000 </r>
       <r>     1.0291    -0.0000    56.0000 </r>
       <r>     1.0784    -0.0000    56.0000 </r>
       <r>     1.1278    -0.0000    56.0000 </r>
       <r>     1.1772    -0.0000    56.0000 </r>
       <r>     1.2266    -0.0000    56.0000 </r>
       <r>     1.2759    -0.0000    56.0000 </r>
       <r>     1.3253     0.0000    56.0000 </r>
       <r>     1.3747     0.0000    56.0000 </r>
       <r>     1.4241     0.0000    56.0000 </r>
       <r>     1.4734     0.0000    56.0000 </r>
       <r>     1.5228     0.0000    56.0000 </r>
       <r>     1.5722     0.0000    56.0000 </r>
       <r>     1.6216     0.0000    56.0000 </r>
       <r>     1.6709     0.0000    56.0000 </r>
       <r>     1.7203     0.0000    56.0000 </r>
       <r>     1.7697     0.0000    56.0000 </r>
       <r>     1.8191     0.0000    56.0000 </r>
       <r>     1.8685     0.0000    56.0000 </r>
       <r>     1.9178     0.0000    56.0000 </r>
       <r>     1.9672     0.0000    56.0000 </r>
       <r>     2.0166     0.0000    56.0000 </r>
      </set>
     </set>
    </array>
   </total>
  </dos>
 </calculation>
 <structure name="finalpos" >
  <crystal>
   <varray name="basis" >
    <v>      22.38768045       0.00000000       0.00000000 </v>
    <v>       0.00000000      22.80516180       0.00000000 </v>
    <v>       0.00000000       0.00000000      22.27237433 </v>
   </varray>
   <i name="volume">  11371.26483766 </i>
   <varray name="rec_basis" >
    <v>       0.04466742       0.00000000       0.00000000 </v>
    <v>       0.00000000       0.04384972       0.00000000 </v>
    <v>       0.00000000       0.00000000       0.04489867 </v>
   </varray>
  </crystal>
  <varray name="positions" >
   <v>       0.56589498       0.45039000       0.49072353 </v>
   <v>       0.45765558       0.48678017       0.54758469 </v>
   <v>       0.46138216       0.48317913       0.41945091 </v>
   <v>       0.44721550       0.58843295       0.47274203 </v>
   <v>       0.55895977       0.55695520       0.43133065 </v>
   <v>       0.46337554       0.38448727       0.48986955 </v>
   <v>       0.46016593       0.59288992       0.59505288 </v>
   <v>       0.56757572       0.55072445       0.55477014 </v>
  </varray>
 </structure>
</modeling>
