unknown system                          
            1
    22.387680    0.000000    0.000000
     0.000000   22.805162    0.000000
     0.000000    0.000000   22.272374
   Au
     8
Direct configuration=     1
   0.56450748  0.45120673  0.48521689
   0.46354323  0.49224553  0.54180507
   0.46711299  0.48155668  0.41859692
   0.42144406  0.57698618  0.46991164
   0.53936412  0.56522574  0.46414242
   0.46730617  0.38993051  0.48647563
   0.48645325  0.60683751  0.56241762
   0.57249388  0.52985022  0.57295817
Direct configuration=     2
   0.56838901  0.45045525  0.48451601
   0.46122824  0.49114798  0.54463679
   0.46630646  0.48237832  0.41467340
   0.41800246  0.57861624  0.46792187
   0.54213430  0.56634414  0.46063755
   0.46522647  0.38605426  0.48778990
   0.48509886  0.60940174  0.56573563
   0.57583937  0.52944116  0.57561323
Direct configuration=     3
   0.56869263  0.45039647  0.48446119
   0.46104716  0.49106213  0.54485828
   0.46624337  0.48244259  0.41436650
   0.41773325  0.57874374  0.46776623
   0.54235099  0.56643162  0.46036339
   0.46506380  0.38575106  0.48789271
   0.48499292  0.60960232  0.56599517
   0.57610106  0.52940916  0.57582091
Direct configuration=     4
   0.56872549  0.45063807  0.48424435
   0.46097312  0.49110625  0.54496429
   0.46651279  0.48261760  0.41430828
   0.41782320  0.57890370  0.46760300
   0.54250449  0.56611172  0.46000522
   0.46484810  0.38607899  0.48838827
   0.48454869  0.60883615  0.56629158
   0.57628930  0.52954662  0.57571937
Direct configuration=     5
   0.56882407  0.45136286  0.48359382
   0.46075097  0.49123859  0.54528231
   0.46732104  0.48314266  0.41413364
   0.41809304  0.57938357  0.46711332
   0.54296501  0.56515202  0.45893072
   0.46420101  0.38706277  0.48987495
   0.48321601  0.60653764  0.56718083
   0.57685402  0.52995898  0.57541477
Direct configuration=     6
   0.56902125  0.45281244  0.48229277
   0.46030669  0.49150329  0.54591836
   0.46893755  0.48419276  0.41378435
   0.41863273  0.58034332  0.46613395
   0.54388603  0.56323261  0.45678172
   0.46290682  0.38903035  0.49284832
   0.48055063  0.60194063  0.56895933
   0.57798348  0.53078370  0.57480556
Direct configuration=     7
   0.56888300  0.45179606  0.48320501
   0.46061820  0.49131770  0.54547240
   0.46780413  0.48345648  0.41402926
   0.41825433  0.57967039  0.46682063
   0.54324025  0.56457840  0.45828850
   0.46381424  0.38765078  0.49076354
   0.48241946  0.60516383  0.56771233
   0.57719156  0.53020545  0.57523271
Direct configuration=     8
   0.56906894  0.45143772  0.48305965
   0.46037363  0.49114828  0.54572842
   0.46771753  0.48317913  0.41368672
   0.41856276  0.57998429  0.46634170
   0.54369797  0.56524511  0.45796067
   0.46352343  0.38816530  0.49147261
   0.48162934  0.60421259  0.56842746
   0.57765159  0.53046666  0.57484715
Direct configuration=     9
   0.56927957  0.45103183  0.48289500
   0.46009659  0.49095639  0.54601841
   0.46761943  0.48286498  0.41329872
   0.41891213  0.58033984  0.46579920
   0.54421644  0.56600029  0.45758934
   0.46319401  0.38874811  0.49227578
   0.48073435  0.60313511  0.56923749
   0.57817267  0.53076255  0.57441042
Direct configuration=    10
   0.56909239  0.45102583  0.48293641
   0.45991813  0.49094790  0.54626806
   0.46763202  0.48279963  0.41347115
   0.41988606  0.58038821  0.46512777
   0.54429868  0.56639193  0.45765110
   0.46296621  0.38868002  0.49259769
   0.47993512  0.60260787  0.57017215
   0.57849655  0.53099770  0.57330003
Direct configuration=    11
   0.56853088  0.45100784  0.48306062
   0.45938277  0.49092245  0.54701700
   0.46766979  0.48260357  0.41398845
   0.42280788  0.58053329  0.46311347
   0.54454539  0.56756687  0.45783639
   0.46228281  0.38847575  0.49356344
   0.47753745  0.60102617  0.57297615
   0.57946821  0.53170316  0.56996886
Direct configuration=    12
   0.56785760  0.45069908  0.48286700
   0.45914789  0.49033127  0.54707476
   0.46789975  0.48201576  0.41442013
   0.42397616  0.58125447  0.46259290
   0.54466477  0.56769574  0.45767715
   0.46220873  0.38816496  0.49352648
   0.47658068  0.60103850  0.57440736
   0.57988959  0.53263931  0.56895860
Direct configuration=    13
   0.56775019  0.45064982  0.48283611
   0.45911042  0.49023696  0.54708398
   0.46793644  0.48192198  0.41448900
   0.42416255  0.58136953  0.46250984
   0.54468382  0.56771630  0.45765174
   0.46219692  0.38811537  0.49352058
   0.47642804  0.60104047  0.57463570
   0.57995681  0.53278866  0.56879742
Direct configuration=    14
   0.56750409  0.45043168  0.48288656
   0.45922150  0.49047959  0.54704005
   0.46787321  0.48162607  0.41467983
   0.42448531  0.58206321  0.46281728
   0.54488984  0.56742183  0.45719342
   0.46223964  0.38742187  0.49310371
   0.47613063  0.60079823  0.57497321
   0.57988096  0.53359662  0.56883031
Direct configuration=    15
   0.56718941  0.45015275  0.48295107
   0.45936352  0.49078984  0.54698388
   0.46779237  0.48124769  0.41492385
   0.42489802  0.58295019  0.46321039
   0.54515328  0.56704530  0.45660738
   0.46229426  0.38653514  0.49257067
   0.47575035  0.60048849  0.57540477
   0.57978397  0.53462970  0.56887236
Direct configuration=    16
   0.56707371  0.45010429  0.48311160
   0.45945206  0.49066182  0.54679322
   0.46766603  0.48119402  0.41508758
   0.42509042  0.58325457  0.46336287
   0.54528333  0.56683567  0.45630736
   0.46233517  0.38631464  0.49239347
   0.47560262  0.60046410  0.57561820
   0.57972184  0.53500999  0.56885007
Direct configuration=    17
   0.56672661  0.44995890  0.48359318
   0.45971768  0.49027777  0.54622123
   0.46728702  0.48103298  0.41557879
   0.42566763  0.58416772  0.46382030
   0.54567347  0.56620676  0.45540732
   0.46245789  0.38565317  0.49186187
   0.47515944  0.60039093  0.57625850
   0.57953543  0.53615085  0.56878318
Direct configuration=    18
   0.56603240  0.44966812  0.48455636
   0.46024891  0.48950967  0.54507725
   0.46652900  0.48071092  0.41656120
   0.42682205  0.58599403  0.46473517
   0.54645376  0.56494895  0.45360722
   0.46270333  0.38433022  0.49079866
   0.47427309  0.60024459  0.57753909
   0.57916262  0.53843258  0.56864941
Direct configuration=    19
   0.56613530  0.44976241  0.48552117
   0.46052493  0.48920617  0.54452336
   0.46570043  0.48109901  0.41691072
   0.42753588  0.58627236  0.46493907
   0.54688366  0.56446650  0.45272568
   0.46278940  0.38406178  0.49053832
   0.47375368  0.59996192  0.57817617
   0.57890190  0.53900895  0.56818989
Direct configuration=    20
   0.56644400  0.45004529  0.48841558
   0.46135298  0.48829564  0.54286167
   0.46321471  0.48226328  0.41795925
   0.42967738  0.58710734  0.46555076
   0.54817336  0.56301915  0.45008106
   0.46304758  0.38325647  0.48975729
   0.47219545  0.59911388  0.58008741
   0.57811971  0.54073804  0.56681135
Direct configuration=    21
   0.56700701  0.44970503  0.48959193
   0.46127770  0.48880997  0.54323454
   0.46187427  0.48254167  0.41784668
   0.43063686  0.58736895  0.46570957
   0.54909344  0.56259277  0.44853474
   0.46336453  0.38325193  0.48931757
   0.47114984  0.59817477  0.58117985
   0.57782153  0.54139400  0.56610948
Direct configuration=    22
   0.56728289  0.44953831  0.49016833
   0.46124082  0.48906199  0.54341725
   0.46121746  0.48267808  0.41779153
   0.43110701  0.58749713  0.46578738
   0.54954427  0.56238385  0.44777705
   0.46351983  0.38324971  0.48910211
   0.47063749  0.59771460  0.58171515
   0.57767541  0.54171542  0.56576557
Direct configuration=    23
   0.56783464  0.44920486  0.49132115
   0.46116705  0.48956603  0.54378266
   0.45990383  0.48295090  0.41768121
   0.43204730  0.58775351  0.46594301
   0.55044595  0.56196600  0.44626165
   0.46383043  0.38324526  0.48867119
   0.46961279  0.59679427  0.58278574
   0.57738319  0.54235827  0.56507774
Direct configuration=    24
   0.56755550  0.44937356  0.49073792
   0.46120437  0.48931103  0.54359779
   0.46056842  0.48281287  0.41773702
   0.43157159  0.58762380  0.46586428
   0.54998977  0.56217740  0.44702832
   0.46367329  0.38324751  0.48888920
   0.47013120  0.59725989  0.58224411
   0.57753103  0.54203304  0.56542573
Direct configuration=    25
   0.56770895  0.44892665  0.49150067
   0.46085002  0.48902259  0.54400866
   0.45964377  0.48273369  0.41775599
   0.43277073  0.58793004  0.46592172
   0.55087472  0.56114281  0.44526718
   0.46439128  0.38451049  0.48849039
   0.46871005  0.59677531  0.58410068
   0.57727566  0.54279752  0.56447907
Direct configuration=    26
   0.56776527  0.44876265  0.49178057
   0.46071998  0.48891675  0.54415943
   0.45930446  0.48270463  0.41776295
   0.43321077  0.58804242  0.46594281
   0.55119946  0.56076316  0.44462092
   0.46465475  0.38497395  0.48834404
   0.46818854  0.59659749  0.58478196
   0.57718195  0.54307805  0.56413169
Direct configuration=    27
   0.56787789  0.44843465  0.49234037
   0.46045991  0.48870506  0.54446098
   0.45862585  0.48264651  0.41777687
   0.43409084  0.58826718  0.46598497
   0.55184894  0.56000385  0.44332838
   0.46518170  0.38590088  0.48805135
   0.46714552  0.59624184  0.58614454
   0.57699452  0.54363911  0.56343692
Direct configuration=    28
   0.56781352  0.44862213  0.49202039
   0.46060857  0.48882606  0.54428862
   0.45901374  0.48267973  0.41776891
   0.43358780  0.58813871  0.46596087
   0.55147770  0.56043787  0.44406719
   0.46488050  0.38537105  0.48821865
   0.46774171  0.59644513  0.58536569
   0.57710165  0.54331841  0.56383405
Direct configuration=    29
   0.56796973  0.44890834  0.49212968
   0.46033826  0.48898040  0.54476757
   0.45896414  0.48302543  0.41774435
   0.43505775  0.58819936  0.46642876
   0.55172382  0.55887420  0.44297944
   0.46515757  0.38576054  0.48801711
   0.46669228  0.59601773  0.58670347
   0.57632163  0.54407309  0.56275399
Direct configuration=    30
   0.56810404  0.44915442  0.49222364
   0.46010587  0.48911309  0.54517936
   0.45892149  0.48332265  0.41772323
   0.43632158  0.58825151  0.46683103
   0.55193542  0.55752980  0.44204423
   0.46539578  0.38609541  0.48784382
   0.46579001  0.59565027  0.58785365
   0.57565099  0.54472194  0.56182540
Direct configuration=    31
   0.56852419  0.44898949  0.49216248
   0.45987114  0.48885889  0.54538307
   0.45877033  0.48332162  0.41730514
   0.43790313  0.58871446  0.46805437
   0.55270135  0.55642362  0.44035859
   0.46529956  0.38591025  0.48787795
   0.46478986  0.59554177  0.58927900
   0.57436562  0.54607901  0.56110378
Direct configuration=    32
   0.56887189  0.44885300  0.49211187
   0.45967689  0.48864851  0.54555166
   0.45864523  0.48332076  0.41695913
   0.43921198  0.58909759  0.46906677
   0.55333522  0.55550816  0.43896359
   0.46521993  0.38575701  0.48790618
   0.46396216  0.59545197  0.59045858
   0.57330188  0.54720208  0.56050658
Direct configuration=    33
   0.56876234  0.44880893  0.49254988
   0.46000768  0.48833898  0.54490502
   0.45829206  0.48333840  0.41723705
   0.44059574  0.58886258  0.47023925
   0.55434503  0.55558769  0.43747829
   0.46504343  0.38578398  0.48815028
   0.46339139  0.59527069  0.59124590
   0.57178751  0.54784785  0.55971869
Direct configuration=    34
   0.56871772  0.44879099  0.49272828
   0.46014241  0.48821291  0.54464165
   0.45814822  0.48334558  0.41735025
   0.44115934  0.58876685  0.47071679
   0.55475632  0.55562008  0.43687334
   0.46497154  0.38579497  0.48824970
   0.46315891  0.59519686  0.59156656
   0.57117072  0.54811086  0.55939779
Direct configuration=    35
   0.56863604  0.44914409  0.49268927
   0.46001970  0.48888012  0.54515280
   0.45836086  0.48362418  0.41749824
   0.44155058  0.58850765  0.47059857
   0.55493016  0.55562261  0.43662145
   0.46482912  0.38514281  0.48815383
   0.46286538  0.59491390  0.59189080
   0.57103335  0.54800374  0.55891941
Direct configuration=    36
   0.56866848  0.44900386  0.49270477
   0.46006843  0.48861514  0.54494981
   0.45827641  0.48351354  0.41743947
   0.44139520  0.58861059  0.47064552
   0.55486112  0.55562160  0.43672148
   0.46488568  0.38540181  0.48819191
   0.46298195  0.59502627  0.59176203
   0.57108791  0.54804628  0.55910939
Direct configuration=    37
   0.56830358  0.44913729  0.49256716
   0.45987272  0.48848620  0.54518109
   0.45856443  0.48346675  0.41773589
   0.44178221  0.58855022  0.47054003
   0.55520265  0.55575138  0.43628271
   0.46484605  0.38533191  0.48821873
   0.46262585  0.59500093  0.59230285
   0.57102769  0.54811441  0.55869591
Direct configuration=    38
   0.56726632  0.44951659  0.49217599
   0.45931641  0.48811966  0.54583852
   0.45938312  0.48333375  0.41857847
   0.44288230  0.58837861  0.47024018
   0.55617345  0.55612028  0.43503548
   0.46473341  0.38513322  0.48829496
   0.46161363  0.59492888  0.59384018
   0.57085653  0.54830809  0.55752059
Direct configuration=    39
   0.56775394  0.44933828  0.49235988
   0.45957794  0.48829197  0.54552946
   0.45899825  0.48339627  0.41818236
   0.44236514  0.58845929  0.47038114
   0.55571707  0.55594686  0.43562181
   0.46478636  0.38522663  0.48825912
   0.46208949  0.59496275  0.59311747
   0.57093699  0.54821704  0.55807312
Direct configuration=    40
   0.56761914  0.44935748  0.49227769
   0.45949196  0.48826703  0.54564323
   0.45911788  0.48334292  0.41827251
   0.44253978  0.58846905  0.47043560
   0.55587163  0.55601491  0.43542691
   0.46475560  0.38520470  0.48829166
   0.46198686  0.59487512  0.59323451
   0.57084234  0.54830788  0.55794226
Direct configuration=    41
   0.56732824  0.44939891  0.49210035
   0.45930642  0.48821321  0.54588874
   0.45937603  0.48322778  0.41846703
   0.44291663  0.58849012  0.47055311
   0.55620514  0.55616176  0.43500633
   0.46468921  0.38515738  0.48836186
   0.46176542  0.59468604  0.59348707
   0.57063808  0.54850390  0.55765988
Direct configuration=    42
   0.56674645  0.44948178  0.49174565
   0.45893535  0.48810556  0.54637977
   0.45989235  0.48299752  0.41885608
   0.44367033  0.58853225  0.47078814
   0.55687218  0.55645547  0.43416517
   0.46455643  0.38506273  0.48850226
   0.46132253  0.59430786  0.59399219
   0.57022956  0.54889594  0.55709511
Direct configuration=    43
   0.56558285  0.44964750  0.49103626
   0.45819321  0.48789026  0.54736181
   0.46092497  0.48253698  0.41963418
   0.44517774  0.58861651  0.47125821
   0.55820626  0.55704287  0.43248284
   0.46429087  0.38487344  0.48878307
   0.46043675  0.59355150  0.59500243
   0.56941253  0.54968003  0.55596557
Direct configuration=    44
   0.56597740  0.44959131  0.49127680
   0.45844486  0.48796326  0.54702882
   0.46057483  0.48269314  0.41937034
   0.44466661  0.58858794  0.47109882
   0.55775390  0.55684370  0.43305328
   0.46438091  0.38493763  0.48868785
   0.46073710  0.59380797  0.59465988
   0.56968956  0.54941416  0.55634857
Direct configuration=    45
   0.56579626  0.44984454  0.49103630
   0.45820194  0.48774530  0.54726960
   0.46093720  0.48277393  0.41951069
   0.44537256  0.58855129  0.47151782
   0.55812915  0.55694359  0.43255118
   0.46409469  0.38473764  0.48899020
   0.46056505  0.59347218  0.59475728
   0.56912834  0.54977063  0.55589131
Direct configuration=    46
   0.56525282  0.45060424  0.49031479
   0.45747319  0.48709142  0.54799192
   0.46202433  0.48301630  0.41993172
   0.44749041  0.58844135  0.47277481
   0.55925487  0.55724329  0.43104487
   0.46323601  0.38413767  0.48989726
   0.46004889  0.59246480  0.59504948
   0.56744466  0.55084003  0.55451952
Direct configuration=    47
   0.56546751  0.45030412  0.49059982
   0.45776109  0.48734974  0.54770656
   0.46159485  0.48292055  0.41976539
   0.44665374  0.58848478  0.47227822
   0.55881014  0.55712489  0.43163995
   0.46357524  0.38437469  0.48953892
   0.46025280  0.59286277  0.59493404
   0.56810981  0.55041755  0.55506146
Direct configuration=    48
   0.56564185  0.45040730  0.49063010
   0.45767442  0.48673605  0.54753260
   0.46155136  0.48307509  0.41965013
   0.44702883  0.58846284  0.47253443
   0.55892590  0.55707302  0.43144240
   0.46340880  0.38448786  0.48982447
   0.46019192  0.59298011  0.59506707
   0.56780210  0.55061682  0.55484317
Direct configuration=    49
   0.56571967  0.45045335  0.49064361
   0.45763573  0.48646212  0.54745495
   0.46153195  0.48314408  0.41959868
   0.44719626  0.58845305  0.47264878
   0.55897757  0.55704987  0.43135423
   0.46333451  0.38453838  0.48995192
   0.46016474  0.59303248  0.59512645
   0.56766474  0.55070576  0.55474574
Direct configuration=    50
   0.56593010  0.45037730  0.49073954
   0.45765956  0.48684388  0.54761068
   0.46135216  0.48318615  0.41942131
   0.44721935  0.58842892  0.47276071
   0.55895621  0.55693623  0.43132593
   0.46338376  0.38447704  0.48985304
   0.46016617  0.59286137  0.59503815
   0.56755788  0.55072820  0.55477502
Direct configuration=    51
   0.56589498  0.45039000  0.49072353
   0.45765558  0.48678017  0.54758469
   0.46138216  0.48317913  0.41945091
   0.44721550  0.58843295  0.47274203
   0.55895977  0.55695520  0.43133065
   0.46337554  0.38448727  0.48986955
   0.46016593  0.59288992  0.59505288
   0.56757572  0.55072445  0.55477014
