   8   8   0   0
  0.1505222E+04  0.2278637E-08  0.2322127E-08  0.2275776E-08  0.5000000E-15
   1.0000000000000000E-004
  CAR 
 unknown system                          
      1.88192393    -12.92658266  301     -4.99268736      1.00000000
    -12.927  0.0000E+00  0.0000E+00  0.0000E+00  0.0000E+00
    -12.877  0.0000E+00  0.0000E+00  0.0000E+00  0.0000E+00
    -12.828  0.0000E+00  0.0000E+00  0.0000E+00  0.0000E+00
    -12.778  0.0000E+00  0.0000E+00  0.0000E+00  0.0000E+00
    -12.729  0.0000E+00  0.0000E+00  0.0000E+00  0.0000E+00
    -12.680  0.0000E+00  0.0000E+00  0.0000E+00  0.0000E+00
    -12.630  0.0000E+00  0.0000E+00  0.0000E+00  0.0000E+00
    -12.581  0.0000E+00  0.0000E+00  0.0000E+00  0.0000E+00
    -12.532 -0.4886E-29  0.0000E+00 -0.2412E-30  0.0000E+00
    -12.482 -0.2292E-27 -0.1008E-29 -0.1156E-28 -0.4973E-31
    -12.433 -0.9685E-26 -0.4969E-28 -0.4896E-27 -0.2503E-29
    -12.384 -0.3618E-24 -0.2206E-26 -0.1835E-25 -0.1114E-27
    -12.334 -0.1195E-22 -0.8655E-25 -0.6080E-24 -0.4384E-26
    -12.285 -0.3486E-21 -0.3002E-23 -0.1782E-22 -0.1526E-24
    -12.236 -0.8989E-20 -0.9204E-22 -0.4615E-21 -0.4696E-23
    -12.186 -0.2048E-18 -0.2493E-20 -0.1057E-19 -0.1278E-21
    -12.137 -0.4121E-17 -0.5968E-19 -0.2140E-18 -0.3074E-20
    -12.087 -0.7098E-16 -0.1262E-17 -0.3717E-17 -0.6537E-19
    -12.038 -0.1112E-14 -0.2244E-16 -0.5859E-16 -0.1173E-17
    -11.989 -0.1535E-13 -0.3773E-15 -0.8162E-15 -0.1980E-16
    -11.939 -0.1868E-12 -0.5464E-14 -0.1004E-13 -0.2895E-15
    -11.890 -0.2004E-11 -0.6993E-13 -0.1089E-12 -0.3742E-14
    -11.841 -0.1893E-10 -0.7890E-12 -0.1043E-11 -0.4269E-13
    -11.791 -0.1574E-09 -0.7843E-11 -0.8814E-11 -0.4298E-12
    -11.742 -0.1151E-08 -0.6864E-10 -0.6563E-10 -0.3818E-11
    -11.693 -0.7392E-08 -0.5284E-09 -0.4305E-09 -0.2990E-10
    -11.643 -0.4162E-07 -0.3574E-08 -0.2485E-08 -0.2063E-09
    -11.594 -0.2051E-06 -0.2121E-07 -0.1261E-07 -0.1253E-08
    -11.544 -0.8825E-06 -0.1103E-06 -0.5617E-07 -0.6698E-08
    -11.495 -0.3302E-05 -0.5011E-06 -0.2192E-06 -0.3143E-07
    -11.446 -0.1069E-04 -0.1984E-05 -0.7470E-06 -0.1293E-06
    -11.396 -0.2972E-04 -0.6810E-05 -0.2214E-05 -0.4655E-06
    -11.347 -0.6999E-04 -0.2014E-04 -0.5669E-05 -0.1460E-05
    -11.298 -0.1363E-03 -0.5078E-04 -0.1240E-04 -0.3966E-05
    -11.248 -0.2082E-03 -0.1071E-03 -0.2267E-04 -0.9254E-05
    -11.199 -0.2108E-03 -0.1821E-03 -0.3308E-04 -0.1824E-04
    -11.150 -0.4728E-05 -0.2257E-03 -0.3331E-04 -0.2938E-04
    -11.100  0.5639E-03 -0.1227E-03 -0.5475E-05 -0.3544E-04
    -11.051  0.1542E-02  0.2863E-03  0.7067E-04 -0.2131E-04
    -11.001  0.2749E-02  0.1108E-02  0.2064E-03  0.3340E-04
    -10.952  0.3779E-02  0.2263E-02  0.3929E-03  0.1451E-03
    -10.903  0.4195E-02  0.3420E-02  0.6000E-03  0.3139E-03
    -10.853  0.3804E-02  0.4123E-02  0.7878E-03  0.5174E-03
    -10.804  0.2783E-02  0.4053E-02  0.9251E-03  0.7175E-03
    -10.755  0.1560E-02  0.3241E-02  0.1002E-02  0.8775E-03
    -10.705  0.5359E-03  0.2042E-02  0.1029E-02  0.9783E-03
    -10.656 -0.1061E-03  0.9018E-03  0.1023E-02  0.1023E-02
    -10.607 -0.3973E-03  0.1003E-03  0.1004E-02  0.1028E-02
    -10.557 -0.4345E-03 -0.3196E-03  0.9823E-03  0.1012E-02
    -10.508 -0.2371E-03 -0.4474E-03  0.9706E-03  0.9899E-03
    -10.458  0.2774E-03 -0.3414E-03  0.9843E-03  0.9730E-03
    -10.409  0.1181E-02  0.4817E-04  0.1043E-02  0.9754E-03
    -10.360  0.2370E-02  0.8137E-03  0.1160E-02  0.1016E-02
    -10.310  0.3501E-02  0.1930E-02  0.1332E-02  0.1111E-02
    -10.261  0.4115E-02  0.3134E-02  0.1536E-02  0.1266E-02
    -10.212  0.3918E-02  0.3982E-02  0.1729E-02  0.1462E-02
    -10.162  0.2980E-02  0.4089E-02  0.1876E-02  0.1664E-02
    -10.113  0.1716E-02  0.3383E-02  0.1961E-02  0.1831E-02
    -10.064  0.6634E-03  0.2173E-02  0.1993E-02  0.1938E-02
    -10.014  0.2390E-03  0.9807E-03  0.2005E-02  0.1987E-02
     -9.965  0.6008E-03  0.2835E-03  0.2035E-02  0.2001E-02
     -9.916  0.1608E-02  0.3417E-03  0.2114E-02  0.2017E-02
     -9.866  0.2851E-02  0.1129E-02  0.2255E-02  0.2073E-02
     -9.817  0.3779E-02  0.2338E-02  0.2442E-02  0.2189E-02
     -9.767  0.3944E-02  0.3453E-02  0.2636E-02  0.2359E-02
     -9.718  0.3254E-02  0.3954E-02  0.2797E-02  0.2554E-02
     -9.669  0.2065E-02  0.3594E-02  0.2899E-02  0.2732E-02
     -9.619  0.1033E-02  0.2573E-02  0.2950E-02  0.2859E-02
     -9.570  0.8056E-03  0.1489E-02  0.2990E-02  0.2932E-02
     -9.521  0.1724E-02  0.1042E-02  0.3075E-02  0.2984E-02
     -9.471  0.3620E-02  0.1687E-02  0.3253E-02  0.3067E-02
     -9.422  0.5812E-02  0.3372E-02  0.3540E-02  0.3233E-02
     -9.373  0.7376E-02  0.5493E-02  0.3904E-02  0.3504E-02
     -9.323  0.7636E-02  0.7141E-02  0.4281E-02  0.3857E-02
     -9.274  0.6595E-02  0.7575E-02  0.4607E-02  0.4231E-02
     -9.224  0.4963E-02  0.6670E-02  0.4852E-02  0.4560E-02
     -9.175  0.3723E-02  0.5028E-02  0.5036E-02  0.4808E-02
     -9.126  0.3546E-02  0.3622E-02  0.5211E-02  0.4987E-02
     -9.076  0.4467E-02  0.3220E-02  0.5431E-02  0.5146E-02
     -9.027  0.6016E-02  0.3976E-02  0.5728E-02  0.5342E-02
     -8.978  0.7604E-02  0.5455E-02  0.6103E-02  0.5612E-02
     -8.928  0.8871E-02  0.7005E-02  0.6541E-02  0.5957E-02
     -8.879  0.9789E-02  0.8187E-02  0.7025E-02  0.6361E-02
     -8.830  0.1055E-01  0.8981E-02  0.7545E-02  0.6805E-02
     -8.780  0.1132E-01  0.9686E-02  0.8104E-02  0.7283E-02
     -8.731  0.1209E-01  0.1062E-01  0.8701E-02  0.7807E-02
     -8.681  0.1265E-01  0.1185E-01  0.9325E-02  0.8392E-02
     -8.632  0.1267E-01  0.1307E-01  0.9950E-02  0.9037E-02
     -8.583  0.1188E-01  0.1375E-01  0.1054E-01  0.9716E-02
     -8.533  0.1025E-01  0.1337E-01  0.1104E-01  0.1038E-01
     -8.484  0.8023E-02  0.1173E-01  0.1144E-01  0.1095E-01
     -8.435  0.5833E-02  0.9123E-02  0.1173E-01  0.1141E-01
     -8.385  0.4506E-02  0.6329E-02  0.1195E-01  0.1172E-01
     -8.336  0.4670E-02  0.4367E-02  0.1218E-01  0.1193E-01
     -8.287  0.6315E-02  0.4041E-02  0.1249E-01  0.1213E-01
     -8.237  0.8702E-02  0.5479E-02  0.1292E-01  0.1240E-01
     -8.188  0.1076E-01  0.7990E-02  0.1345E-01  0.1280E-01
     -8.138  0.1171E-01  0.1042E-01  0.1403E-01  0.1331E-01
     -8.089  0.1147E-01  0.1180E-01  0.1460E-01  0.1389E-01
     -8.040  0.1051E-01  0.1185E-01  0.1512E-01  0.1448E-01
     -7.990  0.9427E-02  0.1094E-01  0.1558E-01  0.1502E-01
     -7.941  0.8571E-02  0.9731E-02  0.1600E-01  0.1550E-01
     -7.892  0.8049E-02  0.8720E-02  0.1640E-01  0.1593E-01
     -7.842  0.7881E-02  0.8095E-02  0.1679E-01  0.1633E-01
     -7.793  0.8126E-02  0.7854E-02  0.1719E-01  0.1672E-01
     -7.744  0.8826E-02  0.7984E-02  0.1763E-01  0.1711E-01
     -7.694  0.9850E-02  0.8513E-02  0.1811E-01  0.1753E-01
     -7.645  0.1084E-01  0.9410E-02  0.1865E-01  0.1800E-01
     -7.596  0.1138E-01  0.1047E-01  0.1921E-01  0.1851E-01
     -7.546  0.1123E-01  0.1130E-01  0.1976E-01  0.1907E-01
     -7.497  0.1053E-01  0.1158E-01  0.2028E-01  0.1964E-01
     -7.447  0.9721E-02  0.1120E-01  0.2076E-01  0.2020E-01
     -7.398  0.9278E-02  0.1040E-01  0.2122E-01  0.2071E-01
     -7.349  0.9525E-02  0.9590E-02  0.2169E-01  0.2118E-01
     -7.299  0.1059E-01  0.9141E-02  0.2221E-01  0.2163E-01
     -7.250  0.1247E-01  0.9330E-02  0.2283E-01  0.2209E-01
     -7.201  0.1507E-01  0.1038E-01  0.2357E-01  0.2261E-01
     -7.151  0.1810E-01  0.1244E-01  0.2447E-01  0.2322E-01
     -7.102  0.2099E-01  0.1546E-01  0.2550E-01  0.2398E-01
     -7.053  0.2301E-01  0.1898E-01  0.2664E-01  0.2492E-01
     -7.003  0.2356E-01  0.2218E-01  0.2780E-01  0.2602E-01
     -6.954  0.2248E-01  0.2418E-01  0.2891E-01  0.2721E-01
     -6.904  0.2024E-01  0.2449E-01  0.2991E-01  0.2842E-01
     -6.855  0.1769E-01  0.2321E-01  0.3078E-01  0.2956E-01
     -6.806  0.1560E-01  0.2090E-01  0.3155E-01  0.3060E-01
     -6.756  0.1426E-01  0.1826E-01  0.3226E-01  0.3150E-01
     -6.707  0.1359E-01  0.1574E-01  0.3293E-01  0.3227E-01
     -6.658  0.1342E-01  0.1355E-01  0.3359E-01  0.3294E-01
     -6.608  0.1370E-01  0.1193E-01  0.3427E-01  0.3353E-01
     -6.559  0.1431E-01  0.1125E-01  0.3497E-01  0.3409E-01
     -6.510  0.1483E-01  0.1171E-01  0.3571E-01  0.3466E-01
     -6.460  0.1470E-01  0.1297E-01  0.3643E-01  0.3530E-01
     -6.411  0.1368E-01  0.1416E-01  0.3711E-01  0.3600E-01
     -6.361  0.1214E-01  0.1444E-01  0.3771E-01  0.3672E-01
     -6.312  0.1085E-01  0.1362E-01  0.3824E-01  0.3739E-01
     -6.263  0.1036E-01  0.1229E-01  0.3875E-01  0.3800E-01
     -6.213  0.1067E-01  0.1125E-01  0.3928E-01  0.3855E-01
     -6.164  0.1127E-01  0.1092E-01  0.3984E-01  0.3909E-01
     -6.115  0.1149E-01  0.1106E-01  0.4040E-01  0.3964E-01
     -6.065  0.1085E-01  0.1113E-01  0.4094E-01  0.4018E-01
     -6.016  0.9219E-02  0.1066E-01  0.4139E-01  0.4071E-01
     -5.967  0.6861E-02  0.9464E-02  0.4173E-01  0.4118E-01
     -5.917  0.4294E-02  0.7618E-02  0.4195E-01  0.4155E-01
     -5.868  0.2070E-02  0.5404E-02  0.4205E-01  0.4182E-01
     -5.818  0.5424E-03  0.3218E-02  0.4207E-01  0.4198E-01
     -5.769 -0.2445E-03  0.1439E-02  0.4206E-01  0.4205E-01
     -5.720 -0.4923E-03  0.2782E-03  0.4204E-01  0.4206E-01
     -5.670 -0.4813E-03 -0.2843E-03  0.4201E-01  0.4205E-01
     -5.621 -0.4257E-03 -0.4389E-03  0.4199E-01  0.4203E-01
     -5.572 -0.4069E-03 -0.4141E-03  0.4197E-01  0.4201E-01
     -5.522 -0.3698E-03 -0.3659E-03  0.4195E-01  0.4199E-01
     -5.473 -0.1539E-03 -0.3257E-03  0.4195E-01  0.4197E-01
     -5.424  0.4398E-03 -0.2033E-03  0.4197E-01  0.4196E-01
     -5.374  0.1550E-02  0.1608E-03  0.4205E-01  0.4197E-01
     -5.325  0.3167E-02  0.8874E-03  0.4220E-01  0.4202E-01
     -5.276  0.5108E-02  0.1927E-02  0.4245E-01  0.4211E-01
     -5.226  0.7057E-02  0.3013E-02  0.4280E-01  0.4226E-01
     -5.177  0.8634E-02  0.3798E-02  0.4323E-01  0.4245E-01
     -5.127  0.9445E-02  0.4119E-02  0.4369E-01  0.4265E-01
     -5.078  0.9195E-02  0.4166E-02  0.4415E-01  0.4286E-01
     -5.029  0.7841E-02  0.4361E-02  0.4454E-01  0.4307E-01
     -4.979  0.5707E-02  0.5000E-02  0.4482E-01  0.4332E-01
     -4.930  0.3380E-02  0.5976E-02  0.4498E-01  0.4361E-01
     -4.881  0.1446E-02  0.6809E-02  0.4506E-01  0.4395E-01
     -4.831  0.2180E-03  0.6961E-02  0.4507E-01  0.4429E-01
     -4.782 -0.3322E-03  0.6188E-02  0.4505E-01  0.4460E-01
     -4.733 -0.4436E-03  0.4670E-02  0.4503E-01  0.4483E-01
     -4.683 -0.3816E-03  0.2883E-02  0.4501E-01  0.4497E-01
     -4.634 -0.3174E-03  0.1326E-02  0.4499E-01  0.4504E-01
     -4.584 -0.2944E-03  0.2871E-03  0.4498E-01  0.4505E-01
     -4.535 -0.2389E-03 -0.2199E-03  0.4497E-01  0.4504E-01
     -4.486  0.6640E-05 -0.3651E-03  0.4497E-01  0.4502E-01
     -4.436  0.6083E-03 -0.3564E-03  0.4500E-01  0.4500E-01
     -4.387  0.1611E-02 -0.3292E-03  0.4508E-01  0.4499E-01
     -4.338  0.2820E-02 -0.2994E-03  0.4522E-01  0.4497E-01
     -4.288  0.3822E-02 -0.1654E-03  0.4541E-01  0.4497E-01
     -4.239  0.4186E-02  0.2413E-03  0.4561E-01  0.4498E-01
     -4.190  0.3733E-02  0.1045E-02  0.4580E-01  0.4503E-01
     -4.140  0.2657E-02  0.2182E-02  0.4593E-01  0.4514E-01
     -4.091  0.1389E-02  0.3334E-02  0.4600E-01  0.4530E-01
     -4.041  0.3455E-03  0.4034E-02  0.4601E-01  0.4550E-01
     -3.992 -0.2341E-03  0.3946E-02  0.4600E-01  0.4569E-01
     -3.943 -0.2711E-03  0.3099E-02  0.4599E-01  0.4585E-01
     -3.893  0.2376E-03  0.1914E-02  0.4600E-01  0.4594E-01
     -3.844  0.1228E-02  0.9832E-03  0.4606E-01  0.4599E-01
     -3.795  0.2487E-02  0.7656E-03  0.4618E-01  0.4603E-01
     -3.745  0.3617E-02  0.1367E-02  0.4636E-01  0.4610E-01
     -3.696  0.4172E-02  0.2494E-02  0.4657E-01  0.4622E-01
     -3.647  0.3915E-02  0.3585E-02  0.4676E-01  0.4640E-01
     -3.597  0.2975E-02  0.4096E-02  0.4691E-01  0.4660E-01
     -3.548  0.1761E-02  0.3779E-02  0.4699E-01  0.4678E-01
     -3.499  0.7006E-03  0.2803E-02  0.4703E-01  0.4692E-01
     -3.449  0.1618E-04  0.1605E-02  0.4703E-01  0.4700E-01
     -3.400 -0.3098E-03  0.6069E-03  0.4701E-01  0.4703E-01
     -3.350 -0.4101E-03  0.7965E-05  0.4699E-01  0.4703E-01
     -3.301 -0.3746E-03 -0.2328E-03  0.4698E-01  0.4702E-01
     -3.252 -0.1663E-03 -0.2756E-03  0.4697E-01  0.4701E-01
     -3.202  0.3453E-03 -0.2689E-03  0.4698E-01  0.4699E-01
     -3.153  0.1250E-02 -0.2749E-03  0.4705E-01  0.4698E-01
     -3.104  0.2440E-02 -0.2492E-03  0.4717E-01  0.4697E-01
     -3.054  0.3562E-02 -0.5434E-04  0.4734E-01  0.4697E-01
     -3.005  0.4165E-02  0.4765E-03  0.4755E-01  0.4699E-01
     -2.956  0.3976E-02  0.1416E-02  0.4774E-01  0.4706E-01
     -2.906  0.3083E-02  0.2616E-02  0.4790E-01  0.4719E-01
     -2.857  0.1879E-02  0.3689E-02  0.4799E-01  0.4737E-01
     -2.807  0.8049E-03  0.4189E-02  0.4803E-01  0.4758E-01
     -2.758  0.1156E-03  0.3886E-02  0.4803E-01  0.4777E-01
     -2.709 -0.1804E-03  0.2921E-02  0.4803E-01  0.4791E-01
     -2.659 -0.2210E-03  0.1711E-02  0.4802E-01  0.4800E-01
     -2.610 -0.1584E-03  0.6818E-03  0.4801E-01  0.4803E-01
     -2.561 -0.8667E-04  0.5229E-04  0.4800E-01  0.4803E-01
     -2.511 -0.3948E-04 -0.1977E-03  0.4800E-01  0.4802E-01
     -2.462 -0.1769E-04 -0.2155E-03  0.4800E-01  0.4801E-01
     -2.413 -0.1490E-04 -0.1477E-03  0.4800E-01  0.4801E-01
     -2.363 -0.2988E-04 -0.7925E-04  0.4800E-01  0.4800E-01
     -2.314 -0.6809E-04 -0.3831E-04  0.4799E-01  0.4800E-01
     -2.264 -0.1332E-03 -0.2601E-04  0.4799E-01  0.4800E-01
     -2.215 -0.2058E-03 -0.4017E-04  0.4798E-01  0.4800E-01
     -2.166 -0.2137E-03 -0.8319E-04  0.4797E-01  0.4799E-01
     -2.116 -0.1976E-04 -0.1530E-03  0.4797E-01  0.4799E-01
     -2.067  0.5311E-03 -0.2184E-03  0.4799E-01  0.4797E-01
     -2.018  0.1492E-02 -0.1899E-03  0.4807E-01  0.4797E-01
     -1.968  0.2690E-02  0.8206E-04  0.4820E-01  0.4797E-01
     -1.919  0.3716E-02  0.7403E-03  0.4838E-01  0.4801E-01
     -1.870  0.4117E-02  0.1790E-02  0.4859E-01  0.4809E-01
     -1.820  0.3665E-02  0.2992E-02  0.4877E-01  0.4824E-01
     -1.771  0.2527E-02  0.3906E-02  0.4889E-01  0.4843E-01
     -1.721  0.1187E-02  0.4113E-02  0.4895E-01  0.4864E-01
     -1.672  0.2345E-03  0.3482E-02  0.4896E-01  0.4881E-01
     -1.623  0.1454E-03  0.2264E-02  0.4897E-01  0.4892E-01
     -1.573  0.1149E-02  0.9581E-03  0.4903E-01  0.4897E-01
     -1.524  0.3124E-02  0.7333E-04  0.4918E-01  0.4897E-01
     -1.475  0.5559E-02 -0.2675E-04  0.4945E-01  0.4897E-01
     -1.425  0.7708E-02  0.8159E-03  0.4983E-01  0.4901E-01
     -1.376  0.8944E-02  0.2520E-02  0.5028E-01  0.4914E-01
     -1.327  0.9120E-02  0.4731E-02  0.5073E-01  0.4937E-01
     -1.277  0.8630E-02  0.6887E-02  0.5115E-01  0.4971E-01
     -1.228  0.8114E-02  0.8435E-02  0.5155E-01  0.5013E-01
     -1.179  0.8020E-02  0.9097E-02  0.5195E-01  0.5057E-01
     -1.129  0.8340E-02  0.8988E-02  0.5236E-01  0.5102E-01
     -1.080  0.8645E-02  0.8489E-02  0.5279E-01  0.5144E-01
     -1.030  0.8380E-02  0.7993E-02  0.5320E-01  0.5183E-01
     -0.981  0.7226E-02  0.7701E-02  0.5356E-01  0.5221E-01
     -0.932  0.5310E-02  0.7576E-02  0.5382E-01  0.5259E-01
     -0.882  0.3125E-02  0.7401E-02  0.5397E-01  0.5295E-01
     -0.833  0.1234E-02  0.6909E-02  0.5403E-01  0.5329E-01
     -0.784  0.5262E-05  0.5924E-02  0.5403E-01  0.5358E-01
     -0.734 -0.4538E-03  0.4471E-02  0.5401E-01  0.5381E-01
     -0.685 -0.2027E-03  0.2793E-02  0.5400E-01  0.5394E-01
     -0.636  0.6256E-03  0.1253E-02  0.5403E-01  0.5401E-01
     -0.586  0.1813E-02  0.1816E-03  0.5412E-01  0.5401E-01
     -0.537  0.3025E-02 -0.2258E-03  0.5427E-01  0.5400E-01
     -0.487  0.3908E-02  0.7686E-04  0.5446E-01  0.5401E-01
     -0.438  0.4291E-02  0.9945E-03  0.5468E-01  0.5406E-01
     -0.389  0.4310E-02  0.2295E-02  0.5489E-01  0.5417E-01
     -0.339  0.4263E-02  0.3649E-02  0.5510E-01  0.5435E-01
     -0.290  0.4310E-02  0.4747E-02  0.5531E-01  0.5458E-01
     -0.241  0.4309E-02  0.5424E-02  0.5553E-01  0.5485E-01
     -0.191  0.3970E-02  0.5656E-02  0.5572E-01  0.5513E-01
     -0.142  0.3159E-02  0.5464E-02  0.5588E-01  0.5540E-01
     -0.093  0.2043E-02  0.4840E-02  0.5598E-01  0.5564E-01
     -0.043  0.9709E-03  0.3813E-02  0.5603E-01  0.5583E-01
      0.006  0.2177E-03  0.2547E-02  0.5604E-01  0.5595E-01
      0.056 -0.1491E-03  0.1329E-02  0.5603E-01  0.5602E-01
      0.105 -0.2320E-03  0.4199E-03  0.5602E-01  0.5604E-01
      0.154 -0.1813E-03 -0.8026E-04  0.5601E-01  0.5604E-01
      0.204 -0.1051E-03 -0.2434E-03  0.5600E-01  0.5602E-01
      0.253 -0.4939E-04 -0.2201E-03  0.5600E-01  0.5601E-01
      0.302 -0.1945E-04 -0.1401E-03  0.5600E-01  0.5601E-01
      0.352 -0.6539E-05 -0.7100E-04  0.5600E-01  0.5600E-01
      0.401 -0.1894E-05 -0.2996E-04  0.5600E-01  0.5600E-01
      0.450 -0.4762E-06 -0.1074E-04  0.5600E-01  0.5600E-01
      0.500 -0.1043E-06 -0.3311E-05  0.5600E-01  0.5600E-01
      0.549 -0.1997E-07 -0.8839E-06  0.5600E-01  0.5600E-01
      0.599 -0.3348E-08 -0.2053E-06  0.5600E-01  0.5600E-01
      0.648 -0.4927E-09 -0.4165E-07  0.5600E-01  0.5600E-01
      0.697 -0.6371E-10 -0.7394E-08  0.5600E-01  0.5600E-01
      0.747 -0.7248E-11 -0.1151E-08  0.5600E-01  0.5600E-01
      0.796 -0.7258E-12 -0.1574E-09  0.5600E-01  0.5600E-01
      0.845 -0.6405E-13 -0.1893E-10  0.5600E-01  0.5600E-01
      0.895 -0.4984E-14 -0.2004E-11  0.5600E-01  0.5600E-01
      0.944 -0.3419E-15 -0.1868E-12  0.5600E-01  0.5600E-01
      0.993 -0.2249E-16 -0.1534E-13  0.5600E-01  0.5600E-01
      1.043  0.0000E+00 -0.1111E-14  0.5600E-01  0.5600E-01
      1.092  0.0000E+00 -0.7197E-16  0.5600E-01  0.5600E-01
      1.141  0.0000E+00 -0.4498E-17  0.5600E-01  0.5600E-01
      1.191  0.0000E+00  0.0000E+00  0.5600E-01  0.5600E-01
      1.240  0.0000E+00  0.0000E+00  0.5600E-01  0.5600E-01
      1.290  0.0000E+00  0.0000E+00  0.5600E-01  0.5600E-01
      1.339  0.0000E+00  0.0000E+00  0.5600E-01  0.5600E-01
      1.388  0.0000E+00  0.0000E+00  0.5600E-01  0.5600E-01
      1.438  0.0000E+00  0.0000E+00  0.5600E-01  0.5600E-01
      1.487  0.0000E+00  0.0000E+00  0.5600E-01  0.5600E-01
      1.536  0.0000E+00  0.0000E+00  0.5600E-01  0.5600E-01
      1.586  0.0000E+00  0.0000E+00  0.5600E-01  0.5600E-01
      1.635  0.0000E+00  0.0000E+00  0.5600E-01  0.5600E-01
      1.684  0.0000E+00  0.0000E+00  0.5600E-01  0.5600E-01
      1.734  0.0000E+00  0.0000E+00  0.5600E-01  0.5600E-01
      1.783  0.0000E+00  0.0000E+00  0.5600E-01  0.5600E-01
      1.833  0.0000E+00  0.0000E+00  0.5600E-01  0.5600E-01
      1.882  0.0000E+00  0.0000E+00  0.5600E-01  0.5600E-01
