    8    8 1000    2
  0.1505222E+04  0.2278637E-08  0.2322127E-08  0.2275776E-08  0.5000000E-15
   1.0000000000000000E-004
  CAR 
 unknown system                          
     88      1     56
 
  0.1262379E-14  0.1262379E-14  0.1262379E-14  0.1000000E+01
    1      -10.926583    -10.857517   1.000000   1.000000
    2      -10.270126    -10.203166   1.000000   1.000000
    3       -9.803891     -9.734114   1.000000   1.000000
    4       -9.392109     -9.340733   1.000000   1.000000
    5       -9.335202     -9.273848   1.000000   1.000000
    6       -9.052225     -8.981977   1.000000   1.000000
    7       -8.932853     -8.873753   1.000000   1.000000
    8       -8.842688     -8.760292   1.000000   1.000000
    9       -8.712697     -8.641559   1.000000   1.000000
   10       -8.693097     -8.613095   1.000000   1.000000
   11       -8.577883     -8.520933   1.000000   1.000000
   12       -8.504625     -8.455343   1.000000   1.000000
   13       -8.225640     -8.158626   1.000000   1.000000
   14       -8.210368     -8.151632   1.000000   1.000000
   15       -8.116555     -8.057646   1.000000   1.000000
   16       -7.995310     -7.940052   1.000000   1.000000
   17       -7.885868     -7.823065   1.000000   1.000000
   18       -7.751450     -7.696745   1.000000   1.000000
   19       -7.633448     -7.574039   1.000000   1.000000
   20       -7.593413     -7.521722   1.000000   1.000000
   21       -7.488023     -7.435796   1.000000   1.000000
   22       -7.360000     -7.307459   1.000000   1.000000
   23       -7.284574     -7.227064   1.000000   1.000000
   24       -7.184216     -7.102745   1.000000   1.000000
   25       -7.140537     -7.066552   1.000000   1.000000
   26       -7.090255     -7.010333   1.000000   1.000000
   27       -7.070473     -6.990364   1.000000   1.000000
   28       -6.994887     -6.935775   1.000000   1.000000
   29       -6.976935     -6.904504   1.000000   1.000000
   30       -6.960116     -6.869247   1.000000   1.000000
   31       -6.895143     -6.841666   1.000000   1.000000
   32       -6.779423     -6.737490   1.000000   1.000000
   33       -6.725907     -6.675466   1.000000   1.000000
   34       -6.704592     -6.657217   1.000000   1.000000
   35       -6.547300     -6.485340   1.000000   1.000000
   36       -6.524649     -6.425716   1.000000   1.000000
   37       -6.461693     -6.374196   1.000000   1.000000
   38       -6.414918     -6.356678   1.000000   1.000000
   39       -6.258505     -6.182228   1.000000   1.000000
   40       -6.194409     -6.136227   1.000000   1.000000
   41       -6.096050     -6.031389   1.000000   1.000000
   42       -6.021958     -5.934558   1.000000   1.000000
   43       -5.264835     -5.175807   1.033106   1.014007
   44       -5.129983     -4.929535   0.955064   0.246977
   45       -5.059104     -4.809894   0.764591  -0.013742
   46       -4.265721     -4.042827  -0.000002  -0.000000
   47       -3.711881     -3.619798  -0.000000  -0.000000
   48       -3.016295     -2.825807  -0.000000  -0.000000
   49       -1.891341     -1.755868  -0.000000  -0.000000
   50       -1.431196     -1.285804  -0.000000  -0.000000
   51       -1.390075     -1.205859  -0.000000  -0.000000
   52       -1.233061     -1.073763  -0.000000  -0.000000
   53       -1.089569     -0.935930  -0.000000  -0.000000
   54       -1.009878     -0.800457  -0.000000  -0.000000
   55       -0.487340     -0.310559  -0.000000  -0.000000
   56       -0.238247     -0.118076  -0.000000  -0.000000
