       N       E                     dE             d eps       ncg     rms          rms(c)
DAV:   1     0.747723134945E+03    0.74772E+03   -0.13218E+04   224   0.705E+02
DAV:   2     0.452734235318E+03   -0.29499E+03   -0.27767E+03   440   0.727E+01
DAV:   3     0.133432323363E+03   -0.31930E+03   -0.29884E+03   408   0.679E+01
DAV:   4     0.784473253862E+01   -0.12559E+03   -0.12076E+03   304   0.517E+01
DAV:   5    -0.139330553827E+02   -0.21778E+02   -0.20015E+02   304   0.206E+01    0.222E+01
DAV:   6    -0.627391584102E+01    0.76591E+01   -0.35614E+01   232   0.163E+01    0.145E+01
DAV:   7    -0.497242481858E+01    0.13015E+01   -0.22131E+00   256   0.618E+00    0.660E+00
DAV:   8    -0.608011014521E+01   -0.11077E+01   -0.67210E-01   256   0.365E+00    0.197E+00
DAV:   9    -0.829472669232E+01   -0.22146E+01   -0.49562E-01   256   0.203E+00    0.121E+00
DAV:  10    -0.984330829143E+01   -0.15486E+01   -0.31230E-01   256   0.155E+00    0.977E-01
DAV:  11    -0.114736603475E+02   -0.16304E+01   -0.41477E-01   248   0.157E+00    0.666E-01
DAV:  12    -0.125366948065E+02   -0.10630E+01   -0.24970E-01   240   0.113E+00    0.475E-01
DAV:  13    -0.134897066316E+02   -0.95301E+00   -0.22997E-01   256   0.111E+00    0.314E-01
DAV:  14    -0.136983130642E+02   -0.20861E+00   -0.17243E-02   280   0.373E-01    0.226E-01
DAV:  15    -0.139395435144E+02   -0.24123E+00   -0.13527E-02   240   0.302E-01    0.176E-01
DAV:  16    -0.140969199186E+02   -0.15738E+00   -0.50936E-03   256   0.218E-01    0.108E-01
DAV:  17    -0.142190316045E+02   -0.12211E+00   -0.43263E-03   232   0.195E-01    0.687E-02
DAV:  18    -0.142677448069E+02   -0.48713E-01   -0.10718E-03   216   0.116E-01    0.375E-02
DAV:  19    -0.142980298401E+02   -0.30285E-01   -0.39435E-04   160   0.577E-02    0.208E-02
DAV:  20    -0.143094030268E+02   -0.11373E-01   -0.90162E-05   184   0.253E-02    0.127E-02
DAV:  21    -0.143156320541E+02   -0.62290E-02   -0.61466E-05   176   0.176E-02    0.601E-03
DAV:  22    -0.143178711834E+02   -0.22391E-02   -0.18202E-05   176   0.109E-02    0.442E-03
DAV:  23    -0.143187936672E+02   -0.92248E-03   -0.16367E-05   168   0.890E-03    0.271E-03
DAV:  24    -0.143191503869E+02   -0.35672E-03   -0.73354E-06   168   0.598E-03    0.188E-03
DAV:  25    -0.143195699410E+02   -0.41955E-03   -0.46439E-06   160   0.450E-03    0.133E-03
DAV:  26    -0.143199540645E+02   -0.38412E-03   -0.34272E-06   160   0.374E-03    0.879E-04
DAV:  27    -0.143200961139E+02   -0.14205E-03   -0.94730E-07   160   0.219E-03    0.527E-04
DAV:  28    -0.143201563155E+02   -0.60202E-04   -0.41579E-07   160   0.139E-03
   1 F= -.14320156E+02 E0= -.14314206E+02  d E =-.143202E+02  mag=     2.0010
       N       E                     dE             d eps       ncg     rms          rms(c)
DAV:   1    -0.145503200624E+02   -0.23022E+00   -0.69595E+02   224   0.939E+01    0.627E+00
DAV:   2    -0.151487115167E+02   -0.59839E+00   -0.67280E+00   232   0.124E+01    0.429E+00
DAV:   3    -0.151134222926E+02    0.35289E-01   -0.41918E-01   240   0.281E+00    0.228E+00
DAV:   4    -0.151088929003E+02    0.45294E-02   -0.76440E-02   256   0.170E+00    0.488E-01
DAV:   5    -0.151091419861E+02   -0.24909E-03   -0.19808E-02   240   0.840E-01    0.217E-01
DAV:   6    -0.151126766706E+02   -0.35347E-02   -0.75915E-03   232   0.306E-01    0.857E-02
DAV:   7    -0.151153816589E+02   -0.27050E-02   -0.42964E-04   192   0.101E-01    0.358E-02
DAV:   8    -0.151177634244E+02   -0.23818E-02   -0.81703E-05   152   0.360E-02    0.233E-02
DAV:   9    -0.151203906418E+02   -0.26272E-02   -0.60445E-05   160   0.222E-02    0.109E-02
DAV:  10    -0.151218374665E+02   -0.14468E-02   -0.24248E-05   160   0.136E-02    0.758E-03
DAV:  11    -0.151235871318E+02   -0.17497E-02   -0.33708E-05   160   0.119E-02    0.614E-03
DAV:  12    -0.151253417178E+02   -0.17546E-02   -0.47499E-05   160   0.119E-02    0.429E-03
DAV:  13    -0.151263275928E+02   -0.98588E-03   -0.30569E-05   176   0.967E-03    0.275E-03
DAV:  14    -0.151268872050E+02   -0.55961E-03   -0.14364E-05   176   0.750E-03    0.186E-03
DAV:  15    -0.151272024780E+02   -0.31527E-03   -0.68373E-06   144   0.575E-03    0.144E-03
DAV:  16    -0.151274011482E+02   -0.19867E-03   -0.36452E-06   160   0.443E-03    0.111E-03
DAV:  17    -0.151275459223E+02   -0.14477E-03   -0.35048E-06   176   0.362E-03    0.803E-04
DAV:  18    -0.151276175050E+02   -0.71583E-04   -0.22232E-06   160   0.295E-03
   2 F= -.15127618E+02 E0= -.15123726E+02  d E =-.807461E+00  mag=     1.8970
       N       E                     dE             d eps       ncg     rms          rms(c)
DAV:   1    -0.151277704042E+02   -0.22448E-03   -0.88899E+00   224   0.103E+01    0.609E-01
DAV:   2    -0.151367918876E+02   -0.90215E-02   -0.10397E-01   240   0.150E+00    0.330E-01
DAV:   3    -0.151361356350E+02    0.65625E-03   -0.61852E-03   240   0.329E-01    0.206E-01
DAV:   4    -0.151356099929E+02    0.52564E-03   -0.89907E-04   248   0.157E-01    0.557E-02
DAV:   5    -0.151355892586E+02    0.20734E-04   -0.16298E-04   168   0.728E-02
   3 F= -.15135589E+02 E0= -.15131407E+02  d E =-.815433E+00  mag=     1.9053
       N       E                     dE             d eps       ncg     rms          rms(c)
DAV:   1    -0.151532726274E+02   -0.17663E-01   -0.11640E+01   224   0.116E+01    0.485E-01
DAV:   2    -0.151650260503E+02   -0.11753E-01   -0.13619E-01   240   0.179E+00    0.413E-01
DAV:   3    -0.151646244587E+02    0.40159E-03   -0.54084E-03   256   0.395E-01    0.233E-01
DAV:   4    -0.151641300456E+02    0.49441E-03   -0.15375E-03   248   0.151E-01    0.110E-01
DAV:   5    -0.151639977157E+02    0.13233E-03   -0.15807E-04   176   0.614E-02    0.277E-02
DAV:   6    -0.151640629123E+02   -0.65197E-04   -0.39509E-05   160   0.330E-02
   4 F= -.15164063E+02 E0= -.15160697E+02  d E =-.284737E-01  mag=     1.8952
       N       E                     dE             d eps       ncg     rms          rms(c)
DAV:   1    -0.151602681546E+02    0.37296E-02   -0.17397E+01   224   0.142E+01    0.556E-01
DAV:   2    -0.151760072352E+02   -0.15739E-01   -0.20308E-01   248   0.218E+00    0.472E-01
DAV:   3    -0.151749397872E+02    0.10674E-02   -0.77047E-03   256   0.460E-01    0.268E-01
DAV:   4    -0.151739368845E+02    0.10029E-02   -0.20817E-03   256   0.178E-01    0.134E-01
DAV:   5    -0.151737698961E+02    0.16699E-03   -0.27828E-04   200   0.793E-02    0.347E-02
DAV:   6    -0.151739554454E+02   -0.18555E-03   -0.54919E-05   160   0.390E-02    0.217E-02
DAV:   7    -0.151743545227E+02   -0.39908E-03   -0.59712E-05   160   0.253E-02    0.952E-03
DAV:   8    -0.151747101676E+02   -0.35564E-03   -0.14054E-05   168   0.155E-02    0.597E-03
DAV:   9    -0.151751015381E+02   -0.39137E-03   -0.91989E-06   160   0.904E-03    0.460E-03
DAV:  10    -0.151754299197E+02   -0.32838E-03   -0.50172E-06   152   0.594E-03    0.407E-03
DAV:  11    -0.151760535305E+02   -0.62361E-03   -0.15667E-05   160   0.691E-03    0.284E-03
DAV:  12    -0.151766351636E+02   -0.58163E-03   -0.19083E-05   160   0.722E-03    0.192E-03
DAV:  13    -0.151768526091E+02   -0.21745E-03   -0.54016E-06   168   0.458E-03    0.132E-03
DAV:  14    -0.151770122550E+02   -0.15965E-03   -0.31864E-06   152   0.353E-03    0.935E-04
DAV:  15    -0.151771258916E+02   -0.11364E-03   -0.23488E-06   152   0.292E-03    0.649E-04
DAV:  16    -0.151772283368E+02   -0.10245E-03   -0.19986E-06   160   0.268E-03    0.435E-04
DAV:  17    -0.151772833793E+02   -0.55042E-04   -0.10566E-06   152   0.209E-03
   5 F= -.15177283E+02 E0= -.15174109E+02  d E =-.416941E-01  mag=     1.8367
       N       E                     dE             d eps       ncg     rms          rms(c)
DAV:   1    -0.151830426223E+02   -0.58143E-02   -0.12522E+01   224   0.122E+01    0.371E-01
DAV:   2    -0.151936169817E+02   -0.10574E-01   -0.14945E-01   248   0.187E+00    0.284E-01
DAV:   3    -0.151920751658E+02    0.15418E-02   -0.53708E-03   248   0.397E-01    0.155E-01
DAV:   4    -0.151904169182E+02    0.16582E-02   -0.77784E-04   256   0.116E-01    0.947E-02
DAV:   5    -0.151888056369E+02    0.16113E-02   -0.50565E-04   248   0.920E-02    0.307E-02
DAV:   6    -0.151890285640E+02   -0.22293E-03   -0.34982E-05   160   0.337E-02    0.195E-02
DAV:   7    -0.151897418323E+02   -0.71327E-03   -0.44760E-05   144   0.221E-02    0.119E-02
DAV:   8    -0.151903024253E+02   -0.56059E-03   -0.12765E-05   160   0.146E-02    0.879E-03
DAV:   9    -0.151910790168E+02   -0.77659E-03   -0.16259E-05   144   0.107E-02    0.739E-03
DAV:  10    -0.151917623478E+02   -0.68333E-03   -0.11860E-05   152   0.828E-03    0.649E-03
DAV:  11    -0.151932026195E+02   -0.14403E-02   -0.45080E-05   152   0.130E-02    0.407E-03
DAV:  12    -0.151941580036E+02   -0.95538E-03   -0.42096E-05   160   0.123E-02    0.255E-03
DAV:  13    -0.151945305881E+02   -0.37258E-03   -0.11105E-05   168   0.689E-03    0.160E-03
DAV:  14    -0.151947519990E+02   -0.22141E-03   -0.48481E-06   160   0.472E-03    0.114E-03
DAV:  15    -0.151949599014E+02   -0.20790E-03   -0.35252E-06   160   0.388E-03    0.710E-04
DAV:  16    -0.151951202610E+02   -0.16036E-03   -0.27739E-06   152   0.341E-03    0.443E-04
DAV:  17    -0.151951856855E+02   -0.65424E-04   -0.12630E-06   152   0.242E-03
   6 F= -.15195186E+02 E0= -.15191892E+02  d E =-.179023E-01  mag=     1.7369
       N       E                     dE             d eps       ncg     rms          rms(c)
DAV:   1    -0.151698256898E+02    0.25295E-01   -0.37739E+01   224   0.212E+01    0.653E-01
DAV:   2    -0.152031664734E+02   -0.33341E-01   -0.44250E-01   248   0.320E+00    0.462E-01
DAV:   3    -0.151992853362E+02    0.38811E-02   -0.15207E-02   248   0.633E-01    0.263E-01
DAV:   4    -0.151949966480E+02    0.42887E-02   -0.23535E-03   248   0.198E-01    0.150E-01
DAV:   5    -0.151914853989E+02    0.35112E-02   -0.11018E-03   248   0.134E-01    0.501E-02
DAV:   6    -0.151920305237E+02   -0.54512E-03   -0.89870E-05   168   0.465E-02    0.321E-02
DAV:   7    -0.151936452362E+02   -0.16147E-02   -0.11293E-04   152   0.349E-02    0.198E-02
DAV:   8    -0.151950981692E+02   -0.14529E-02   -0.35644E-05   160   0.234E-02    0.153E-02
DAV:   9    -0.151968912894E+02   -0.17931E-02   -0.39297E-05   144   0.169E-02    0.133E-02
DAV:  10    -0.151989847396E+02   -0.20935E-02   -0.45788E-05   144   0.160E-02    0.112E-02
DAV:  11    -0.152026905655E+02   -0.37058E-02   -0.15484E-04   152   0.264E-02    0.643E-03
DAV:  12    -0.152045635490E+02   -0.18730E-02   -0.94711E-05   160   0.204E-02    0.433E-03
DAV:  13    -0.152054070693E+02   -0.84352E-03   -0.29044E-05   168   0.120E-02    0.247E-03
DAV:  14    -0.152058854700E+02   -0.47840E-03   -0.12265E-05   168   0.804E-03    0.172E-03
DAV:  15    -0.152063141511E+02   -0.42868E-03   -0.85714E-06   152   0.646E-03    0.102E-03
DAV:  16    -0.152065900156E+02   -0.27586E-03   -0.60813E-06   160   0.518E-03    0.675E-04
DAV:  17    -0.152066744579E+02   -0.84442E-04   -0.19597E-06   160   0.315E-03
   7 F= -.15206674E+02 E0= -.15202704E+02  d E =-.293911E-01  mag=     1.5525
       N       E                     dE             d eps       ncg     rms          rms(c)
DAV:   1    -0.152051222753E+02    0.14677E-02   -0.45638E+00   224   0.737E+00    0.243E-01
DAV:   2    -0.152097048368E+02   -0.45826E-02   -0.53115E-02   240   0.110E+00    0.167E-01
DAV:   3    -0.152093842802E+02    0.32056E-03   -0.19540E-03   248   0.217E-01    0.961E-02
DAV:   4    -0.152090953568E+02    0.28892E-03   -0.38750E-04   224   0.869E-02    0.505E-02
DAV:   5    -0.152089731052E+02    0.12225E-03   -0.98020E-05   160   0.485E-02    0.149E-02
DAV:   6    -0.152090014487E+02   -0.28343E-04   -0.17571E-05   152   0.206E-02
   8 F= -.15209001E+02 E0= -.15205405E+02  d E =-.232699E-02  mag=     1.5437
       N       E                     dE             d eps       ncg     rms          rms(c)
DAV:   1    -0.152089656448E+02    0.74604E-05   -0.11235E-01   224   0.116E+00    0.403E-02
DAV:   2    -0.152090791174E+02   -0.11347E-03   -0.13457E-03   256   0.174E-01    0.268E-02
DAV:   3    -0.152090743569E+02    0.47606E-05   -0.46042E-05   128   0.354E-02
   9 F= -.15209074E+02 E0= -.15205483E+02  d E =-.239990E-02  mag=     1.5401
       N       E                     dE             d eps       ncg     rms          rms(c)
DAV:   1    -0.152085639868E+02    0.51513E-03   -0.27745E+00   224   0.573E+00    0.153E-01
DAV:   2    -0.152112943940E+02   -0.27304E-02   -0.33357E-02   240   0.872E-01    0.123E-01
DAV:   3    -0.152111092551E+02    0.18514E-03   -0.11772E-03   248   0.172E-01    0.749E-02
DAV:   4    -0.152108880553E+02    0.22120E-03   -0.16206E-04   176   0.552E-02    0.443E-02
DAV:   5    -0.152106929576E+02    0.19510E-03   -0.18527E-04   176   0.551E-02    0.137E-02
DAV:   6    -0.152107158813E+02   -0.22924E-04   -0.18529E-05   152   0.218E-02
  10 F= -.15210716E+02 E0= -.15206837E+02  d E =-.164152E-02  mag=     1.5312
       N       E                     dE             d eps       ncg     rms          rms(c)
DAV:   1    -0.152052403650E+02    0.54526E-02   -0.61086E+00   224   0.850E+00    0.229E-01
DAV:   2    -0.152110664643E+02   -0.58261E-02   -0.74010E-02   240   0.130E+00    0.182E-01
DAV:   3    -0.152106047011E+02    0.46176E-03   -0.26549E-03   256   0.260E-01    0.110E-01
DAV:   4    -0.152101225102E+02    0.48219E-03   -0.36495E-04   216   0.815E-02    0.642E-02
DAV:   5    -0.152098267478E+02    0.29576E-03   -0.34866E-04   200   0.731E-02    0.207E-02
DAV:   6    -0.152099200677E+02   -0.93320E-04   -0.26693E-05   160   0.260E-02
  11 F= -.15209920E+02 E0= -.15205682E+02  d E =-.845711E-03  mag=     1.5190
