 vasp.6.1.2 22Jul20 (build Jan 14 2022 17:24:41) gamma-only                      
 executed on             LinuxPGI date 2022.01.27  16:02:21
 running on    8 total cores
 distrk:  each k-point on    8 cores,    1 groups
 distr:  one band on NCORE=   8 cores,    1 groups


--------------------------------------------------------------------------------------------------------


 INCAR:
 POTCAR:    PAW_PBE Au 04Oct2007                  
 -----------------------------------------------------------------------------
|                                                                             |
|           W    W    AA    RRRRR   N    N  II  N    N   GGGG   !!!           |
|           W    W   A  A   R    R  NN   N  II  NN   N  G    G  !!!           |
|           W    W  A    A  R    R  N N  N  II  N N  N  G       !!!           |
|           W WW W  AAAAAA  RRRRR   N  N N  II  N  N N  G  GGG   !            |
|           WW  WW  A    A  R   R   N   NN  II  N   NN  G    G                |
|           W    W  A    A  R    R  N    N  II  N    N   GGGG   !!!           |
|                                                                             |
|     You use a magnetic or noncollinear calculation, but did not specify     |
|     the initial magnetic moment with the MAGMOM tag. Note that a            |
|     default of 1 will be used for all atoms. This ferromagnetic setup       |
|     may break the symmetry of the crystal, in particular it may rule        |
|     out finding an antiferromagnetic solution. Thence, we recommend         |
|     setting the initial magnetic moment manually or verifying carefully     |
|     that this magnetic setup is desired.                                    |
|                                                                             |
 -----------------------------------------------------------------------------

 -----------------------------------------------------------------------------
|                                                                             |
|           W    W    AA    RRRRR   N    N  II  N    N   GGGG   !!!           |
|           W    W   A  A   R    R  NN   N  II  NN   N  G    G  !!!           |
|           W    W  A    A  R    R  N N  N  II  N N  N  G       !!!           |
|           W WW W  AAAAAA  RRRRR   N  N N  II  N  N N  G  GGG   !            |
|           WW  WW  A    A  R   R   N   NN  II  N   NN  G    G                |
|           W    W  A    A  R    R  N    N  II  N    N   GGGG   !!!           |
|                                                                             |
|     For optimal performance we recommend to set                             |
|       NCORE = 4 - approx SQRT(number of cores).                             |
|     NCORE specifies how many cores store one orbital (NPAR=cpu/NCORE).      |
|     This setting can greatly improve the performance of VASP for DFT.       |
|     The default, NCORE=1 might be grossly inefficient on modern             |
|     multi-core architectures or massively parallel machines. Do your        |
|     own testing!!!!                                                         |
|     Unfortunately you need to use the default for GW and RPA                |
|     calculations (for HF NCORE is supported but not extensively tested      |
|     yet).                                                                   |
|                                                                             |
 -----------------------------------------------------------------------------

 POTCAR:    PAW_PBE Au 04Oct2007                  
   SHA256 =  d0044ae04e2bdce24051b198fc5c053d722a5bc6fe3c3b100514a13fc5d2db88 Au/POTCAR             
   COPYR  = (c) Copyright 04Oct2007 Georg Kresse                                                    
   COPYR  = This file is part of the software VASP. Any use, copying, and all other rights are regul
   COPYR  = If you do not have a valid VASP license, you may not use, copy or distribute this file. 
   VRHFIN =Au: s1d10                                                                                
   LEXCH  = PE                                                                                      
   EATOM  =   926.0867 eV,   68.0654 Ry                                                             
                                                                                                    
   TITEL  = PAW_PBE Au 04Oct2007                                                                    
   LULTRA =        F    use ultrasoft PP ?                                                          
   IUNSCR =        1    unscreen: 0-lin 1-nonlin 2-no                                               
   RPACOR =    2.330    partial core radius                                                         
   POMASS =  196.966; ZVAL   =   11.000    mass and valenz                                          
   RCORE  =    2.500    outmost cutoff radius                                                       
   RWIGS  =    2.840; RWIGS  =    1.503    wigner-seitz radius (au A)                               
   ENMAX  =  229.943; ENMIN  =  172.457 eV                                                          
   ICORE  =        3    local potential                                                             
   LCOR   =        T    correct aug charges                                                         
   LPAW   =        T    paw PP                                                                      
   EAUG   =  356.670                                                                                
   DEXC   =    0.000                                                                                
   RMAX   =    2.562    core radius for proj-oper                                                   
   RAUG   =    1.300    factor for augmentation sphere                                              
   RDEP   =    2.598    radius for radial grids                                                     
   RDEPT  =    2.193    core radius for aug-charge                                                  
                                                                                                    
   Atomic configuration                                                                             
   16 entries                                                                                       
     n  l   j            E        occ.                                                              
     1  0  0.50    -80748.5001   2.0000                                                             
     2  0  0.50    -14244.7466   2.0000                                                             
     2  1  1.50    -12310.9591   6.0000                                                             
     3  0  0.50     -3362.1768   2.0000                                                             
     3  1  1.50     -2801.5463   6.0000                                                             
     3  2  2.50     -2203.8206  10.0000                                                             
     4  0  0.50      -729.8168   2.0000                                                             
     4  1  1.50      -546.0527   6.0000                                                             
     4  2  2.50      -325.7302  10.0000                                                             
     4  3  3.50       -81.1472  14.0000                                                             
     5  0  0.50      -108.3201   2.0000                                                             
     5  1  1.50       -59.7479   6.0000                                                             
     5  2  2.50        -6.8783  10.0000                                                             
     6  0  0.50        -5.7602   1.0000                                                             
     6  1  1.50        -6.8029   0.0000                                                             
     5  3  2.50        -1.3606   0.0000                                                             
   Description                                                                                      
     l       E           TYP  RCUT    TYP  RCUT                                                     
     2     -6.8782861     23  2.500                                                                 
     2     -8.2388687     23  2.500                                                                 
     0     -5.7601759     23  2.500                                                                 
     0     -0.8493231     23  2.500                                                                 
     1     -2.7211652     23  2.500                                                                 
     1     27.2116520     23  2.500                                                                 
     3     -1.3605826     23  2.500                                                                 
  local pseudopotential read in
  partial core-charges read in
  partial kinetic energy density read in
  atomic valenz-charges read in
  non local Contribution for L=            2  read in
    real space projection operators read in
  non local Contribution for L=            2  read in
    real space projection operators read in
  non local Contribution for L=            0  read in
    real space projection operators read in
  non local Contribution for L=            0  read in
    real space projection operators read in
  non local Contribution for L=            1  read in
    real space projection operators read in
  non local Contribution for L=            1  read in
    real space projection operators read in
    PAW grid and wavefunctions read in
 
   number of l-projection  operators is LMAX  =            6
   number of lm-projection operators is LMMAX =           18
 
  PAW_PBE Au 04Oct2007                  :
 energy of atom  1       EATOM= -926.0867
 kinetic energy error for atom=    0.0062 (will be added to EATOM!!)
 
 
 POSCAR: Au
  positions in cartesian coordinates
  No initial velocities read in
 exchange correlation table for  LEXCH =        8
   RHO(1)=    0.500       N(1)  =     2000
   RHO(2)=  100.500       N(2)  =     4000
 


--------------------------------------------------------------------------------------------------------


 ion  position               nearest neighbor table
   1  0.514  0.580  0.502-   2 2.58   7 2.58   3 2.66   4 2.74
   2  0.451  0.578  0.408-   7 2.54   1 2.58   4 2.65
   3  0.570  0.485  0.537-   8 2.62   1 2.66   6 2.67   5 2.67   4 2.76
   4  0.485  0.477  0.451-   7 2.64   2 2.65   5 2.69   6 2.70   1 2.74   3 2.76
   5  0.581  0.411  0.448-   8 2.56   6 2.63   3 2.67   4 2.69
   6  0.501  0.392  0.530-   8 2.58   5 2.63   3 2.67   4 2.70
   7  0.407  0.543  0.504-   2 2.54   1 2.58   4 2.64
   8  0.612  0.382  0.552-   5 2.56   6 2.58   3 2.62
 

IMPORTANT INFORMATION: All symmetrisations will be switched off!
NOSYMM: (Re-)initialisation of all symmetry stuff for point group C_1.


----------------------------------------------------------------------------------------

                                     Primitive cell                                     

  volume of cell :   12041.7778

  direct lattice vectors                    reciprocal lattice vectors
    22.786374572  0.000000000  0.000000000     0.043885876  0.000000000  0.000000000
     0.000000000 23.221266257  0.000000000     0.000000000  0.043063974  0.000000000
     0.000000000  0.000000000 22.757758195     0.000000000  0.000000000  0.043941059

  length of vectors
    22.786374572 23.221266257 22.757758195     0.043885876  0.043063974  0.043941059

  position of ions in fractional coordinates (direct lattice)
     0.513712898  0.580026727  0.502437736
     0.450831586  0.578484536  0.408378518
     0.569979202  0.485346226  0.536746572
     0.484809147  0.477496739  0.450660986
     0.581075496  0.410601811  0.448005232
     0.501444063  0.392482066  0.529734765
     0.406879138  0.543465193  0.504267268
     0.611634381  0.381519557  0.552255662

  ion indices of the primitive-cell ions
   primitive index   ion index
                 1           1
                 2           2
                 3           3
                 4           4
                 5           5
                 6           6
                 7           7
                 8           8

----------------------------------------------------------------------------------------

 
 
 KPOINTS: KPOINTS created by Atomic Simulation Env

Automatic generation of k-mesh.
Space group operators:
 irot       det(A)        alpha          n_x          n_y          n_z        tau_x        tau_y        tau_z
    1     1.000000     0.000000     1.000000     0.000000     0.000000     0.000000     0.000000     0.000000
 
 Subroutine IBZKPT returns following result:
 ===========================================
 
 Found      1 irreducible k-points:
 
 Following reciprocal coordinates:
            Coordinates               Weight
  0.000000  0.000000  0.000000      1.000000
 
 Following cartesian coordinates:
            Coordinates               Weight
  0.000000  0.000000  0.000000      1.000000
 


--------------------------------------------------------------------------------------------------------




 Dimension of arrays:
   k-points           NKPTS =      1   k-points in BZ     NKDIM =      1   number of bands    NBANDS=     56
   number of dos      NEDOS =    301   number of ions     NIONS =      8
   non local maximal  LDIM  =      6   non local SUM 2l+1 LMDIM =     18
   total plane-waves  NPLWV = ******
   max r-space proj   IRMAX =      1   max aug-charges    IRDMAX=   7843
   dimension x,y,z NGX =   112 NGY =  120 NGZ =  112
   dimension x,y,z NGXF=   224 NGYF=  240 NGZF=  224
   support grid    NGXF=   224 NGYF=  240 NGZF=  224
   ions per type =               8
   NGX,Y,Z   is equivalent  to a cutoff of   8.17,  8.59,  8.18 a.u.
   NGXF,Y,Z  is equivalent  to a cutoff of  16.34, 17.18, 16.36 a.u.

 SYSTEM =  unknown system                          
 POSCAR =  Au                                      

 Startparameter for this run:
   NWRITE =      2    write-flag & timer
   PREC   = normal    normal or accurate (medium, high low for compatibility)
   ISTART =      0    job   : 0-new  1-cont  2-samecut
   ICHARG =      2    charge: 1-file 2-atom 10-const
   ISPIN  =      2    spin polarized calculation?
   LNONCOLLINEAR =      F non collinear calculations
   LSORBIT =      F    spin-orbit coupling
   INIWAV =      1    electr: 0-lowe 1-rand  2-diag
   LASPH  =      F    aspherical Exc in radial PAW
   METAGGA=      F    non-selfconsistent MetaGGA calc.

 Electronic Relaxation 1
   ENCUT  =  400.0 eV  29.40 Ry    5.42 a.u.  37.16 37.87 37.11*2*pi/ulx,y,z
   ENINI  =  400.0     initial cutoff
   ENAUG  =  356.7 eV  augmentation charge cutoff
   NELM   =     60;   NELMIN=  2; NELMDL=  0     # of ELM steps 
   EDIFF  = 0.1E-03   stopping-criterion for ELM
   LREAL  =      F    real-space projection
   NLSPLINE    = F    spline interpolate recip. space projectors
   LCOMPAT=      F    compatible to vasp.4.4
   GGA_COMPAT  = T    GGA compatible to vasp.4.4-vasp.4.6
   LMAXPAW     = -100 max onsite density
   LMAXMIX     =    2 max onsite mixed and CHGCAR
   VOSKOWN=      0    Vosko Wilk Nusair interpolation
   ROPT   =    0.00000
 Ionic relaxation
   EDIFFG = 0.1E-02   stopping-criterion for IOM
   NSW    =   1000    number of steps for IOM
   NBLOCK =      1;   KBLOCK =   1000    inner block; outer block 
   IBRION =      2    ionic relax: 0-MD 1-quasi-New 2-CG
   NFREE  =      1    steps in history (QN), initial steepest desc. (CG)
   ISIF   =      0    stress and relaxation
   IWAVPR =     11    prediction:  0-non 1-charg 2-wave 3-comb
   ISYM   =      0    0-nonsym 1-usesym 2-fastsym
   LCORR  =      T    Harris-Foulkes like correction to forces

   POTIM  = 0.5000    time-step for ionic-motion
   TEIN   =    0.0    initial temperature
   TEBEG  =    0.0;   TEEND  =   0.0 temperature during run
   SMASS  =  -3.00    Nose mass-parameter (am)
   estimated Nose-frequenzy (Omega)   =  0.10E-29 period in steps = 0.13E+47 mass=  -0.119E-25a.u.
   SCALEE = 1.0000    scale energy and forces
   NPACO  =    256;   APACO  = 16.0  distance and # of slots for P.C.
   PSTRESS=    0.0 pullay stress

  Mass of Ions in am
   POMASS = 196.97
  Ionic Valenz
   ZVAL   =  11.00
  Atomic Wigner-Seitz radii
   RWIGS  =  -1.00
  virtual crystal weights 
   VCA    =   1.00
   NELECT =      88.0000    total number of electrons
   NUPDOWN=      -1.0000    fix difference up-down

 DOS related values:
   EMIN   =  10.00;   EMAX   =-10.00  energy-range for DOS
   EFERMI =   0.00
   ISMEAR =     1;   SIGMA  =   0.20  broadening in eV -4-tet -1-fermi 0-gaus

 Electronic relaxation 2 (details)
   IALGO  =     38    algorithm
   LDIAG  =      T    sub-space diagonalisation (order eigenvalues)
   LSUBROT=      F    optimize rotation matrix (better conditioning)
   TURBO    =      0    0=normal 1=particle mesh
   IRESTART =      0    0=no restart 2=restart with 2 vectors
   NREBOOT  =      0    no. of reboots
   NMIN     =      0    reboot dimension
   EREF     =   0.00    reference energy to select bands
   IMIX   =      4    mixing-type and parameters
     AMIX     =   0.40;   BMIX     =  1.00
     AMIX_MAG =   1.60;   BMIX_MAG =  1.00
     AMIN     =   0.10
     WC   =   100.;   INIMIX=   1;  MIXPRE=   1;  MAXMIX= -45

 Intra band minimization:
   WEIMIN = 0.0010     energy-eigenvalue tresh-hold
   EBREAK =  0.45E-06  absolut break condition
   DEPER  =   0.30     relativ break condition  

   TIME   =   0.40     timestep for ELM

  volume/ion in A,a.u.               =    1505.22     10157.74
  Fermi-wavevector in a.u.,A,eV,Ry     =   0.317691  0.600350  1.373207  0.100928
  Thomas-Fermi vector in A             =   1.201868
 
 Write flags
   LWAVE        =      F    write WAVECAR
   LDOWNSAMPLE  =      F    k-point downsampling of WAVECAR
   LCHARG       =      F    write CHGCAR
   LVTOT        =      F    write LOCPOT, total local potential
   LVHAR        =      F    write LOCPOT, Hartree potential only
   LELF         =      F    write electronic localiz. function (ELF)
   LORBIT       =      0    0 simple, 1 ext, 2 COOP (PROOUT), +10 PAW based schemes


 Dipole corrections
   LMONO  =      F    monopole corrections only (constant potential shift)
   LDIPOL =      F    correct potential (dipole corrections)
   IDIPOL =      0    1-x, 2-y, 3-z, 4-all directions 
   EPSILON=  1.0000000 bulk dielectric constant

 Exchange correlation treatment:
   GGA     =    PE    GGA type
   LEXCH   =     8    internal setting for exchange type
   VOSKOWN=      0    Vosko Wilk Nusair interpolation
   LHFCALC =     F    Hartree Fock is set to
   LHFONE  =     F    Hartree Fock one center treatment
   AEXX    =    0.0000 exact exchange contribution

 Linear response parameters
   LEPSILON=     F    determine dielectric tensor
   LRPA    =     F    only Hartree local field effects (RPA)
   LNABLA  =     F    use nabla operator in PAW spheres
   LVEL    =     F    velocity operator in full k-point grid
   LINTERFAST=   F  fast interpolation
   KINTER  =     0    interpolate to denser k-point grid
   CSHIFT  =0.1000    complex shift for real part using Kramers Kronig
   OMEGAMAX=  -1.0    maximum frequency
   DEG_THRESHOLD= 0.2000000E-02 threshold for treating states as degnerate
   RTIME   =   -0.100 relaxation time in fs
  (WPLASMAI=    0.000 imaginary part of plasma frequency in eV, 0.658/RTIME)
   DFIELD  = 0.0000000 0.0000000 0.0000000 field for delta impulse in time
 
 Orbital magnetization related:
   ORBITALMAG=     F  switch on orbital magnetization
   LCHIMAG   =     F  perturbation theory with respect to B field
   DQ        =  0.001000  dq finite difference perturbation B field
   LLRAUG    =     F  two centre corrections for induced B field



--------------------------------------------------------------------------------------------------------


 conjugate gradient relaxation of ions
 charge density and potential will be updated during run
 spin polarized calculation
 Variant of blocked Davidson
 Davidson routine will perform the subspace rotation
 perform sub-space diagonalisation
    after iterative eigenvector-optimisation
 modified Broyden-mixing scheme, WC =      100.0
 initial mixing is a Kerker type mixing with AMIX =  0.4000 and BMIX =      1.0000
 Hartree-type preconditioning will be used
 using additional bands            12
 reciprocal scheme for non local part
 use partial core corrections
 calculate Harris-corrections to forces 
   (improved forces if not selfconsistent)
 use gradient corrections 
 use of overlap-Matrix (Vanderbilt PP)
 Methfessel and Paxton  Order N= 1 SIGMA  =   0.20


--------------------------------------------------------------------------------------------------------


  energy-cutoff  :      400.00
  volume of cell :    12041.78
      direct lattice vectors                 reciprocal lattice vectors
    22.786374572  0.000000000  0.000000000     0.043885876  0.000000000  0.000000000
     0.000000000 23.221266257  0.000000000     0.000000000  0.043063974  0.000000000
     0.000000000  0.000000000 22.757758195     0.000000000  0.000000000  0.043941059

  length of vectors
    22.786374572 23.221266257 22.757758195     0.043885876  0.043063974  0.043941059


 
 k-points in units of 2pi/SCALE and weight: KPOINTS created by Atomic Simulation Env
   0.00000000  0.00000000  0.00000000       1.000
 
 k-points in reciprocal lattice and weights: KPOINTS created by Atomic Simulation Env
   0.00000000  0.00000000  0.00000000       1.000
 
 position of ions in fractional coordinates (direct lattice) 
   0.51371290  0.58002673  0.50243774
   0.45083159  0.57848454  0.40837852
   0.56997920  0.48534623  0.53674657
   0.48480915  0.47749674  0.45066099
   0.58107550  0.41060181  0.44800523
   0.50144406  0.39248207  0.52973477
   0.40687914  0.54346519  0.50426727
   0.61163438  0.38151956  0.55225566
 
 position of ions in cartesian coordinates  (Angst):
  11.70565452 13.46895507 11.43435649
  10.27281738 13.43314343  9.29377957
  12.98775961 11.27035393 12.21514870
  11.04704281 11.08807892 10.25603375
  13.24060391  9.53469398 10.19559473
  11.42609224  9.11393056 12.05557569
   9.27130043 12.61994995 11.47599256
  13.93693012  8.85936721 12.56810083
 


--------------------------------------------------------------------------------------------------------


 use parallel FFT for orbitals z direction half grid
 k-point   1 :   0.0000 0.0000 0.0000  plane waves:  109380

 maximum and minimum number of plane-waves per node :     13678    13666

 maximum number of plane-waves:    109380
 maximum index in each direction: 
   IXMAX=   37   IYMAX=   37   IZMAX=   37
   IXMIN=  -37   IYMIN=  -37   IZMIN=    0


 parallel 3D FFT for wavefunctions:
    minimum data exchange during FFTs selected (reduces bandwidth)
 parallel 3D FFT for charge:
    minimum data exchange during FFTs selected (reduces bandwidth)


 total amount of memory used by VASP MPI-rank0   237438. kBytes
=======================================================================

   base      :      30000. kBytes
   nonl-proj :       3719. kBytes
   fftplans  :      54947. kBytes
   grid      :     124239. kBytes
   one-center:         15. kBytes
   wavefun   :      24518. kBytes
 
     INWAV:  cpu time    0.0000: real time    0.0000
 Broyden mixing: mesh for mixing (old mesh)
   NGX = 75   NGY = 75   NGZ = 75
  (NGX  =224   NGY  =240   NGZ  =224)
  gives a total of 421875 points

 initial charge density was supplied:
 charge density of overlapping atoms calculated
 number of electron      88.0000000 magnetization       8.0000000
 keeping initial charge density in first step


--------------------------------------------------------------------------------------------------------


 Maximum index for augmentation-charges           980 (set IRDMAX)


--------------------------------------------------------------------------------------------------------


 First call to EWALD:  gamma=   0.077
 Maximum number of real-space cells 3x 3x 3
 Maximum number of reciprocal cells 3x 3x 3

    FEWALD:  cpu time    0.0010: real time    0.0010


--------------------------------------- Iteration      1(   1)  ---------------------------------------


    POTLOK:  cpu time    3.9869: real time    4.0087
    SETDIJ:  cpu time    0.0210: real time    0.0676
     EDDAV:  cpu time    6.2223: real time    6.2300
       DOS:  cpu time    0.0069: real time    0.0069
    --------------------------------------------
      LOOP:  cpu time   10.2370: real time   10.3131

 eigenvalue-minimisations  :   224
 total energy-change (2. order) : 0.7477231E+03  (-0.1321755E+04)
 number of electron      88.0000000 magnetization       8.0000000
 augmentation part       88.0000000 magnetization       8.0000000

 Free energy of the ion-electron system (eV)
  ---------------------------------------------------
  alpha Z        PSCENC =         6.19069281
  Ewald energy   TEWEN  =      8107.02527627
  -Hartree energ DENC   =    -15183.63785087
  -exchange      EXHF   =         0.00000000
  -V(xc)+E(xc)   XCENC  =       118.67966563
  PAW double counting   =      6992.17180065    -6807.49900724
  entropy T*S    EENTRO =        -0.04070237
  eigenvalues    EBANDS =       106.18910992
  atomic energy  EATOM  =      7408.64415014
  Solvation  Ediel_sol  =         0.00000000
  ---------------------------------------------------
  free energy    TOTEN  =       747.72313495 eV

  energy without entropy =      747.76383732  energy(sigma->0) =      747.73670240


--------------------------------------------------------------------------------------------------------




--------------------------------------- Iteration      1(   2)  ---------------------------------------


     EDDAV:  cpu time   10.3307: real time   10.3538
       DOS:  cpu time    0.0068: real time    0.0068
    --------------------------------------------
      LOOP:  cpu time   10.3375: real time   10.3606

 eigenvalue-minimisations  :   440
 total energy-change (2. order) :-0.2949889E+03  (-0.2776720E+03)
 number of electron      88.0000000 magnetization       8.0000000
 augmentation part       88.0000000 magnetization       8.0000000

 Free energy of the ion-electron system (eV)
  ---------------------------------------------------
  alpha Z        PSCENC =         6.19069281
  Ewald energy   TEWEN  =      8107.02527627
  -Hartree energ DENC   =    -15183.63785087
  -exchange      EXHF   =         0.00000000
  -V(xc)+E(xc)   XCENC  =       118.67966563
  PAW double counting   =      6992.17180065    -6807.49900724
  entropy T*S    EENTRO =        -0.08994180
  eigenvalues    EBANDS =      -188.75055028
  atomic energy  EATOM  =      7408.64415014
  Solvation  Ediel_sol  =         0.00000000
  ---------------------------------------------------
  free energy    TOTEN  =       452.73423532 eV

  energy without entropy =      452.82417711  energy(sigma->0) =      452.76421592


--------------------------------------------------------------------------------------------------------




--------------------------------------- Iteration      1(   3)  ---------------------------------------


     EDDAV:  cpu time    9.7717: real time    9.7859
       DOS:  cpu time    0.0089: real time    0.0089
    --------------------------------------------
      LOOP:  cpu time    9.7805: real time    9.7947

 eigenvalue-minimisations  :   408
 total energy-change (2. order) :-0.3193019E+03  (-0.2988396E+03)
 number of electron      88.0000000 magnetization       8.0000000
 augmentation part       88.0000000 magnetization       8.0000000

 Free energy of the ion-electron system (eV)
  ---------------------------------------------------
  alpha Z        PSCENC =         6.19069281
  Ewald energy   TEWEN  =      8107.02527627
  -Hartree energ DENC   =    -15183.63785087
  -exchange      EXHF   =         0.00000000
  -V(xc)+E(xc)   XCENC  =       118.67966563
  PAW double counting   =      6992.17180065    -6807.49900724
  entropy T*S    EENTRO =        -0.02439119
  eigenvalues    EBANDS =      -508.11801284
  atomic energy  EATOM  =      7408.64415014
  Solvation  Ediel_sol  =         0.00000000
  ---------------------------------------------------
  free energy    TOTEN  =       133.43232336 eV

  energy without entropy =      133.45671456  energy(sigma->0) =      133.44045376


--------------------------------------------------------------------------------------------------------




--------------------------------------- Iteration      1(   4)  ---------------------------------------


     EDDAV:  cpu time    7.7406: real time    7.7506
       DOS:  cpu time    0.0069: real time    0.0069
    --------------------------------------------
      LOOP:  cpu time    7.7475: real time    7.7575

 eigenvalue-minimisations  :   304
 total energy-change (2. order) :-0.1255876E+03  (-0.1207565E+03)
 number of electron      88.0000000 magnetization       8.0000000
 augmentation part       88.0000000 magnetization       8.0000000

 Free energy of the ion-electron system (eV)
  ---------------------------------------------------
  alpha Z        PSCENC =         6.19069281
  Ewald energy   TEWEN  =      8107.02527627
  -Hartree energ DENC   =    -15183.63785087
  -exchange      EXHF   =         0.00000000
  -V(xc)+E(xc)   XCENC  =       118.67966563
  PAW double counting   =      6992.17180065    -6807.49900724
  entropy T*S    EENTRO =        -0.01429174
  eigenvalues    EBANDS =      -633.71570311
  atomic energy  EATOM  =      7408.64415014
  Solvation  Ediel_sol  =         0.00000000
  ---------------------------------------------------
  free energy    TOTEN  =         7.84473254 eV

  energy without entropy =        7.85902428  energy(sigma->0) =        7.84949645


--------------------------------------------------------------------------------------------------------




--------------------------------------- Iteration      1(   5)  ---------------------------------------


     EDDAV:  cpu time    7.6905: real time    7.7023
       DOS:  cpu time    0.0068: real time    0.0068
    CHARGE:  cpu time    0.8402: real time    0.8408
    MIXING:  cpu time    0.0654: real time    0.0655
    --------------------------------------------
      LOOP:  cpu time    8.6029: real time    8.6154

 eigenvalue-minimisations  :   304
 total energy-change (2. order) :-0.2177779E+02  (-0.2001544E+02)
 number of electron      87.9999991 magnetization       7.3476056
 augmentation part       31.2477476 magnetization       5.5979353

 Broyden mixing:
  rms(total) = 0.22222E+01    rms(broyden)= 0.22222E+01
  rms(prec ) = 0.22424E+01
  weight for this iteration     100.00

 Free energy of the ion-electron system (eV)
  ---------------------------------------------------
  alpha Z        PSCENC =         6.19069281
  Ewald energy   TEWEN  =      8107.02527627
  -Hartree energ DENC   =    -15183.63785087
  -exchange      EXHF   =         0.00000000
  -V(xc)+E(xc)   XCENC  =       118.67966563
  PAW double counting   =      6992.17180065    -6807.49900724
  entropy T*S    EENTRO =         0.02133291
  eigenvalues    EBANDS =      -655.52911569
  atomic energy  EATOM  =      7408.64415014
  Solvation  Ediel_sol  =         0.00000000
  ---------------------------------------------------
  free energy    TOTEN  =       -13.93305538 eV

  energy without entropy =      -13.95438830  energy(sigma->0) =      -13.94016635


--------------------------------------------------------------------------------------------------------




--------------------------------------- Iteration      1(   6)  ---------------------------------------


    POTLOK:  cpu time    4.0503: real time    4.0661
    SETDIJ:  cpu time    0.0267: real time    0.0267
     EDDAV:  cpu time    6.4323: real time    6.4371
       DOS:  cpu time    0.0056: real time    0.0056
    CHARGE:  cpu time    0.8233: real time    0.8239
    MIXING:  cpu time    0.0739: real time    0.0739
    --------------------------------------------
      LOOP:  cpu time   11.4120: real time   11.4332

 eigenvalue-minimisations  :   232
 total energy-change (2. order) : 0.7659140E+01  (-0.3561408E+01)
 number of electron      87.9999991 magnetization       6.7205970
 augmentation part       32.3367580 magnetization       3.4106501

 Broyden mixing:
  rms(total) = 0.14543E+01    rms(broyden)= 0.14543E+01
  rms(prec ) = 0.14568E+01
  weight for this iteration     100.00

 eigenvalues of (default mixing * dielectric matrix)
  average eigenvalue GAMMA=   1.0033
  1.0033

 Free energy of the ion-electron system (eV)
  ---------------------------------------------------
  alpha Z        PSCENC =         6.19069281
  Ewald energy   TEWEN  =      8107.02527627
  -Hartree energ DENC   =    -15132.50070747
  -exchange      EXHF   =         0.00000000
  -V(xc)+E(xc)   XCENC  =       122.12174346
  PAW double counting   =      7412.53462077    -7235.82812156
  entropy T*S    EENTRO =        -0.06545797
  eigenvalues    EBANDS =      -694.39611229
  atomic energy  EATOM  =      7408.64415014
  Solvation  Ediel_sol  =         0.00000000
  ---------------------------------------------------
  free energy    TOTEN  =        -6.27391584 eV

  energy without entropy =       -6.20845787  energy(sigma->0) =       -6.25209652


--------------------------------------------------------------------------------------------------------




--------------------------------------- Iteration      1(   7)  ---------------------------------------


    POTLOK:  cpu time    4.0478: real time    4.0711
    SETDIJ:  cpu time    0.0268: real time    0.0269
     EDDAV:  cpu time    6.9139: real time    6.9189
       DOS:  cpu time    0.0016: real time    0.0016
    CHARGE:  cpu time    0.8533: real time    0.8538
    MIXING:  cpu time    0.0781: real time    0.0782
    --------------------------------------------
      LOOP:  cpu time   11.9215: real time   11.9505

 eigenvalue-minimisations  :   256
 total energy-change (2. order) : 0.1301491E+01  (-0.2213099E+00)
 number of electron      87.9999992 magnetization       5.9231039
 augmentation part       32.2687094 magnetization       3.4083658

 Broyden mixing:
  rms(total) = 0.66037E+00    rms(broyden)= 0.66037E+00
  rms(prec ) = 0.66290E+00
  weight for this iteration     100.00

 eigenvalues of (default mixing * dielectric matrix)
  average eigenvalue GAMMA=   1.2744
  0.7182  1.8307

 Free energy of the ion-electron system (eV)
  ---------------------------------------------------
  alpha Z        PSCENC =         6.19069281
  Ewald energy   TEWEN  =      8107.02527627
  -Hartree energ DENC   =    -15144.06810622
  -exchange      EXHF   =         0.00000000
  -V(xc)+E(xc)   XCENC  =       123.68019460
  PAW double counting   =      7804.89404569    -7632.62680546
  entropy T*S    EENTRO =        -0.04681517
  eigenvalues    EBANDS =      -678.66505748
  atomic energy  EATOM  =      7408.64415014
  Solvation  Ediel_sol  =         0.00000000
  ---------------------------------------------------
  free energy    TOTEN  =        -4.97242482 eV

  energy without entropy =       -4.92560965  energy(sigma->0) =       -4.95681976


--------------------------------------------------------------------------------------------------------




--------------------------------------- Iteration      1(   8)  ---------------------------------------


    POTLOK:  cpu time    4.0381: real time    4.0451
    SETDIJ:  cpu time    0.0262: real time    0.0262
     EDDAV:  cpu time    6.9043: real time    6.9120
       DOS:  cpu time    0.0031: real time    0.0031
    CHARGE:  cpu time    0.8389: real time    0.8395
    MIXING:  cpu time    0.0822: real time    0.0823
    --------------------------------------------
      LOOP:  cpu time   11.8927: real time   11.9081

 eigenvalue-minimisations  :   256
 total energy-change (2. order) :-0.1107685E+01  (-0.6720992E-01)
 number of electron      87.9999992 magnetization       5.5052012
 augmentation part       32.2318655 magnetization       3.1539372

 Broyden mixing:
  rms(total) = 0.19717E+00    rms(broyden)= 0.19717E+00
  rms(prec ) = 0.19944E+00
  weight for this iteration     100.00

 eigenvalues of (default mixing * dielectric matrix)
  average eigenvalue GAMMA=   1.2598
  2.1836  0.9379  0.6579

 Free energy of the ion-electron system (eV)
  ---------------------------------------------------
  alpha Z        PSCENC =         6.19069281
  Ewald energy   TEWEN  =      8107.02527627
  -Hartree energ DENC   =    -15151.81319554
  -exchange      EXHF   =         0.00000000
  -V(xc)+E(xc)   XCENC  =       122.85268762
  PAW double counting   =      8098.97111356    -7929.94684435
  entropy T*S    EENTRO =        -0.04309965
  eigenvalues    EBANDS =      -667.96089100
  atomic energy  EATOM  =      7408.64415014
  Solvation  Ediel_sol  =         0.00000000
  ---------------------------------------------------
  free energy    TOTEN  =        -6.08011015 eV

  energy without entropy =       -6.03701049  energy(sigma->0) =       -6.06574359


--------------------------------------------------------------------------------------------------------




--------------------------------------- Iteration      1(   9)  ---------------------------------------


    POTLOK:  cpu time    4.0534: real time    4.0563
    SETDIJ:  cpu time    0.0268: real time    0.0268
     EDDAV:  cpu time    6.8978: real time    6.9029
       DOS:  cpu time    0.0048: real time    0.0048
    CHARGE:  cpu time    0.8268: real time    0.8274
    MIXING:  cpu time    0.0872: real time    0.0873
    --------------------------------------------
      LOOP:  cpu time   11.8968: real time   11.9055

 eigenvalue-minimisations  :   256
 total energy-change (2. order) :-0.2214617E+01  (-0.4956172E-01)
 number of electron      87.9999992 magnetization       5.0743428
 augmentation part       32.2153094 magnetization       2.8722467

 Broyden mixing:
  rms(total) = 0.12069E+00    rms(broyden)= 0.12069E+00
  rms(prec ) = 0.12287E+00
  weight for this iteration     100.00

 eigenvalues of (default mixing * dielectric matrix)
  average eigenvalue GAMMA=   1.1894
  2.2500  1.1258  0.7695  0.6125

 Free energy of the ion-electron system (eV)
  ---------------------------------------------------
  alpha Z        PSCENC =         6.19069281
  Ewald energy   TEWEN  =      8107.02527627
  -Hartree energ DENC   =    -15151.25563497
  -exchange      EXHF   =         0.00000000
  -V(xc)+E(xc)   XCENC  =       121.05578947
  PAW double counting   =      8131.04046561    -7962.48117994
  entropy T*S    EENTRO =        -0.03103685
  eigenvalues    EBANDS =      -668.48324923
  atomic energy  EATOM  =      7408.64415014
  Solvation  Ediel_sol  =         0.00000000
  ---------------------------------------------------
  free energy    TOTEN  =        -8.29472669 eV

  energy without entropy =       -8.26368984  energy(sigma->0) =       -8.28438107


--------------------------------------------------------------------------------------------------------




--------------------------------------- Iteration      1(  10)  ---------------------------------------


    POTLOK:  cpu time    4.0400: real time    4.0433
    SETDIJ:  cpu time    0.0260: real time    0.0260
     EDDAV:  cpu time    6.9089: real time    6.9194
       DOS:  cpu time    0.0071: real time    0.0071
    CHARGE:  cpu time    0.8240: real time    0.8246
    MIXING:  cpu time    0.0948: real time    0.0949
    --------------------------------------------
      LOOP:  cpu time   11.9008: real time   11.9152

 eigenvalue-minimisations  :   256
 total energy-change (2. order) :-0.1548582E+01  (-0.3123032E-01)
 number of electron      87.9999992 magnetization       4.5029572
 augmentation part       32.2206785 magnetization       2.3113346

 Broyden mixing:
  rms(total) = 0.97688E-01    rms(broyden)= 0.97687E-01
  rms(prec ) = 0.98833E-01
  weight for this iteration     100.00

 eigenvalues of (default mixing * dielectric matrix)
  average eigenvalue GAMMA=   1.2125
  2.3639  1.6826  0.8593  0.6159  0.5410

 Free energy of the ion-electron system (eV)
  ---------------------------------------------------
  alpha Z        PSCENC =         6.19069281
  Ewald energy   TEWEN  =      8107.02527627
  -Hartree energ DENC   =    -15149.27443065
  -exchange      EXHF   =         0.00000000
  -V(xc)+E(xc)   XCENC  =       119.75682130
  PAW double counting   =      8133.48184261    -7965.14081022
  entropy T*S    EENTRO =        -0.03529949
  eigenvalues    EBANDS =      -670.49155106
  atomic energy  EATOM  =      7408.64415014
  Solvation  Ediel_sol  =         0.00000000
  ---------------------------------------------------
  free energy    TOTEN  =        -9.84330829 eV

  energy without entropy =       -9.80800880  energy(sigma->0) =       -9.83154179


--------------------------------------------------------------------------------------------------------




--------------------------------------- Iteration      1(  11)  ---------------------------------------


    POTLOK:  cpu time    4.0446: real time    4.0901
    SETDIJ:  cpu time    0.0263: real time    0.0263
     EDDAV:  cpu time    6.7624: real time    6.8207
       DOS:  cpu time    0.0125: real time    0.0125
    CHARGE:  cpu time    0.8242: real time    0.8248
    MIXING:  cpu time    0.1010: real time    0.1011
    --------------------------------------------
      LOOP:  cpu time   11.7709: real time   11.8754

 eigenvalue-minimisations  :   248
 total energy-change (2. order) :-0.1630352E+01  (-0.4147671E-01)
 number of electron      87.9999992 magnetization       3.9863270
 augmentation part       32.2314781 magnetization       1.7734344

 Broyden mixing:
  rms(total) = 0.66585E-01    rms(broyden)= 0.66584E-01
  rms(prec ) = 0.67606E-01
  weight for this iteration     100.00

 eigenvalues of (default mixing * dielectric matrix)
  average eigenvalue GAMMA=   1.2819
  2.6652  1.7708  1.0106  1.0106  0.6402  0.5941

 Free energy of the ion-electron system (eV)
  ---------------------------------------------------
  alpha Z        PSCENC =         6.19069281
  Ewald energy   TEWEN  =      8107.02527627
  -Hartree energ DENC   =    -15146.47157980
  -exchange      EXHF   =         0.00000000
  -V(xc)+E(xc)   XCENC  =       118.34781863
  PAW double counting   =      8127.59236889    -7959.43170681
  entropy T*S    EENTRO =        -0.02243046
  eigenvalues    EBANDS =      -673.34825002
  atomic energy  EATOM  =      7408.64415014
  Solvation  Ediel_sol  =         0.00000000
  ---------------------------------------------------
  free energy    TOTEN  =       -11.47366035 eV

  energy without entropy =      -11.45122989  energy(sigma->0) =      -11.46618353


--------------------------------------------------------------------------------------------------------




--------------------------------------- Iteration      1(  12)  ---------------------------------------


    POTLOK:  cpu time    4.0321: real time    4.0433
    SETDIJ:  cpu time    0.0265: real time    0.0265
     EDDAV:  cpu time    6.5983: real time    6.6059
       DOS:  cpu time    0.0103: real time    0.0103
    CHARGE:  cpu time    0.8430: real time    0.8444
    MIXING:  cpu time    0.1104: real time    0.1105
    --------------------------------------------
      LOOP:  cpu time   11.6207: real time   11.6409

 eigenvalue-minimisations  :   240
 total energy-change (2. order) :-0.1063034E+01  (-0.2496963E-01)
 number of electron      87.9999991 magnetization       3.3032313
 augmentation part       32.2320153 magnetization       1.0558438

 Broyden mixing:
  rms(total) = 0.47495E-01    rms(broyden)= 0.47494E-01
  rms(prec ) = 0.48723E-01
  weight for this iteration     100.00

 eigenvalues of (default mixing * dielectric matrix)
  average eigenvalue GAMMA=   1.4364
  3.2934  2.2240  1.4801  1.0479  0.7958  0.6381  0.5755

 Free energy of the ion-electron system (eV)
  ---------------------------------------------------
  alpha Z        PSCENC =         6.19069281
  Ewald energy   TEWEN  =      8107.02527627
  -Hartree energ DENC   =    -15143.94670931
  -exchange      EXHF   =         0.00000000
  -V(xc)+E(xc)   XCENC  =       117.39767056
  PAW double counting   =      8114.51107765    -7946.36267628
  entropy T*S    EENTRO =        -0.00672001
  eigenvalues    EBANDS =      -675.98945663
  atomic energy  EATOM  =      7408.64415014
  Solvation  Ediel_sol  =         0.00000000
  ---------------------------------------------------
  free energy    TOTEN  =       -12.53669481 eV

  energy without entropy =      -12.52997479  energy(sigma->0) =      -12.53445480


--------------------------------------------------------------------------------------------------------




--------------------------------------- Iteration      1(  13)  ---------------------------------------


    POTLOK:  cpu time    4.0486: real time    4.0542
    SETDIJ:  cpu time    0.0285: real time    0.0285
     EDDAV:  cpu time    6.9300: real time    6.9378
       DOS:  cpu time    0.0022: real time    0.0022
    CHARGE:  cpu time    0.8403: real time    0.8462
    MIXING:  cpu time    0.1214: real time    0.1215
    --------------------------------------------
      LOOP:  cpu time   11.9710: real time   11.9904

 eigenvalue-minimisations  :   256
 total energy-change (2. order) :-0.9530118E+00  (-0.2299654E-01)
 number of electron      87.9999991 magnetization       3.0255486
 augmentation part       32.2492175 magnetization       0.8075406

 Broyden mixing:
  rms(total) = 0.31448E-01    rms(broyden)= 0.31446E-01
  rms(prec ) = 0.32274E-01
  weight for this iteration     100.00

 eigenvalues of (default mixing * dielectric matrix)
  average eigenvalue GAMMA=   1.4267
  3.7290  2.0665  1.7897  1.0669  0.8704  0.7020  0.5944  0.5944

 Free energy of the ion-electron system (eV)
  ---------------------------------------------------
  alpha Z        PSCENC =         6.19069281
  Ewald energy   TEWEN  =      8107.02527627
  -Hartree energ DENC   =    -15139.20846050
  -exchange      EXHF   =         0.00000000
  -V(xc)+E(xc)   XCENC  =       116.43903996
  PAW double counting   =      8090.78174328    -7922.52525918
  entropy T*S    EENTRO =        -0.00144906
  eigenvalues    EBANDS =      -680.83544035
  atomic energy  EATOM  =      7408.64415014
  Solvation  Ediel_sol  =         0.00000000
  ---------------------------------------------------
  free energy    TOTEN  =       -13.48970663 eV

  energy without entropy =      -13.48825758  energy(sigma->0) =      -13.48922361


--------------------------------------------------------------------------------------------------------




--------------------------------------- Iteration      1(  14)  ---------------------------------------


    POTLOK:  cpu time    4.0703: real time    4.0750
    SETDIJ:  cpu time    0.0266: real time    0.0266
     EDDAV:  cpu time    7.3412: real time    7.3492
       DOS:  cpu time    0.0161: real time    0.0161
    CHARGE:  cpu time    0.8204: real time    0.8225
    MIXING:  cpu time    0.1252: real time    0.1253
    --------------------------------------------
      LOOP:  cpu time   12.3998: real time   12.4147

 eigenvalue-minimisations  :   280
 total energy-change (2. order) :-0.2086064E+00  (-0.1724317E-02)
 number of electron      87.9999991 magnetization       2.7032519
 augmentation part       32.2484123 magnetization       0.5175983

 Broyden mixing:
  rms(total) = 0.22594E-01    rms(broyden)= 0.22593E-01
  rms(prec ) = 0.23328E-01
  weight for this iteration     100.00

 eigenvalues of (default mixing * dielectric matrix)
  average eigenvalue GAMMA=   1.5014
  4.6582  2.2548  1.4730  1.4730  0.9200  0.7736  0.7736  0.5886  0.5977

 Free energy of the ion-electron system (eV)
  ---------------------------------------------------
  alpha Z        PSCENC =         6.19069281
  Ewald energy   TEWEN  =      8107.02527627
  -Hartree energ DENC   =    -15137.84327910
  -exchange      EXHF   =         0.00000000
  -V(xc)+E(xc)   XCENC  =       116.21064224
  PAW double counting   =      8090.81855476    -7922.55236883
  entropy T*S    EENTRO =        -0.00340679
  eigenvalues    EBANDS =      -682.18857457
  atomic energy  EATOM  =      7408.64415014
  Solvation  Ediel_sol  =         0.00000000
  ---------------------------------------------------
  free energy    TOTEN  =       -13.69831306 eV

  energy without entropy =      -13.69490628  energy(sigma->0) =      -13.69717747


--------------------------------------------------------------------------------------------------------




--------------------------------------- Iteration      1(  15)  ---------------------------------------


    POTLOK:  cpu time    4.0366: real time    4.0393
    SETDIJ:  cpu time    0.0250: real time    0.0250
     EDDAV:  cpu time    6.5198: real time    6.5244
       DOS:  cpu time    0.0057: real time    0.0136
    CHARGE:  cpu time    0.8038: real time    0.8043
    MIXING:  cpu time    0.1341: real time    0.1341
    --------------------------------------------
      LOOP:  cpu time   11.5250: real time   11.5408

 eigenvalue-minimisations  :   240
 total energy-change (2. order) :-0.2412305E+00  (-0.1352678E-02)
 number of electron      87.9999991 magnetization       2.4573034
 augmentation part       32.2516671 magnetization       0.3231400

 Broyden mixing:
  rms(total) = 0.17593E-01    rms(broyden)= 0.17593E-01
  rms(prec ) = 0.18152E-01
  weight for this iteration     100.00

 eigenvalues of (default mixing * dielectric matrix)
  average eigenvalue GAMMA=   1.5794
  5.4130  2.2245  1.8912  1.8912  1.0045  0.8505  0.6823  0.6823  0.6094  0.5449

 Free energy of the ion-electron system (eV)
  ---------------------------------------------------
  alpha Z        PSCENC =         6.19069281
  Ewald energy   TEWEN  =      8107.02527627
  -Hartree energ DENC   =    -15136.19971726
  -exchange      EXHF   =         0.00000000
  -V(xc)+E(xc)   XCENC  =       115.94229525
  PAW double counting   =      8092.38961271    -7924.08100286
  entropy T*S    EENTRO =        -0.00779284
  eigenvalues    EBANDS =      -683.84305773
  atomic energy  EATOM  =      7408.64415014
  Solvation  Ediel_sol  =         0.00000000
  ---------------------------------------------------
  free energy    TOTEN  =       -13.93954351 eV

  energy without entropy =      -13.93175067  energy(sigma->0) =      -13.93694590


--------------------------------------------------------------------------------------------------------




--------------------------------------- Iteration      1(  16)  ---------------------------------------


    POTLOK:  cpu time    4.0514: real time    4.0540
    SETDIJ:  cpu time    0.0265: real time    0.0265
     EDDAV:  cpu time    6.8241: real time    6.8323
       DOS:  cpu time    0.0029: real time    0.0029
    CHARGE:  cpu time    0.8325: real time    0.8330
    MIXING:  cpu time    0.1459: real time    0.1460
    --------------------------------------------
      LOOP:  cpu time   11.8832: real time   11.8948

 eigenvalue-minimisations  :   256
 total energy-change (2. order) :-0.1573764E+00  (-0.5093602E-03)
 number of electron      87.9999991 magnetization       2.2632751
 augmentation part       32.2481678 magnetization       0.1615834

 Broyden mixing:
  rms(total) = 0.10836E-01    rms(broyden)= 0.10835E-01
  rms(prec ) = 0.11245E-01
  weight for this iteration     100.00

 eigenvalues of (default mixing * dielectric matrix)
  average eigenvalue GAMMA=   1.7054
  6.7024  2.5338  1.9964  1.9964  1.2015  0.9148  0.9148  0.5612  0.6606  0.6606
  0.6169

 Free energy of the ion-electron system (eV)
  ---------------------------------------------------
  alpha Z        PSCENC =         6.19069281
  Ewald energy   TEWEN  =      8107.02527627
  -Hartree energ DENC   =    -15135.35388348
  -exchange      EXHF   =         0.00000000
  -V(xc)+E(xc)   XCENC  =       115.77331258
  PAW double counting   =      8097.19060244    -7928.85474690
  entropy T*S    EENTRO =        -0.01162778
  eigenvalues    EBANDS =      -684.70069600
  atomic energy  EATOM  =      7408.64415014
  Solvation  Ediel_sol  =         0.00000000
  ---------------------------------------------------
  free energy    TOTEN  =       -14.09691992 eV

  energy without entropy =      -14.08529214  energy(sigma->0) =      -14.09304399


--------------------------------------------------------------------------------------------------------




--------------------------------------- Iteration      1(  17)  ---------------------------------------


    POTLOK:  cpu time    4.0797: real time    4.0833
    SETDIJ:  cpu time    0.0262: real time    0.0262
     EDDAV:  cpu time    6.4080: real time    6.4127
       DOS:  cpu time    0.0100: real time    0.0100
    CHARGE:  cpu time    0.8090: real time    0.8096
    MIXING:  cpu time    0.1542: real time    0.1543
    --------------------------------------------
      LOOP:  cpu time   11.4869: real time   11.4961

 eigenvalue-minimisations  :   232
 total energy-change (2. order) :-0.1221117E+00  (-0.4326288E-03)
 number of electron      87.9999991 magnetization       2.1439099
 augmentation part       32.2482332 magnetization       0.0727018

 Broyden mixing:
  rms(total) = 0.68673E-02    rms(broyden)= 0.68661E-02
  rms(prec ) = 0.72330E-02
  weight for this iteration     100.00

 eigenvalues of (default mixing * dielectric matrix)
  average eigenvalue GAMMA=   1.7477
  7.5577  2.6626  2.1167  2.1167  1.3118  0.9449  0.9449  0.8274  0.7151  0.6348
  0.5955  0.5439

 Free energy of the ion-electron system (eV)
  ---------------------------------------------------
  alpha Z        PSCENC =         6.19069281
  Ewald energy   TEWEN  =      8107.02527627
  -Hartree energ DENC   =    -15134.44756104
  -exchange      EXHF   =         0.00000000
  -V(xc)+E(xc)   XCENC  =       115.63864188
  PAW double counting   =      8097.51087851    -7929.14042567
  entropy T*S    EENTRO =        -0.01448269
  eigenvalues    EBANDS =      -685.62620181
  atomic energy  EATOM  =      7408.64415014
  Solvation  Ediel_sol  =         0.00000000
  ---------------------------------------------------
  free energy    TOTEN  =       -14.21903160 eV

  energy without entropy =      -14.20454892  energy(sigma->0) =      -14.21420404


--------------------------------------------------------------------------------------------------------




--------------------------------------- Iteration      1(  18)  ---------------------------------------


    POTLOK:  cpu time    4.0156: real time    4.0190
    SETDIJ:  cpu time    0.0291: real time    0.0291
     EDDAV:  cpu time    6.0505: real time    6.0693
       DOS:  cpu time    0.0075: real time    0.0075
    CHARGE:  cpu time    0.7905: real time    0.7917
    MIXING:  cpu time    0.1648: real time    0.1650
    --------------------------------------------
      LOOP:  cpu time   11.0579: real time   11.0815

 eigenvalue-minimisations  :   216
 total energy-change (2. order) :-0.4871320E-01  (-0.1071824E-03)
 number of electron      87.9999991 magnetization       2.0556752
 augmentation part       32.2482118 magnetization       0.0040485

 Broyden mixing:
  rms(total) = 0.37477E-02    rms(broyden)= 0.37469E-02
  rms(prec ) = 0.40831E-02
  weight for this iteration     100.00

 eigenvalues of (default mixing * dielectric matrix)
  average eigenvalue GAMMA=   1.8279
  8.7684  2.7936  2.2245  2.2245  1.4956  1.0669  1.0669  0.8341  0.8341  0.6572
  0.6572  0.5897  0.5503

 Free energy of the ion-electron system (eV)
  ---------------------------------------------------
  alpha Z        PSCENC =         6.19069281
  Ewald energy   TEWEN  =      8107.02527627
  -Hartree energ DENC   =    -15133.88621601
  -exchange      EXHF   =         0.00000000
  -V(xc)+E(xc)   XCENC  =       115.58210973
  PAW double counting   =      8099.09524864    -7930.73169867
  entropy T*S    EENTRO =        -0.01630421
  eigenvalues    EBANDS =      -686.17100351
  atomic energy  EATOM  =      7408.64415014
  Solvation  Ediel_sol  =         0.00000000
  ---------------------------------------------------
  free energy    TOTEN  =       -14.26774481 eV

  energy without entropy =      -14.25144060  energy(sigma->0) =      -14.26231007


--------------------------------------------------------------------------------------------------------




--------------------------------------- Iteration      1(  19)  ---------------------------------------


    POTLOK:  cpu time    3.8907: real time    3.8988
    SETDIJ:  cpu time    0.0257: real time    0.0258
     EDDAV:  cpu time    4.7983: real time    4.8112
       DOS:  cpu time    0.0026: real time    0.0026
    CHARGE:  cpu time    0.8122: real time    0.8132
    MIXING:  cpu time    0.1826: real time    0.1829
    --------------------------------------------
      LOOP:  cpu time    9.7121: real time    9.7344

 eigenvalue-minimisations  :   160
 total energy-change (2. order) :-0.3028503E-01  (-0.3943518E-04)
 number of electron      87.9999991 magnetization       2.0296240
 augmentation part       32.2481290 magnetization      -0.0077515

 Broyden mixing:
  rms(total) = 0.20753E-02    rms(broyden)= 0.20749E-02
  rms(prec ) = 0.23756E-02
  weight for this iteration     100.00

 eigenvalues of (default mixing * dielectric matrix)
  average eigenvalue GAMMA=   1.8377
  9.2262  3.2114  2.4629  1.8700  1.8700  1.1307  1.1307  0.8780  0.7531  0.7531
  0.6557  0.6557  0.5848  0.5462

 Free energy of the ion-electron system (eV)
  ---------------------------------------------------
  alpha Z        PSCENC =         6.19069281
  Ewald energy   TEWEN  =      8107.02527627
  -Hartree energ DENC   =    -15133.48996034
  -exchange      EXHF   =         0.00000000
  -V(xc)+E(xc)   XCENC  =       115.54813438
  PAW double counting   =      8100.47153325    -7932.12002950
  entropy T*S    EENTRO =        -0.01783904
  eigenvalues    EBANDS =      -686.54998781
  atomic energy  EATOM  =      7408.64415014
  Solvation  Ediel_sol  =         0.00000000
  ---------------------------------------------------
  free energy    TOTEN  =       -14.29802984 eV

  energy without entropy =      -14.28019080  energy(sigma->0) =      -14.29208349


--------------------------------------------------------------------------------------------------------




--------------------------------------- Iteration      1(  20)  ---------------------------------------


    POTLOK:  cpu time    3.9690: real time    3.9823
    SETDIJ:  cpu time    0.0259: real time    0.0260
     EDDAV:  cpu time    5.2604: real time    5.2717
       DOS:  cpu time    0.0099: real time    0.0099
    CHARGE:  cpu time    0.7710: real time    0.7720
    MIXING:  cpu time    0.1793: real time    0.1795
    --------------------------------------------
      LOOP:  cpu time   10.2154: real time   10.2414

 eigenvalue-minimisations  :   184
 total energy-change (2. order) :-0.1137319E-01  (-0.9016243E-05)
 number of electron      87.9999991 magnetization       2.0181341
 augmentation part       32.2477669 magnetization      -0.0183817

 Broyden mixing:
  rms(total) = 0.12666E-02    rms(broyden)= 0.12666E-02
  rms(prec ) = 0.15245E-02
  weight for this iteration     100.00

 eigenvalues of (default mixing * dielectric matrix)
  average eigenvalue GAMMA=   1.8481
  9.4332  3.4695  2.4601  2.1270  2.1270  1.1252  1.1252  1.1427  0.8038  0.8038
  0.6731  0.6731  0.6377  0.5800  0.5406

 Free energy of the ion-electron system (eV)
  ---------------------------------------------------
  alpha Z        PSCENC =         6.19069281
  Ewald energy   TEWEN  =      8107.02527627
  -Hartree energ DENC   =    -15133.33694779
  -exchange      EXHF   =         0.00000000
  -V(xc)+E(xc)   XCENC  =       115.53831339
  PAW double counting   =      8100.35806850    -7932.01139127
  entropy T*S    EENTRO =        -0.01789842
  eigenvalues    EBANDS =      -686.69966666
  atomic energy  EATOM  =      7408.64415014
  Solvation  Ediel_sol  =         0.00000000
  ---------------------------------------------------
  free energy    TOTEN  =       -14.30940303 eV

  energy without entropy =      -14.29150461  energy(sigma->0) =      -14.30343689


--------------------------------------------------------------------------------------------------------




--------------------------------------- Iteration      1(  21)  ---------------------------------------


    POTLOK:  cpu time    3.9520: real time    3.9573
    SETDIJ:  cpu time    0.0254: real time    0.0254
     EDDAV:  cpu time    5.1352: real time    5.1458
       DOS:  cpu time    0.0093: real time    0.0093
    CHARGE:  cpu time    0.7851: real time    0.7863
    MIXING:  cpu time    0.1922: real time    0.1925
    --------------------------------------------
      LOOP:  cpu time   10.0992: real time   10.1165

 eigenvalue-minimisations  :   176
 total energy-change (2. order) :-0.6229027E-02  (-0.6146564E-05)
 number of electron      87.9999991 magnetization       2.0109683
 augmentation part       32.2477891 magnetization      -0.0251561

 Broyden mixing:
  rms(total) = 0.60097E-03    rms(broyden)= 0.60094E-03
  rms(prec ) = 0.84945E-03
  weight for this iteration     100.00

 eigenvalues of (default mixing * dielectric matrix)
  average eigenvalue GAMMA=   1.8378
  9.5996  3.8127  2.5704  2.1279  2.1279  1.4472  1.0789  1.0789  0.8672  0.8672
  0.7077  0.7077  0.5420  0.5852  0.6423  0.6423

 Free energy of the ion-electron system (eV)
  ---------------------------------------------------
  alpha Z        PSCENC =         6.19069281
  Ewald energy   TEWEN  =      8107.02527627
  -Hartree energ DENC   =    -15133.18341398
  -exchange      EXHF   =         0.00000000
  -V(xc)+E(xc)   XCENC  =       115.53294061
  PAW double counting   =      8099.64785041    -7931.30314400
  entropy T*S    EENTRO =        -0.01788589
  eigenvalues    EBANDS =      -686.85209843
  atomic energy  EATOM  =      7408.64415014
  Solvation  Ediel_sol  =         0.00000000
  ---------------------------------------------------
  free energy    TOTEN  =       -14.31563205 eV

  energy without entropy =      -14.29774616  energy(sigma->0) =      -14.30967009


--------------------------------------------------------------------------------------------------------




--------------------------------------- Iteration      1(  22)  ---------------------------------------


    POTLOK:  cpu time    3.8829: real time    3.8968
    SETDIJ:  cpu time    0.0254: real time    0.0254
     EDDAV:  cpu time    5.1309: real time    5.1417
       DOS:  cpu time    0.0015: real time    0.0015
    CHARGE:  cpu time    0.7783: real time    0.7822
    MIXING:  cpu time    0.2059: real time    0.2063
    --------------------------------------------
      LOOP:  cpu time   10.0250: real time   10.0538

 eigenvalue-minimisations  :   176
 total energy-change (2. order) :-0.2239129E-02  (-0.1820198E-05)
 number of electron      87.9999991 magnetization       2.0076929
 augmentation part       32.2478920 magnetization      -0.0281384

 Broyden mixing:
  rms(total) = 0.44190E-03    rms(broyden)= 0.44188E-03
  rms(prec ) = 0.63839E-03
  weight for this iteration     100.00

 eigenvalues of (default mixing * dielectric matrix)
  average eigenvalue GAMMA=   1.8348
  9.6466  4.1055  2.4045  2.2435  2.2435  1.8127  1.2509  0.9752  0.9752  0.8836
  0.8836  0.6984  0.6984  0.6375  0.5403  0.6067  0.5861

 Free energy of the ion-electron system (eV)
  ---------------------------------------------------
  alpha Z        PSCENC =         6.19069281
  Ewald energy   TEWEN  =      8107.02527627
  -Hartree energ DENC   =    -15133.06075222
  -exchange      EXHF   =         0.00000000
  -V(xc)+E(xc)   XCENC  =       115.53005026
  PAW double counting   =      8099.54973969    -7931.20536965
  entropy T*S    EENTRO =        -0.01795187
  eigenvalues    EBANDS =      -686.97370661
  atomic energy  EATOM  =      7408.64415014
  Solvation  Ediel_sol  =         0.00000000
  ---------------------------------------------------
  free energy    TOTEN  =       -14.31787118 eV

  energy without entropy =      -14.29991931  energy(sigma->0) =      -14.31188723


--------------------------------------------------------------------------------------------------------




--------------------------------------- Iteration      1(  23)  ---------------------------------------


    POTLOK:  cpu time    3.9653: real time    3.9813
    SETDIJ:  cpu time    0.0266: real time    0.0266
     EDDAV:  cpu time    4.9993: real time    5.0058
       DOS:  cpu time    0.0021: real time    0.0021
    CHARGE:  cpu time    0.7790: real time    0.7802
    MIXING:  cpu time    0.2263: real time    0.2294
    --------------------------------------------
      LOOP:  cpu time    9.9986: real time   10.0253

 eigenvalue-minimisations  :   168
 total energy-change (2. order) :-0.9224838E-03  (-0.1636705E-05)
 number of electron      87.9999991 magnetization       2.0051224
 augmentation part       32.2479838 magnetization      -0.0314894

 Broyden mixing:
  rms(total) = 0.27086E-03    rms(broyden)= 0.27085E-03
  rms(prec ) = 0.41542E-03
  weight for this iteration     100.00

 eigenvalues of (default mixing * dielectric matrix)
  average eigenvalue GAMMA=   1.8291
  9.6810  4.4224  2.5737  2.3277  2.3277  1.9304  1.2137  1.0882  1.0882  0.8791
  0.8791  0.7694  0.6884  0.6884  0.5417  0.5810  0.6222  0.6222

 Free energy of the ion-electron system (eV)
  ---------------------------------------------------
  alpha Z        PSCENC =         6.19069281
  Ewald energy   TEWEN  =      8107.02527627
  -Hartree energ DENC   =    -15132.92913913
  -exchange      EXHF   =         0.00000000
  -V(xc)+E(xc)   XCENC  =       115.52848804
  PAW double counting   =      8099.38635473    -7931.04047310
  entropy T*S    EENTRO =        -0.01787461
  eigenvalues    EBANDS =      -687.10626883
  atomic energy  EATOM  =      7408.64415014
  Solvation  Ediel_sol  =         0.00000000
  ---------------------------------------------------
  free energy    TOTEN  =       -14.31879367 eV

  energy without entropy =      -14.30091906  energy(sigma->0) =      -14.31283547


--------------------------------------------------------------------------------------------------------




--------------------------------------- Iteration      1(  24)  ---------------------------------------


    POTLOK:  cpu time    3.8671: real time    3.9010
    SETDIJ:  cpu time    0.0260: real time    0.0260
     EDDAV:  cpu time    5.0515: real time    5.0581
       DOS:  cpu time    0.0058: real time    0.0058
    CHARGE:  cpu time    0.8159: real time    0.8171
    MIXING:  cpu time    0.2424: real time    0.2427
    --------------------------------------------
      LOOP:  cpu time   10.0088: real time   10.0508

 eigenvalue-minimisations  :   168
 total energy-change (2. order) :-0.3567197E-03  (-0.7335436E-06)
 number of electron      87.9999991 magnetization       2.0038467
 augmentation part       32.2480683 magnetization      -0.0329071

 Broyden mixing:
  rms(total) = 0.18799E-03    rms(broyden)= 0.18798E-03
  rms(prec ) = 0.28494E-03
  weight for this iteration     100.00

 eigenvalues of (default mixing * dielectric matrix)
  average eigenvalue GAMMA=   1.8267
  9.6799  4.7096  2.6373  2.4094  2.4094  1.7691  1.7691  1.1751  1.0187  1.0187
  0.8072  0.8072  0.7608  0.6878  0.6878  0.5410  0.5812  0.6194  0.6194

 Free energy of the ion-electron system (eV)
  ---------------------------------------------------
  alpha Z        PSCENC =         6.19069281
  Ewald energy   TEWEN  =      8107.02527627
  -Hartree energ DENC   =    -15132.82755037
  -exchange      EXHF   =         0.00000000
  -V(xc)+E(xc)   XCENC  =       115.52729273
  PAW double counting   =      8099.42460240    -7931.07859358
  entropy T*S    EENTRO =        -0.01785571
  eigenvalues    EBANDS =      -687.20716508
  atomic energy  EATOM  =      7408.64415014
  Solvation  Ediel_sol  =         0.00000000
  ---------------------------------------------------
  free energy    TOTEN  =       -14.31915039 eV

  energy without entropy =      -14.30129468  energy(sigma->0) =      -14.31319848


--------------------------------------------------------------------------------------------------------




--------------------------------------- Iteration      1(  25)  ---------------------------------------


    POTLOK:  cpu time    3.8847: real time    3.8965
    SETDIJ:  cpu time    0.0258: real time    0.0258
     EDDAV:  cpu time    4.8273: real time    4.8373
       DOS:  cpu time    0.0061: real time    0.0061
    CHARGE:  cpu time    0.7876: real time    0.7885
    MIXING:  cpu time    0.2394: real time    0.2424
    --------------------------------------------
      LOOP:  cpu time    9.7708: real time    9.7966

 eigenvalue-minimisations  :   160
 total energy-change (2. order) :-0.4195541E-03  (-0.4643910E-06)
 number of electron      87.9999991 magnetization       2.0025135
 augmentation part       32.2480896 magnetization      -0.0345233

 Broyden mixing:
  rms(total) = 0.13287E-03    rms(broyden)= 0.13286E-03
  rms(prec ) = 0.18703E-03
  weight for this iteration     100.00

 eigenvalues of (default mixing * dielectric matrix)
  average eigenvalue GAMMA=   1.8578
  9.6762  5.0928  3.0257  2.7380  2.1748  2.1748  1.8496  1.2731  1.0618  1.0618
  0.8852  0.8852  0.8086  0.6992  0.6992  0.6946  0.5411  0.5809  0.6163  0.6163

 Free energy of the ion-electron system (eV)
  ---------------------------------------------------
  alpha Z        PSCENC =         6.19069281
  Ewald energy   TEWEN  =      8107.02527627
  -Hartree energ DENC   =    -15132.74342033
  -exchange      EXHF   =         0.00000000
  -V(xc)+E(xc)   XCENC  =       115.52624463
  PAW double counting   =      8099.48413420    -7931.13773682
  entropy T*S    EENTRO =        -0.01782841
  eigenvalues    EBANDS =      -687.29108243
  atomic energy  EATOM  =      7408.64415014
  Solvation  Ediel_sol  =         0.00000000
  ---------------------------------------------------
  free energy    TOTEN  =       -14.31956994 eV

  energy without entropy =      -14.30174153  energy(sigma->0) =      -14.31362714


--------------------------------------------------------------------------------------------------------




--------------------------------------- Iteration      1(  26)  ---------------------------------------


    POTLOK:  cpu time    3.8788: real time    3.8833
    SETDIJ:  cpu time    0.0255: real time    0.0256
     EDDAV:  cpu time    4.9154: real time    4.9218
       DOS:  cpu time    0.0047: real time    0.0047
    CHARGE:  cpu time    0.8097: real time    0.8104
    MIXING:  cpu time    0.2679: real time    0.2681
    --------------------------------------------
      LOOP:  cpu time    9.9020: real time    9.9140

 eigenvalue-minimisations  :   160
 total energy-change (2. order) :-0.3841236E-03  (-0.3427185E-06)
 number of electron      87.9999991 magnetization       2.0016215
 augmentation part       32.2481073 magnetization      -0.0354328

 Broyden mixing:
  rms(total) = 0.87859E-04    rms(broyden)= 0.87848E-04
  rms(prec ) = 0.10911E-03
  weight for this iteration     100.00

 eigenvalues of (default mixing * dielectric matrix)
  average eigenvalue GAMMA=   1.8905
  9.6823  5.7309  3.7036  2.4322  2.4322  2.3084  1.8510  1.5787  1.0521  1.0242
  1.0242  0.8588  0.8588  0.7715  0.6969  0.6969  0.5413  0.6506  0.5809  0.6122
  0.6122

 Free energy of the ion-electron system (eV)
  ---------------------------------------------------
  alpha Z        PSCENC =         6.19069281
  Ewald energy   TEWEN  =      8107.02527627
  -Hartree energ DENC   =    -15132.66941071
  -exchange      EXHF   =         0.00000000
  -V(xc)+E(xc)   XCENC  =       115.52526379
  PAW double counting   =      8099.54473159    -7931.19817696
  entropy T*S    EENTRO =        -0.01782320
  eigenvalues    EBANDS =      -687.36465779
  atomic energy  EATOM  =      7408.64415014
  Solvation  Ediel_sol  =         0.00000000
  ---------------------------------------------------
  free energy    TOTEN  =       -14.31995406 eV

  energy without entropy =      -14.30213086  energy(sigma->0) =      -14.31401300


--------------------------------------------------------------------------------------------------------




--------------------------------------- Iteration      1(  27)  ---------------------------------------


    POTLOK:  cpu time    4.1140: real time    4.4332
    SETDIJ:  cpu time    0.0261: real time    0.0261
     EDDAV:  cpu time    4.8835: real time    4.8877
       DOS:  cpu time    0.0022: real time    0.0022
    CHARGE:  cpu time    0.7852: real time    0.7859
    MIXING:  cpu time    0.2737: real time    0.2740
    --------------------------------------------
      LOOP:  cpu time   10.0847: real time   10.4091

 eigenvalue-minimisations  :   160
 total energy-change (2. order) :-0.1420493E-03  (-0.9472986E-07)
 number of electron      87.9999991 magnetization       2.0011224
 augmentation part       32.2481179 magnetization      -0.0357800

 Broyden mixing:
  rms(total) = 0.52741E-04    rms(broyden)= 0.52736E-04
  rms(prec ) = 0.65929E-04
  weight for this iteration     100.00

 eigenvalues of (default mixing * dielectric matrix)
  average eigenvalue GAMMA=   1.9473
  9.7055  6.8196  4.1934  2.6567  2.6567  2.0150  2.0150  1.7388  1.2444  1.0369
  1.0369  0.8496  0.8496  0.8369  0.8369  0.6889  0.6889  0.5410  0.6233  0.6233
  0.6041  0.5792

 Free energy of the ion-electron system (eV)
  ---------------------------------------------------
  alpha Z        PSCENC =         6.19069281
  Ewald energy   TEWEN  =      8107.02527627
  -Hartree energ DENC   =    -15132.64089400
  -exchange      EXHF   =         0.00000000
  -V(xc)+E(xc)   XCENC  =       115.52490104
  PAW double counting   =      8099.57699688    -7931.23072607
  entropy T*S    EENTRO =        -0.01784054
  eigenvalues    EBANDS =      -687.39265264
  atomic energy  EATOM  =      7408.64415014
  Solvation  Ediel_sol  =         0.00000000
  ---------------------------------------------------
  free energy    TOTEN  =       -14.32009611 eV

  energy without entropy =      -14.30225557  energy(sigma->0) =      -14.31414927


--------------------------------------------------------------------------------------------------------




--------------------------------------- Iteration      1(  28)  ---------------------------------------


    POTLOK:  cpu time    3.8805: real time    3.8986
    SETDIJ:  cpu time    0.0265: real time    0.0265
     EDDAV:  cpu time    4.9218: real time    4.9268
       DOS:  cpu time    0.0009: real time    0.0009
    --------------------------------------------
      LOOP:  cpu time    8.8297: real time    8.8528

 eigenvalue-minimisations  :   160
 total energy-change (2. order) :-0.6020167E-04  (-0.4157906E-07)
 number of electron      87.9999991 magnetization       2.0011224
 augmentation part       32.2481179 magnetization      -0.0357800

 Free energy of the ion-electron system (eV)
  ---------------------------------------------------
  alpha Z        PSCENC =         6.19069281
  Ewald energy   TEWEN  =      8107.02527627
  -Hartree energ DENC   =    -15132.62831900
  -exchange      EXHF   =         0.00000000
  -V(xc)+E(xc)   XCENC  =       115.52478643
  PAW double counting   =      8099.58517314    -7931.23905984
  entropy T*S    EENTRO =        -0.01784964
  eigenvalues    EBANDS =      -687.40500662
  atomic energy  EATOM  =      7408.64415014
  Solvation  Ediel_sol  =         0.00000000
  ---------------------------------------------------
  free energy    TOTEN  =       -14.32015632 eV

  energy without entropy =      -14.30230667  energy(sigma->0) =      -14.31420643


--------------------------------------------------------------------------------------------------------




 average (electrostatic) potential at core
  the test charge radii are     1.2098
  (the norm of the test charge is              1.0000)
       1 -77.2133       2 -77.2966       3 -77.2059       4 -77.5284       5 -77.3243
       6 -77.3196       7 -77.2714       8 -77.2742
 
 
 
 E-fermi :  -4.8827     XC(G=0):  -0.3318     alpha+bet : -0.1578


 spin component 1

 k-point     1 :       0.0000    0.0000    0.0000
  band No.  band energies     occupation 
      1     -11.7112      1.00000
      2     -11.2459      1.00000
      3     -10.4657      1.00000
      4      -9.9628      1.00000
      5      -9.7512      1.00000
      6      -9.6664      1.00000
      7      -9.4633      1.00000
      8      -9.4535      1.00000
      9      -9.2755      1.00000
     10      -9.1447      1.00000
     11      -9.1106      1.00000
     12      -9.0364      1.00000
     13      -8.8554      1.00000
     14      -8.7877      1.00000
     15      -8.5453      1.00000
     16      -8.3493      1.00000
     17      -8.3216      1.00000
     18      -8.1224      1.00000
     19      -7.9449      1.00000
     20      -7.8683      1.00000
     21      -7.6742      1.00000
     22      -7.5096      1.00000
     23      -7.3254      1.00000
     24      -7.2560      1.00000
     25      -7.2091      1.00000
     26      -7.1715      1.00000
     27      -7.1375      1.00000
     28      -7.0998      1.00000
     29      -7.0622      1.00000
     30      -7.0125      1.00000
     31      -6.9920      1.00000
     32      -6.9170      1.00000
     33      -6.8882      1.00000
     34      -6.7882      1.00000
     35      -6.6449      1.00000
     36      -6.4377      1.00000
     37      -6.4142      1.00000
     38      -6.3472      1.00000
     39      -6.2744      1.00000
     40      -6.1456      1.00000
     41      -6.0171      1.00000
     42      -6.0073      1.00000
     43      -5.1191      1.03516
     44      -5.0851      1.02634
     45      -5.0115      0.93893
     46      -4.2062     -0.00001
     47      -3.6576     -0.00000
     48      -2.9525     -0.00000
     49      -1.8359     -0.00000
     50      -1.4027     -0.00000
     51      -1.2941     -0.00000
     52      -1.1902     -0.00000
     53      -1.0782     -0.00000
     54      -0.9762     -0.00000
     55      -0.4756     -0.00000
     56      -0.1526     -0.00000

 spin component 2

 k-point     1 :       0.0000    0.0000    0.0000
  band No.  band energies     occupation 
      1     -11.6292      1.00000
      2     -11.1684      1.00000
      3     -10.3765      1.00000
      4      -9.8879      1.00000
      5      -9.6806      1.00000
      6      -9.5880      1.00000
      7      -9.3804      1.00000
      8      -9.3750      1.00000
      9      -9.1954      1.00000
     10      -9.0597      1.00000
     11      -9.0261      1.00000
     12      -8.9516      1.00000
     13      -8.7837      1.00000
     14      -8.7246      1.00000
     15      -8.4638      1.00000
     16      -8.2735      1.00000
     17      -8.2617      1.00000
     18      -8.0488      1.00000
     19      -7.8847      1.00000
     20      -7.7987      1.00000
     21      -7.5887      1.00000
     22      -7.4361      1.00000
     23      -7.2633      1.00000
     24      -7.1728      1.00000
     25      -7.1361      1.00000
     26      -7.0583      1.00000
     27      -7.0273      1.00000
     28      -7.0165      1.00000
     29      -6.9745      1.00000
     30      -6.9092      1.00000
     31      -6.9069      1.00000
     32      -6.8479      1.00000
     33      -6.8216      1.00000
     34      -6.7153      1.00000
     35      -6.5809      1.00000
     36      -6.3486      1.00000
     37      -6.2711      1.00000
[...]
  -Hartree energ DENC   =    -14604.52620424
  -exchange      EXHF   =         0.00000000
  -V(xc)+E(xc)   XCENC  =       113.87391271
  PAW double counting   =      7727.13368179    -7555.54368670
  entropy T*S    EENTRO =        -0.01260586
  eigenvalues    EBANDS =      -665.11143761
  atomic energy  EATOM  =      7408.64415014
  Solvation  Ediel_sol  =         0.00000000
  ---------------------------------------------------
  free energy    TOTEN  =       -15.20982675 eV

  energy without entropy =      -15.19722089  energy(sigma->0) =      -15.20562479


--------------------------------------------------------------------------------------------------------




--------------------------------------- Iteration     11(   6)  ---------------------------------------


    POTLOK:  cpu time    3.9075: real time    3.9134
    SETDIJ:  cpu time    0.0261: real time    0.0262
     EDDAV:  cpu time    4.8569: real time    4.8667
       DOS:  cpu time    0.0011: real time    0.0011
    --------------------------------------------
      LOOP:  cpu time    8.7917: real time    8.8074

 eigenvalue-minimisations  :   160
 total energy-change (2. order) :-0.9331993E-04  (-0.2669301E-05)
 number of electron      88.0000024 magnetization       1.5207183
 augmentation part       32.3659202 magnetization      -0.0343029

 Free energy of the ion-electron system (eV)
  ---------------------------------------------------
  alpha Z        PSCENC =         6.19069281
  Ewald energy   TEWEN  =      7554.14167022
  -Hartree energ DENC   =    -14604.53289089
  -exchange      EXHF   =         0.00000000
  -V(xc)+E(xc)   XCENC  =       113.87391122
  PAW double counting   =      7727.08462830    -7555.49448971
  entropy T*S    EENTRO =        -0.01271275
  eigenvalues    EBANDS =      -665.10487940
  atomic energy  EATOM  =      7408.64415014
  Solvation  Ediel_sol  =         0.00000000
  ---------------------------------------------------
  free energy    TOTEN  =       -15.20992007 eV

  energy without entropy =      -15.19720732  energy(sigma->0) =      -15.20568248


--------------------------------------------------------------------------------------------------------




 average (electrostatic) potential at core
  the test charge radii are     1.2098
  (the norm of the test charge is              1.0000)
       1 -76.9088       2 -77.1478       3 -76.8332       4 -77.4205       5 -77.1655
       6 -77.1898       7 -77.1112       8 -77.0885
 
 
 
 E-fermi :  -4.9927     XC(G=0):  -0.2918     alpha+bet : -0.1578


 spin component 1

 k-point     1 :       0.0000    0.0000    0.0000
  band No.  band energies     occupation 
      1     -10.9266      1.00000
      2     -10.2701      1.00000
      3      -9.8039      1.00000
      4      -9.3921      1.00000
      5      -9.3352      1.00000
      6      -9.0522      1.00000
      7      -8.9329      1.00000
      8      -8.8427      1.00000
      9      -8.7127      1.00000
     10      -8.6931      1.00000
     11      -8.5779      1.00000
     12      -8.5046      1.00000
     13      -8.2256      1.00000
     14      -8.2104      1.00000
     15      -8.1166      1.00000
     16      -7.9953      1.00000
     17      -7.8859      1.00000
     18      -7.7515      1.00000
     19      -7.6334      1.00000
     20      -7.5934      1.00000
     21      -7.4880      1.00000
     22      -7.3600      1.00000
     23      -7.2846      1.00000
     24      -7.1842      1.00000
     25      -7.1405      1.00000
     26      -7.0903      1.00000
     27      -7.0705      1.00000
     28      -6.9949      1.00000
     29      -6.9769      1.00000
     30      -6.9601      1.00000
     31      -6.8951      1.00000
     32      -6.7794      1.00000
     33      -6.7259      1.00000
     34      -6.7046      1.00000
     35      -6.5473      1.00000
     36      -6.5246      1.00000
     37      -6.4617      1.00000
     38      -6.4149      1.00000
     39      -6.2585      1.00000
     40      -6.1944      1.00000
     41      -6.0961      1.00000
     42      -6.0220      1.00000
     43      -5.2648      1.03311
     44      -5.1300      0.95506
     45      -5.0591      0.76459
     46      -4.2657     -0.00000
     47      -3.7119     -0.00000
     48      -3.0163     -0.00000
     49      -1.8913     -0.00000
     50      -1.4312     -0.00000
     51      -1.3901     -0.00000
     52      -1.2331     -0.00000
     53      -1.0896     -0.00000
     54      -1.0099     -0.00000
     55      -0.4873     -0.00000
     56      -0.2382     -0.00000

 spin component 2

 k-point     1 :       0.0000    0.0000    0.0000
  band No.  band energies     occupation 
      1     -10.8575      1.00000
      2     -10.2032      1.00000
      3      -9.7341      1.00000
      4      -9.3407      1.00000
      5      -9.2738      1.00000
      6      -8.9820      1.00000
      7      -8.8738      1.00000
      8      -8.7603      1.00000
      9      -8.6416      1.00000
     10      -8.6131      1.00000
     11      -8.5209      1.00000
     12      -8.4553      1.00000
     13      -8.1586      1.00000
     14      -8.1516      1.00000
     15      -8.0576      1.00000
     16      -7.9401      1.00000
     17      -7.8231      1.00000
     18      -7.6967      1.00000
     19      -7.5740      1.00000
     20      -7.5217      1.00000
     21      -7.4358      1.00000
     22      -7.3075      1.00000
     23      -7.2271      1.00000
     24      -7.1027      1.00000
     25      -7.0666      1.00000
     26      -7.0103      1.00000
     27      -6.9904      1.00000
     28      -6.9358      1.00000
     29      -6.9045      1.00000
     30      -6.8692      1.00000
     31      -6.8417      1.00000
     32      -6.7375      1.00000
     33      -6.6755      1.00000
     34      -6.6572      1.00000
     35      -6.4853      1.00000
     36      -6.4257      1.00000
     37      -6.3742      1.00000
     38      -6.3567      1.00000
     39      -6.1822      1.00000
     40      -6.1362      1.00000
     41      -6.0314      1.00000
     42      -5.9346      1.00000
     43      -5.1758      1.01401
     44      -4.9295      0.24698
     45      -4.8099     -0.01374
     46      -4.0428     -0.00000
     47      -3.6198     -0.00000
     48      -2.8258     -0.00000
     49      -1.7559     -0.00000
     50      -1.2858     -0.00000
     51      -1.2059     -0.00000
     52      -1.0738     -0.00000
     53      -0.9359     -0.00000
     54      -0.8005     -0.00000
     55      -0.3106     -0.00000
     56      -0.1181     -0.00000


--------------------------------------------------------------------------------------------------------


 soft charge-density along one line, spin component            1
         0         1         2         3         4         5         6         7         8         9
 total charge-density along one line
 
 soft charge-density along one line, spin component            2
         0         1         2         3         4         5         6         7         8         9
 total charge-density along one line
 
 pseudopotential strength for first ion, spin component:            1
 -9.314  -0.025  -0.014   0.018  -0.014  -9.433  -0.025  -0.013
 -0.025  -9.279   0.002   0.011  -0.014  -0.025  -9.399   0.002
 -0.014   0.002  -9.282  -0.017   0.002  -0.013   0.002  -9.402
  0.018   0.011  -0.017  -9.283  -0.011   0.018   0.011  -0.017
 -0.014  -0.014   0.002  -0.011  -9.308  -0.013  -0.014   0.002
 -9.433  -0.025  -0.013   0.018  -0.013  -9.536  -0.024  -0.013
 -0.025  -9.399   0.002   0.011  -0.014  -0.024  -9.503   0.002
 -0.013   0.002  -9.402  -0.017   0.002  -0.013   0.002  -9.507
  0.018   0.011  -0.017  -9.403  -0.011   0.017   0.011  -0.016
 -0.013  -0.014   0.002  -0.011  -9.427  -0.013  -0.013   0.002
 -0.009  -0.009  -0.010   0.016   0.002  -0.009  -0.009  -0.010
 -0.013  -0.012  -0.015   0.023   0.003  -0.013  -0.012  -0.015
 -0.007  -0.005  -0.012  -0.001  -0.022  -0.007  -0.005  -0.012
 -0.001   0.022  -0.006  -0.008  -0.001  -0.001   0.022  -0.006
  0.022  -0.001   0.004  -0.006  -0.009   0.021  -0.001   0.004
 -0.009  -0.006  -0.014  -0.001  -0.025  -0.009  -0.006  -0.013
 -0.001   0.025  -0.008  -0.011  -0.001  -0.001   0.025  -0.007
  0.025  -0.001   0.006  -0.008  -0.011   0.024  -0.001   0.006
 pseudopotential strength for first ion, spin component:            2
 -9.298  -0.026  -0.015   0.017  -0.004  -9.417  -0.026  -0.015
 -0.026  -9.272   0.005   0.014  -0.013  -0.026  -9.392   0.005
 -0.015   0.005  -9.267  -0.013   0.003  -0.015   0.005  -9.387
  0.017   0.014  -0.013  -9.272  -0.011   0.017   0.014  -0.012
 -0.004  -0.013   0.003  -0.011  -9.292  -0.004  -0.013   0.003
 -9.417  -0.026  -0.015   0.017  -0.004  -9.521  -0.025  -0.015
 -0.026  -9.392   0.005   0.014  -0.013  -0.025  -9.496   0.005
 -0.015   0.005  -9.387  -0.012   0.003  -0.015   0.005  -9.492
  0.017   0.014  -0.012  -9.392  -0.011   0.017   0.014  -0.012
 -0.004  -0.013   0.003  -0.011  -9.412  -0.004  -0.013   0.003
 -0.010  -0.009  -0.009   0.015   0.002  -0.010  -0.009  -0.009
 -0.015  -0.013  -0.012   0.022   0.003  -0.015  -0.013  -0.012
 -0.007  -0.005  -0.013  -0.001  -0.023  -0.007  -0.005  -0.013
 -0.001   0.024  -0.005  -0.008  -0.000  -0.001   0.023  -0.005
  0.024  -0.001   0.004  -0.006  -0.008   0.023  -0.001   0.004
 -0.009  -0.006  -0.016  -0.001  -0.027  -0.009  -0.006  -0.015
 -0.001   0.028  -0.006  -0.009  -0.001  -0.001   0.027  -0.006
  0.028  -0.001   0.005  -0.008  -0.009   0.027  -0.001   0.005
 total augmentation occupancy for first ion, spin component:            1
  3.459   0.196   0.046   0.153   0.202  -1.487  -0.342  -0.092  -0.047  -0.294   0.308   0.090  -0.007   0.076   0.229  -0.004
  0.196   3.200   0.003   0.076  -0.047  -0.343  -1.104  -0.030  -0.015   0.014   0.207   0.061   0.033   0.126   0.062  -0.005
  0.046   0.003   3.167   0.140   0.181  -0.091  -0.032  -1.100  -0.204  -0.151   0.451  -0.086  -0.118   0.085   0.007  -0.008
  0.153   0.076   0.140   3.190   0.333  -0.047  -0.017  -0.205  -1.088  -0.283  -0.767   0.169   0.009   0.111   0.097  -0.005
  0.202  -0.047   0.181   0.333   3.665  -0.294   0.016  -0.151  -0.283  -1.599  -0.025   0.013  -0.154   0.046   0.176  -0.017
 -1.487  -0.343  -0.091  -0.047  -0.294   1.454   0.458   0.132  -0.035   0.359  -0.285  -0.068   0.035  -0.078  -0.265  -0.003
 -0.342  -1.104  -0.032  -0.017   0.016   0.458   0.976   0.053  -0.034   0.010  -0.178  -0.056  -0.013  -0.151  -0.069  -0.000
 -0.092  -0.030  -1.100  -0.205  -0.151   0.132   0.053   0.980   0.242   0.134  -0.407   0.088   0.144  -0.096  -0.009  -0.005
 -0.047  -0.015  -0.204  -1.088  -0.283  -0.035  -0.034   0.242   0.947   0.247   0.676  -0.172  -0.026  -0.106  -0.072   0.004
 -0.294   0.014  -0.151  -0.283  -1.599   0.359   0.010   0.134   0.247   1.484  -0.008  -0.005   0.178  -0.041  -0.180  -0.004
  0.308   0.207   0.451  -0.767  -0.025  -0.285  -0.178  -0.407   0.676  -0.008   2.002  -0.316  -0.215  -0.030  -0.044   0.015
  0.090   0.061  -0.086   0.169   0.013  -0.068  -0.056   0.088  -0.172  -0.005  -0.316   0.107   0.051   0.036   0.050  -0.003
 -0.007   0.033  -0.118   0.009  -0.154   0.035  -0.013   0.144  -0.026   0.178  -0.215   0.051   0.065  -0.007  -0.011  -0.003
  0.076   0.126   0.085   0.111   0.046  -0.078  -0.151  -0.096  -0.106  -0.041  -0.030   0.036  -0.007   0.060   0.033   0.000
  0.229   0.062   0.007   0.097   0.176  -0.265  -0.069  -0.009  -0.072  -0.180  -0.044   0.050  -0.011   0.033   0.090   0.000
 -0.004  -0.005  -0.008  -0.005  -0.017  -0.003  -0.000  -0.005   0.004  -0.004   0.015  -0.003  -0.003   0.000   0.000   0.001
 -0.005   0.019  -0.008  -0.010  -0.003   0.004   0.004   0.004   0.004   0.002   0.002  -0.001   0.000  -0.002  -0.001  -0.000
  0.015  -0.004   0.004  -0.009  -0.013   0.008   0.004   0.000   0.003   0.007   0.003  -0.001   0.001  -0.001  -0.003  -0.000
 total augmentation occupancy for first ion, spin component:            2
  0.126  -0.009  -0.002  -0.021   0.132  -0.082   0.005   0.001   0.015  -0.082   0.043   0.013  -0.010  -0.003   0.033  -0.000
 -0.009   0.003   0.053   0.019   0.008   0.006  -0.003  -0.033  -0.011  -0.005   0.010   0.000  -0.008   0.010   0.001  -0.000
 -0.002   0.053   0.106   0.071   0.040   0.000  -0.033  -0.071  -0.046  -0.025   0.017   0.002  -0.016   0.028   0.003  -0.000
 -0.021   0.019   0.071   0.014   0.004   0.015  -0.010  -0.045  -0.011  -0.001   0.003   0.003  -0.007   0.016  -0.004  -0.000
  0.132   0.008   0.040   0.004   0.121  -0.082  -0.006  -0.025  -0.002  -0.076   0.043   0.012  -0.014   0.005   0.030  -0.000
 -0.082   0.006   0.000   0.015  -0.082   0.054  -0.002  -0.000  -0.012   0.050  -0.031  -0.004   0.008   0.002  -0.021   0.000
  0.005  -0.003  -0.033  -0.010  -0.006  -0.002   0.005   0.020   0.006   0.004  -0.009   0.001   0.005  -0.006  -0.001  -0.000
  0.001  -0.033  -0.071  -0.045  -0.025  -0.000   0.020   0.049   0.029   0.014  -0.009  -0.002   0.010  -0.018  -0.003   0.000
  0.015  -0.011  -0.046  -0.011  -0.002  -0.012   0.006   0.029   0.011  -0.000  -0.003  -0.001   0.005  -0.009   0.003   0.000
 -0.082  -0.005  -0.025  -0.001  -0.076   0.050   0.004   0.014  -0.000   0.048  -0.027  -0.007   0.009  -0.003  -0.017   0.000
  0.043   0.010   0.017   0.003   0.043  -0.031  -0.009  -0.009  -0.003  -0.027   0.022   0.001  -0.006   0.004   0.014  -0.000
  0.013   0.000   0.002   0.003   0.012  -0.004   0.001  -0.002  -0.001  -0.007   0.001   0.001  -0.001   0.000   0.002  -0.000
 -0.010  -0.008  -0.016  -0.007  -0.014   0.008   0.005   0.010   0.005   0.009  -0.006  -0.001   0.003  -0.004  -0.003   0.000
 -0.003   0.010   0.028   0.016   0.005   0.002  -0.006  -0.018  -0.009  -0.003   0.004   0.000  -0.004   0.006   0.000  -0.000
  0.033   0.001   0.003  -0.004   0.030  -0.021  -0.001  -0.003   0.003  -0.017   0.014   0.002  -0.003   0.000   0.007  -0.000
 -0.000  -0.000  -0.000  -0.000  -0.000   0.000  -0.000   0.000   0.000   0.000  -0.000  -0.000   0.000  -0.000  -0.000   0.000
 -0.000  -0.000  -0.000  -0.000  -0.000   0.000   0.000   0.000   0.000   0.000  -0.000  -0.000   0.000  -0.000  -0.000  -0.000
 -0.000  -0.000  -0.000  -0.000  -0.000   0.000   0.000   0.000  -0.000   0.000  -0.000   0.000   0.000  -0.000  -0.000  -0.000


------------------------ aborting loop because EDIFF is reached ----------------------------------------


    CHARGE:  cpu time    0.7925: real time    0.7939
    FORLOC:  cpu time    0.1114: real time    0.1116
    FORNL :  cpu time    3.8149: real time    3.8184
    FORCOR:  cpu time    3.7161: real time    3.7220
    FORHAR:  cpu time    0.4720: real time    0.4726
    MIXING:  cpu time    0.0893: real time    0.0894
    OFIELD:  cpu time    0.0000: real time    0.0000

 VOLUME and BASIS-vectors are now :
 -----------------------------------------------------------------------------
  energy-cutoff  :      400.00
  volume of cell :    12041.78
      direct lattice vectors                 reciprocal lattice vectors
    22.786374572  0.000000000  0.000000000     0.043885876  0.000000000  0.000000000
     0.000000000 23.221266257  0.000000000     0.000000000  0.043063974  0.000000000
     0.000000000  0.000000000 22.757758195     0.000000000  0.000000000  0.043941059

  length of vectors
    22.786374572 23.221266257 22.757758195     0.043885876  0.043063974  0.043941059


 FORCES acting on ions
    electron-ion (+dipol)            ewald-force                    non-local-force                 convergence-correction
 -----------------------------------------------------------------------------------------------
   -.210E+03 -.674E+03 -.204E+03   0.211E+03 0.670E+03 0.206E+03   -.150E+01 0.410E+01 -.124E+01   0.388E-01 0.453E-01 -.179E-01
   0.206E+03 -.444E+03 0.588E+03   -.206E+03 0.440E+03 -.584E+03   -.566E-01 0.330E+01 -.410E+01   -.455E-01 0.134E-01 0.202E-01
   -.440E+03 -.263E+03 -.421E+03   0.440E+03 0.265E+03 0.421E+03   0.707E+00 -.165E+01 0.473E+00   -.737E-01 -.101E-01 0.175E-02
   0.256E+03 0.179E+03 0.445E+03   -.256E+03 -.180E+03 -.445E+03   -.777E-01 0.134E+01 0.172E-01   -.329E-02 0.234E-02 0.355E-01
   -.418E+03 0.346E+03 0.576E+03   0.414E+03 -.344E+03 -.574E+03   0.419E+01 -.155E+01 -.202E+01   0.369E-01 -.554E-02 0.274E-01
   0.422E+03 0.570E+03 -.308E+03   -.420E+03 -.568E+03 0.305E+03   -.246E+01 -.198E+01 0.286E+01   0.169E-02 0.936E-02 0.195E-01
   0.684E+03 -.160E+03 -.298E+03   -.680E+03 0.160E+03 0.295E+03   -.362E+01 0.106E+00 0.389E+01   0.576E-02 -.535E-02 -.423E-01
   -.501E+03 0.446E+03 -.379E+03   0.498E+03 -.443E+03 0.377E+03   0.309E+01 -.321E+01 0.176E+01   0.244E-01 -.558E-01 -.402E-01
 -----------------------------------------------------------------------------------------------
   -.259E+00 -.453E+00 -.164E+01   -.568E-13 0.114E-12 0.114E-12   0.276E+00 0.459E+00 0.163E+01   -.149E-01 -.641E-02 0.409E-02
 
 
 POSITION                                       TOTAL-FORCE (eV/Angst)
 -----------------------------------------------------------------------------------
     11.84431     13.49231     11.56389        -0.055013     -0.029213     -0.003530
     10.24899     13.41002      9.18635         0.004117      0.010344      0.048951
     13.13504     11.37828     12.31794        -0.015077      0.081454     -0.045460
     10.99297     11.03657     10.19026        -0.018416     -0.018564      0.032962
     13.17289      9.53870     10.05427         0.020864     -0.017837     -0.023451
     11.33104      9.08304     12.01320        -0.019870      0.016353     -0.020699
      9.18587     12.57078     11.49896         0.049820      0.020246     -0.032092
     13.97709      8.87878     12.66972         0.033575     -0.062782      0.043319
 -----------------------------------------------------------------------------------
    total drift:                                0.002847     -0.000647      0.003116


--------------------------------------------------------------------------------------------------------



  FREE ENERGIE OF THE ION-ELECTRON SYSTEM (eV)
  ---------------------------------------------------
  free  energy   TOTEN  =       -15.20992007 eV

  energy  without entropy=      -15.19720732  energy(sigma->0) =      -15.20568248
 
 d Force = 0.7058170E-03[-0.100E-02, 0.241E-02]  d Energy =-0.7958136E-03 0.150E-02
 d Force = 0.1901600E+00[ 0.211E+00, 0.170E+00]  d Ewald  = 0.1900997E+00 0.603E-04


--------------------------------------------------------------------------------------------------------


    POTLOK:  cpu time    3.9459: real time    3.9513


--------------------------------------------------------------------------------------------------------




--------------------------------------------------------------------------------------------------------


  
 reached required accuracy - stopping structural energy minimisation
     LOOP+:  cpu time   76.2548: real time   76.9162
    4ORBIT:  cpu time    0.0000: real time    0.0000

 total amount of memory used by VASP MPI-rank0   237438. kBytes
=======================================================================

   base      :      30000. kBytes
   nonl-proj :       3719. kBytes
   fftplans  :      54947. kBytes
   grid      :     124239. kBytes
   one-center:         15. kBytes
   wavefun   :      24518. kBytes
 
  
  
 General timing and accounting informations for this job:
 ========================================================
  
                  Total CPU time used (sec):     1501.259
                            User time (sec):     1482.545
                          System time (sec):       18.713
                         Elapsed time (sec):     1516.819
  
                   Maximum memory used (kb):      478380.
                   Average memory used (kb):           0.
  
                          Minor page faults:      6425804
                          Major page faults:        28459
                 Voluntary context switches:         2380
