unknown system                          
            1
    22.786375    0.000000    0.000000
     0.000000   23.221266    0.000000
     0.000000    0.000000   22.757758
   Au
     8
Direct configuration=     1
   0.51371290  0.58002673  0.50243774
   0.45083159  0.57848454  0.40837852
   0.56997920  0.48534623  0.53674657
   0.48480915  0.47749674  0.45066099
   0.58107550  0.41060181  0.44800523
   0.50144406  0.39248207  0.52973477
   0.40687914  0.54346519  0.50426727
   0.61163438  0.38151956  0.55225566
Direct configuration=     2
   0.51823499  0.58134629  0.50538092
   0.44997178  0.58018320  0.40341228
   0.57101586  0.48970261  0.53859108
   0.48457613  0.47532083  0.44907446
   0.58165962  0.41039486  0.44305801
   0.49704004  0.39087454  0.53043263
   0.40257556  0.54244068  0.50699252
   0.61529193  0.37915984  0.55554483
Direct configuration=     3
   0.51771536  0.58119466  0.50504272
   0.45007058  0.57998801  0.40398295
   0.57089674  0.48920202  0.53837913
   0.48460290  0.47557086  0.44925677
   0.58159250  0.41041864  0.44362649
   0.49754610  0.39105926  0.53035244
   0.40307008  0.54255841  0.50667936
   0.61487164  0.37943099  0.55516688
Direct configuration=     4
   0.51800422  0.58176988  0.50536601
   0.44984774  0.57958245  0.40404507
   0.57186622  0.48893639  0.53909633
   0.48395940  0.47573704  0.44891997
   0.58140925  0.41033845  0.44332664
   0.49744293  0.39095401  0.53019938
   0.40312028  0.54235229  0.50623925
   0.61471585  0.37975234  0.55529408
Direct configuration=     5
   0.51835746  0.58247331  0.50576136
   0.44957524  0.57908650  0.40412104
   0.57305179  0.48861156  0.53997339
   0.48317248  0.47594026  0.44850809
   0.58118516  0.41024040  0.44295996
   0.49731677  0.39082529  0.53001221
   0.40318167  0.54210024  0.50570105
   0.61452534  0.38014531  0.55544963
Direct configuration=     6
   0.51906851  0.58234525  0.50643743
   0.44934718  0.57870716  0.40403719
   0.57370318  0.48902894  0.54038706
   0.48302519  0.47555196  0.44848624
   0.58039350  0.41040180  0.44277701
   0.49730100  0.39103373  0.52939780
   0.40318991  0.54184504  0.50531550
   0.61433745  0.38050898  0.55564851
Direct configuration=     7
   0.52030191  0.58212313  0.50761016
   0.44895159  0.57804914  0.40389174
   0.57483309  0.48975295  0.54110462
   0.48276970  0.47487839  0.44844832
   0.57902025  0.41068176  0.44245967
   0.49727365  0.39139531  0.52833201
   0.40320419  0.54140236  0.50464673
   0.61401154  0.38113981  0.55599349
Direct configuration=     8
   0.52038507  0.58174075  0.50787296
   0.44909978  0.57768742  0.40396441
   0.57528602  0.49000104  0.54123468
   0.48244696  0.47522652  0.44822202
   0.57874123  0.41067878  0.44224048
   0.49726287  0.39129392  0.52818522
   0.40331069  0.54129948  0.50457385
   0.61383329  0.38149494  0.55619313
Direct configuration=     9
   0.52039817  0.58168054  0.50791434
   0.44912311  0.57763047  0.40397585
   0.57535733  0.49004010  0.54125516
   0.48239615  0.47528134  0.44818639
   0.57869730  0.41067831  0.44220597
   0.49726118  0.39127795  0.52816210
   0.40332746  0.54128329  0.50456237
   0.61380522  0.38155086  0.55622456
Direct configuration=    10
   0.52015673  0.58141983  0.50800091
   0.44938973  0.57757340  0.40384788
   0.57579413  0.49002158  0.54125843
   0.48241228  0.47528023  0.44801920
   0.57845844  0.41071695  0.44204073
   0.49726575  0.39122712  0.52804567
   0.40324797  0.54130915  0.50484968
   0.61364088  0.38187459  0.55642425
Direct configuration=    11
   0.51979812  0.58103261  0.50812948
   0.44978575  0.57748864  0.40365781
   0.57644290  0.48999407  0.54126328
   0.48243624  0.47527858  0.44777089
   0.57810368  0.41077436  0.44179530
   0.49727255  0.39115162  0.52787274
   0.40312989  0.54134756  0.50527640
   0.61339678  0.38235542  0.55672083
