   8   8   0   0
  0.1296092E+04  0.2113307E-08  0.2130010E-08  0.2303465E-08  0.5000000E-15
   1.0000000000000000E-004
  CAR 
 unknown system                          
      1.97234423    -12.78902799  301     -5.10619692      1.00000000
    -12.789  0.0000E+00  0.0000E+00  0.0000E+00  0.0000E+00
    -12.740  0.0000E+00  0.0000E+00  0.0000E+00  0.0000E+00
    -12.691  0.0000E+00  0.0000E+00  0.0000E+00  0.0000E+00
    -12.641  0.0000E+00  0.0000E+00  0.0000E+00  0.0000E+00
    -12.592  0.0000E+00  0.0000E+00  0.0000E+00  0.0000E+00
    -12.543  0.0000E+00  0.0000E+00  0.0000E+00  0.0000E+00
    -12.494  0.0000E+00  0.0000E+00  0.0000E+00  0.0000E+00
    -12.445  0.0000E+00  0.0000E+00  0.0000E+00  0.0000E+00
    -12.395 -0.4434E-29 -0.4434E-29 -0.2182E-30 -0.2182E-30
    -12.346 -0.2061E-27 -0.2061E-27 -0.1036E-28 -0.1036E-28
    -12.297 -0.8638E-26 -0.8639E-26 -0.4354E-27 -0.4354E-27
    -12.248 -0.3203E-24 -0.3203E-24 -0.1620E-25 -0.1620E-25
    -12.199 -0.1051E-22 -0.1051E-22 -0.5331E-24 -0.5331E-24
    -12.149 -0.3048E-21 -0.3048E-21 -0.1553E-22 -0.1553E-22
    -12.100 -0.7819E-20 -0.7819E-20 -0.4003E-21 -0.4003E-21
    -12.051 -0.1774E-18 -0.1774E-18 -0.9127E-20 -0.9128E-20
    -12.002 -0.3557E-17 -0.3557E-17 -0.1841E-18 -0.1841E-18
    -11.953 -0.6077E-16 -0.6078E-16 -0.3174E-17 -0.3175E-17
    -11.903 -0.9554E-15 -0.9554E-15 -0.5018E-16 -0.5018E-16
    -11.854 -0.1317E-13 -0.1317E-13 -0.6984E-15 -0.6984E-15
    -11.805 -0.1603E-12 -0.1603E-12 -0.8586E-14 -0.8586E-14
    -11.756 -0.1721E-11 -0.1721E-11 -0.9325E-13 -0.9325E-13
    -11.707 -0.1628E-10 -0.1628E-10 -0.8944E-12 -0.8944E-12
    -11.657 -0.1357E-09 -0.1357E-09 -0.7572E-11 -0.7572E-11
    -11.608 -0.9954E-09 -0.9955E-09 -0.5655E-10 -0.5655E-10
    -11.559 -0.6419E-08 -0.6419E-08 -0.3724E-09 -0.3724E-09
    -11.510 -0.3633E-07 -0.3633E-07 -0.2160E-08 -0.2160E-08
    -11.461 -0.1801E-06 -0.1801E-06 -0.1102E-07 -0.1102E-07
    -11.411 -0.7806E-06 -0.7806E-06 -0.4943E-07 -0.4943E-07
    -11.362 -0.2946E-05 -0.2946E-05 -0.1944E-06 -0.1944E-06
    -11.313 -0.9634E-05 -0.9634E-05 -0.6684E-06 -0.6684E-06
    -11.264 -0.2709E-04 -0.2709E-04 -0.2002E-05 -0.2002E-05
    -11.214 -0.6474E-04 -0.6474E-04 -0.5187E-05 -0.5187E-05
    -11.165 -0.1285E-03 -0.1285E-03 -0.1151E-04 -0.1151E-04
    -11.116 -0.2019E-03 -0.2019E-03 -0.2145E-04 -0.2145E-04
    -11.067 -0.2177E-03 -0.2177E-03 -0.3216E-04 -0.3216E-04
    -11.018 -0.4381E-04 -0.4380E-04 -0.3432E-04 -0.3432E-04
    -10.968  0.4758E-03  0.4758E-03 -0.1090E-04 -0.1090E-04
    -10.919  0.1408E-02  0.1408E-02  0.5836E-04  0.5836E-04
    -10.870  0.2602E-02  0.2602E-02  0.1864E-03  0.1864E-03
    -10.821  0.3676E-02  0.3676E-02  0.3672E-03  0.3672E-03
    -10.772  0.4187E-02  0.4187E-02  0.5733E-03  0.5733E-03
    -10.722  0.3901E-02  0.3901E-02  0.7652E-03  0.7652E-03
    -10.673  0.2950E-02  0.2950E-02  0.9104E-03  0.9104E-03
    -10.624  0.1744E-02  0.1744E-02  0.9962E-03  0.9962E-03
    -10.575  0.7078E-03  0.7078E-03  0.1031E-02  0.1031E-02
    -10.526  0.6559E-04  0.6559E-04  0.1034E-02  0.1034E-02
    -10.476 -0.1983E-03 -0.1983E-03  0.1024E-02  0.1024E-02
    -10.427 -0.2321E-03 -0.2321E-03  0.1013E-02  0.1013E-02
    -10.378 -0.1919E-03 -0.1919E-03  0.1004E-02  0.1004E-02
    -10.329 -0.1783E-03 -0.1783E-03  0.9948E-03  0.9948E-03
    -10.280 -0.2299E-03 -0.2299E-03  0.9835E-03  0.9835E-03
    -10.230 -0.3258E-03 -0.3258E-03  0.9675E-03  0.9675E-03
    -10.181 -0.3674E-03 -0.3674E-03  0.9494E-03  0.9494E-03
    -10.132 -0.1609E-03 -0.1609E-03  0.9415E-03  0.9415E-03
    -10.083  0.5439E-03  0.5439E-03  0.9683E-03  0.9683E-03
    -10.034  0.1918E-02  0.1918E-02  0.1063E-02  0.1063E-02
     -9.984  0.3864E-02  0.3864E-02  0.1253E-02  0.1253E-02
     -9.935  0.5920E-02  0.5920E-02  0.1544E-02  0.1544E-02
     -9.886  0.7389E-02  0.7389E-02  0.1908E-02  0.1908E-02
     -9.837  0.7682E-02  0.7682E-02  0.2286E-02  0.2286E-02
     -9.788  0.6658E-02  0.6658E-02  0.2613E-02  0.2613E-02
     -9.738  0.4715E-02  0.4715E-02  0.2845E-02  0.2845E-02
     -9.689  0.2568E-02  0.2568E-02  0.2972E-02  0.2972E-02
     -9.640  0.9084E-03  0.9084E-03  0.3016E-02  0.3016E-02
     -9.591  0.1434E-03  0.1434E-03  0.3023E-02  0.3023E-02
     -9.542  0.3334E-03  0.3334E-03  0.3040E-02  0.3040E-02
     -9.492  0.1237E-02  0.1237E-02  0.3101E-02  0.3101E-02
     -9.443  0.2411E-02  0.2411E-02  0.3219E-02  0.3219E-02
     -9.394  0.3389E-02  0.3389E-02  0.3386E-02  0.3386E-02
     -9.345  0.3924E-02  0.3924E-02  0.3579E-02  0.3579E-02
     -9.296  0.4159E-02  0.4159E-02  0.3784E-02  0.3784E-02
     -9.246  0.4511E-02  0.4511E-02  0.4006E-02  0.4006E-02
     -9.197  0.5305E-02  0.5305E-02  0.4267E-02  0.4267E-02
     -9.148  0.6460E-02  0.6460E-02  0.4585E-02  0.4585E-02
     -9.099  0.7560E-02  0.7560E-02  0.4956E-02  0.4956E-02
     -9.049  0.8241E-02  0.8241E-02  0.5362E-02  0.5362E-02
     -9.000  0.8528E-02  0.8528E-02  0.5782E-02  0.5782E-02
     -8.951  0.8769E-02  0.8769E-02  0.6213E-02  0.6213E-02
     -8.902  0.9289E-02  0.9289E-02  0.6670E-02  0.6670E-02
     -8.853  0.1012E-01  0.1012E-01  0.7168E-02  0.7168E-02
     -8.803  0.1104E-01  0.1104E-01  0.7712E-02  0.7712E-02
     -8.754  0.1178E-01  0.1178E-01  0.8291E-02  0.8291E-02
     -8.705  0.1207E-01  0.1207E-01  0.8885E-02  0.8885E-02
     -8.656  0.1166E-01  0.1166E-01  0.9459E-02  0.9459E-02
     -8.607  0.1042E-01  0.1042E-01  0.9972E-02  0.9972E-02
     -8.557  0.8592E-02  0.8592E-02  0.1039E-01  0.1039E-01
     -8.508  0.6983E-02  0.6983E-02  0.1074E-01  0.1074E-01
     -8.459  0.6647E-02  0.6647E-02  0.1107E-01  0.1107E-01
     -8.410  0.8217E-02  0.8217E-02  0.1147E-01  0.1147E-01
     -8.361  0.1137E-01  0.1137E-01  0.1203E-01  0.1203E-01
     -8.311  0.1494E-01  0.1494E-01  0.1276E-01  0.1276E-01
     -8.262  0.1756E-01  0.1756E-01  0.1363E-01  0.1363E-01
     -8.213  0.1848E-01  0.1848E-01  0.1454E-01  0.1454E-01
     -8.164  0.1770E-01  0.1770E-01  0.1541E-01  0.1541E-01
     -8.115  0.1575E-01  0.1575E-01  0.1618E-01  0.1618E-01
     -8.065  0.1316E-01  0.1316E-01  0.1683E-01  0.1683E-01
     -8.016  0.1032E-01  0.1032E-01  0.1734E-01  0.1734E-01
     -7.967  0.7597E-02  0.7597E-02  0.1771E-01  0.1771E-01
     -7.918  0.5396E-02  0.5396E-02  0.1798E-01  0.1798E-01
     -7.869  0.4031E-02  0.4031E-02  0.1818E-01  0.1818E-01
     -7.819  0.3472E-02  0.3472E-02  0.1835E-01  0.1835E-01
     -7.770  0.3329E-02  0.3329E-02  0.1851E-01  0.1851E-01
     -7.721  0.3183E-02  0.3183E-02  0.1867E-01  0.1867E-01
     -7.672  0.2963E-02  0.2963E-02  0.1881E-01  0.1881E-01
     -7.623  0.3019E-02  0.3019E-02  0.1896E-01  0.1896E-01
     -7.573  0.3796E-02  0.3796E-02  0.1915E-01  0.1915E-01
     -7.524  0.5421E-02  0.5421E-02  0.1942E-01  0.1942E-01
     -7.475  0.7546E-02  0.7546E-02  0.1979E-01  0.1979E-01
     -7.426  0.9576E-02  0.9576E-02  0.2026E-01  0.2026E-01
     -7.377  0.1103E-01  0.1103E-01  0.2080E-01  0.2080E-01
     -7.327  0.1178E-01  0.1178E-01  0.2138E-01  0.2138E-01
     -7.278  0.1201E-01  0.1201E-01  0.2197E-01  0.2197E-01
     -7.229  0.1209E-01  0.1209E-01  0.2257E-01  0.2257E-01
     -7.180  0.1233E-01  0.1233E-01  0.2317E-01  0.2317E-01
     -7.131  0.1285E-01  0.1285E-01  0.2381E-01  0.2381E-01
     -7.081  0.1351E-01  0.1351E-01  0.2447E-01  0.2447E-01
     -7.032  0.1399E-01  0.1399E-01  0.2516E-01  0.2516E-01
     -6.983  0.1400E-01  0.1400E-01  0.2585E-01  0.2585E-01
     -6.934  0.1345E-01  0.1345E-01  0.2651E-01  0.2651E-01
     -6.884  0.1255E-01  0.1255E-01  0.2713E-01  0.2713E-01
     -6.835  0.1171E-01  0.1171E-01  0.2770E-01  0.2770E-01
     -6.786  0.1135E-01  0.1135E-01  0.2826E-01  0.2826E-01
     -6.737  0.1186E-01  0.1186E-01  0.2885E-01  0.2885E-01
     -6.688  0.1337E-01  0.1337E-01  0.2950E-01  0.2950E-01
     -6.638  0.1553E-01  0.1553E-01  0.3027E-01  0.3027E-01
     -6.589  0.1759E-01  0.1759E-01  0.3113E-01  0.3113E-01
     -6.540  0.1864E-01  0.1864E-01  0.3205E-01  0.3205E-01
     -6.491  0.1819E-01  0.1819E-01  0.3295E-01  0.3295E-01
     -6.442  0.1648E-01  0.1648E-01  0.3376E-01  0.3376E-01
     -6.392  0.1435E-01  0.1435E-01  0.3446E-01  0.3446E-01
     -6.343  0.1288E-01  0.1288E-01  0.3510E-01  0.3510E-01
     -6.294  0.1285E-01  0.1285E-01  0.3573E-01  0.3573E-01
     -6.245  0.1436E-01  0.1436E-01  0.3644E-01  0.3644E-01
     -6.196  0.1668E-01  0.1668E-01  0.3726E-01  0.3726E-01
     -6.146  0.1855E-01  0.1855E-01  0.3817E-01  0.3817E-01
     -6.097  0.1888E-01  0.1888E-01  0.3910E-01  0.3910E-01
     -6.048  0.1732E-01  0.1732E-01  0.3995E-01  0.3995E-01
     -5.999  0.1435E-01  0.1435E-01  0.4066E-01  0.4066E-01
     -5.950  0.1085E-01  0.1085E-01  0.4119E-01  0.4119E-01
     -5.900  0.7545E-02  0.7545E-02  0.4156E-01  0.4156E-01
     -5.851  0.4841E-02  0.4841E-02  0.4180E-01  0.4180E-01
     -5.802  0.2898E-02  0.2898E-02  0.4194E-01  0.4194E-01
     -5.753  0.1836E-02  0.1836E-02  0.4203E-01  0.4203E-01
     -5.704  0.1697E-02  0.1697E-02  0.4212E-01  0.4212E-01
     -5.654  0.2285E-02  0.2285E-02  0.4223E-01  0.4223E-01
     -5.605  0.3115E-02  0.3115E-02  0.4238E-01  0.4238E-01
     -5.556  0.3642E-02  0.3642E-02  0.4256E-01  0.4256E-01
     -5.507  0.3614E-02  0.3614E-02  0.4274E-01  0.4274E-01
     -5.458  0.3238E-02  0.3238E-02  0.4290E-01  0.4290E-01
     -5.408  0.2982E-02  0.2982E-02  0.4304E-01  0.4304E-01
     -5.359  0.3155E-02  0.3155E-02  0.4320E-01  0.4320E-01
     -5.310  0.3637E-02  0.3637E-02  0.4338E-01  0.4338E-01
     -5.261  0.3973E-02  0.3973E-02  0.4357E-01  0.4357E-01
     -5.212  0.3755E-02  0.3755E-02  0.4376E-01  0.4376E-01
     -5.162  0.2930E-02  0.2930E-02  0.4390E-01  0.4390E-01
     -5.113  0.1799E-02  0.1799E-02  0.4399E-01  0.4399E-01
     -5.064  0.7730E-03  0.7729E-03  0.4403E-01  0.4403E-01
     -5.015  0.1057E-03  0.1057E-03  0.4404E-01  0.4404E-01
     -4.966 -0.1832E-03 -0.1832E-03  0.4403E-01  0.4403E-01
     -4.916 -0.2226E-03 -0.2226E-03  0.4402E-01  0.4402E-01
     -4.867 -0.1599E-03 -0.1599E-03  0.4401E-01  0.4401E-01
     -4.818 -0.8778E-04 -0.8778E-04  0.4400E-01  0.4400E-01
     -4.769 -0.3947E-04 -0.3947E-04  0.4400E-01  0.4400E-01
     -4.719 -0.1497E-04 -0.1497E-04  0.4400E-01  0.4400E-01
     -4.670 -0.4864E-05 -0.4864E-05  0.4400E-01  0.4400E-01
     -4.621 -0.1380E-05 -0.1380E-05  0.4400E-01  0.4400E-01
     -4.572 -0.4157E-06 -0.4157E-06  0.4400E-01  0.4400E-01
     -4.523 -0.4542E-06 -0.4541E-06  0.4400E-01  0.4400E-01
     -4.473 -0.1563E-05 -0.1563E-05  0.4400E-01  0.4400E-01
     -4.424 -0.5451E-05 -0.5450E-05  0.4400E-01  0.4400E-01
     -4.375 -0.1654E-04 -0.1654E-04  0.4400E-01  0.4400E-01
     -4.326 -0.4300E-04 -0.4300E-04  0.4400E-01  0.4400E-01
     -4.277 -0.9418E-04 -0.9417E-04  0.4399E-01  0.4399E-01
     -4.227 -0.1687E-03 -0.1687E-03  0.4398E-01  0.4398E-01
     -4.178 -0.2303E-03 -0.2303E-03  0.4397E-01  0.4397E-01
     -4.129 -0.1840E-03 -0.1840E-03  0.4396E-01  0.4396E-01
     -4.080  0.1133E-03  0.1133E-03  0.4397E-01  0.4397E-01
     -4.031  0.7748E-03  0.7747E-03  0.4401E-01  0.4401E-01
     -3.981  0.1763E-02  0.1763E-02  0.4409E-01  0.4409E-01
     -3.932  0.2834E-02  0.2834E-02  0.4423E-01  0.4423E-01
     -3.883  0.3655E-02  0.3655E-02  0.4441E-01  0.4441E-01
     -3.834  0.4067E-02  0.4067E-02  0.4461E-01  0.4461E-01
     -3.785  0.4259E-02  0.4259E-02  0.4482E-01  0.4482E-01
     -3.735  0.4649E-02  0.4649E-02  0.4505E-01  0.4505E-01
     -3.686  0.5515E-02  0.5515E-02  0.4532E-01  0.4532E-01
     -3.637  0.6713E-02  0.6713E-02  0.4565E-01  0.4565E-01
     -3.588  0.7760E-02  0.7760E-02  0.4604E-01  0.4604E-01
     -3.539  0.8207E-02  0.8207E-02  0.4644E-01  0.4644E-01
     -3.489  0.7937E-02  0.7937E-02  0.4683E-01  0.4683E-01
     -3.440  0.7139E-02  0.7139E-02  0.4718E-01  0.4718E-01
     -3.391  0.6053E-02  0.6053E-02  0.4748E-01  0.4748E-01
     -3.342  0.4803E-02  0.4803E-02  0.4771E-01  0.4771E-01
     -3.293  0.3443E-02  0.3443E-02  0.4788E-01  0.4788E-01
     -3.243  0.2094E-02  0.2094E-02  0.4799E-01  0.4799E-01
     -3.194  0.9556E-03  0.9556E-03  0.4803E-01  0.4803E-01
     -3.145  0.1885E-03  0.1885E-03  0.4804E-01  0.4804E-01
     -3.096 -0.1837E-03 -0.1837E-03  0.4803E-01  0.4803E-01
     -3.047 -0.2677E-03 -0.2677E-03  0.4802E-01  0.4802E-01
     -2.997 -0.2113E-03 -0.2113E-03  0.4801E-01  0.4801E-01
     -2.948 -0.1255E-03 -0.1255E-03  0.4800E-01  0.4800E-01
     -2.899 -0.6072E-04 -0.6072E-04  0.4800E-01  0.4800E-01
     -2.850 -0.2470E-04 -0.2470E-04  0.4800E-01  0.4800E-01
     -2.800 -0.8598E-05 -0.8598E-05  0.4800E-01  0.4800E-01
     -2.751 -0.2648E-05 -0.2648E-05  0.4800E-01  0.4800E-01
     -2.702 -0.1012E-05 -0.1012E-05  0.4800E-01  0.4800E-01
     -2.653 -0.1554E-05 -0.1554E-05  0.4800E-01  0.4800E-01
     -2.604 -0.5035E-05 -0.5034E-05  0.4800E-01  0.4800E-01
     -2.554 -0.1549E-04 -0.1548E-04  0.4800E-01  0.4800E-01
     -2.505 -0.4117E-04 -0.4117E-04  0.4800E-01  0.4800E-01
     -2.456 -0.9301E-04 -0.9300E-04  0.4799E-01  0.4799E-01
     -2.407 -0.1745E-03 -0.1745E-03  0.4798E-01  0.4798E-01
     -2.358 -0.2587E-03 -0.2587E-03  0.4797E-01  0.4797E-01
     -2.308 -0.2600E-03 -0.2600E-03  0.4796E-01  0.4796E-01
     -2.259 -0.2807E-04 -0.2811E-04  0.4796E-01  0.4796E-01
     -2.210  0.6024E-03  0.6023E-03  0.4799E-01  0.4799E-01
     -2.161  0.1708E-02  0.1707E-02  0.4807E-01  0.4807E-01
     -2.112  0.3180E-02  0.3180E-02  0.4823E-01  0.4823E-01
     -2.062  0.4722E-02  0.4722E-02  0.4846E-01  0.4846E-01
     -2.013  0.5953E-02  0.5953E-02  0.4875E-01  0.4875E-01
     -1.964  0.6554E-02  0.6554E-02  0.4907E-01  0.4907E-01
     -1.915  0.6370E-02  0.6370E-02  0.4939E-01  0.4939E-01
     -1.866  0.5445E-02  0.5445E-02  0.4966E-01  0.4966E-01
     -1.816  0.4015E-02  0.4015E-02  0.4985E-01  0.4985E-01
     -1.767  0.2436E-02  0.2437E-02  0.4997E-01  0.4997E-01
     -1.718  0.1059E-02  0.1060E-02  0.5003E-01  0.5003E-01
     -1.669  0.1008E-03  0.1012E-03  0.5003E-01  0.5003E-01
     -1.620 -0.3939E-03 -0.3937E-03  0.5001E-01  0.5001E-01
     -1.570 -0.4669E-03 -0.4673E-03  0.4999E-01  0.4999E-01
     -1.521 -0.1392E-03 -0.1406E-03  0.4998E-01  0.4998E-01
     -1.472  0.6060E-03  0.6034E-03  0.5001E-01  0.5001E-01
     -1.423  0.1714E-02  0.1710E-02  0.5010E-01  0.5010E-01
     -1.374  0.2932E-02  0.2929E-02  0.5024E-01  0.5024E-01
     -1.324  0.3831E-02  0.3829E-02  0.5043E-01  0.5043E-01
     -1.275  0.4017E-02  0.4018E-02  0.5063E-01  0.5063E-01
     -1.226  0.3416E-02  0.3419E-02  0.5079E-01  0.5079E-01
     -1.177  0.2373E-02  0.2376E-02  0.5091E-01  0.5091E-01
     -1.128  0.1488E-02  0.1490E-02  0.5098E-01  0.5098E-01
     -1.078  0.1269E-02  0.1268E-02  0.5105E-01  0.5105E-01
     -1.029  0.1839E-02  0.1836E-02  0.5114E-01  0.5114E-01
     -0.980  0.2861E-02  0.2858E-02  0.5128E-01  0.5128E-01
     -0.931  0.3732E-02  0.3730E-02  0.5146E-01  0.5146E-01
     -0.882  0.3924E-02  0.3925E-02  0.5165E-01  0.5165E-01
     -0.832  0.3295E-02  0.3298E-02  0.5182E-01  0.5182E-01
     -0.783  0.2146E-02  0.2150E-02  0.5192E-01  0.5192E-01
     -0.734  0.1041E-02  0.1043E-02  0.5197E-01  0.5197E-01
     -0.685  0.5018E-03  0.5005E-03  0.5200E-01  0.5200E-01
     -0.635  0.7845E-03  0.7796E-03  0.5204E-01  0.5204E-01
     -0.586  0.1809E-02  0.1802E-02  0.5213E-01  0.5212E-01
     -0.537  0.3233E-02  0.3226E-02  0.5228E-01  0.5228E-01
     -0.488  0.4614E-02  0.4609E-02  0.5251E-01  0.5251E-01
     -0.439  0.5606E-02  0.5605E-02  0.5279E-01  0.5279E-01
     -0.389  0.6085E-02  0.6087E-02  0.5309E-01  0.5309E-01
     -0.340  0.6161E-02  0.6164E-02  0.5339E-01  0.5339E-01
     -0.291  0.6093E-02  0.6094E-02  0.5369E-01  0.5369E-01
     -0.242  0.6152E-02  0.6148E-02  0.5399E-01  0.5399E-01
     -0.193  0.6466E-02  0.6457E-02  0.5431E-01  0.5431E-01
     -0.143  0.6925E-02  0.6914E-02  0.5465E-01  0.5465E-01
     -0.094  0.7200E-02  0.7191E-02  0.5501E-01  0.5500E-01
     -0.045  0.6924E-02  0.6921E-02  0.5535E-01  0.5534E-01
      0.004  0.5927E-02  0.5933E-02  0.5564E-01  0.5564E-01
      0.053  0.4364E-02  0.4377E-02  0.5585E-01  0.5585E-01
      0.103  0.2637E-02  0.2652E-02  0.5598E-01  0.5598E-01
      0.152  0.1173E-02  0.1186E-02  0.5604E-01  0.5604E-01
      0.201  0.2194E-03  0.2274E-03  0.5605E-01  0.5605E-01
      0.250 -0.2236E-03 -0.2203E-03  0.5604E-01  0.5604E-01
      0.299 -0.3153E-03 -0.3150E-03  0.5602E-01  0.5602E-01
      0.349 -0.2452E-03 -0.2461E-03  0.5601E-01  0.5601E-01
      0.398 -0.1445E-03 -0.1455E-03  0.5601E-01  0.5601E-01
      0.447 -0.6972E-04 -0.7032E-04  0.5600E-01  0.5600E-01
      0.496 -0.2838E-04 -0.2868E-04  0.5600E-01  0.5600E-01
      0.545 -0.9904E-05 -0.1003E-04  0.5600E-01  0.5600E-01
      0.595 -0.2989E-05 -0.3031E-05  0.5600E-01  0.5600E-01
      0.644 -0.7844E-06 -0.7967E-06  0.5600E-01  0.5600E-01
      0.693 -0.1797E-06 -0.1828E-06  0.5600E-01  0.5600E-01
      0.742 -0.3604E-07 -0.3672E-07  0.5600E-01  0.5600E-01
      0.791 -0.6339E-08 -0.6469E-08  0.5600E-01  0.5600E-01
      0.841 -0.9796E-09 -0.1001E-08  0.5600E-01  0.5600E-01
      0.890 -0.1331E-09 -0.1363E-09  0.5600E-01  0.5600E-01
      0.939 -0.1593E-10 -0.1633E-10  0.5600E-01  0.5600E-01
      0.988 -0.1680E-11 -0.1725E-11  0.5600E-01  0.5600E-01
      1.037 -0.1562E-12 -0.1606E-12  0.5600E-01  0.5600E-01
      1.087 -0.1282E-13 -0.1319E-13  0.5600E-01  0.5600E-01
      1.136 -0.9296E-15 -0.9567E-15  0.5600E-01  0.5600E-01
      1.185 -0.5866E-16 -0.5866E-16  0.5600E-01  0.5600E-01
      1.234 -0.4513E-17 -0.4513E-17  0.5600E-01  0.5600E-01
      1.283  0.0000E+00  0.0000E+00  0.5600E-01  0.5600E-01
      1.333  0.0000E+00  0.0000E+00  0.5600E-01  0.5600E-01
      1.382  0.0000E+00  0.0000E+00  0.5600E-01  0.5600E-01
      1.431  0.0000E+00  0.0000E+00  0.5600E-01  0.5600E-01
      1.480  0.0000E+00  0.0000E+00  0.5600E-01  0.5600E-01
      1.530  0.0000E+00  0.0000E+00  0.5600E-01  0.5600E-01
      1.579  0.0000E+00  0.0000E+00  0.5600E-01  0.5600E-01
      1.628  0.0000E+00  0.0000E+00  0.5600E-01  0.5600E-01
      1.677  0.0000E+00  0.0000E+00  0.5600E-01  0.5600E-01
      1.726  0.0000E+00  0.0000E+00  0.5600E-01  0.5600E-01
      1.776  0.0000E+00  0.0000E+00  0.5600E-01  0.5600E-01
      1.825  0.0000E+00  0.0000E+00  0.5600E-01  0.5600E-01
      1.874  0.0000E+00  0.0000E+00  0.5600E-01  0.5600E-01
      1.923  0.0000E+00  0.0000E+00  0.5600E-01  0.5600E-01
      1.972  0.0000E+00  0.0000E+00  0.5600E-01  0.5600E-01
