    8    8 1000    2
  0.1296092E+04  0.2113307E-08  0.2130010E-08  0.2303465E-08  0.5000000E-15
   1.0000000000000000E-004
  CAR 
 unknown system                          
     88      1     56
 
  0.1262379E-14  0.1262379E-14  0.1262379E-14  0.1000000E+01
    1      -10.789027    -10.789028   1.000000   1.000000
    2       -9.917534     -9.917534   1.000000   1.000000
    3       -9.830976     -9.830976   1.000000   1.000000
    4       -9.379259     -9.379259   1.000000   1.000000
    5       -9.132571     -9.132571   1.000000   1.000000
    6       -9.065192     -9.065193   1.000000   1.000000
    7       -8.897210     -8.897210   1.000000   1.000000
    8       -8.830397     -8.830397   1.000000   1.000000
    9       -8.735578     -8.735579   1.000000   1.000000
   10       -8.625667     -8.625668   1.000000   1.000000
   11       -8.604027     -8.604028   1.000000   1.000000
   12       -8.337618     -8.337618   1.000000   1.000000
   13       -8.336114     -8.336115   1.000000   1.000000
   14       -8.255076     -8.255077   1.000000   1.000000
   15       -8.250748     -8.250748   1.000000   1.000000
   16       -8.163522     -8.163523   1.000000   1.000000
   17       -8.083933     -8.083933   1.000000   1.000000
   18       -8.020312     -8.020312   1.000000   1.000000
   19       -7.767542     -7.767542   1.000000   1.000000
   20       -7.489608     -7.489608   1.000000   1.000000
   21       -7.410883     -7.410883   1.000000   1.000000
   22       -7.321673     -7.321674   1.000000   1.000000
   23       -7.239197     -7.239198   1.000000   1.000000
   24       -7.153106     -7.153106   1.000000   1.000000
   25       -7.063622     -7.063622   1.000000   1.000000
   26       -7.002363     -7.002364   1.000000   1.000000
   27       -6.967247     -6.967247   1.000000   1.000000
   28       -6.817871     -6.817871   1.000000   1.000000
   29       -6.811133     -6.811133   1.000000   1.000000
   30       -6.647390     -6.647390   1.000000   1.000000
   31       -6.600364     -6.600364   1.000000   1.000000
   32       -6.590805     -6.590805   1.000000   1.000000
   33       -6.517241     -6.517241   1.000000   1.000000
   34       -6.481711     -6.481712   1.000000   1.000000
   35       -6.401545     -6.401545   1.000000   1.000000
   36       -6.314642     -6.314642   1.000000   1.000000
   37       -6.188114     -6.188114   1.000000   1.000000
   38       -6.156225     -6.156226   1.000000   1.000000
   39       -6.153269     -6.153269   1.000000   1.000000
   40       -6.096309     -6.096310   1.000000   1.000000
   41       -6.031485     -6.031485   1.000000   1.000000
   42       -5.902363     -5.902363   1.000000   1.000000
   43       -5.573085     -5.573086   1.002349   1.002349
   44       -5.272476     -5.272478   0.997650   0.997651
   45       -3.875939     -3.875935  -0.000000  -0.000000
   46       -3.631594     -3.631593  -0.000000  -0.000000
   47       -3.552528     -3.552527  -0.000000  -0.000000
   48       -3.378995     -3.378995  -0.000000  -0.000000
   49       -2.051358     -2.051352  -0.000000  -0.000000
   50       -1.899291     -1.899275  -0.000000  -0.000000
   51       -1.309077     -1.308929  -0.000000  -0.000000
   52       -0.919912     -0.919766  -0.000000  -0.000000
   53       -0.491757     -0.491474  -0.000000  -0.000000
   54       -0.329850     -0.329696  -0.000000  -0.000000
   55       -0.149919     -0.149718  -0.000000  -0.000000
   56       -0.028212     -0.027656  -0.000000  -0.000000
