<?xml version="1.0" encoding="ISO-8859-1"?>
<modeling>
 <generator>
  <i name="program" type="string">vasp </i>
  <i name="version" type="string">6.1.2  </i>
  <i name="subversion" type="string">22Jul20 (build Aug  2 2021 21:04:21) gamma-only                       parallel </i>
  <i name="platform" type="string">LinuxPGI </i>
  <i name="date" type="string">2021 12 28 </i>
  <i name="time" type="string">21:09:14 </i>
 </generator>
 <incar>
  <i type="int" name="ISPIN">     2</i>
  <i type="int" name="IBRION">     2</i>
  <i type="int" name="NSW">  1000</i>
  <i type="int" name="ISIF">     0</i>
  <i type="int" name="ISYM">     0</i>
  <i name="ENCUT">    400.00000000</i>
  <i type="logical" name="LREAL"> F  </i>
  <i type="int" name="ISMEAR">     1</i>
  <i name="SIGMA">      0.20000000</i>
  <i type="logical" name="LWAVE"> F  </i>
  <i type="logical" name="LCHARG"> F  </i>
  <i type="int" name="KPAR">     1</i>
  <i type="int" name="NCORE">     8</i>
  <i type="string" name="GGA"> PE</i>
  <i type="int" name="ISPIN">     2</i>
 </incar>
 <structure name="primitive_cell" >
  <crystal>
   <varray name="basis" >
    <v>      21.13306818       0.00000000       0.00000000 </v>
    <v>       0.00000000      21.30010047       0.00000000 </v>
    <v>       0.00000000       0.00000000      23.03465159 </v>
   </varray>
   <i name="volume">  10368.73687636 </i>
   <varray name="rec_basis" >
    <v>       0.04731921       0.00000000       0.00000000 </v>
    <v>       0.00000000       0.04694814       0.00000000 </v>
    <v>       0.00000000       0.00000000       0.04341286 </v>
   </varray>
  </crystal>
  <varray name="positions" >
   <v>       0.47494729       0.48334493       0.39092931 </v>
   <v>       0.44555447       0.44831947       0.49796127 </v>
   <v>       0.42603623       0.42281956       0.60913013 </v>
   <v>       0.44647451       0.54662244       0.58301316 </v>
   <v>       0.47131926       0.57745118       0.47191837 </v>
   <v>       0.57418920       0.47504643       0.46704221 </v>
   <v>       0.54927637       0.44428951       0.57813595 </v>
   <v>       0.57006369       0.56855394       0.54992473 </v>
  </varray>
 </structure>
 <varray name="primitive_index" >
  <v type="int" >        1 </v>
  <v type="int" >        2 </v>
  <v type="int" >        3 </v>
  <v type="int" >        4 </v>
  <v type="int" >        5 </v>
  <v type="int" >        6 </v>
  <v type="int" >        7 </v>
  <v type="int" >        8 </v>
 </varray>
 <kpoints>
  <generation param="Gamma">
   <v type="int" name="divisions">       1        1        1 </v>
   <v name="usershift">      0.00000000       0.00000000       0.00000000 </v>
   <v name="genvec1">      1.00000000       0.00000000       0.00000000 </v>
   <v name="genvec2">      0.00000000       1.00000000       0.00000000 </v>
   <v name="genvec3">      0.00000000       0.00000000       1.00000000 </v>
   <v name="shift">      0.00000000       0.00000000       0.00000000 </v>
  </generation>
  <varray name="kpointlist" >
   <v>       0.00000000       0.00000000       0.00000000 </v>
  </varray>
  <varray name="weights" >
   <v>       1.00000000 </v>
  </varray>
 </kpoints>
 <parameters>
  <separator name="general" >
   <i type="string" name="SYSTEM">unknown system</i>
   <i type="logical" name="LCOMPAT"> F  </i>
  </separator>
  <separator name="electronic" >
   <i type="string" name="PREC">normal</i>
   <i name="ENMAX">    400.00000000</i>
   <i name="ENAUG">    356.67000000</i>
   <i name="EDIFF">      0.00010000</i>
   <i type="int" name="IALGO">    38</i>
   <i type="int" name="IWAVPR">    11</i>
   <i type="int" name="NBANDS">    56</i>
   <i type="int" name="NBANDSLOW">    -1</i>
   <i type="int" name="NBANDSHIGH">    -1</i>
   <i name="NELECT">     88.00000000</i>
   <i type="int" name="TURBO">     0</i>
   <i type="int" name="IRESTART">     0</i>
   <i type="int" name="NREBOOT">     0</i>
   <i type="int" name="NMIN">     0</i>
   <i name="EREF">      0.00000000</i>
   <separator name="electronic smearing" >
    <i type="int" name="ISMEAR">     1</i>
    <i name="SIGMA">      0.20000000</i>
    <i name="KSPACING">      0.50000000</i>
    <i type="logical" name="KGAMMA"> T  </i>
    <i type="logical" name="KBLOWUP"> T  </i>
   </separator>
   <separator name="electronic projectors" >
    <i type="logical" name="LREAL"> F  </i>
    <v name="ROPT">      0.00000000</v>
    <i type="int" name="LMAXPAW">  -100</i>
    <i type="int" name="LMAXMIX">     2</i>
    <i type="logical" name="NLSPLINE"> F  </i>
   </separator>
   <separator name="electronic startup" >
    <i type="int" name="ISTART">     0</i>
    <i type="int" name="ICHARG">     2</i>
    <i type="int" name="INIWAV">     1</i>
   </separator>
   <separator name="electronic spin" >
    <i type="int" name="ISPIN">     2</i>
    <i type="logical" name="LNONCOLLINEAR"> F  </i>
    <v name="MAGMOM">      1.00000000      1.00000000      1.00000000      1.00000000      1.00000000      1.00000000      1.00000000      1.00000000</v>
    <i name="NUPDOWN">     -1.00000000</i>
    <i type="logical" name="LSORBIT"> F  </i>
    <v name="SAXIS">      0.00000000      0.00000000      1.00000000</v>
    <i type="logical" name="LSPIRAL"> F  </i>
    <v name="QSPIRAL">      0.00000000      0.00000000      0.00000000</v>
    <i type="logical" name="LZEROZ"> F  </i>
   </separator>
   <separator name="electronic exchange-correlation" >
    <i type="logical" name="LASPH"> F  </i>
    <i type="logical" name="LMETAGGA"> F  </i>
   </separator>
   <separator name="electronic convergence" >
    <i type="int" name="NELM">    60</i>
    <i type="int" name="NELMDL">     0</i>
    <i type="int" name="NELMIN">     2</i>
    <i name="ENINI">    400.00000000</i>
    <separator name="electronic convergence detail" >
     <i type="logical" name="LDIAG"> T  </i>
     <i type="logical" name="LSUBROT"> F  </i>
     <i name="WEIMIN">      0.00100000</i>
     <i name="EBREAK">      0.00000045</i>
     <i name="DEPER">      0.30000000</i>
     <i type="int" name="NRMM">     4</i>
     <i name="TIME">      0.40000000</i>
    </separator>
   </separator>
   <separator name="electronic mixer" >
    <i name="AMIX">      0.40000000</i>
    <i name="BMIX">      1.00000000</i>
    <i name="AMIN">      0.10000000</i>
    <i name="AMIX_MAG">      1.60000000</i>
    <i name="BMIX_MAG">      1.00000000</i>
    <separator name="electronic mixer details" >
     <i type="int" name="IMIX">     4</i>
     <i type="logical" name="MIXFIRST"> F  </i>
     <i type="int" name="MAXMIX">   -45</i>
     <i name="WC">    100.00000000</i>
     <i type="int" name="INIMIX">     1</i>
     <i type="int" name="MIXPRE">     1</i>
     <i type="int" name="MREMOVE">     5</i>
    </separator>
   </separator>
   <separator name="electronic dipolcorrection" >
    <i type="logical" name="LDIPOL"> F  </i>
    <i type="logical" name="LMONO"> F  </i>
    <i type="int" name="IDIPOL">     0</i>
    <i name="EPSILON">      1.00000000</i>
    <v name="DIPOL">   -100.00000000   -100.00000000   -100.00000000</v>
    <i name="EFIELD">      0.00000000</i>
   </separator>
  </separator>
  <separator name="grids" >
   <i type="int" name="NGX">   108</i>
   <i type="int" name="NGY">   108</i>
   <i type="int" name="NGZ">   120</i>
   <i type="int" name="NGXF">   216</i>
   <i type="int" name="NGYF">   216</i>
   <i type="int" name="NGZF">   240</i>
   <i type="logical" name="ADDGRID"> F  </i>
  </separator>
  <separator name="ionic" >
   <i type="int" name="NSW">  1000</i>
   <i type="int" name="IBRION">     2</i>
   <i type="int" name="MDALGO">     0</i>
   <i type="int" name="ISIF">     0</i>
   <i name="PSTRESS">      0.00000000</i>
   <i name="EDIFFG">      0.00100000</i>
   <i type="int" name="NFREE">     1</i>
   <i name="POTIM">      0.50000000</i>
   <i name="SMASS">     -3.00000000</i>
   <i name="SCALEE">      1.00000000</i>
  </separator>
  <separator name="ionic md" >
   <i name="TEBEG">      0.00010000</i>
   <i name="TEEND">      0.00010000</i>
   <i type="int" name="NBLOCK">     1</i>
   <i type="int" name="KBLOCK">  1000</i>
   <i type="int" name="NPACO">   256</i>
   <i name="APACO">     16.00000000</i>
  </separator>
  <separator name="symmetry" >
   <i type="int" name="ISYM">     0</i>
   <i name="SYMPREC">      0.00001000</i>
  </separator>
  <separator name="dos" >
   <i type="int" name="LORBIT">     0</i>
   <v name="RWIGS">     -1.00000000</v>
   <i type="int" name="NEDOS">   301</i>
   <i name="EMIN">     10.00000000</i>
   <i name="EMAX">    -10.00000000</i>
   <i name="EFERMI">      0.00000000</i>
  </separator>
  <separator name="writing" >
   <i type="int" name="NWRITE">     2</i>
   <i type="logical" name="LWAVE"> F  </i>
   <i type="logical" name="LDOWNSAMPLE"> F  </i>
   <i type="logical" name="LCHARG"> F  </i>
   <i type="logical" name="LPARD"> F  </i>
   <i type="logical" name="LVTOT"> F  </i>
   <i type="logical" name="LVHAR"> F  </i>
   <i type="logical" name="LELF"> F  </i>
   <i type="logical" name="LOPTICS"> F  </i>
   <v name="STM">      0.00000000      0.00000000      0.00000000      0.00000000      0.00000000      0.00000000      0.00000000</v>
  </separator>
  <separator name="performance" >
   <i type="int" name="NPAR">     1</i>
   <i type="int" name="NSIM">     4</i>
   <i type="int" name="NBLK">    -1</i>
   <i type="logical" name="LPLANE"> T  </i>
   <i type="logical" name="LSCALAPACK"> T  </i>
   <i type="logical" name="LSCAAWARE"> F  </i>
   <i type="logical" name="LSCALU"> F  </i>
   <i type="logical" name="LASYNC"> F  </i>
   <i type="logical" name="LORBITALREAL"> F  </i>
  </separator>
  <separator name="miscellaneous" >
   <i type="int" name="IDIOT">     3</i>
   <i type="int" name="PHON_NSTRUCT">    -1</i>
   <i type="logical" name="LMUSIC"> F  </i>
   <v name="POMASS">    196.96600000</v>
   <v name="DARWINR">      0.00000000</v>
   <v name="DARWINV">      1.00000000</v>
   <i type="logical" name="LCORR"> T  </i>
  </separator>
  <i type="logical" name="GGA_COMPAT"> T  </i>
  <i type="logical" name="LBERRY"> F  </i>
  <i type="int" name="ICORELEVEL">     0</i>
  <i type="logical" name="LDAU"> F  </i>
  <i type="int" name="I_CONSTRAINED_M">     0</i>
  <separator name="electronic exchange-correlation" >
   <i type="string" name="GGA">PE</i>
   <i type="int" name="VOSKOWN">     0</i>
   <i type="logical" name="LHFCALC"> F  </i>
   <i type="string" name="PRECFOCK"></i>
   <i type="logical" name="LSYMGRAD"> F  </i>
   <i type="logical" name="LHFONE"> F  </i>
   <i type="logical" name="LRHFCALC"> F  </i>
   <i type="logical" name="LTHOMAS"> F  </i>
   <i type="logical" name="LMODELHF"> F  </i>
   <i type="logical" name="LFOCKACE"> F  </i>
   <i name="ENCUT4O">     -1.00000000</i>
   <i type="int" name="EXXOEP">     0</i>
   <i type="int" name="FOURORBIT">     0</i>
   <i name="AEXX">      0.00000000</i>
   <i name="HFALPHA">      0.00000000</i>
   <i name="MCALPHA">      0.00000000</i>
   <i name="ALDAX">      1.00000000</i>
   <i name="AGGAX">      1.00000000</i>
   <i name="ALDAC">      1.00000000</i>
   <i name="AGGAC">      1.00000000</i>
   <i type="int" name="NKREDX">     1</i>
   <i type="int" name="NKREDY">     1</i>
   <i type="int" name="NKREDZ">     1</i>
   <i type="logical" name="SHIFTRED"> F  </i>
   <i type="logical" name="ODDONLY"> F  </i>
   <i type="logical" name="EVENONLY"> F  </i>
   <i type="int" name="LMAXFOCK">     0</i>
   <i type="int" name="NMAXFOCKAE">     0</i>
   <i type="logical" name="LFOCKAEDFT"> F  </i>
   <i name="HFSCREEN">      0.00000000</i>
   <i name="HFSCREENC">      0.00000000</i>
   <i type="int" name="NBANDSGWLOW">     0</i>
  </separator>
  <separator name="vdW DFT" >
   <i type="logical" name="LUSE_VDW"> F  </i>
   <i name="Zab_VDW">     -0.84910000</i>
   <i name="PARAM1">      0.12340000</i>
   <i name="PARAM2">      1.00000000</i>
   <i name="PARAM3">      0.00000000</i>
  </separator>
  <separator name="model GW" >
   <i type="int" name="MODEL_GW">     0</i>
   <i name="MODEL_EPS0">    777.65526573</i>
   <i name="MODEL_ALPHA">      1.00000000</i>
  </separator>
  <separator name="linear response parameters" >
   <i type="logical" name="LEPSILON"> F  </i>
   <i type="logical" name="LRPA"> F  </i>
   <i type="logical" name="LNABLA"> F  </i>
   <i type="logical" name="LVEL"> F  </i>
   <i type="int" name="KINTER">     0</i>
   <i name="CSHIFT">      0.10000000</i>
   <i name="OMEGAMAX">     -1.00000000</i>
   <i name="DEG_THRESHOLD">      0.00200000</i>
   <i name="RTIME">     -0.10000000</i>
   <i name="WPLASMAI">      0.00000000</i>
   <v name="DFIELD">      0.00000000      0.00000000      0.00000000</v>
   <v name="WPLASMA">      0.00000000      0.00000000      0.00000000      0.00000000      0.00000000      0.00000000      0.00000000      0.00000000      0.00000000</v>
  </separator>
  <separator name="orbital magnetization" >
   <i type="logical" name="NUCIND"> F  </i>
   <v name="MAGPOS">      0.00000000      0.00000000      0.00000000</v>
   <i type="logical" name="LNICSALL"> T  </i>
   <i type="logical" name="ORBITALMAG"> F  </i>
   <i type="logical" name="LMAGBLOCH"> F  </i>
   <i type="logical" name="LCHIMAG"> F  </i>
   <i type="logical" name="LGAUGE"> T  </i>
   <i type="int" name="MAGATOM">     0</i>
   <v name="MAGDIPOL">      0.00000000      0.00000000      0.00000000</v>
   <v name="AVECCONST">      0.00000000      0.00000000      0.00000000</v>
  </separator>
  <separator name="response functions" >
   <i type="logical" name="LFINITE_TEMPERATURE"> F  </i>
   <i type="logical" name="LADDER"> F  </i>
   <i type="logical" name="LRPAFORCE"> F  </i>
   <i type="logical" name="LFXC"> F  </i>
   <i type="logical" name="LHARTREE"> T  </i>
   <i type="int" name="IBSE">     0</i>
   <v type="int" name="KPOINT">    -1     0     0     0</v>
   <i type="logical" name="LTCTC"> F  </i>
   <i type="logical" name="LTCTE"> F  </i>
   <i type="logical" name="LTETE"> F  </i>
   <i type="logical" name="LTRIPLET"> F  </i>
   <i type="logical" name="LFXCEPS"> F  </i>
   <i type="logical" name="LFXHEG"> F  </i>
   <i type="int" name="NATURALO">     2</i>
   <i type="logical" name="LHOLEGF"> F  </i>
   <i type="logical" name="L2ORDER"> F  </i>
   <i type="logical" name="LDMP1"> F  </i>
   <i type="logical" name="LMP2LT"> F  </i>
   <i type="logical" name="LSMP2LT"> F  </i>
   <i type="logical" name="LGWLF"> F  </i>
   <i name="ENCUTGW">     -2.00000000</i>
   <i name="ENCUTGWSOFT">     -2.00000000</i>
   <i name="ENCUTLF">     -1.00000000</i>
   <i type="logical" name="LESF_SPLINES"> F  </i>
   <i type="int" name="LMAXMP2">    -1</i>
   <i name="SCISSOR">      0.00000000</i>
   <i type="int" name="NOMEGA">     0</i>
   <i type="int" name="NOMEGAR">     0</i>
   <i type="int" name="NBANDSGW">    -1</i>
   <i type="int" name="NBANDSO">    -1</i>
   <i type="int" name="NBANDSV">    -1</i>
   <i type="int" name="NELM">     1</i>
   <i type="int" name="NELMHF">     1</i>
   <i type="int" name="DIM">     3</i>
   <i type="int" name="IESPILON">     4</i>
   <i type="int" name="ANTIRES">     0</i>
   <i name="OMEGAMAX">    -30.00000000</i>
   <i name="OMEGAMIN">    -30.00000000</i>
   <i name="OMEGATL">   -200.00000000</i>
   <i type="int" name="OMEGAGRID">     0</i>
   <i name="CSHIFT">     -0.10000000</i>
   <i type="logical" name="LSELFENERGY"> F  </i>
   <i type="logical" name="LSPECTRAL"> F  </i>
   <i type="logical" name="LSPECTRALGW"> F  </i>
   <i type="logical" name="LSINGLES"> F  </i>
   <i type="logical" name="LFERMIGW"> F  </i>
   <i type="logical" name="ODDONLYGW"> F  </i>
   <i type="logical" name="EVENONLYGW"> F  </i>
   <i type="int" name="NKREDLFX">     1</i>
   <i type="int" name="NKREDLFY">     1</i>
   <i type="int" name="NKREDLFZ">     1</i>
   <i type="int" name="MAXMEM">  2800</i>
   <i type="int" name="TELESCOPE">     0</i>
   <i type="int" name="NTAUPAR">    -1</i>
   <i type="int" name="NOMEGAPAR">    -1</i>
   <i name="LAMBDA">      1.00000000</i>
  </separator>
  <separator name="External order field" >
   <i name="OFIELD_KAPPA">      0.00000000</i>
   <v name="OFIELD_K">      0.00000000      0.00000000      0.00000000</v>
   <i name="OFIELD_Q6_NEAR">      0.00000000</i>
   <i name="OFIELD_Q6_FAR">      0.00000000</i>
   <i name="OFIELD_A">      0.00000000</i>
  </separator>
 </parameters>
 <atominfo>
  <atoms>       8 </atoms>
  <types>       1 </types>
  <array name="atoms" >
   <dimension dim="1">ion</dimension>
   <field type="string">element</field>
   <field type="int">atomtype</field>
   <set>
    <rc><c>Au</c><c>   1</c></rc>
    <rc><c>Au</c><c>   1</c></rc>
    <rc><c>Au</c><c>   1</c></rc>
    <rc><c>Au</c><c>   1</c></rc>
    <rc><c>Au</c><c>   1</c></rc>
    <rc><c>Au</c><c>   1</c></rc>
    <rc><c>Au</c><c>   1</c></rc>
    <rc><c>Au</c><c>   1</c></rc>
   </set>
  </array>
  <array name="atomtypes" >
   <dimension dim="1">type</dimension>
   <field type="int">atomspertype</field>
   <field type="string">element</field>
   <field>mass</field>
   <field>valence</field>
   <field type="string">pseudopotential</field>
   <set>
    <rc><c>   8</c><c>Au</c><c>    196.96600000</c><c>     11.00000000</c><c>  PAW_PBE Au 04Oct2007                  </c></rc>
   </set>
  </array>
 </atominfo>
 <structure name="initialpos" >
  <crystal>
   <varray name="basis" >
    <v>      21.13306818       0.00000000       0.00000000 </v>
    <v>       0.00000000      21.30010047       0.00000000 </v>
    <v>       0.00000000       0.00000000      23.03465159 </v>
   </varray>
   <i name="volume">  10368.73687636 </i>
   <varray name="rec_basis" >
    <v>       0.04731921       0.00000000       0.00000000 </v>
    <v>       0.00000000       0.04694814       0.00000000 </v>
    <v>       0.00000000       0.00000000       0.04341286 </v>
   </varray>
  </crystal>
  <varray name="positions" >
   <v>       0.47494729       0.48334493       0.39092931 </v>
   <v>       0.44555447       0.44831947       0.49796127 </v>
   <v>       0.42603623       0.42281956       0.60913013 </v>
   <v>       0.44647451       0.54662244       0.58301316 </v>
   <v>       0.47131926       0.57745118       0.47191837 </v>
   <v>       0.57418920       0.47504643       0.46704221 </v>
   <v>       0.54927637       0.44428951       0.57813595 </v>
   <v>       0.57006369       0.56855394       0.54992473 </v>
  </varray>
 </structure>
 <calculation>
  <scstep>
   <time name="dav">    6.66    6.67</time>
   <time name="total">   10.21   10.23</time>
   <energy>
    <i name="alphaZ">      7.18958809 </i>
    <i name="ewald">   8008.58838885 </i>
    <i name="hartreedc"> -15100.53492276 </i>
    <i name="XCdc">    117.41050902 </i>
    <i name="pawpsdc">   6992.17180065 </i>
    <i name="pawaedc">  -6807.49900724 </i>
    <i name="eentropy">      0.00687693 </i>
    <i name="bandstr">    118.96946607 </i>
    <i name="atom">   7408.64415014 </i>
    <i name="e_fr_energy">    744.94684975 </i>
    <i name="e_wo_entrp">    744.93997282 </i>
    <i name="e_0_energy">    744.94455744 </i>
   </energy>
  </scstep>
  <scstep>
   <time name="dav">   11.69   11.84</time>
   <time name="total">   11.70   11.85</time>
   <energy>
    <i name="e_fr_energy">    436.30159986 </i>
    <i name="e_wo_entrp">    436.40331150 </i>
    <i name="e_0_energy">    436.33550374 </i>
   </energy>
  </scstep>
  <scstep>
   <time name="dav">    9.67    9.68</time>
   <time name="total">    9.69    9.70</time>
   <energy>
    <i name="e_fr_energy">    119.70540457 </i>
    <i name="e_wo_entrp">    119.71615826 </i>
    <i name="e_0_energy">    119.70898914 </i>
   </energy>
  </scstep>
  <scstep>
   <time name="dav">    8.76    8.83</time>
   <time name="total">    8.76    8.83</time>
   <energy>
    <i name="e_fr_energy">      6.60819480 </i>
    <i name="e_wo_entrp">      6.63224956 </i>
    <i name="e_0_energy">      6.61621305 </i>
   </energy>
  </scstep>
  <scstep>
   <time name="dav">    9.08    9.32</time>
   <time name="total">   10.15   10.39</time>
   <energy>
    <i name="e_fr_energy">    -15.10479967 </i>
    <i name="e_wo_entrp">    -15.11074714 </i>
    <i name="e_0_energy">    -15.10678216 </i>
   </energy>
  </scstep>
  <scstep>
   <time name="dav">    7.85    7.93</time>
   <time name="total">   12.93   13.19</time>
   <energy>
    <i name="e_fr_energy">     -4.25706509 </i>
    <i name="e_wo_entrp">     -4.27219111 </i>
    <i name="e_0_energy">     -4.26210710 </i>
   </energy>
  </scstep>
  <scstep>
   <time name="dav">    7.07    7.08</time>
   <time name="total">   11.60   11.64</time>
   <energy>
    <i name="e_fr_energy">     -2.72981628 </i>
    <i name="e_wo_entrp">     -2.73879897 </i>
    <i name="e_0_energy">     -2.73281051 </i>
   </energy>
  </scstep>
  <scstep>
   <time name="dav">   11.12   11.18</time>
   <time name="total">   15.34   15.43</time>
   <energy>
    <i name="e_fr_energy">     -7.61096810 </i>
    <i name="e_wo_entrp">     -7.61703900 </i>
    <i name="e_0_energy">     -7.61299173 </i>
   </energy>
  </scstep>
  <scstep>
   <time name="dav">    7.58    7.62</time>
   <time name="total">   12.48   12.57</time>
   <energy>
    <i name="e_fr_energy">    -10.05246770 </i>
    <i name="e_wo_entrp">    -10.05856331 </i>
    <i name="e_0_energy">    -10.05449957 </i>
   </energy>
  </scstep>
  <scstep>
   <time name="dav">    7.26    7.34</time>
   <time name="total">   11.85   12.11</time>
   <energy>
    <i name="e_fr_energy">    -13.30468299 </i>
    <i name="e_wo_entrp">    -13.31340730 </i>
    <i name="e_0_energy">    -13.30759109 </i>
   </energy>
  </scstep>
  <scstep>
   <time name="dav">    7.45    7.45</time>
   <time name="total">   12.37   12.38</time>
   <energy>
    <i name="e_fr_energy">    -14.60980145 </i>
    <i name="e_wo_entrp">    -14.62258077 </i>
    <i name="e_0_energy">    -14.61406122 </i>
   </energy>
  </scstep>
  <scstep>
   <time name="dav">    7.36    7.36</time>
   <time name="total">   12.34   12.35</time>
   <energy>
    <i name="e_fr_energy">    -15.83504637 </i>
    <i name="e_wo_entrp">    -15.84916494 </i>
    <i name="e_0_energy">    -15.83975256 </i>
   </energy>
  </scstep>
  <scstep>
   <time name="dav">    8.14    8.15</time>
   <time name="total">   13.03   13.07</time>
   <energy>
    <i name="e_fr_energy">    -16.15634029 </i>
    <i name="e_wo_entrp">    -16.16990503 </i>
    <i name="e_0_energy">    -16.16086187 </i>
   </energy>
  </scstep>
  <scstep>
   <time name="dav">    7.94    7.95</time>
   <time name="total">   13.16   13.18</time>
   <energy>
    <i name="e_fr_energy">    -16.43165692 </i>
    <i name="e_wo_entrp">    -16.44491272 </i>
    <i name="e_0_energy">    -16.43607552 </i>
   </energy>
  </scstep>
  <scstep>
   <time name="dav">    7.93    7.95</time>
   <time name="total">   12.44   12.47</time>
   <energy>
    <i name="e_fr_energy">    -16.71939964 </i>
    <i name="e_wo_entrp">    -16.73258854 </i>
    <i name="e_0_energy">    -16.72379594 </i>
   </energy>
  </scstep>
  <scstep>
   <time name="dav">    6.63    6.64</time>
   <time name="total">   12.09   12.10</time>
   <energy>
    <i name="e_fr_energy">    -16.85392177 </i>
    <i name="e_wo_entrp">    -16.86709673 </i>
    <i name="e_0_energy">    -16.85831342 </i>
   </energy>
  </scstep>
  <scstep>
   <time name="dav">    5.95    5.97</time>
   <time name="total">   10.49   10.52</time>
   <energy>
    <i name="e_fr_energy">    -16.90328184 </i>
    <i name="e_wo_entrp">    -16.91646397 </i>
    <i name="e_0_energy">    -16.90767589 </i>
   </energy>
  </scstep>
  <scstep>
   <time name="dav">    6.46    6.46</time>
   <time name="total">   11.65   11.66</time>
   <energy>
    <i name="e_fr_energy">    -16.92587129 </i>
    <i name="e_wo_entrp">    -16.93905326 </i>
    <i name="e_0_energy">    -16.93026528 </i>
   </energy>
  </scstep>
  <scstep>
   <time name="dav">    5.54    5.63</time>
   <time name="total">   10.13   10.25</time>
   <energy>
    <i name="e_fr_energy">    -16.93543165 </i>
    <i name="e_wo_entrp">    -16.94861294 </i>
    <i name="e_0_energy">    -16.93982541 </i>
   </energy>
  </scstep>
  <scstep>
   <time name="dav">    5.60    5.61</time>
   <time name="total">   10.27   10.29</time>
   <energy>
    <i name="e_fr_energy">    -16.94148613 </i>
    <i name="e_wo_entrp">    -16.95466735 </i>
    <i name="e_0_energy">    -16.94587987 </i>
   </energy>
  </scstep>
  <scstep>
   <time name="dav">    5.99    6.01</time>
   <time name="total">   10.73   10.75</time>
   <energy>
    <i name="e_fr_energy">    -16.94635681 </i>
    <i name="e_wo_entrp">    -16.95953801 </i>
    <i name="e_0_energy">    -16.95075054 </i>
   </energy>
  </scstep>
  <scstep>
   <time name="dav">    5.71    5.72</time>
   <time name="total">   10.56   10.58</time>
   <energy>
    <i name="e_fr_energy">    -16.94975256 </i>
    <i name="e_wo_entrp">    -16.96293289 </i>
    <i name="e_0_energy">    -16.95414600 </i>
   </energy>
  </scstep>
  <scstep>
   <time name="dav">    5.96    5.96</time>
   <time name="total">   11.00   11.02</time>
   <energy>
    <i name="e_fr_energy">    -16.95147026 </i>
    <i name="e_wo_entrp">    -16.96464948 </i>
    <i name="e_0_energy">    -16.95586333 </i>
   </energy>
  </scstep>
  <scstep>
   <time name="dav">    5.05    5.14</time>
   <time name="total">   10.10   10.21</time>
   <energy>
    <i name="e_fr_energy">    -16.95201062 </i>
    <i name="e_wo_entrp">    -16.96518959 </i>
    <i name="e_0_energy">    -16.95640361 </i>
   </energy>
  </scstep>
  <scstep>
   <time name="dav">    5.88    5.92</time>
   <time name="total">   10.56   10.60</time>
   <energy>
    <i name="e_fr_energy">    -16.95216887 </i>
    <i name="e_wo_entrp">    -16.96534793 </i>
    <i name="e_0_energy">    -16.95656189 </i>
   </energy>
  </scstep>
  <scstep>
   <time name="dav">    5.60    5.60</time>
   <time name="total">    9.26    9.27</time>
   <energy>
    <i name="alphaZ">      7.18958809 </i>
    <i name="ewald">   8008.58838885 </i>
    <i name="hartreedc"> -15065.48195398 </i>
    <i name="XCdc">    114.49427349 </i>
    <i name="pawpsdc">   7795.10740727 </i>
    <i name="pawaedc">  -7622.99595052 </i>
    <i name="eentropy">      0.01317914 </i>
    <i name="bandstr">   -662.51127120 </i>
    <i name="atom">   7408.64415014 </i>
    <i name="e_fr_energy">    -16.95218872 </i>
    <i name="e_wo_entrp">    -16.96536786 </i>
    <i name="e_0_energy">    -16.95658177 </i>
   </energy>
  </scstep>
  <structure>
   <crystal>
    <varray name="basis" >
     <v>      21.13306818       0.00000000       0.00000000 </v>
     <v>       0.00000000      21.30010047       0.00000000 </v>
     <v>       0.00000000       0.00000000      23.03465159 </v>
    </varray>
    <i name="volume">  10368.73687636 </i>
    <varray name="rec_basis" >
     <v>       0.04731921       0.00000000       0.00000000 </v>
     <v>       0.00000000       0.04694814       0.00000000 </v>
     <v>       0.00000000       0.00000000       0.04341286 </v>
    </varray>
   </crystal>
   <varray name="positions" >
    <v>       0.47494729       0.48334493       0.39092931 </v>
    <v>       0.44555447       0.44831947       0.49796127 </v>
    <v>       0.42603623       0.42281956       0.60913013 </v>
    <v>       0.44647451       0.54662244       0.58301316 </v>
    <v>       0.47131926       0.57745118       0.47191837 </v>
    <v>       0.57418920       0.47504643       0.46704221 </v>
    <v>       0.54927637       0.44428951       0.57813595 </v>
    <v>       0.57006369       0.56855394       0.54992473 </v>
   </varray>
  </structure>
  <varray name="forces" >
   <v>       0.00989901       0.01021802      -0.01948847 </v>
   <v>       0.03248140       0.03338053       0.01691635 </v>
   <v>      -0.00020098      -0.00215798       0.02424326 </v>
   <v>      -0.02335312      -0.01391915       0.00192822 </v>
   <v>      -0.01869817      -0.00845265      -0.01725482 </v>
   <v>      -0.00964714      -0.01785768      -0.01830811 </v>
   <v>      -0.01251835      -0.02311105       0.00139630 </v>
   <v>       0.02203734       0.02189996       0.01056727 </v>
  </varray>
  <energy>
   <i name="e_fr_energy">    -16.95218872 </i>
   <i name="e_wo_entrp">    -16.96536786 </i>
   <i name="e_0_energy">    -16.95658177 </i>
  </energy>
  <time name="totalsc">  306.13  308.08</time>
 </calculation>
 <calculation>
  <scstep>
   <time name="dav">    7.09    7.32</time>
   <time name="total">   11.63   11.87</time>
   <energy>
    <i name="alphaZ">      7.18958809 </i>
    <i name="ewald">   8006.72427983 </i>
    <i name="hartreedc"> -15063.62817573 </i>
    <i name="XCdc">    114.48829273 </i>
    <i name="pawpsdc">   7795.08926342 </i>
    <i name="pawaedc">  -7622.97778006 </i>
    <i name="eentropy">      0.01319813 </i>
    <i name="bandstr">   -662.49520724 </i>
    <i name="atom">   7408.64415014 </i>
    <i name="e_fr_energy">    -16.95239068 </i>
    <i name="e_wo_entrp">    -16.96558881 </i>
    <i name="e_0_energy">    -16.95679006 </i>
   </energy>
  </scstep>
  <scstep>
   <time name="dav">    7.61    7.62</time>
   <time name="total">   12.42   12.44</time>
   <energy>
    <i name="e_fr_energy">    -16.95251886 </i>
    <i name="e_wo_entrp">    -16.96571223 </i>
    <i name="e_0_energy">    -16.95691665 </i>
   </energy>
  </scstep>
  <scstep>
   <time name="dav">    5.30    5.30</time>
   <time name="total">    9.01    9.01</time>
   <energy>
    <i name="alphaZ">      7.18958809 </i>
    <i name="ewald">   8006.72427983 </i>
    <i name="hartreedc"> -15063.65109228 </i>
    <i name="XCdc">    114.48909050 </i>
    <i name="pawpsdc">   7794.44840951 </i>
    <i name="pawaedc">  -7622.32988824 </i>
    <i name="eentropy">      0.01319718 </i>
    <i name="bandstr">   -662.48025282 </i>
    <i name="atom">   7408.64415014 </i>
    <i name="e_fr_energy">    -16.95251808 </i>
    <i name="e_wo_entrp">    -16.96571526 </i>
    <i name="e_0_energy">    -16.95691714 </i>
   </energy>
  </scstep>
  <structure>
   <crystal>
    <varray name="basis" >
     <v>      21.13306818       0.00000000       0.00000000 </v>
     <v>       0.00000000      21.30010047       0.00000000 </v>
     <v>       0.00000000       0.00000000      23.03465159 </v>
    </varray>
    <i name="volume">  10368.73687636 </i>
    <varray name="rec_basis" >
     <v>       0.04731921       0.00000000       0.00000000 </v>
     <v>       0.00000000       0.04694814       0.00000000 </v>
     <v>       0.00000000       0.00000000       0.04341286 </v>
    </varray>
   </crystal>
   <varray name="positions" >
    <v>       0.47496989       0.48336807       0.39088849 </v>
    <v>       0.44562862       0.44839508       0.49799670 </v>
    <v>       0.42603578       0.42281467       0.60918091 </v>
    <v>       0.44642120       0.54659091       0.58301720 </v>
    <v>       0.47127657       0.57743203       0.47188223 </v>
    <v>       0.57416718       0.47500599       0.46700387 </v>
    <v>       0.54924779       0.44423717       0.57813888 </v>
    <v>       0.57011399       0.56860354       0.54994686 </v>
   </varray>
  </structure>
  <varray name="forces" >
   <v>       0.00512218       0.00536497      -0.01310080 </v>
   <v>       0.02080046       0.02146933       0.01018471 </v>
   <v>      -0.00114256      -0.00264246       0.01555242 </v>
   <v>      -0.00891700      -0.00491906      -0.00326210 </v>
   <v>      -0.00829765      -0.00450576      -0.00324824 </v>
   <v>      -0.00490684      -0.00820401      -0.00364642 </v>
   <v>      -0.00426046      -0.00840436      -0.00361148 </v>
   <v>       0.00160187       0.00184136       0.00113190 </v>
  </varray>
  <energy>
   <i name="e_fr_energy">    -16.95251808 </i>
   <i name="e_wo_entrp">    -16.96571526 </i>
   <i name="e_0_energy">    -16.95691714 </i>
  </energy>
  <time name="totalsc">   43.01   43.32</time>
 </calculation>
 <calculation>
  <scstep>
   <time name="dav">    5.70    5.71</time>
   <time name="total">    9.77    9.79</time>
   <energy>
    <i name="alphaZ">      7.18958809 </i>
    <i name="ewald">   8005.20485147 </i>
    <i name="hartreedc"> -15062.16211216 </i>
    <i name="XCdc">    114.48448732 </i>
    <i name="pawpsdc">   7794.11125439 </i>
    <i name="pawaedc">  -7621.98855606 </i>
    <i name="eentropy">      0.01321551 </i>
    <i name="bandstr">   -662.44948555 </i>
    <i name="atom">   7408.64415014 </i>
    <i name="e_fr_energy">    -16.95260685 </i>
    <i name="e_wo_entrp">    -16.96582236 </i>
    <i name="e_0_energy">    -16.95701202 </i>
   </energy>
  </scstep>
  <scstep>
   <time name="dav">    7.33    7.42</time>
   <time name="total">   10.99   11.08</time>
   <energy>
    <i name="alphaZ">      7.18958809 </i>
    <i name="ewald">   8005.20485147 </i>
    <i name="hartreedc"> -15062.16284115 </i>
    <i name="XCdc">    114.48507728 </i>
    <i name="pawpsdc">   7793.70519026 </i>
    <i name="pawaedc">  -7621.57841987 </i>
    <i name="eentropy">      0.01321023 </i>
    <i name="bandstr">   -662.45349333 </i>
    <i name="atom">   7408.64415014 </i>
    <i name="e_fr_energy">    -16.95268687 </i>
    <i name="e_wo_entrp">    -16.96589710 </i>
    <i name="e_0_energy">    -16.95709028 </i>
   </energy>
  </scstep>
  <structure>
   <crystal>
    <varray name="basis" >
     <v>      21.13306818       0.00000000       0.00000000 </v>
     <v>       0.00000000      21.30010047       0.00000000 </v>
     <v>       0.00000000       0.00000000      23.03465159 </v>
    </varray>
    <i name="volume">  10368.73687636 </i>
    <varray name="rec_basis" >
     <v>       0.04731921       0.00000000       0.00000000 </v>
     <v>       0.00000000       0.04694814       0.00000000 </v>
     <v>       0.00000000       0.00000000       0.04341286 </v>
    </varray>
   </crystal>
   <varray name="positions" >
    <v>       0.47498833       0.48338695       0.39085519 </v>
    <v>       0.44568912       0.44845677       0.49802561 </v>
    <v>       0.42603540       0.42281069       0.60922234 </v>
    <v>       0.44637770       0.54656519       0.58302050 </v>
    <v>       0.47124174       0.57741641       0.47185274 </v>
    <v>       0.57414921       0.47497298       0.46697258 </v>
    <v>       0.54922448       0.44419445       0.57814126 </v>
    <v>       0.57015504       0.56864402       0.54996492 </v>
   </varray>
  </structure>
  <varray name="forces" >
   <v>      -0.00054237      -0.00039679      -0.00494393 </v>
   <v>       0.00605750       0.00638040       0.00206609 </v>
   <v>      -0.00207438      -0.00288975       0.00456385 </v>
   <v>       0.00667140       0.00465948      -0.00756964 </v>
   <v>       0.00331998       0.00015764       0.01075834 </v>
   <v>       0.00058793       0.00268576       0.01106693 </v>
   <v>       0.00449408       0.00735411      -0.00770669 </v>
   <v>      -0.01851413      -0.01795086      -0.00823497 </v>
  </varray>
  <energy>
   <i name="e_fr_energy">    -16.95268687 </i>
   <i name="e_wo_entrp">    -16.96589710 </i>
   <i name="e_0_energy">    -16.95709028 </i>
  </energy>
  <time name="totalsc">   31.91   32.18</time>
  <eigenvalues>
   <array>
    <dimension dim="1">band</dimension>
    <dimension dim="2">kpoint</dimension>
    <dimension dim="3">spin</dimension>
    <field>eigene</field>
    <field>occ</field>
    <set>
     <set comment="spin 1">
      <set comment="kpoint 1">
       <r>  -10.7890    1.0000 </r>
       <r>   -9.9175    1.0000 </r>
       <r>   -9.8310    1.0000 </r>
       <r>   -9.3793    1.0000 </r>
       <r>   -9.1326    1.0000 </r>
       <r>   -9.0652    1.0000 </r>
       <r>   -8.8972    1.0000 </r>
       <r>   -8.8304    1.0000 </r>
       <r>   -8.7356    1.0000 </r>
       <r>   -8.6257    1.0000 </r>
       <r>   -8.6040    1.0000 </r>
       <r>   -8.3376    1.0000 </r>
       <r>   -8.3361    1.0000 </r>
       <r>   -8.2551    1.0000 </r>
       <r>   -8.2507    1.0000 </r>
       <r>   -8.1635    1.0000 </r>
       <r>   -8.0839    1.0000 </r>
       <r>   -8.0203    1.0000 </r>
       <r>   -7.7675    1.0000 </r>
       <r>   -7.4896    1.0000 </r>
       <r>   -7.4109    1.0000 </r>
       <r>   -7.3217    1.0000 </r>
       <r>   -7.2392    1.0000 </r>
       <r>   -7.1531    1.0000 </r>
       <r>   -7.0636    1.0000 </r>
       <r>   -7.0024    1.0000 </r>
       <r>   -6.9672    1.0000 </r>
       <r>   -6.8179    1.0000 </r>
       <r>   -6.8111    1.0000 </r>
       <r>   -6.6474    1.0000 </r>
       <r>   -6.6004    1.0000 </r>
       <r>   -6.5908    1.0000 </r>
       <r>   -6.5172    1.0000 </r>
       <r>   -6.4817    1.0000 </r>
       <r>   -6.4015    1.0000 </r>
       <r>   -6.3146    1.0000 </r>
       <r>   -6.1881    1.0000 </r>
       <r>   -6.1562    1.0000 </r>
       <r>   -6.1533    1.0000 </r>
       <r>   -6.0963    1.0000 </r>
       <r>   -6.0315    1.0000 </r>
       <r>   -5.9024    1.0000 </r>
       <r>   -5.5731    1.0023 </r>
       <r>   -5.2725    0.9976 </r>
       <r>   -3.8759   -0.0000 </r>
       <r>   -3.6316   -0.0000 </r>
       <r>   -3.5525   -0.0000 </r>
       <r>   -3.3790   -0.0000 </r>
       <r>   -2.0514   -0.0000 </r>
       <r>   -1.8993   -0.0000 </r>
       <r>   -1.3091   -0.0000 </r>
       <r>   -0.9199   -0.0000 </r>
       <r>   -0.4918   -0.0000 </r>
       <r>   -0.3298   -0.0000 </r>
       <r>   -0.1499   -0.0000 </r>
       <r>   -0.0282   -0.0000 </r>
      </set>
     </set>
     <set comment="spin 2">
      <set comment="kpoint 1">
       <r>  -10.7890    1.0000 </r>
       <r>   -9.9175    1.0000 </r>
       <r>   -9.8310    1.0000 </r>
       <r>   -9.3793    1.0000 </r>
       <r>   -9.1326    1.0000 </r>
       <r>   -9.0652    1.0000 </r>
       <r>   -8.8972    1.0000 </r>
       <r>   -8.8304    1.0000 </r>
       <r>   -8.7356    1.0000 </r>
       <r>   -8.6257    1.0000 </r>
       <r>   -8.6040    1.0000 </r>
       <r>   -8.3376    1.0000 </r>
       <r>   -8.3361    1.0000 </r>
       <r>   -8.2551    1.0000 </r>
       <r>   -8.2507    1.0000 </r>
       <r>   -8.1635    1.0000 </r>
       <r>   -8.0839    1.0000 </r>
       <r>   -8.0203    1.0000 </r>
       <r>   -7.7675    1.0000 </r>
       <r>   -7.4896    1.0000 </r>
       <r>   -7.4109    1.0000 </r>
       <r>   -7.3217    1.0000 </r>
       <r>   -7.2392    1.0000 </r>
       <r>   -7.1531    1.0000 </r>
       <r>   -7.0636    1.0000 </r>
       <r>   -7.0024    1.0000 </r>
       <r>   -6.9672    1.0000 </r>
       <r>   -6.8179    1.0000 </r>
       <r>   -6.8111    1.0000 </r>
       <r>   -6.6474    1.0000 </r>
       <r>   -6.6004    1.0000 </r>
       <r>   -6.5908    1.0000 </r>
       <r>   -6.5172    1.0000 </r>
       <r>   -6.4817    1.0000 </r>
       <r>   -6.4015    1.0000 </r>
       <r>   -6.3146    1.0000 </r>
       <r>   -6.1881    1.0000 </r>
       <r>   -6.1562    1.0000 </r>
       <r>   -6.1533    1.0000 </r>
       <r>   -6.0963    1.0000 </r>
       <r>   -6.0315    1.0000 </r>
       <r>   -5.9024    1.0000 </r>
       <r>   -5.5731    1.0023 </r>
       <r>   -5.2725    0.9977 </r>
       <r>   -3.8759   -0.0000 </r>
       <r>   -3.6316   -0.0000 </r>
       <r>   -3.5525   -0.0000 </r>
       <r>   -3.3790   -0.0000 </r>
       <r>   -2.0514   -0.0000 </r>
       <r>   -1.8993   -0.0000 </r>
       <r>   -1.3089   -0.0000 </r>
       <r>   -0.9198   -0.0000 </r>
       <r>   -0.4915   -0.0000 </r>
       <r>   -0.3297   -0.0000 </r>
       <r>   -0.1497   -0.0000 </r>
       <r>   -0.0277   -0.0000 </r>
      </set>
     </set>
    </set>
   </array>
  </eigenvalues>
  <separator name="orbital magnetization" >
   <v name="MAGDIPOLOUT">      0.00000000      0.00000000      0.00000000</v>
  </separator>
  <dos>
   <i name="efermi">     -5.10619692 </i>
   <total>
    <array>
     <dimension dim="1">gridpoints</dimension>
     <dimension dim="2">spin</dimension>
     <field>energy</field>
     <field>total</field>
     <field>integrated</field>
     <set>
      <set comment="spin 1">
       <r>   -12.7890     0.0000     0.0000 </r>
       <r>   -12.7398     0.0000     0.0000 </r>
       <r>   -12.6906     0.0000     0.0000 </r>
       <r>   -12.6414     0.0000     0.0000 </r>
       <r>   -12.5922     0.0000     0.0000 </r>
       <r>   -12.5430     0.0000     0.0000 </r>
       <r>   -12.4938     0.0000     0.0000 </r>
       <r>   -12.4446     0.0000     0.0000 </r>
       <r>   -12.3954    -0.0000    -0.0000 </r>
       <r>   -12.3462    -0.0000    -0.0000 </r>
       <r>   -12.2970    -0.0000    -0.0000 </r>
       <r>   -12.2478    -0.0000    -0.0000 </r>
       <r>   -12.1986    -0.0000    -0.0000 </r>
       <r>   -12.1494    -0.0000    -0.0000 </r>
       <r>   -12.1002    -0.0000    -0.0000 </r>
       <r>   -12.0510    -0.0000    -0.0000 </r>
       <r>   -12.0018    -0.0000    -0.0000 </r>
       <r>   -11.9526    -0.0000    -0.0000 </r>
       <r>   -11.9033    -0.0000    -0.0000 </r>
       <r>   -11.8541    -0.0000    -0.0000 </r>
       <r>   -11.8049    -0.0000    -0.0000 </r>
       <r>   -11.7557    -0.0000    -0.0000 </r>
       <r>   -11.7065    -0.0000    -0.0000 </r>
       <r>   -11.6573    -0.0000    -0.0000 </r>
       <r>   -11.6081    -0.0000    -0.0000 </r>
       <r>   -11.5589    -0.0000    -0.0000 </r>
       <r>   -11.5097    -0.0000    -0.0000 </r>
       <r>   -11.4605    -0.0002    -0.0000 </r>
       <r>   -11.4113    -0.0008    -0.0000 </r>
       <r>   -11.3621    -0.0029    -0.0002 </r>
       <r>   -11.3129    -0.0096    -0.0007 </r>
       <r>   -11.2637    -0.0271    -0.0020 </r>
       <r>   -11.2145    -0.0647    -0.0052 </r>
       <r>   -11.1653    -0.1285    -0.0115 </r>
       <r>   -11.1161    -0.2019    -0.0214 </r>
       <r>   -11.0669    -0.2177    -0.0322 </r>
       <r>   -11.0177    -0.0438    -0.0343 </r>
       <r>   -10.9685     0.4758    -0.0109 </r>
       <r>   -10.9193     1.4076     0.0584 </r>
       <r>   -10.8700     2.6016     0.1864 </r>
       <r>   -10.8208     3.6759     0.3672 </r>
       <r>   -10.7716     4.1871     0.5733 </r>
       <r>   -10.7224     3.9009     0.7652 </r>
       <r>   -10.6732     2.9500     0.9104 </r>
       <r>   -10.6240     1.7439     0.9962 </r>
       <r>   -10.5748     0.7078     1.0310 </r>
       <r>   -10.5256     0.0656     1.0342 </r>
       <r>   -10.4764    -0.1983     1.0245 </r>
       <r>   -10.4272    -0.2321     1.0131 </r>
       <r>   -10.3780    -0.1919     1.0036 </r>
       <r>   -10.3288    -0.1783     0.9948 </r>
       <r>   -10.2796    -0.2299     0.9835 </r>
       <r>   -10.2304    -0.3258     0.9675 </r>
       <r>   -10.1812    -0.3674     0.9494 </r>
       <r>   -10.1320    -0.1609     0.9415 </r>
       <r>   -10.0828     0.5439     0.9683 </r>
       <r>   -10.0336     1.9179     1.0626 </r>
       <r>    -9.9844     3.8641     1.2528 </r>
       <r>    -9.9352     5.9198     1.5440 </r>
       <r>    -9.8860     7.3886     1.9076 </r>
       <r>    -9.8368     7.6819     2.2856 </r>
       <r>    -9.7875     6.6584     2.6132 </r>
       <r>    -9.7383     4.7147     2.8452 </r>
       <r>    -9.6891     2.5684     2.9716 </r>
       <r>    -9.6399     0.9084     3.0163 </r>
       <r>    -9.5907     0.1434     3.0233 </r>
       <r>    -9.5415     0.3334     3.0397 </r>
       <r>    -9.4923     1.2367     3.1006 </r>
       <r>    -9.4431     2.4110     3.2192 </r>
       <r>    -9.3939     3.3886     3.3859 </r>
       <r>    -9.3447     3.9239     3.5790 </r>
       <r>    -9.2955     4.1588     3.7836 </r>
       <r>    -9.2463     4.5111     4.0056 </r>
       <r>    -9.1971     5.3048     4.2666 </r>
       <r>    -9.1479     6.4604     4.5845 </r>
       <r>    -9.0987     7.5597     4.9565 </r>
       <r>    -9.0495     8.2408     5.3620 </r>
       <r>    -9.0003     8.5277     5.7816 </r>
       <r>    -8.9511     8.7695     6.2131 </r>
       <r>    -8.9019     9.2891     6.6701 </r>
       <r>    -8.8527    10.1199     7.1681 </r>
       <r>    -8.8035    11.0447     7.7115 </r>
       <r>    -8.7543    11.7823     8.2913 </r>
       <r>    -8.7050    12.0725     8.8853 </r>
       <r>    -8.6558    11.6637     9.4592 </r>
       <r>    -8.6066    10.4189     9.9719 </r>
       <r>    -8.5574     8.5917    10.3946 </r>
       <r>    -8.5082     6.9834    10.7382 </r>
       <r>    -8.4590     6.6474    11.0653 </r>
       <r>    -8.4098     8.2166    11.4696 </r>
       <r>    -8.3606    11.3714    12.0291 </r>
       <r>    -8.3114    14.9354    12.7640 </r>
       <r>    -8.2622    17.5641    13.6283 </r>
       <r>    -8.2130    18.4788    14.5375 </r>
       <r>    -8.1638    17.7039    15.4086 </r>
       <r>    -8.1146    15.7502    16.1836 </r>
       <r>    -8.0654    13.1587    16.8311 </r>
       <r>    -8.0162    10.3221    17.3390 </r>
       <r>    -7.9670     7.5973    17.7128 </r>
       <r>    -7.9178     5.3957    17.9783 </r>
       <r>    -7.8686     4.0309    18.1766 </r>
       <r>    -7.8194     3.4715    18.3474 </r>
       <r>    -7.7702     3.3293    18.5113 </r>
       <r>    -7.7210     3.1833    18.6679 </r>
       <r>    -7.6718     2.9632    18.8137 </r>
       <r>    -7.6225     3.0185    18.9622 </r>
       <r>    -7.5733     3.7960    19.1490 </r>
       <r>    -7.5241     5.4205    19.4157 </r>
       <r>    -7.4749     7.5462    19.7870 </r>
       <r>    -7.4257     9.5763    20.2582 </r>
       <r>    -7.3765    11.0310    20.8010 </r>
       <r>    -7.3273    11.7775    21.3805 </r>
       <r>    -7.2781    12.0138    21.9716 </r>
       <r>    -7.2289    12.0941    22.5667 </r>
       <r>    -7.1797    12.3320    23.1735 </r>
       <r>    -7.1305    12.8490    23.8057 </r>
       <r>    -7.0813    13.5097    24.4705 </r>
       <r>    -7.0321    13.9938    25.1590 </r>
       <r>    -6.9829    13.9997    25.8479 </r>
       <r>    -6.9337    13.4508    26.5097 </r>
       <r>    -6.8845    12.5549    27.1275 </r>
       <r>    -6.8353    11.7063    27.7035 </r>
       <r>    -6.7861    11.3509    28.2620 </r>
       <r>    -6.7369    11.8626    28.8457 </r>
       <r>    -6.6877    13.3656    29.5033 </r>
       <r>    -6.6385    15.5343    30.2677 </r>
       <r>    -6.5893    17.5887    31.1331 </r>
       <r>    -6.5400    18.6379    32.0502 </r>
       <r>    -6.4908    18.1933    32.9454 </r>
       <r>    -6.4416    16.4814    33.7564 </r>
       <r>    -6.3924    14.3533    34.4626 </r>
       <r>    -6.3432    12.8815    35.0964 </r>
       <r>    -6.2940    12.8543    35.7289 </r>
       <r>    -6.2448    14.3633    36.4357 </r>
       <r>    -6.1956    16.6758    37.2562 </r>
       <r>    -6.1464    18.5472    38.1688 </r>
       <r>    -6.0972    18.8816    39.0979 </r>
       <r>    -6.0480    17.3240    39.9503 </r>
       <r>    -5.9988    14.3523    40.6565 </r>
       <r>    -5.9496    10.8451    41.1901 </r>
       <r>    -5.9004     7.5452    41.5614 </r>
       <r>    -5.8512     4.8410    41.7996 </r>
       <r>    -5.8020     2.8983    41.9422 </r>
       <r>    -5.7528     1.8356    42.0325 </r>
       <r>    -5.7036     1.6969    42.1160 </r>
       <r>    -5.6544     2.2847    42.2284 </r>
       <r>    -5.6052     3.1148    42.3817 </r>
       <r>    -5.5560     3.6421    42.5609 </r>
       <r>    -5.5068     3.6142    42.7387 </r>
       <r>    -5.4575     3.2384    42.8981 </r>
       <r>    -5.4083     2.9820    43.0448 </r>
       <r>    -5.3591     3.1555    43.2001 </r>
       <r>    -5.3099     3.6366    43.3790 </r>
       <r>    -5.2607     3.9728    43.5745 </r>
       <r>    -5.2115     3.7552    43.7593 </r>
       <r>    -5.1623     2.9296    43.9034 </r>
       <r>    -5.1131     1.7992    43.9919 </r>
       <r>    -5.0639     0.7730    44.0300 </r>
       <r>    -5.0147     0.1057    44.0352 </r>
       <r>    -4.9655    -0.1832    44.0261 </r>
       <r>    -4.9163    -0.2226    44.0152 </r>
       <r>    -4.8671    -0.1599    44.0073 </r>
       <r>    -4.8179    -0.0878    44.0030 </r>
       <r>    -4.7687    -0.0395    44.0011 </r>
       <r>    -4.7195    -0.0150    44.0003 </r>
       <r>    -4.6703    -0.0049    44.0001 </r>
       <r>    -4.6211    -0.0014    44.0000 </r>
       <r>    -4.5719    -0.0004    44.0000 </r>
       <r>    -4.5227    -0.0005    44.0000 </r>
       <r>    -4.4735    -0.0016    43.9999 </r>
       <r>    -4.4243    -0.0055    43.9996 </r>
       <r>    -4.3750    -0.0165    43.9988 </r>
       <r>    -4.3258    -0.0430    43.9967 </r>
       <r>    -4.2766    -0.0942    43.9921 </r>
       <r>    -4.2274    -0.1687    43.9838 </r>
       <r>    -4.1782    -0.2303    43.9724 </r>
       <r>    -4.1290    -0.1840    43.9634 </r>
       <r>    -4.0798     0.1133    43.9690 </r>
       <r>    -4.0306     0.7748    44.0071 </r>
       <r>    -3.9814     1.7630    44.0938 </r>
       <r>    -3.9322     2.8338    44.2333 </r>
       <r>    -3.8830     3.6553    44.4131 </r>
       <r>    -3.8338     4.0674    44.6132 </r>
       <r>    -3.7846     4.2593    44.8228 </r>
       <r>    -3.7354     4.6489    45.0516 </r>
       <r>    -3.6862     5.5147    45.3229 </r>
       <r>    -3.6370     6.7130    45.6532 </r>
       <r>    -3.5878     7.7603    46.0351 </r>
       <r>    -3.5386     8.2068    46.4389 </r>
       <r>    -3.4894     7.9368    46.8294 </r>
       <r>    -3.4402     7.1388    47.1807 </r>
       <r>    -3.3910     6.0532    47.4785 </r>
       <r>    -3.3417     4.8025    47.7148 </r>
       <r>    -3.2925     3.4428    47.8842 </r>
       <r>    -3.2433     2.0944    47.9873 </r>
       <r>    -3.1941     0.9556    48.0343 </r>
       <r>    -3.1449     0.1885    48.0436 </r>
       <r>    -3.0957    -0.1837    48.0345 </r>
       <r>    -3.0465    -0.2677    48.0214 </r>
       <r>    -2.9973    -0.2113    48.0110 </r>
       <r>    -2.9481    -0.1255    48.0048 </r>
       <r>    -2.8989    -0.0607    48.0018 </r>
       <r>    -2.8497    -0.0247    48.0006 </r>
       <r>    -2.8005    -0.0086    48.0002 </r>
       <r>    -2.7513    -0.0026    48.0000 </r>
       <r>    -2.7021    -0.0010    48.0000 </r>
       <r>    -2.6529    -0.0016    47.9999 </r>
       <r>    -2.6037    -0.0050    47.9997 </r>
       <r>    -2.5545    -0.0155    47.9989 </r>
       <r>    -2.5053    -0.0412    47.9969 </r>
       <r>    -2.4561    -0.0930    47.9923 </r>
       <r>    -2.4069    -0.1745    47.9837 </r>
       <r>    -2.3577    -0.2587    47.9710 </r>
       <r>    -2.3085    -0.2600    47.9582 </r>
       <r>    -2.2592    -0.0281    47.9568 </r>
       <r>    -2.2100     0.6024    47.9864 </r>
       <r>    -2.1608     1.7076    48.0705 </r>
       <r>    -2.1116     3.1798    48.2269 </r>
       <r>    -2.0624     4.7219    48.4593 </r>
       <r>    -2.0132     5.9532    48.7522 </r>
       <r>    -1.9640     6.5545    49.0747 </r>
       <r>    -1.9148     6.3699    49.3881 </r>
       <r>    -1.8656     5.4450    49.6561 </r>
       <r>    -1.8164     4.0150    49.8536 </r>
       <r>    -1.7672     2.4362    49.9735 </r>
       <r>    -1.7180     1.0595    50.0256 </r>
       <r>    -1.6688     0.1008    50.0306 </r>
       <r>    -1.6196    -0.3939    50.0112 </r>
       <r>    -1.5704    -0.4669    49.9882 </r>
       <r>    -1.5212    -0.1392    49.9814 </r>
       <r>    -1.4720     0.6060    50.0112 </r>
       <r>    -1.4228     1.7139    50.0955 </r>
       <r>    -1.3736     2.9323    50.2398 </r>
       <r>    -1.3244     3.8306    50.4283 </r>
       <r>    -1.2752     4.0172    50.6259 </r>
       <r>    -1.2260     3.4159    50.7940 </r>
       <r>    -1.1767     2.3733    50.9108 </r>
       <r>    -1.1275     1.4881    50.9840 </r>
       <r>    -1.0783     1.2689    51.0465 </r>
       <r>    -1.0291     1.8387    51.1369 </r>
       <r>    -0.9799     2.8613    51.2777 </r>
       <r>    -0.9307     3.7317    51.4613 </r>
       <r>    -0.8815     3.9243    51.6544 </r>
       <r>    -0.8323     3.2947    51.8165 </r>
       <r>    -0.7831     2.1463    51.9222 </r>
       <r>    -0.7339     1.0412    51.9734 </r>
       <r>    -0.6847     0.5018    51.9981 </r>
       <r>    -0.6355     0.7845    52.0367 </r>
       <r>    -0.5863     1.8094    52.1257 </r>
       <r>    -0.5371     3.2327    52.2848 </r>
       <r>    -0.4879     4.6138    52.5118 </r>
       <r>    -0.4387     5.6060    52.7876 </r>
       <r>    -0.3895     6.0850    53.0870 </r>
       <r>    -0.3403     6.1612    53.3902 </r>
       <r>    -0.2911     6.0935    53.6900 </r>
       <r>    -0.2419     6.1516    53.9927 </r>
       <r>    -0.1927     6.4660    54.3109 </r>
       <r>    -0.1435     6.9253    54.6516 </r>
       <r>    -0.0942     7.2004    55.0059 </r>
       <r>    -0.0450     6.9240    55.3466 </r>
       <r>     0.0042     5.9267    55.6382 </r>
       <r>     0.0534     4.3635    55.8529 </r>
       <r>     0.1026     2.6367    55.9827 </r>
       <r>     0.1518     1.1734    56.0404 </r>
       <r>     0.2010     0.2194    56.0512 </r>
       <r>     0.2502    -0.2236    56.0402 </r>
       <r>     0.2994    -0.3153    56.0247 </r>
       <r>     0.3486    -0.2452    56.0126 </r>
       <r>     0.3978    -0.1445    56.0055 </r>
       <r>     0.4470    -0.0697    56.0021 </r>
       <r>     0.4962    -0.0284    56.0007 </r>
       <r>     0.5454    -0.0099    56.0002 </r>
       <r>     0.5946    -0.0030    56.0000 </r>
       <r>     0.6438    -0.0008    56.0000 </r>
       <r>     0.6930    -0.0002    56.0000 </r>
       <r>     0.7422    -0.0000    56.0000 </r>
       <r>     0.7914    -0.0000    56.0000 </r>
       <r>     0.8406    -0.0000    56.0000 </r>
       <r>     0.8898    -0.0000    56.0000 </r>
       <r>     0.9390    -0.0000    56.0000 </r>
       <r>     0.9883    -0.0000    56.0000 </r>
       <r>     1.0375    -0.0000    56.0000 </r>
       <r>     1.0867    -0.0000    56.0000 </r>
       <r>     1.1359    -0.0000    56.0000 </r>
       <r>     1.1851    -0.0000    56.0000 </r>
       <r>     1.2343    -0.0000    56.0000 </r>
       <r>     1.2835     0.0000    56.0000 </r>
       <r>     1.3327     0.0000    56.0000 </r>
       <r>     1.3819     0.0000    56.0000 </r>
       <r>     1.4311     0.0000    56.0000 </r>
       <r>     1.4803     0.0000    56.0000 </r>
       <r>     1.5295     0.0000    56.0000 </r>
       <r>     1.5787     0.0000    56.0000 </r>
       <r>     1.6279     0.0000    56.0000 </r>
       <r>     1.6771     0.0000    56.0000 </r>
       <r>     1.7263     0.0000    56.0000 </r>
       <r>     1.7755     0.0000    56.0000 </r>
       <r>     1.8247     0.0000    56.0000 </r>
       <r>     1.8739     0.0000    56.0000 </r>
       <r>     1.9231     0.0000    56.0000 </r>
       <r>     1.9723     0.0000    56.0000 </r>
      </set>
      <set comment="spin 2">
       <r>   -12.7890     0.0000     0.0000 </r>
       <r>   -12.7398     0.0000     0.0000 </r>
       <r>   -12.6906     0.0000     0.0000 </r>
       <r>   -12.6414     0.0000     0.0000 </r>
       <r>   -12.5922     0.0000     0.0000 </r>
       <r>   -12.5430     0.0000     0.0000 </r>
       <r>   -12.4938     0.0000     0.0000 </r>
       <r>   -12.4446     0.0000     0.0000 </r>
       <r>   -12.3954    -0.0000    -0.0000 </r>
       <r>   -12.3462    -0.0000    -0.0000 </r>
       <r>   -12.2970    -0.0000    -0.0000 </r>
       <r>   -12.2478    -0.0000    -0.0000 </r>
       <r>   -12.1986    -0.0000    -0.0000 </r>
       <r>   -12.1494    -0.0000    -0.0000 </r>
       <r>   -12.1002    -0.0000    -0.0000 </r>
       <r>   -12.0510    -0.0000    -0.0000 </r>
       <r>   -12.0018    -0.0000    -0.0000 </r>
       <r>   -11.9526    -0.0000    -0.0000 </r>
       <r>   -11.9033    -0.0000    -0.0000 </r>
       <r>   -11.8541    -0.0000    -0.0000 </r>
       <r>   -11.8049    -0.0000    -0.0000 </r>
       <r>   -11.7557    -0.0000    -0.0000 </r>
       <r>   -11.7065    -0.0000    -0.0000 </r>
       <r>   -11.6573    -0.0000    -0.0000 </r>
       <r>   -11.6081    -0.0000    -0.0000 </r>
       <r>   -11.5589    -0.0000    -0.0000 </r>
       <r>   -11.5097    -0.0000    -0.0000 </r>
       <r>   -11.4605    -0.0002    -0.0000 </r>
       <r>   -11.4113    -0.0008    -0.0000 </r>
       <r>   -11.3621    -0.0029    -0.0002 </r>
       <r>   -11.3129    -0.0096    -0.0007 </r>
       <r>   -11.2637    -0.0271    -0.0020 </r>
       <r>   -11.2145    -0.0647    -0.0052 </r>
       <r>   -11.1653    -0.1285    -0.0115 </r>
       <r>   -11.1161    -0.2019    -0.0214 </r>
       <r>   -11.0669    -0.2177    -0.0322 </r>
       <r>   -11.0177    -0.0438    -0.0343 </r>
       <r>   -10.9685     0.4758    -0.0109 </r>
       <r>   -10.9193     1.4076     0.0584 </r>
       <r>   -10.8700     2.6016     0.1864 </r>
       <r>   -10.8208     3.6759     0.3672 </r>
       <r>   -10.7716     4.1871     0.5733 </r>
       <r>   -10.7224     3.9008     0.7652 </r>
       <r>   -10.6732     2.9500     0.9104 </r>
       <r>   -10.6240     1.7439     0.9962 </r>
       <r>   -10.5748     0.7078     1.0310 </r>
       <r>   -10.5256     0.0656     1.0342 </r>
       <r>   -10.4764    -0.1983     1.0245 </r>
       <r>   -10.4272    -0.2321     1.0131 </r>
       <r>   -10.3780    -0.1919     1.0036 </r>
       <r>   -10.3288    -0.1783     0.9948 </r>
       <r>   -10.2796    -0.2299     0.9835 </r>
       <r>   -10.2304    -0.3258     0.9675 </r>
       <r>   -10.1812    -0.3674     0.9494 </r>
       <r>   -10.1320    -0.1609     0.9415 </r>
       <r>   -10.0828     0.5439     0.9683 </r>
       <r>   -10.0336     1.9180     1.0626 </r>
       <r>    -9.9844     3.8641     1.2528 </r>
       <r>    -9.9352     5.9198     1.5440 </r>
       <r>    -9.8860     7.3886     1.9076 </r>
       <r>    -9.8368     7.6819     2.2856 </r>
       <r>    -9.7875     6.6584     2.6132 </r>
       <r>    -9.7383     4.7147     2.8452 </r>
       <r>    -9.6891     2.5684     2.9716 </r>
       <r>    -9.6399     0.9084     3.0163 </r>
       <r>    -9.5907     0.1434     3.0233 </r>
       <r>    -9.5415     0.3334     3.0397 </r>
       <r>    -9.4923     1.2367     3.1006 </r>
       <r>    -9.4431     2.4110     3.2192 </r>
       <r>    -9.3939     3.3886     3.3859 </r>
       <r>    -9.3447     3.9239     3.5790 </r>
       <r>    -9.2955     4.1588     3.7836 </r>
       <r>    -9.2463     4.5111     4.0056 </r>
       <r>    -9.1971     5.3048     4.2666 </r>
       <r>    -9.1479     6.4604     4.5845 </r>
       <r>    -9.0987     7.5597     4.9565 </r>
       <r>    -9.0495     8.2408     5.3620 </r>
       <r>    -9.0003     8.5277     5.7816 </r>
       <r>    -8.9511     8.7695     6.2131 </r>
       <r>    -8.9019     9.2891     6.6701 </r>
       <r>    -8.8527    10.1199     7.1681 </r>
       <r>    -8.8035    11.0447     7.7115 </r>
       <r>    -8.7543    11.7823     8.2913 </r>
       <r>    -8.7050    12.0725     8.8853 </r>
       <r>    -8.6558    11.6637     9.4592 </r>
       <r>    -8.6066    10.4189     9.9719 </r>
       <r>    -8.5574     8.5917    10.3946 </r>
       <r>    -8.5082     6.9834    10.7382 </r>
       <r>    -8.4590     6.6474    11.0653 </r>
       <r>    -8.4098     8.2167    11.4696 </r>
       <r>    -8.3606    11.3714    12.0291 </r>
       <r>    -8.3114    14.9354    12.7640 </r>
       <r>    -8.2622    17.5641    13.6283 </r>
       <r>    -8.2130    18.4788    14.5375 </r>
       <r>    -8.1638    17.7039    15.4086 </r>
       <r>    -8.1146    15.7502    16.1836 </r>
       <r>    -8.0654    13.1587    16.8311 </r>
       <r>    -8.0162    10.3221    17.3390 </r>
       <r>    -7.9670     7.5973    17.7128 </r>
       <r>    -7.9178     5.3957    17.9783 </r>
       <r>    -7.8686     4.0309    18.1766 </r>
       <r>    -7.8194     3.4715    18.3474 </r>
       <r>    -7.7702     3.3293    18.5113 </r>
       <r>    -7.7210     3.1833    18.6679 </r>
       <r>    -7.6718     2.9632    18.8137 </r>
       <r>    -7.6225     3.0185    18.9622 </r>
       <r>    -7.5733     3.7961    19.1490 </r>
       <r>    -7.5241     5.4205    19.4157 </r>
       <r>    -7.4749     7.5462    19.7870 </r>
       <r>    -7.4257     9.5763    20.2582 </r>
       <r>    -7.3765    11.0310    20.8010 </r>
       <r>    -7.3273    11.7775    21.3805 </r>
       <r>    -7.2781    12.0138    21.9716 </r>
       <r>    -7.2289    12.0941    22.5667 </r>
       <r>    -7.1797    12.3320    23.1735 </r>
       <r>    -7.1305    12.8490    23.8057 </r>
       <r>    -7.0813    13.5097    24.4705 </r>
       <r>    -7.0321    13.9938    25.1590 </r>
       <r>    -6.9829    13.9997    25.8479 </r>
       <r>    -6.9337    13.4508    26.5097 </r>
       <r>    -6.8845    12.5549    27.1275 </r>
       <r>    -6.8353    11.7063    27.7035 </r>
       <r>    -6.7861    11.3509    28.2620 </r>
       <r>    -6.7369    11.8626    28.8457 </r>
       <r>    -6.6877    13.3657    29.5034 </r>
       <r>    -6.6385    15.5343    30.2677 </r>
       <r>    -6.5893    17.5887    31.1332 </r>
       <r>    -6.5400    18.6379    32.0502 </r>
       <r>    -6.4908    18.1933    32.9454 </r>
       <r>    -6.4416    16.4813    33.7564 </r>
       <r>    -6.3924    14.3533    34.4626 </r>
       <r>    -6.3432    12.8815    35.0965 </r>
       <r>    -6.2940    12.8543    35.7289 </r>
       <r>    -6.2448    14.3633    36.4357 </r>
       <r>    -6.1956    16.6758    37.2562 </r>
       <r>    -6.1464    18.5472    38.1688 </r>
       <r>    -6.0972    18.8816    39.0979 </r>
       <r>    -6.0480    17.3240    39.9503 </r>
       <r>    -5.9988    14.3523    40.6565 </r>
       <r>    -5.9496    10.8451    41.1901 </r>
       <r>    -5.9004     7.5452    41.5614 </r>
       <r>    -5.8512     4.8410    41.7996 </r>
       <r>    -5.8020     2.8983    41.9422 </r>
       <r>    -5.7528     1.8356    42.0325 </r>
       <r>    -5.7036     1.6969    42.1160 </r>
       <r>    -5.6544     2.2848    42.2284 </r>
       <r>    -5.6052     3.1148    42.3817 </r>
       <r>    -5.5560     3.6421    42.5609 </r>
       <r>    -5.5068     3.6142    42.7387 </r>
       <r>    -5.4575     3.2384    42.8981 </r>
       <r>    -5.4083     2.9821    43.0448 </r>
       <r>    -5.3591     3.1555    43.2001 </r>
       <r>    -5.3099     3.6366    43.3790 </r>
       <r>    -5.2607     3.9728    43.5745 </r>
       <r>    -5.2115     3.7552    43.7593 </r>
       <r>    -5.1623     2.9295    43.9034 </r>
       <r>    -5.1131     1.7992    43.9919 </r>
       <r>    -5.0639     0.7729    44.0300 </r>
       <r>    -5.0147     0.1057    44.0352 </r>
       <r>    -4.9655    -0.1832    44.0261 </r>
       <r>    -4.9163    -0.2226    44.0152 </r>
       <r>    -4.8671    -0.1599    44.0073 </r>
       <r>    -4.8179    -0.0878    44.0030 </r>
       <r>    -4.7687    -0.0395    44.0011 </r>
       <r>    -4.7195    -0.0150    44.0003 </r>
       <r>    -4.6703    -0.0049    44.0001 </r>
       <r>    -4.6211    -0.0014    44.0000 </r>
       <r>    -4.5719    -0.0004    44.0000 </r>
       <r>    -4.5227    -0.0005    44.0000 </r>
       <r>    -4.4735    -0.0016    43.9999 </r>
       <r>    -4.4243    -0.0055    43.9996 </r>
       <r>    -4.3750    -0.0165    43.9988 </r>
       <r>    -4.3258    -0.0430    43.9967 </r>
       <r>    -4.2766    -0.0942    43.9921 </r>
       <r>    -4.2274    -0.1687    43.9838 </r>
       <r>    -4.1782    -0.2303    43.9724 </r>
       <r>    -4.1290    -0.1840    43.9634 </r>
       <r>    -4.0798     0.1133    43.9690 </r>
       <r>    -4.0306     0.7747    44.0071 </r>
       <r>    -3.9814     1.7629    44.0938 </r>
       <r>    -3.9322     2.8337    44.2332 </r>
       <r>    -3.8830     3.6552    44.4131 </r>
       <r>    -3.8338     4.0674    44.6132 </r>
       <r>    -3.7846     4.2594    44.8228 </r>
       <r>    -3.7354     4.6489    45.0516 </r>
       <r>    -3.6862     5.5147    45.3229 </r>
       <r>    -3.6370     6.7130    45.6532 </r>
       <r>    -3.5878     7.7603    46.0351 </r>
       <r>    -3.5386     8.2068    46.4389 </r>
       <r>    -3.4894     7.9368    46.8294 </r>
       <r>    -3.4402     7.1389    47.1807 </r>
       <r>    -3.3910     6.0533    47.4785 </r>
       <r>    -3.3417     4.8025    47.7148 </r>
       <r>    -3.2925     3.4428    47.8842 </r>
       <r>    -3.2433     2.0944    47.9873 </r>
       <r>    -3.1941     0.9556    48.0343 </r>
       <r>    -3.1449     0.1885    48.0436 </r>
       <r>    -3.0957    -0.1837    48.0345 </r>
       <r>    -3.0465    -0.2677    48.0214 </r>
       <r>    -2.9973    -0.2113    48.0110 </r>
       <r>    -2.9481    -0.1255    48.0048 </r>
       <r>    -2.8989    -0.0607    48.0018 </r>
       <r>    -2.8497    -0.0247    48.0006 </r>
       <r>    -2.8005    -0.0086    48.0002 </r>
       <r>    -2.7513    -0.0026    48.0000 </r>
       <r>    -2.7021    -0.0010    48.0000 </r>
       <r>    -2.6529    -0.0016    47.9999 </r>
       <r>    -2.6037    -0.0050    47.9997 </r>
       <r>    -2.5545    -0.0155    47.9989 </r>
       <r>    -2.5053    -0.0412    47.9969 </r>
       <r>    -2.4561    -0.0930    47.9923 </r>
       <r>    -2.4069    -0.1745    47.9837 </r>
       <r>    -2.3577    -0.2587    47.9710 </r>
       <r>    -2.3085    -0.2600    47.9582 </r>
       <r>    -2.2592    -0.0281    47.9568 </r>
       <r>    -2.2100     0.6023    47.9864 </r>
       <r>    -2.1608     1.7074    48.0705 </r>
       <r>    -2.1116     3.1795    48.2269 </r>
       <r>    -2.0624     4.7215    48.4592 </r>
       <r>    -2.0132     5.9529    48.7521 </r>
       <r>    -1.9640     6.5542    49.0746 </r>
       <r>    -1.9148     6.3698    49.3881 </r>
       <r>    -1.8656     5.4452    49.6560 </r>
       <r>    -1.8164     4.0154    49.8536 </r>
       <r>    -1.7672     2.4368    49.9735 </r>
       <r>    -1.7180     1.0600    50.0256 </r>
       <r>    -1.6688     0.1012    50.0306 </r>
       <r>    -1.6196    -0.3937    50.0112 </r>
       <r>    -1.5704    -0.4673    49.9882 </r>
       <r>    -1.5212    -0.1406    49.9813 </r>
       <r>    -1.4720     0.6034    50.0110 </r>
       <r>    -1.4228     1.7104    50.0952 </r>
       <r>    -1.3736     2.9290    50.2393 </r>
       <r>    -1.3244     3.8288    50.4277 </r>
       <r>    -1.2752     4.0179    50.6254 </r>
       <r>    -1.2260     3.4187    50.7936 </r>
       <r>    -1.1767     2.3765    50.9105 </r>
       <r>    -1.1275     1.4900    50.9838 </r>
       <r>    -1.0783     1.2684    51.0462 </r>
       <r>    -1.0291     1.8361    51.1366 </r>
       <r>    -0.9799     2.8582    51.2772 </r>
       <r>    -0.9307     3.7300    51.4608 </r>
       <r>    -0.8815     3.9252    51.6539 </r>
       <r>    -0.8323     3.2977    51.8162 </r>
       <r>    -0.7831     2.1499    51.9220 </r>
       <r>    -0.7339     1.0432    51.9733 </r>
       <r>    -0.6847     0.5005    51.9979 </r>
       <r>    -0.6355     0.7796    52.0363 </r>
       <r>    -0.5863     1.8022    52.1250 </r>
       <r>    -0.5371     3.2257    52.2837 </r>
       <r>    -0.4879     4.6094    52.5105 </r>
       <r>    -0.4387     5.6054    52.7863 </r>
       <r>    -0.3895     6.0875    53.0858 </r>
       <r>    -0.3403     6.1643    53.3891 </r>
       <r>    -0.2911     6.0942    53.6890 </r>
       <r>    -0.2419     6.1477    53.9915 </r>
       <r>    -0.1927     6.4572    54.3092 </r>
       <r>    -0.1435     6.9139    54.6494 </r>
       <r>    -0.0942     7.1911    55.0032 </r>
       <r>    -0.0450     6.9214    55.3438 </r>
       <r>     0.0042     5.9329    55.6357 </r>
       <r>     0.0534     4.3768    55.8511 </r>
       <r>     0.1026     2.6523    55.9816 </r>
       <r>     0.1518     1.1865    56.0400 </r>
       <r>     0.2010     0.2274    56.0512 </r>
       <r>     0.2502    -0.2203    56.0403 </r>
       <r>     0.2994    -0.3150    56.0248 </r>
       <r>     0.3486    -0.2461    56.0127 </r>
       <r>     0.3978    -0.1455    56.0056 </r>
       <r>     0.4470    -0.0703    56.0021 </r>
       <r>     0.4962    -0.0287    56.0007 </r>
       <r>     0.5454    -0.0100    56.0002 </r>
       <r>     0.5946    -0.0030    56.0001 </r>
       <r>     0.6438    -0.0008    56.0000 </r>
       <r>     0.6930    -0.0002    56.0000 </r>
       <r>     0.7422    -0.0000    56.0000 </r>
       <r>     0.7914    -0.0000    56.0000 </r>
       <r>     0.8406    -0.0000    56.0000 </r>
       <r>     0.8898    -0.0000    56.0000 </r>
       <r>     0.9390    -0.0000    56.0000 </r>
       <r>     0.9883    -0.0000    56.0000 </r>
       <r>     1.0375    -0.0000    56.0000 </r>
       <r>     1.0867    -0.0000    56.0000 </r>
       <r>     1.1359    -0.0000    56.0000 </r>
       <r>     1.1851    -0.0000    56.0000 </r>
       <r>     1.2343    -0.0000    56.0000 </r>
       <r>     1.2835     0.0000    56.0000 </r>
       <r>     1.3327     0.0000    56.0000 </r>
       <r>     1.3819     0.0000    56.0000 </r>
       <r>     1.4311     0.0000    56.0000 </r>
       <r>     1.4803     0.0000    56.0000 </r>
       <r>     1.5295     0.0000    56.0000 </r>
       <r>     1.5787     0.0000    56.0000 </r>
       <r>     1.6279     0.0000    56.0000 </r>
       <r>     1.6771     0.0000    56.0000 </r>
       <r>     1.7263     0.0000    56.0000 </r>
       <r>     1.7755     0.0000    56.0000 </r>
       <r>     1.8247     0.0000    56.0000 </r>
       <r>     1.8739     0.0000    56.0000 </r>
       <r>     1.9231     0.0000    56.0000 </r>
       <r>     1.9723     0.0000    56.0000 </r>
      </set>
     </set>
    </array>
   </total>
  </dos>
 </calculation>
 <structure name="finalpos" >
  <crystal>
   <varray name="basis" >
    <v>      21.13306818       0.00000000       0.00000000 </v>
    <v>       0.00000000      21.30010047       0.00000000 </v>
    <v>       0.00000000       0.00000000      23.03465159 </v>
   </varray>
   <i name="volume">  10368.73687636 </i>
   <varray name="rec_basis" >
    <v>       0.04731921       0.00000000       0.00000000 </v>
    <v>       0.00000000       0.04694814       0.00000000 </v>
    <v>       0.00000000       0.00000000       0.04341286 </v>
   </varray>
  </crystal>
  <varray name="positions" >
   <v>       0.47498833       0.48338695       0.39085519 </v>
   <v>       0.44568912       0.44845677       0.49802561 </v>
   <v>       0.42603540       0.42281069       0.60922234 </v>
   <v>       0.44637770       0.54656519       0.58302050 </v>
   <v>       0.47124174       0.57741641       0.47185274 </v>
   <v>       0.57414921       0.47497298       0.46697258 </v>
   <v>       0.54922448       0.44419445       0.57814126 </v>
   <v>       0.57015504       0.56864402       0.54996492 </v>
  </varray>
 </structure>
</modeling>
