unknown system                          
            1
    21.133068    0.000000    0.000000
     0.000000   21.300100    0.000000
     0.000000    0.000000   23.034652
   Au
     8
Direct configuration=     1
   0.47494729  0.48334493  0.39092931
   0.44555447  0.44831947  0.49796127
   0.42603623  0.42281956  0.60913013
   0.44647451  0.54662244  0.58301316
   0.47131926  0.57745118  0.47191837
   0.57418920  0.47504643  0.46704221
   0.54927637  0.44428951  0.57813595
   0.57006369  0.56855394  0.54992473
Direct configuration=     2
   0.47496989  0.48336807  0.39088849
   0.44562862  0.44839508  0.49799670
   0.42603578  0.42281467  0.60918091
   0.44642120  0.54659091  0.58301720
   0.47127657  0.57743203  0.47188223
   0.57416718  0.47500599  0.46700387
   0.54924779  0.44423717  0.57813888
   0.57011399  0.56860354  0.54994686
Direct configuration=     3
   0.47498833  0.48338695  0.39085519
   0.44568912  0.44845677  0.49802561
   0.42603540  0.42281069  0.60922234
   0.44637770  0.54656519  0.58302050
   0.47124174  0.57741641  0.47185274
   0.57414921  0.47497298  0.46697258
   0.54922448  0.44419445  0.57814126
   0.57015504  0.56864402  0.54996492
