  16  16   0   0
  0.9222409E+03  0.2374183E-08  0.2563325E-08  0.2424636E-08  0.5000000E-15
   1.0000000000000000E-004
  CAR 
 unknown system                          
      2.30259288    -11.18932445  301     -4.29650004      1.00000000
    -11.189  0.0000E+00  0.0000E+00  0.0000E+00  0.0000E+00
    -11.144  0.0000E+00  0.0000E+00  0.0000E+00  0.0000E+00
    -11.099  0.0000E+00  0.0000E+00  0.0000E+00  0.0000E+00
    -11.054  0.0000E+00  0.0000E+00  0.0000E+00  0.0000E+00
    -11.009  0.0000E+00  0.0000E+00  0.0000E+00  0.0000E+00
    -10.964  0.0000E+00  0.0000E+00  0.0000E+00  0.0000E+00
    -10.919  0.0000E+00  0.0000E+00  0.0000E+00  0.0000E+00
    -10.875  0.0000E+00  0.0000E+00  0.0000E+00  0.0000E+00
    -10.830 -0.3175E-30  0.0000E+00 -0.1428E-31  0.0000E+00
    -10.785 -0.1142E-28  0.0000E+00 -0.5277E-30  0.0000E+00
    -10.740 -0.3800E-27 -0.2162E-29 -0.1762E-28 -0.9724E-31
    -10.695 -0.1142E-25 -0.7357E-28 -0.5310E-27 -0.3406E-29
    -10.650 -0.3096E-24 -0.2320E-26 -0.1445E-25 -0.1077E-27
    -10.605 -0.7579E-23 -0.6603E-25 -0.3553E-24 -0.3077E-26
    -10.560 -0.1674E-21 -0.1697E-23 -0.7885E-23 -0.7938E-25
    -10.515 -0.3338E-20 -0.3934E-22 -0.1580E-21 -0.1849E-23
    -10.470 -0.6003E-19 -0.8232E-21 -0.2858E-20 -0.3887E-22
    -10.425 -0.9741E-18 -0.1554E-19 -0.4666E-19 -0.7379E-21
    -10.380 -0.1426E-16 -0.2648E-18 -0.6878E-18 -0.1265E-19
    -10.335 -0.1820E-15 -0.4069E-17 -0.8871E-17 -0.1956E-18
    -10.290 -0.2166E-14 -0.5515E-16 -0.1063E-15 -0.2676E-17
    -10.245 -0.2315E-13 -0.6823E-15 -0.1148E-14 -0.3336E-16
    -10.200 -0.2230E-12 -0.7664E-14 -0.1118E-13 -0.3780E-15
    -10.155 -0.1934E-11 -0.7756E-13 -0.9815E-13 -0.3866E-14
    -10.110 -0.1509E-10 -0.7068E-12 -0.7769E-12 -0.3565E-13
    -10.065 -0.1059E-09 -0.5798E-11 -0.5541E-11 -0.2964E-12
    -10.020 -0.6682E-09 -0.4278E-10 -0.3559E-10 -0.2220E-11
     -9.975 -0.3785E-08 -0.2839E-09 -0.2058E-09 -0.1499E-10
     -9.930 -0.1923E-07 -0.1692E-08 -0.1071E-08 -0.9107E-10
     -9.885 -0.8755E-07 -0.9051E-08 -0.5008E-08 -0.4981E-09
     -9.840 -0.3564E-06 -0.4340E-07 -0.2104E-07 -0.2450E-08
     -9.795 -0.1295E-05 -0.1863E-06 -0.7926E-07 -0.1083E-07
     -9.750 -0.4184E-05 -0.7144E-06 -0.2674E-06 -0.4296E-07
     -9.705 -0.1198E-04 -0.2441E-05 -0.8061E-06 -0.1527E-06
     -9.660 -0.3017E-04 -0.7404E-05 -0.2163E-05 -0.4857E-06
     -9.615 -0.6624E-04 -0.1983E-04 -0.5142E-05 -0.1378E-05
     -9.570 -0.1245E-03 -0.4653E-04 -0.1074E-04 -0.3470E-05
     -9.525 -0.1932E-03 -0.9437E-04 -0.1943E-04 -0.7714E-05
     -9.480 -0.2262E-03 -0.1613E-03 -0.2960E-04 -0.1497E-04
     -9.435 -0.1304E-03 -0.2199E-03 -0.3547E-04 -0.2486E-04
     -9.390  0.2164E-03 -0.1992E-03 -0.2574E-04 -0.3382E-04
     -9.345  0.9035E-03  0.1442E-04  0.1490E-04 -0.3317E-04
     -9.300  0.1897E-02  0.5368E-03  0.1002E-03 -0.9024E-05
     -9.255  0.2985E-02  0.1405E-02  0.2345E-03  0.5416E-04
     -9.211  0.3818E-02  0.2496E-02  0.4062E-03  0.1664E-03
     -9.166  0.4067E-02  0.3520E-02  0.5891E-03  0.3247E-03
     -9.121  0.3595E-02  0.4125E-02  0.7507E-03  0.5102E-03
     -9.076  0.2554E-02  0.4071E-02  0.8656E-03  0.6933E-03
     -9.031  0.1324E-02  0.3367E-02  0.9252E-03  0.8448E-03
     -8.986  0.3660E-03  0.2261E-02  0.9416E-03  0.9465E-03
     -8.941  0.7880E-04  0.1107E-02  0.9452E-03  0.9963E-03
     -8.896  0.7404E-03  0.2065E-03  0.9785E-03  0.1006E-02
     -8.851  0.2498E-02 -0.2708E-03  0.1091E-02  0.9934E-03
     -8.806  0.5340E-02 -0.2690E-03  0.1331E-02  0.9813E-03
     -8.761  0.9016E-02  0.1969E-03  0.1736E-02  0.9901E-03
     -8.716  0.1293E-01  0.1052E-02  0.2318E-02  0.1037E-02
     -8.671  0.1619E-01  0.2149E-02  0.3046E-02  0.1134E-02
     -8.626  0.1781E-01  0.3289E-02  0.3847E-02  0.1282E-02
     -8.581  0.1718E-01  0.4320E-02  0.4620E-02  0.1476E-02
     -8.536  0.1437E-01  0.5248E-02  0.5266E-02  0.1712E-02
     -8.491  0.1019E-01  0.6268E-02  0.5724E-02  0.1994E-02
     -8.446  0.5785E-02  0.7633E-02  0.5985E-02  0.2338E-02
     -8.401  0.2149E-02  0.9432E-02  0.6081E-02  0.2762E-02
     -8.356 -0.1923E-03  0.1141E-01  0.6073E-02  0.3275E-02
     -8.311 -0.1163E-02  0.1297E-01  0.6020E-02  0.3858E-02
     -8.266 -0.9033E-03  0.1344E-01  0.5980E-02  0.4463E-02
     -8.221  0.4258E-03  0.1240E-01  0.5999E-02  0.5020E-02
     -8.176  0.2633E-02  0.9958E-02  0.6117E-02  0.5468E-02
     -8.131  0.5358E-02  0.6790E-02  0.6358E-02  0.5773E-02
     -8.086  0.8000E-02  0.3834E-02  0.6718E-02  0.5946E-02
     -8.041  0.9884E-02  0.1939E-02  0.7162E-02  0.6033E-02
     -7.996  0.1062E-01  0.1563E-02  0.7640E-02  0.6103E-02
     -7.951  0.1041E-01  0.2671E-02  0.8108E-02  0.6223E-02
     -7.906  0.1003E-01  0.4795E-02  0.8559E-02  0.6439E-02
     -7.861  0.1046E-01  0.7189E-02  0.9030E-02  0.6762E-02
     -7.816  0.1231E-01  0.9055E-02  0.9583E-02  0.7170E-02
     -7.771  0.1547E-01  0.9800E-02  0.1028E-01  0.7610E-02
     -7.726  0.1915E-01  0.9306E-02  0.1114E-01  0.8029E-02
     -7.681  0.2223E-01  0.8072E-02  0.1214E-01  0.8392E-02
     -7.636  0.2381E-01  0.7088E-02  0.1321E-01  0.8711E-02
     -7.591  0.2358E-01  0.7403E-02  0.1427E-01  0.9044E-02
     -7.547  0.2196E-01  0.9586E-02  0.1526E-01  0.9475E-02
     -7.502  0.1988E-01  0.1337E-01  0.1615E-01  0.1008E-01
     -7.457  0.1838E-01  0.1773E-01  0.1698E-01  0.1087E-01
     -7.412  0.1812E-01  0.2135E-01  0.1779E-01  0.1183E-01
     -7.367  0.1907E-01  0.2324E-01  0.1865E-01  0.1288E-01
     -7.322  0.2058E-01  0.2313E-01  0.1958E-01  0.1392E-01
     -7.277  0.2189E-01  0.2151E-01  0.2056E-01  0.1489E-01
     -7.232  0.2255E-01  0.1938E-01  0.2158E-01  0.1576E-01
     -7.187  0.2262E-01  0.1775E-01  0.2259E-01  0.1656E-01
     -7.142  0.2249E-01  0.1729E-01  0.2360E-01  0.1733E-01
     -7.097  0.2249E-01  0.1803E-01  0.2462E-01  0.1814E-01
     -7.052  0.2257E-01  0.1944E-01  0.2563E-01  0.1902E-01
     -7.007  0.2240E-01  0.2074E-01  0.2664E-01  0.1995E-01
     -6.962  0.2159E-01  0.2132E-01  0.2761E-01  0.2091E-01
     -6.917  0.2002E-01  0.2107E-01  0.2851E-01  0.2186E-01
     -6.872  0.1792E-01  0.2033E-01  0.2932E-01  0.2277E-01
     -6.827  0.1569E-01  0.1968E-01  0.3002E-01  0.2366E-01
     -6.782  0.1377E-01  0.1951E-01  0.3064E-01  0.2454E-01
     -6.737  0.1240E-01  0.1982E-01  0.3120E-01  0.2543E-01
     -6.692  0.1167E-01  0.2028E-01  0.3172E-01  0.2634E-01
     -6.647  0.1144E-01  0.2040E-01  0.3224E-01  0.2726E-01
     -6.602  0.1150E-01  0.1981E-01  0.3275E-01  0.2815E-01
     -6.557  0.1163E-01  0.1844E-01  0.3328E-01  0.2898E-01
     -6.512  0.1168E-01  0.1652E-01  0.3380E-01  0.2972E-01
     -6.467  0.1168E-01  0.1445E-01  0.3433E-01  0.3037E-01
     -6.422  0.1174E-01  0.1266E-01  0.3486E-01  0.3094E-01
     -6.377  0.1198E-01  0.1143E-01  0.3539E-01  0.3145E-01
     -6.332  0.1236E-01  0.1087E-01  0.3595E-01  0.3194E-01
     -6.287  0.1276E-01  0.1087E-01  0.3652E-01  0.3243E-01
     -6.242  0.1304E-01  0.1116E-01  0.3711E-01  0.3293E-01
     -6.197  0.1320E-01  0.1154E-01  0.3770E-01  0.3345E-01
     -6.152  0.1342E-01  0.1189E-01  0.3831E-01  0.3399E-01
     -6.107  0.1391E-01  0.1228E-01  0.3893E-01  0.3454E-01
     -6.062  0.1476E-01  0.1278E-01  0.3960E-01  0.3511E-01
     -6.017  0.1587E-01  0.1336E-01  0.4031E-01  0.3571E-01
     -5.972  0.1702E-01  0.1393E-01  0.4108E-01  0.3634E-01
     -5.927  0.1807E-01  0.1441E-01  0.4189E-01  0.3699E-01
     -5.883  0.1907E-01  0.1484E-01  0.4275E-01  0.3766E-01
     -5.838  0.2013E-01  0.1535E-01  0.4365E-01  0.3835E-01
     -5.793  0.2127E-01  0.1606E-01  0.4461E-01  0.3907E-01
     -5.748  0.2233E-01  0.1695E-01  0.4561E-01  0.3983E-01
     -5.703  0.2310E-01  0.1788E-01  0.4665E-01  0.4064E-01
     -5.658  0.2342E-01  0.1874E-01  0.4771E-01  0.4148E-01
     -5.613  0.2335E-01  0.1949E-01  0.4876E-01  0.4235E-01
     -5.568  0.2306E-01  0.2017E-01  0.4979E-01  0.4326E-01
     -5.523  0.2282E-01  0.2082E-01  0.5082E-01  0.4420E-01
     -5.478  0.2283E-01  0.2141E-01  0.5185E-01  0.4516E-01
     -5.433  0.2325E-01  0.2191E-01  0.5289E-01  0.4615E-01
     -5.388  0.2416E-01  0.2228E-01  0.5398E-01  0.4715E-01
     -5.343  0.2556E-01  0.2253E-01  0.5513E-01  0.4816E-01
     -5.298  0.2738E-01  0.2264E-01  0.5636E-01  0.4918E-01
     -5.253  0.2946E-01  0.2254E-01  0.5768E-01  0.5019E-01
     -5.208  0.3157E-01  0.2221E-01  0.5910E-01  0.5119E-01
     -5.163  0.3344E-01  0.2174E-01  0.6061E-01  0.5217E-01
     -5.118  0.3471E-01  0.2140E-01  0.6217E-01  0.5313E-01
     -5.073  0.3500E-01  0.2156E-01  0.6374E-01  0.5410E-01
     -5.028  0.3403E-01  0.2253E-01  0.6527E-01  0.5512E-01
     -4.983  0.3184E-01  0.2439E-01  0.6670E-01  0.5621E-01
     -4.938  0.2905E-01  0.2695E-01  0.6801E-01  0.5742E-01
     -4.893  0.2677E-01  0.2983E-01  0.6921E-01  0.5877E-01
     -4.848  0.2616E-01  0.3258E-01  0.7039E-01  0.6023E-01
     -4.803  0.2778E-01  0.3471E-01  0.7164E-01  0.6179E-01
     -4.758  0.3117E-01  0.3575E-01  0.7304E-01  0.6340E-01
     -4.713  0.3496E-01  0.3537E-01  0.7461E-01  0.6499E-01
     -4.668  0.3756E-01  0.3354E-01  0.7630E-01  0.6650E-01
     -4.623  0.3785E-01  0.3067E-01  0.7801E-01  0.6788E-01
     -4.578  0.3553E-01  0.2754E-01  0.7960E-01  0.6912E-01
     -4.533  0.3105E-01  0.2497E-01  0.8100E-01  0.7024E-01
     -4.488  0.2525E-01  0.2347E-01  0.8214E-01  0.7130E-01
     -4.443  0.1897E-01  0.2309E-01  0.8299E-01  0.7233E-01
     -4.398  0.1297E-01  0.2348E-01  0.8357E-01  0.7339E-01
     -4.353  0.7800E-02  0.2413E-01  0.8392E-01  0.7448E-01
     -4.308  0.3834E-02  0.2466E-01  0.8410E-01  0.7558E-01
     -4.263  0.1186E-02  0.2487E-01  0.8415E-01  0.7670E-01
     -4.219 -0.2775E-03  0.2474E-01  0.8414E-01  0.7782E-01
     -4.174 -0.8676E-03  0.2432E-01  0.8410E-01  0.7891E-01
     -4.129 -0.9498E-03  0.2358E-01  0.8405E-01  0.7997E-01
     -4.084 -0.8268E-03  0.2236E-01  0.8402E-01  0.8098E-01
     -4.039 -0.6653E-03  0.2041E-01  0.8399E-01  0.8189E-01
     -3.994 -0.4810E-03  0.1752E-01  0.8397E-01  0.8268E-01
     -3.949 -0.1727E-03  0.1375E-01  0.8396E-01  0.8330E-01
     -3.904  0.4061E-03  0.9519E-02  0.8398E-01  0.8373E-01
     -3.859  0.1353E-02  0.5477E-02  0.8404E-01  0.8397E-01
     -3.814  0.2638E-02  0.2268E-02  0.8416E-01  0.8408E-01
     -3.769  0.4077E-02  0.2993E-03  0.8434E-01  0.8409E-01
     -3.724  0.5381E-02 -0.3474E-03  0.8458E-01  0.8407E-01
     -3.679  0.6255E-02  0.1400E-03  0.8486E-01  0.8408E-01
     -3.634  0.6491E-02  0.1415E-02  0.8515E-01  0.8414E-01
     -3.589  0.6037E-02  0.3066E-02  0.8543E-01  0.8428E-01
     -3.544  0.5026E-02  0.4680E-02  0.8565E-01  0.8449E-01
     -3.499  0.3768E-02  0.5900E-02  0.8582E-01  0.8476E-01
     -3.454  0.2672E-02  0.6472E-02  0.8594E-01  0.8505E-01
     -3.409  0.2092E-02  0.6297E-02  0.8604E-01  0.8533E-01
     -3.364  0.2171E-02  0.5456E-02  0.8613E-01  0.8558E-01
     -3.319  0.2779E-02  0.4216E-02  0.8626E-01  0.8577E-01
     -3.274  0.3610E-02  0.2980E-02  0.8642E-01  0.8590E-01
     -3.229  0.4389E-02  0.2161E-02  0.8662E-01  0.8600E-01
     -3.184  0.5024E-02  0.2021E-02  0.8684E-01  0.8609E-01
     -3.139  0.5593E-02  0.2553E-02  0.8710E-01  0.8620E-01
     -3.094  0.6189E-02  0.3516E-02  0.8737E-01  0.8636E-01
     -3.049  0.6762E-02  0.4584E-02  0.8768E-01  0.8657E-01
     -3.004  0.7091E-02  0.5520E-02  0.8800E-01  0.8682E-01
     -2.959  0.6910E-02  0.6247E-02  0.8831E-01  0.8710E-01
     -2.914  0.6083E-02  0.6781E-02  0.8858E-01  0.8740E-01
     -2.869  0.4702E-02  0.7113E-02  0.8879E-01  0.8772E-01
     -2.824  0.3060E-02  0.7143E-02  0.8893E-01  0.8804E-01
     -2.779  0.1525E-02  0.6729E-02  0.8900E-01  0.8835E-01
     -2.734  0.4076E-03  0.5797E-02  0.8902E-01  0.8861E-01
     -2.689 -0.1070E-03  0.4429E-02  0.8901E-01  0.8881E-01
     -2.644  0.3357E-04  0.2865E-02  0.8901E-01  0.8893E-01
     -2.599  0.7606E-03  0.1420E-02  0.8905E-01  0.8900E-01
     -2.554  0.1877E-02  0.3783E-03  0.8913E-01  0.8901E-01
     -2.510  0.3056E-02 -0.7883E-04  0.8927E-01  0.8901E-01
     -2.465  0.3915E-02  0.1087E-03  0.8945E-01  0.8902E-01
     -2.420  0.4153E-02  0.8725E-03  0.8963E-01  0.8906E-01
     -2.375  0.3696E-02  0.2004E-02  0.8980E-01  0.8915E-01
     -2.330  0.2731E-02  0.3165E-02  0.8992E-01  0.8929E-01
     -2.285  0.1595E-02  0.3967E-02  0.8999E-01  0.8947E-01
     -2.240  0.5994E-03  0.4125E-02  0.9002E-01  0.8965E-01
     -2.195 -0.8704E-04  0.3590E-02  0.9002E-01  0.8981E-01
     -2.150 -0.4417E-03  0.2568E-02  0.9000E-01  0.8993E-01
     -2.105 -0.4983E-03  0.1402E-02  0.8997E-01  0.8999E-01
     -2.060 -0.2601E-03  0.4091E-03  0.8996E-01  0.9001E-01
     -2.015  0.3183E-03 -0.2262E-03  0.8998E-01  0.9000E-01
     -1.970  0.1272E-02 -0.4364E-03  0.9003E-01  0.8998E-01
     -1.925  0.2544E-02 -0.2042E-03  0.9015E-01  0.8997E-01
     -1.880  0.3960E-02  0.4780E-03  0.9033E-01  0.8999E-01
     -1.835  0.5277E-02  0.1581E-02  0.9056E-01  0.9006E-01
     -1.790  0.6288E-02  0.2984E-02  0.9085E-01  0.9020E-01
     -1.745  0.6894E-02  0.4461E-02  0.9116E-01  0.9040E-01
     -1.700  0.7111E-02  0.5742E-02  0.9148E-01  0.9066E-01
     -1.655  0.7007E-02  0.6621E-02  0.9179E-01  0.9095E-01
     -1.610  0.6652E-02  0.7027E-02  0.9209E-01  0.9127E-01
     -1.565  0.6123E-02  0.7017E-02  0.9237E-01  0.9159E-01
     -1.520  0.5538E-02  0.6710E-02  0.9262E-01  0.9189E-01
     -1.475  0.5073E-02  0.6225E-02  0.9284E-01  0.9217E-01
     -1.430  0.4903E-02  0.5671E-02  0.9306E-01  0.9242E-01
     -1.385  0.5103E-02  0.5180E-02  0.9329E-01  0.9266E-01
     -1.340  0.5581E-02  0.4923E-02  0.9354E-01  0.9288E-01
     -1.295  0.6140E-02  0.5046E-02  0.9382E-01  0.9310E-01
     -1.250  0.6617E-02  0.5574E-02  0.9412E-01  0.9336E-01
     -1.205  0.7010E-02  0.6367E-02  0.9443E-01  0.9364E-01
     -1.160  0.7445E-02  0.7194E-02  0.9477E-01  0.9396E-01
     -1.115  0.8023E-02  0.7887E-02  0.9513E-01  0.9432E-01
     -1.070  0.8659E-02  0.8414E-02  0.9552E-01  0.9470E-01
     -1.025  0.9084E-02  0.8823E-02  0.9593E-01  0.9509E-01
     -0.980  0.9029E-02  0.9092E-02  0.9633E-01  0.9550E-01
     -0.935  0.8444E-02  0.9085E-02  0.9671E-01  0.9591E-01
     -0.890  0.7548E-02  0.8659E-02  0.9705E-01  0.9630E-01
     -0.846  0.6683E-02  0.7828E-02  0.9735E-01  0.9665E-01
     -0.801  0.6090E-02  0.6817E-02  0.9763E-01  0.9696E-01
     -0.756  0.5782E-02  0.5936E-02  0.9789E-01  0.9723E-01
     -0.711  0.5593E-02  0.5393E-02  0.9814E-01  0.9747E-01
     -0.666  0.5312E-02  0.5197E-02  0.9838E-01  0.9770E-01
     -0.621  0.4842E-02  0.5196E-02  0.9860E-01  0.9794E-01
     -0.576  0.4263E-02  0.5184E-02  0.9879E-01  0.9817E-01
     -0.531  0.3782E-02  0.5002E-02  0.9896E-01  0.9840E-01
     -0.486  0.3576E-02  0.4603E-02  0.9912E-01  0.9860E-01
     -0.441  0.3644E-02  0.4086E-02  0.9928E-01  0.9879E-01
     -0.396  0.3779E-02  0.3652E-02  0.9945E-01  0.9895E-01
     -0.351  0.3733E-02  0.3490E-02  0.9962E-01  0.9911E-01
     -0.306  0.3417E-02  0.3645E-02  0.9977E-01  0.9927E-01
     -0.261  0.2994E-02  0.3986E-02  0.9991E-01  0.9945E-01
     -0.216  0.2758E-02  0.4314E-02  0.1000E+00  0.9964E-01
     -0.171  0.2917E-02  0.4497E-02  0.1002E+00  0.9985E-01
     -0.126  0.3466E-02  0.4532E-02  0.1003E+00  0.1001E+00
     -0.081  0.4255E-02  0.4505E-02  0.1005E+00  0.1003E+00
     -0.036  0.5151E-02  0.4542E-02  0.1007E+00  0.1005E+00
      0.009  0.6140E-02  0.4805E-02  0.1010E+00  0.1007E+00
      0.054  0.7270E-02  0.5481E-02  0.1013E+00  0.1009E+00
      0.099  0.8495E-02  0.6685E-02  0.1017E+00  0.1012E+00
      0.144  0.9572E-02  0.8303E-02  0.1022E+00  0.1016E+00
      0.189  0.1012E-01  0.9907E-02  0.1026E+00  0.1020E+00
      0.234  0.9811E-02  0.1088E-01  0.1031E+00  0.1025E+00
      0.279  0.8553E-02  0.1073E-01  0.1034E+00  0.1030E+00
      0.324  0.6573E-02  0.9339E-02  0.1037E+00  0.1034E+00
      0.369  0.4323E-02  0.7045E-02  0.1039E+00  0.1037E+00
      0.414  0.2290E-02  0.4470E-02  0.1040E+00  0.1039E+00
      0.459  0.8024E-03  0.2221E-02  0.1041E+00  0.1040E+00
      0.504 -0.5358E-04  0.6525E-03  0.1041E+00  0.1041E+00
      0.549 -0.3917E-03 -0.1878E-03  0.1040E+00  0.1041E+00
      0.594 -0.4143E-03 -0.4738E-03  0.1040E+00  0.1040E+00
      0.639 -0.3063E-03 -0.4492E-03  0.1040E+00  0.1040E+00
      0.684 -0.1837E-03 -0.3137E-03  0.1040E+00  0.1040E+00
      0.729 -0.9379E-04 -0.1804E-03  0.1040E+00  0.1040E+00
      0.774 -0.4165E-04 -0.8899E-04  0.1040E+00  0.1040E+00
      0.818 -0.1628E-04 -0.3834E-04  0.1040E+00  0.1040E+00
      0.863 -0.5641E-05 -0.1458E-04  0.1040E+00  0.1040E+00
      0.908 -0.1740E-05 -0.4923E-05  0.1040E+00  0.1040E+00
      0.953 -0.4794E-06 -0.1483E-05  0.1040E+00  0.1040E+00
      0.998 -0.1182E-06 -0.3992E-06  0.1040E+00  0.1040E+00
      1.043 -0.2612E-07 -0.9628E-07  0.1040E+00  0.1040E+00
      1.088 -0.5182E-08 -0.2083E-07  0.1040E+00  0.1040E+00
      1.133 -0.9235E-09 -0.4049E-08  0.1040E+00  0.1040E+00
      1.178 -0.1480E-09 -0.7074E-09  0.1040E+00  0.1040E+00
      1.223 -0.2133E-10 -0.1112E-09  0.1040E+00  0.1040E+00
      1.268 -0.2768E-11 -0.1572E-10  0.1040E+00  0.1040E+00
      1.313 -0.3234E-12 -0.2002E-11  0.1040E+00  0.1040E+00
      1.358 -0.3404E-13 -0.2297E-12  0.1040E+00  0.1040E+00
      1.403 -0.3229E-14 -0.2374E-13  0.1040E+00  0.1040E+00
      1.448 -0.2765E-15 -0.2212E-14  0.1040E+00  0.1040E+00
      1.493 -0.2469E-16 -0.1876E-15  0.1040E+00  0.1040E+00
      1.538  0.0000E+00 -0.1481E-16  0.1040E+00  0.1040E+00
      1.583  0.0000E+00  0.0000E+00  0.1040E+00  0.1040E+00
      1.628  0.0000E+00  0.0000E+00  0.1040E+00  0.1040E+00
      1.673  0.0000E+00  0.0000E+00  0.1040E+00  0.1040E+00
      1.718  0.0000E+00  0.0000E+00  0.1040E+00  0.1040E+00
      1.763  0.0000E+00  0.0000E+00  0.1040E+00  0.1040E+00
      1.808  0.0000E+00  0.0000E+00  0.1040E+00  0.1040E+00
      1.853  0.0000E+00  0.0000E+00  0.1040E+00  0.1040E+00
      1.898  0.0000E+00  0.0000E+00  0.1040E+00  0.1040E+00
      1.943  0.0000E+00  0.0000E+00  0.1040E+00  0.1040E+00
      1.988  0.0000E+00  0.0000E+00  0.1040E+00  0.1040E+00
      2.033  0.0000E+00  0.0000E+00  0.1040E+00  0.1040E+00
      2.078  0.0000E+00  0.0000E+00  0.1040E+00  0.1040E+00
      2.123  0.0000E+00  0.0000E+00  0.1040E+00  0.1040E+00
      2.168  0.0000E+00  0.0000E+00  0.1040E+00  0.1040E+00
      2.213  0.0000E+00  0.0000E+00  0.1040E+00  0.1040E+00
      2.258  0.0000E+00  0.0000E+00  0.1040E+00  0.1040E+00
      2.303  0.0000E+00  0.0000E+00  0.1040E+00  0.1040E+00
