   16   16 1000    2
  0.9222409E+03  0.2374183E-08  0.2563325E-08  0.2424635E-08  0.5000000E-15
   1.0000000000000000E-004
  CAR 
 unknown system                          
    160      1    104
 
  0.1262379E-14  0.1262379E-14  0.1262379E-14  0.1000000E+01
    1       -9.189324     -9.123122   1.000000   1.000000
    2       -8.772532     -8.590959   1.000000   1.000000
    3       -8.654755     -8.416514   1.000000   1.000000
    4       -8.630978     -8.303900   1.000000   1.000000
    5       -8.610862     -8.267330   1.000000   1.000000
    6       -8.576289     -8.220484   1.000000   1.000000
    7       -8.064018     -7.873416   1.000000   1.000000
    8       -8.041909     -7.771779   1.000000   1.000000
    9       -7.954801     -7.728167   1.000000   1.000000
   10       -7.772663     -7.477910   1.000000   1.000000
   11       -7.738033     -7.466488   1.000000   1.000000
   12       -7.726463     -7.433040   1.000000   1.000000
   13       -7.654387     -7.380784   1.000000   1.000000
   14       -7.628863     -7.358893   1.000000   1.000000
   15       -7.579811     -7.303934   1.000000   1.000000
   16       -7.572589     -7.272576   1.000000   1.000000
   17       -7.512237     -7.195123   1.000000   1.000000
   18       -7.389800     -7.117953   1.000000   1.000000
   19       -7.356066     -7.035537   1.000000   1.000000
   20       -7.325472     -7.032976   1.000000   1.000000
   21       -7.281532     -6.989906   1.000000   1.000000
   22       -7.243711     -6.957797   1.000000   1.000000
   23       -7.208847     -6.892812   1.000000   1.000000
   24       -7.142444     -6.824609   1.000000   1.000000
   25       -7.091151     -6.790453   1.000000   1.000000
   26       -7.042416     -6.702378   1.000000   1.000000
   27       -6.993903     -6.690545   1.000000   1.000000
   28       -6.987152     -6.627177   1.000000   1.000000
   29       -6.947929     -6.608772   1.000000   1.000000
   30       -6.841421     -6.525749   1.000000   1.000000
   31       -6.812700     -6.467637   1.000000   1.000000
   32       -6.705585     -6.374991   1.000000   1.000000
   33       -6.608252     -6.245624   1.000000   1.000000
   34       -6.549913     -6.224718   1.000000   1.000000
   35       -6.453702     -6.103381   1.000000   1.000000
   36       -6.364141     -6.026316   1.000000   1.000000
   37       -6.278899     -5.959798   1.000000   1.000000
   38       -6.226169     -5.907606   1.000000   1.000000
   39       -6.151664     -5.829118   1.000000   1.000000
   40       -6.036611     -5.734398   1.000000   1.000000
   41       -5.999526     -5.716558   1.000000   1.000000
   42       -5.978089     -5.685153   1.000000   1.000000
   43       -5.896824     -5.592198   1.000000   1.000000
   44       -5.829535     -5.534200   1.000000   1.000000
   45       -5.794469     -5.528870   1.000000   1.000000
   46       -5.748343     -5.466052   1.000000   1.000000
   47       -5.713310     -5.411425   1.000000   1.000000
   48       -5.672117     -5.365812   1.000000   1.000000
   49       -5.631661     -5.343059   1.000000   1.000000
   50       -5.574223     -5.270589   1.000000   1.000000
   51       -5.542958     -5.240911   1.000000   1.000000
   52       -5.497798     -5.200517   1.000000   1.000000
   53       -5.448861     -5.151477   1.000000   1.000000
   54       -5.401323     -5.122419   1.000000   1.000000
   55       -5.371919     -5.045148   1.000000   1.000001
   56       -5.318588     -4.995812   1.000000   1.000004
   57       -5.300745     -4.966226   1.000000   1.000012
   58       -5.244761     -4.936388   1.000000   1.000029
   59       -5.218138     -4.898883   1.000000   1.000087
   60       -5.189303     -4.868627   1.000000   1.000199
   61       -5.181694     -4.830604   1.000000   1.000523
   62       -5.136770     -4.811714   1.000000   1.000819
   63       -5.103208     -4.768963   1.000000   1.002095
   64       -5.073371     -4.758566   1.000000   1.002590
   65       -5.038399     -4.723453   1.000001   1.005050
   66       -5.016646     -4.695469   1.000002   1.008129
   67       -5.000498     -4.683577   1.000004   1.009795
   68       -4.996130     -4.663245   1.000004   1.013169
   69       -4.932323     -4.612240   1.000033   1.024052
   70       -4.908116     -4.571787   1.000067   1.032598
   71       -4.834835     -4.517779   1.000471   1.032937
   72       -4.761473     -4.455529   1.002443   0.988795
   73       -4.738195     -4.430635   1.003851   0.949215
   74       -4.724128     -4.402936   1.004989   0.887257
   75       -4.722743     -4.351614   1.005114   0.723679
   76       -4.677008     -4.295850   1.010813   0.497251
   77       -4.668430     -4.274624   1.012246   0.408044
   78       -4.659136     -4.243546   1.013930   0.284405
   79       -4.634443     -4.172669   1.018998   0.071576
   80       -4.568944     -4.162309   1.033060   0.050679
   81       -4.545894     -4.094501   1.035384  -0.026134
   82       -4.534857     -4.052996   1.035283  -0.035450
   83       -4.491182     -4.000073   1.022143  -0.028440
   84       -4.416736     -3.972252   0.920543  -0.022086
   85       -3.734110     -3.536401  -0.000257  -0.000001
   86       -3.583991     -3.388305  -0.000003  -0.000000
   87       -3.260513     -3.063962  -0.000000  -0.000000
   88       -3.060856     -2.892514  -0.000000  -0.000000
   89       -2.937145     -2.758246  -0.000000  -0.000000
   90       -2.451332     -2.276244  -0.000000  -0.000000
   91       -1.846158     -1.724200  -0.000000  -0.000000
   92       -1.699776     -1.583964  -0.000000  -0.000000
   93       -1.549596     -1.422951  -0.000000  -0.000000
   94       -1.337990     -1.211366  -0.000000  -0.000000
   95       -1.208137     -1.106787  -0.000000  -0.000000
   96       -1.025977     -0.952568  -0.000000  -0.000000
   97       -1.008101     -0.897777  -0.000000  -0.000000
   98       -0.812338     -0.695334  -0.000000  -0.000000
   99       -0.642968     -0.510159  -0.000000  -0.000000
  100       -0.381141     -0.249184  -0.000000  -0.000000
  101       -0.089561     -0.036940  -0.000000  -0.000000
  102        0.089789      0.167496  -0.000000  -0.000000
  103        0.186428      0.233227  -0.000000  -0.000000
  104        0.264826      0.302593  -0.000000  -0.000000
