       N       E                     dE             d eps       ncg     rms          rms(c)
DAV:   1     0.143005609934E+04    0.14301E+04   -0.26942E+04   416   0.732E+02
DAV:   2     0.744699931489E+03   -0.68536E+03   -0.61776E+03   800   0.874E+01
DAV:   3     0.143622069767E+03   -0.60108E+03   -0.55861E+03   680   0.827E+01
DAV:   4    -0.401717649857E+02   -0.18379E+03   -0.16608E+03   576   0.501E+01
DAV:   5    -0.629151872120E+02   -0.22743E+02   -0.19591E+02   568   0.183E+01    0.269E+01
DAV:   6    -0.567590617103E+02    0.61561E+01   -0.42000E+01   440   0.163E+01    0.175E+01
DAV:   7    -0.594484756234E+02   -0.26894E+01   -0.35204E+01   440   0.416E+01    0.293E+01
DAV:   8    -0.495413885185E+02    0.99071E+01   -0.27722E+01   456   0.297E+01    0.206E+01
DAV:   9    -0.463828303219E+02    0.31586E+01   -0.20121E+01   464   0.183E+01    0.117E+01
DAV:  10    -0.463724186123E+02    0.10412E-01   -0.63945E+00   472   0.146E+01    0.797E+00
DAV:  11    -0.476432743715E+02   -0.12709E+01   -0.21228E+00   448   0.862E+00    0.638E+00
DAV:  12    -0.488593240257E+02   -0.12160E+01   -0.91792E-01   448   0.540E+00    0.444E+00
DAV:  13    -0.508911331867E+02   -0.20318E+01   -0.87040E-01   448   0.387E+00    0.425E+00
DAV:  14    -0.529461159154E+02   -0.20550E+01   -0.92119E-01   440   0.411E+00    0.309E+00
DAV:  15    -0.541890370697E+02   -0.12429E+01   -0.41032E-01   456   0.303E+00    0.243E+00
DAV:  16    -0.546543518748E+02   -0.46531E+00   -0.15294E-01   448   0.217E+00    0.134E+00
DAV:  17    -0.558043200438E+02   -0.11500E+01   -0.21279E-01   440   0.157E+00    0.117E+00
DAV:  18    -0.563259984454E+02   -0.52168E+00   -0.69760E-02   488   0.108E+00    0.964E-01
DAV:  19    -0.570901002747E+02   -0.76410E+00   -0.10672E-01   456   0.934E-01    0.961E-01
DAV:  20    -0.577192032756E+02   -0.62910E+00   -0.76410E-02   472   0.984E-01    0.766E-01
DAV:  21    -0.582352121217E+02   -0.51601E+00   -0.47156E-02   464   0.722E-01    0.689E-01
DAV:  22    -0.585654055563E+02   -0.33019E+00   -0.21370E-02   456   0.569E-01    0.715E-01
DAV:  23    -0.590802527869E+02   -0.51485E+00   -0.37108E-02   440   0.626E-01    0.571E-01
DAV:  24    -0.595198166490E+02   -0.43956E+00   -0.34887E-02   448   0.602E-01    0.421E-01
DAV:  25    -0.598139850498E+02   -0.29417E+00   -0.21479E-02   432   0.521E-01    0.360E-01
DAV:  26    -0.601331455968E+02   -0.31916E+00   -0.15231E-02   464   0.364E-01    0.253E-01
DAV:  27    -0.603541503841E+02   -0.22100E+00   -0.71462E-03   464   0.303E-01    0.247E-01
DAV:  28    -0.605946455884E+02   -0.24050E+00   -0.65940E-03   464   0.234E-01    0.197E-01
DAV:  29    -0.607072677406E+02   -0.11262E+00   -0.22767E-03   496   0.180E-01    0.106E-01
DAV:  30    -0.608103977506E+02   -0.10313E+00   -0.21044E-03   456   0.147E-01    0.115E-01
DAV:  31    -0.608913788444E+02   -0.80981E-01   -0.16656E-03   464   0.112E-01    0.608E-02
DAV:  32    -0.609413245758E+02   -0.49946E-01   -0.71248E-04   400   0.807E-02    0.581E-02
DAV:  33    -0.609656337591E+02   -0.24309E-01   -0.25907E-04   344   0.628E-02    0.325E-02
DAV:  34    -0.609859833798E+02   -0.20350E-01   -0.24737E-04   336   0.348E-02    0.221E-02
DAV:  35    -0.609981714873E+02   -0.12188E-01   -0.14598E-04   304   0.289E-02    0.176E-02
DAV:  36    -0.610028782601E+02   -0.47068E-02   -0.76680E-05   296   0.264E-02    0.163E-02
DAV:  37    -0.610060426191E+02   -0.31644E-02   -0.67201E-05   304   0.189E-02    0.100E-02
DAV:  38    -0.610081191348E+02   -0.20765E-02   -0.36430E-05   296   0.116E-02    0.633E-03
DAV:  39    -0.610097207623E+02   -0.16016E-02   -0.37995E-05   296   0.948E-03    0.509E-03
DAV:  40    -0.610107063429E+02   -0.98558E-03   -0.17171E-05   296   0.726E-03    0.368E-03
DAV:  41    -0.610115544471E+02   -0.84810E-03   -0.14781E-05   280   0.591E-03    0.276E-03
DAV:  42    -0.610120850329E+02   -0.53059E-03   -0.73781E-06   288   0.472E-03    0.176E-03
DAV:  43    -0.610122814407E+02   -0.19641E-03   -0.34152E-06   280   0.363E-03    0.149E-03
DAV:  44    -0.610124350721E+02   -0.15363E-03   -0.17729E-06   248   0.259E-03    0.893E-04
DAV:  45    -0.610125277589E+02   -0.92687E-04   -0.86605E-07   256   0.167E-03
   1 F= -.61012528E+02 E0= -.61011952E+02  d E =-.610125E+02  mag=     7.9593
       N       E                     dE             d eps       ncg     rms          rms(c)
DAV:   1    -0.611687269714E+02   -0.15629E+00   -0.18667E+02   416   0.359E+01    0.363E+00
DAV:   2    -0.615215482835E+02   -0.35282E+00   -0.32475E+00   416   0.716E+00    0.553E+00
DAV:   3    -0.614762581004E+02    0.45290E-01   -0.13065E+00   432   0.652E+00    0.438E+00
DAV:   4    -0.614684215976E+02    0.78365E-02   -0.66144E-01   456   0.442E+00    0.440E+00
DAV:   5    -0.613892160948E+02    0.79206E-01   -0.30876E-01   456   0.332E+00    0.212E+00
DAV:   6    -0.613876053385E+02    0.16108E-02   -0.16854E-01   432   0.212E+00    0.167E+00
DAV:   7    -0.613847846002E+02    0.28207E-02   -0.71977E-02   440   0.166E+00    0.122E+00
DAV:   8    -0.613781987422E+02    0.65859E-02   -0.30601E-02   440   0.129E+00    0.613E-01
DAV:   9    -0.613792429694E+02   -0.10442E-02   -0.11029E-02   448   0.673E-01    0.440E-01
DAV:  10    -0.613793397581E+02   -0.96789E-04   -0.46825E-03   448   0.437E-01    0.273E-01
DAV:  11    -0.613799612148E+02   -0.62146E-03   -0.18280E-03   456   0.261E-01    0.220E-01
DAV:  12    -0.613805437827E+02   -0.58257E-03   -0.75021E-04   408   0.177E-01    0.832E-02
DAV:  13    -0.613808723544E+02   -0.32857E-03   -0.19179E-04   304   0.869E-02    0.355E-02
DAV:  14    -0.613812687719E+02   -0.39642E-03   -0.69195E-05   296   0.391E-02    0.338E-02
DAV:  15    -0.613814980381E+02   -0.22927E-03   -0.29348E-05   296   0.302E-02    0.240E-02
DAV:  16    -0.613818021101E+02   -0.30407E-03   -0.20159E-05   288   0.217E-02    0.151E-02
DAV:  17    -0.613819995525E+02   -0.19744E-03   -0.12800E-05   288   0.169E-02    0.125E-02
DAV:  18    -0.613821671261E+02   -0.16757E-03   -0.89907E-06   272   0.127E-02    0.592E-03
DAV:  19    -0.613822923137E+02   -0.12519E-03   -0.44948E-06   288   0.744E-03    0.499E-03
DAV:  20    -0.613824745792E+02   -0.18227E-03   -0.39843E-06   272   0.555E-03    0.434E-03
DAV:  21    -0.613826854595E+02   -0.21088E-03   -0.46425E-06   296   0.507E-03    0.319E-03
DAV:  22    -0.613827968112E+02   -0.11135E-03   -0.26297E-06   288   0.448E-03    0.210E-03
DAV:  23    -0.613829240285E+02   -0.12722E-03   -0.29129E-06   280   0.322E-03    0.180E-03
DAV:  24    -0.613830156369E+02   -0.91608E-04   -0.22258E-06   280   0.306E-03
   2 F= -.61383016E+02 E0= -.61383173E+02  d E =-.370488E+00  mag=     7.9284
       N       E                     dE             d eps       ncg     rms          rms(c)
DAV:   1    -0.613803957682E+02    0.25283E-02   -0.19507E+01   416   0.115E+01    0.109E+00
DAV:   2    -0.614178002843E+02   -0.37405E-01   -0.35498E-01   448   0.235E+00    0.182E+00
DAV:   3    -0.614094791290E+02    0.83212E-02   -0.10779E-01   432   0.206E+00    0.128E+00
DAV:   4    -0.614107171829E+02   -0.12381E-02   -0.59880E-02   432   0.130E+00    0.133E+00
DAV:   5    -0.614034436724E+02    0.72735E-02   -0.36388E-02   432   0.969E-01    0.628E-01
DAV:   6    -0.614036455200E+02   -0.20185E-03   -0.13677E-02   448   0.614E-01    0.466E-01
DAV:   7    -0.614036211957E+02    0.24324E-04   -0.60650E-03   448   0.476E-01    0.367E-01
DAV:   8    -0.614028737038E+02    0.74749E-03   -0.24316E-03   448   0.379E-01    0.133E-01
DAV:   9    -0.614030946642E+02   -0.22096E-03   -0.82837E-04   392   0.179E-01    0.123E-01
DAV:  10    -0.614030950962E+02   -0.43193E-06   -0.32692E-04   288   0.121E-01
   3 F= -.61403095E+02 E0= -.61403638E+02  d E =-.390567E+00  mag=     7.9211
       N       E                     dE             d eps       ncg     rms          rms(c)
DAV:   1    -0.614161219940E+02   -0.13027E-01   -0.14413E+01   416   0.989E+00    0.841E-01
DAV:   2    -0.614625857605E+02   -0.46464E-01   -0.33160E-01   432   0.249E+00    0.272E+00
DAV:   3    -0.614331214923E+02    0.29464E-01   -0.13270E-01   432   0.203E+00    0.838E-01
DAV:   4    -0.614354988426E+02   -0.23774E-02   -0.29869E-02   432   0.100E+00    0.772E-01
DAV:   5    -0.614335707987E+02    0.19280E-02   -0.14998E-02   432   0.656E-01    0.511E-01
DAV:   6    -0.614331127737E+02    0.45802E-03   -0.51158E-03   432   0.413E-01    0.292E-01
DAV:   7    -0.614337791955E+02   -0.66642E-03   -0.33335E-03   456   0.372E-01    0.332E-01
DAV:   8    -0.614332338384E+02    0.54536E-03   -0.18689E-03   456   0.306E-01    0.115E-01
DAV:   9    -0.614333746643E+02   -0.14083E-03   -0.55381E-04   336   0.155E-01    0.126E-01
DAV:  10    -0.614333432840E+02    0.31380E-04   -0.24261E-04   296   0.110E-01
   4 F= -.61433343E+02 E0= -.61434517E+02  d E =-.302482E-01  mag=     7.9187
       N       E                     dE             d eps       ncg     rms          rms(c)
DAV:   1    -0.614320247032E+02    0.13500E-02   -0.53043E+00   416   0.600E+00    0.524E-01
DAV:   2    -0.614511132608E+02   -0.19089E-01   -0.13088E-01   432   0.160E+00    0.181E+00
DAV:   3    -0.614375686785E+02    0.13545E-01   -0.54592E-02   432   0.132E+00    0.523E-01
DAV:   4    -0.614390540794E+02   -0.14854E-02   -0.11571E-02   432   0.625E-01    0.465E-01
DAV:   5    -0.614383863937E+02    0.66769E-03   -0.54796E-03   424   0.397E-01    0.309E-01
DAV:   6    -0.614382232526E+02    0.16314E-03   -0.16935E-03   416   0.249E-01    0.167E-01
DAV:   7    -0.614385174485E+02   -0.29420E-03   -0.10789E-03   440   0.215E-01    0.195E-01
DAV:   8    -0.614383170357E+02    0.20041E-03   -0.61934E-04   384   0.182E-01    0.697E-02
DAV:   9    -0.614383600570E+02   -0.43021E-04   -0.19059E-04   288   0.891E-02
   5 F= -.61438360E+02 E0= -.61440069E+02  d E =-.352650E-01  mag=     7.9181
       N       E                     dE             d eps       ncg     rms          rms(c)
DAV:   1    -0.614430825291E+02   -0.47655E-02   -0.61650E+00   416   0.647E+00    0.477E-01
DAV:   2    -0.614616674849E+02   -0.18585E-01   -0.13667E-01   432   0.163E+00    0.164E+00
DAV:   3    -0.614505448136E+02    0.11123E-01   -0.53496E-02   424   0.129E+00    0.598E-01
DAV:   4    -0.614507716664E+02   -0.22685E-03   -0.10526E-02   424   0.592E-01    0.332E-01
DAV:   5    -0.614504809111E+02    0.29076E-03   -0.18396E-03   448   0.273E-01    0.175E-01
DAV:   6    -0.614504861875E+02   -0.52764E-05   -0.83846E-04   400   0.193E-01
   6 F= -.61450486E+02 E0= -.61453168E+02  d E =-.121261E-01  mag=     7.9226
       N       E                     dE             d eps       ncg     rms          rms(c)
DAV:   1    -0.613966869693E+02    0.53794E-01   -0.55650E+01   416   0.195E+01    0.137E+00
DAV:   2    -0.615393912688E+02   -0.14270E+00   -0.10986E+00   432   0.454E+00    0.421E+00
DAV:   3    -0.614717131905E+02    0.67678E-01   -0.33855E-01   424   0.346E+00    0.169E+00
DAV:   4    -0.614682064789E+02    0.35067E-02   -0.86297E-02   440   0.168E+00    0.105E+00
DAV:   5    -0.614634730803E+02    0.47334E-02   -0.15328E-02   448   0.806E-01    0.437E-01
DAV:   6    -0.614637996225E+02   -0.32654E-03   -0.70698E-03   440   0.555E-01    0.489E-01
DAV:   7    -0.614637774359E+02    0.22187E-04   -0.10894E-02   456   0.566E-01    0.568E-01
DAV:   8    -0.614622299446E+02    0.15475E-02   -0.59188E-03   448   0.481E-01    0.217E-01
DAV:   9    -0.614621633801E+02    0.66564E-04   -0.12642E-03   464   0.218E-01    0.121E-01
DAV:  10    -0.614620944025E+02    0.68978E-04   -0.35406E-04   304   0.128E-01
   7 F= -.61462094E+02 E0= -.61468402E+02  d E =-.237343E-01  mag=     7.9451
       N       E                     dE             d eps       ncg     rms          rms(c)
DAV:   1    -0.614598712313E+02    0.22921E-02   -0.99727E+00   416   0.824E+00    0.534E-01
DAV:   2    -0.614821812748E+02   -0.22310E-01   -0.18635E-01   432   0.186E+00    0.153E+00
DAV:   3    -0.614719345802E+02    0.10247E-01   -0.46080E-02   432   0.139E+00    0.521E-01
DAV:   4    -0.614725751993E+02   -0.64062E-03   -0.11050E-02   432   0.600E-01    0.487E-01
DAV:   5    -0.614717036823E+02    0.87152E-03   -0.40486E-03   440   0.385E-01    0.263E-01
DAV:   6    -0.614714623569E+02    0.24133E-03   -0.13592E-03   408   0.227E-01    0.168E-01
DAV:   7    -0.614714212544E+02    0.41102E-04   -0.12031E-03   448   0.194E-01    0.182E-01
DAV:   8    -0.614712096248E+02    0.21163E-03   -0.76569E-04   424   0.176E-01    0.866E-02
DAV:   9    -0.614713257572E+02   -0.11613E-03   -0.22673E-04   296   0.101E-01    0.656E-02
DAV:  10    -0.614714213186E+02   -0.95561E-04   -0.94066E-05   272   0.623E-02
   8 F= -.61471421E+02 E0= -.61479297E+02  d E =-.932692E-02  mag=     7.9717
       N       E                     dE             d eps       ncg     rms          rms(c)
DAV:   1    -0.613798803825E+02    0.91445E-01   -0.80382E+01   416   0.235E+01    0.148E+00
DAV:   2    -0.615598024768E+02   -0.17992E+00   -0.14853E+00   440   0.515E+00    0.421E+00
DAV:   3    -0.614842615658E+02    0.75541E-01   -0.32948E-01   432   0.372E+00    0.135E+00
DAV:   4    -0.614865201153E+02   -0.22585E-02   -0.80630E-02   440   0.160E+00    0.127E+00
DAV:   5    -0.614808312714E+02    0.56888E-02   -0.27441E-02   432   0.101E+00    0.720E-01
DAV:   6    -0.614788631539E+02    0.19681E-02   -0.96520E-03   440   0.633E-01    0.515E-01
DAV:   7    -0.614781624328E+02    0.70072E-03   -0.10282E-02   432   0.575E-01    0.543E-01
DAV:   8    -0.614760231191E+02    0.21393E-02   -0.64690E-03   456   0.516E-01    0.237E-01
DAV:   9    -0.614761028071E+02   -0.79688E-04   -0.17266E-03   456   0.282E-01    0.162E-01
DAV:  10    -0.614761343147E+02   -0.31508E-04   -0.63749E-04   360   0.166E-01
   9 F= -.61476134E+02 E0= -.61488619E+02  d E =-.140399E-01  mag=     8.0212
       N       E                     dE             d eps       ncg     rms          rms(c)
DAV:   1    -0.614768755985E+02   -0.77279E-03   -0.61508E+00   416   0.647E+00    0.388E-01
DAV:   2    -0.614891060517E+02   -0.12230E-01   -0.10995E-01   424   0.137E+00    0.102E+00
DAV:   3    -0.614850437007E+02    0.40624E-02   -0.22185E-02   424   0.962E-01    0.333E-01
DAV:   4    -0.614853915361E+02   -0.34784E-03   -0.44485E-03   424   0.397E-01    0.274E-01
DAV:   5    -0.614851729809E+02    0.21856E-03   -0.11924E-03   448   0.241E-01    0.122E-01
DAV:   6    -0.614855098620E+02   -0.33688E-03   -0.56284E-04   312   0.144E-01    0.158E-01
DAV:   7    -0.614859810636E+02   -0.47120E-03   -0.87078E-04   328   0.157E-01    0.166E-01
DAV:   8    -0.614866050172E+02   -0.62395E-03   -0.58879E-04   328   0.140E-01    0.747E-02
DAV:   9    -0.614871335694E+02   -0.52855E-03   -0.16638E-04   280   0.832E-02    0.410E-02
DAV:  10    -0.614875249219E+02   -0.39135E-03   -0.55465E-05   256   0.432E-02    0.204E-02
DAV:  11    -0.614879711643E+02   -0.44624E-03   -0.16870E-05   288   0.201E-02    0.190E-02
DAV:  12    -0.614885204034E+02   -0.54924E-03   -0.13845E-05   264   0.187E-02    0.163E-02
DAV:  13    -0.614890485960E+02   -0.52819E-03   -0.12495E-05   272   0.154E-02    0.136E-02
DAV:  14    -0.614897645361E+02   -0.71594E-03   -0.14314E-05   296   0.118E-02    0.967E-03
DAV:  15    -0.614904743112E+02   -0.70978E-03   -0.13172E-05   272   0.100E-02    0.806E-03
DAV:  16    -0.614913377753E+02   -0.86346E-03   -0.17382E-05   304   0.900E-03    0.739E-03
DAV:  17    -0.614921656130E+02   -0.82784E-03   -0.18936E-05   280   0.866E-03    0.687E-03
DAV:  18    -0.614929250319E+02   -0.75942E-03   -0.19868E-05   304   0.856E-03    0.432E-03
DAV:  19    -0.614938154735E+02   -0.89044E-03   -0.33885E-05   304   0.821E-03    0.391E-03
DAV:  20    -0.614943508615E+02   -0.53539E-03   -0.17864E-05   304   0.759E-03    0.270E-03
DAV:  21    -0.614946722048E+02   -0.32134E-03   -0.13116E-05   304   0.605E-03    0.169E-03
DAV:  22    -0.614948045305E+02   -0.13233E-03   -0.60666E-06   264   0.423E-03    0.113E-03
DAV:  23    -0.614949357296E+02   -0.13120E-03   -0.38201E-06   280   0.295E-03    0.794E-04
DAV:  24    -0.614950723293E+02   -0.13660E-03   -0.24226E-06   264   0.251E-03    0.619E-04
DAV:  25    -0.614951837249E+02   -0.11140E-03   -0.19048E-06   272   0.212E-03    0.469E-04
DAV:  26    -0.614952433416E+02   -0.59617E-04   -0.12284E-06   280   0.177E-03
  10 F= -.61495243E+02 E0= -.61509217E+02  d E =-.191090E-01  mag=     8.1105
       N       E                     dE             d eps       ncg     rms          rms(c)
DAV:   1    -0.614411641051E+02    0.54020E-01   -0.55546E+01   416   0.195E+01    0.110E+00
DAV:   2    -0.615517928922E+02   -0.11063E+00   -0.95344E-01   448   0.402E+00    0.299E+00
DAV:   3    -0.615147413113E+02    0.37052E-01   -0.23428E-01   448   0.268E+00    0.985E-01
DAV:   4    -0.615154169002E+02   -0.67559E-03   -0.37175E-02   432   0.115E+00    0.785E-01
DAV:   5    -0.615123863437E+02    0.30306E-02   -0.10018E-02   448   0.674E-01    0.422E-01
DAV:   6    -0.615122938455E+02    0.92498E-04   -0.66141E-03   440   0.436E-01    0.495E-01
DAV:   7    -0.615114804338E+02    0.81341E-03   -0.81290E-03   440   0.452E-01    0.426E-01
DAV:   8    -0.615102909147E+02    0.11895E-02   -0.46444E-03   456   0.391E-01    0.229E-01
DAV:   9    -0.615101610549E+02    0.12986E-03   -0.15018E-03   440   0.249E-01    0.159E-01
DAV:  10    -0.615101062478E+02    0.54807E-04   -0.46093E-04   296   0.145E-01
  11 F= -.61510106E+02 E0= -.61527334E+02  d E =-.339719E-01  mag=     8.1339
       N       E                     dE             d eps       ncg     rms          rms(c)
DAV:   1    -0.612175276658E+02    0.29263E+00   -0.22380E+02   416   0.394E+01    0.214E+00
DAV:   2    -0.616378431231E+02   -0.42032E+00   -0.37288E+00   440   0.781E+00    0.542E+00
DAV:   3    -0.615212444393E+02    0.11660E+00   -0.84552E-01   432   0.501E+00    0.198E+00
DAV:   4    -0.615180901171E+02    0.31543E-02   -0.16285E-01   424   0.231E+00    0.154E+00
DAV:   5    -0.615067199734E+02    0.11370E-01   -0.40403E-02   424   0.130E+00    0.798E-01
DAV:   6    -0.615065143667E+02    0.20561E-03   -0.25978E-02   440   0.821E-01    0.944E-01
DAV:   7    -0.615044575171E+02    0.20568E-02   -0.31079E-02   432   0.854E-01    0.813E-01
DAV:   8    -0.615015467088E+02    0.29108E-02   -0.17734E-02   440   0.754E-01    0.438E-01
DAV:   9    -0.615016288067E+02   -0.82098E-04   -0.61022E-03   440   0.481E-01    0.287E-01
DAV:  10    -0.615015923027E+02    0.36504E-04   -0.16322E-03   432   0.275E-01    0.146E-01
DAV:  11    -0.615017401876E+02   -0.14788E-03   -0.41497E-04   288   0.148E-01    0.953E-02
DAV:  12    -0.615022365678E+02   -0.49638E-03   -0.28816E-04   280   0.953E-02    0.705E-02
DAV:  13    -0.615026797907E+02   -0.44322E-03   -0.15238E-04   280   0.752E-02    0.422E-02
DAV:  14    -0.615034364963E+02   -0.75671E-03   -0.10641E-04   280   0.447E-02    0.281E-02
DAV:  15    -0.615039637334E+02   -0.52724E-03   -0.47025E-05   296   0.343E-02    0.168E-02
DAV:  16    -0.615046098027E+02   -0.64607E-03   -0.24803E-05   264   0.196E-02    0.113E-02
DAV:  17    -0.615052089334E+02   -0.59913E-03   -0.15721E-05   296   0.133E-02    0.110E-02
DAV:  18    -0.615057855048E+02   -0.57657E-03   -0.12202E-05   272   0.111E-02    0.726E-03
DAV:  19    -0.615065750064E+02   -0.78950E-03   -0.18034E-05   304   0.796E-03    0.665E-03
DAV:  20    -0.615074525103E+02   -0.87750E-03   -0.22315E-05   280   0.869E-03    0.570E-03
DAV:  21    -0.615084353860E+02   -0.98288E-03   -0.40969E-05   312   0.941E-03    0.375E-03
DAV:  22    -0.615090115522E+02   -0.57617E-03   -0.21122E-05   304   0.753E-03    0.297E-03
DAV:  23    -0.615093395135E+02   -0.32796E-03   -0.13357E-05   296   0.634E-03    0.221E-03
DAV:  24    -0.615096636595E+02   -0.32415E-03   -0.11392E-05   304   0.499E-03    0.150E-03
DAV:  25    -0.615098809636E+02   -0.21730E-03   -0.73294E-06   296   0.436E-03    0.124E-03
DAV:  26    -0.615100286815E+02   -0.14772E-03   -0.47780E-06   264   0.343E-03    0.778E-04
DAV:  27    -0.615101737481E+02   -0.14507E-03   -0.35921E-06   280   0.289E-03    0.571E-04
DAV:  28    -0.615102654010E+02   -0.91653E-04   -0.23469E-06   280   0.238E-03
  12 F= -.61510265E+02 E0= -.61531783E+02  d E =-.341311E-01  mag=     8.2318
       N       E                     dE             d eps       ncg     rms          rms(c)
DAV:   1    -0.614308914241E+02    0.79282E-01   -0.67148E+01   416   0.214E+01    0.118E+00
DAV:   2    -0.615637936265E+02   -0.13290E+00   -0.11874E+00   456   0.440E+00    0.304E+00
DAV:   3    -0.615195131689E+02    0.44280E-01   -0.21902E-01   440   0.291E+00    0.899E-01
DAV:   4    -0.615222104920E+02   -0.26973E-02   -0.41227E-02   440   0.118E+00    0.974E-01
DAV:   5    -0.615183892839E+02    0.38212E-02   -0.18612E-02   432   0.755E-01    0.534E-01
DAV:   6    -0.615178528928E+02    0.53639E-03   -0.79180E-03   432   0.468E-01    0.459E-01
DAV:   7    -0.615177552798E+02    0.97613E-04   -0.70010E-03   432   0.451E-01    0.431E-01
DAV:   8    -0.615167863271E+02    0.96895E-03   -0.57937E-03   432   0.419E-01    0.181E-01
DAV:   9    -0.615169390365E+02   -0.15271E-03   -0.12114E-03   456   0.217E-01    0.120E-01
DAV:  10    -0.615169716706E+02   -0.32634E-04   -0.28310E-04   264   0.116E-01
  13 F= -.61516972E+02 E0= -.61536815E+02  d E =-.408374E-01  mag=     8.2208
       N       E                     dE             d eps       ncg     rms          rms(c)
DAV:   1    -0.615104405632E+02    0.64985E-02   -0.19749E+01   416   0.116E+01    0.661E-01
DAV:   2    -0.615462131655E+02   -0.35773E-01   -0.33312E-01   448   0.241E+00    0.147E+00
DAV:   3    -0.615363853104E+02    0.98279E-02   -0.55617E-02   432   0.156E+00    0.476E-01
DAV:   4    -0.615372343943E+02   -0.84908E-03   -0.10933E-02   440   0.586E-01    0.449E-01
DAV:   5    -0.615365119833E+02    0.72241E-03   -0.46791E-03   440   0.395E-01    0.288E-01
DAV:   6    -0.615365628051E+02   -0.50822E-04   -0.19255E-03   448   0.248E-01    0.237E-01
DAV:   7    -0.615372096049E+02   -0.64680E-03   -0.36502E-03   440   0.297E-01    0.366E-01
DAV:   8    -0.615367021135E+02    0.50749E-03   -0.27974E-03   432   0.278E-01    0.121E-01
DAV:   9    -0.615368493377E+02   -0.14722E-03   -0.53864E-04   336   0.139E-01    0.666E-02
DAV:  10    -0.615368832516E+02   -0.33914E-04   -0.11276E-04   272   0.666E-02
  14 F= -.61536883E+02 E0= -.61557678E+02  d E =-.199116E-01  mag=     8.2232
       N       E                     dE             d eps       ncg     rms          rms(c)
DAV:   1    -0.613386067345E+02    0.19824E+00   -0.17905E+02   416   0.350E+01    0.200E+00
DAV:   2    -0.616609627442E+02   -0.32236E+00   -0.30323E+00   440   0.719E+00    0.434E+00
DAV:   3    -0.615764034694E+02    0.84559E-01   -0.51821E-01   432   0.466E+00    0.153E+00
DAV:   4    -0.615779267384E+02   -0.15233E-02   -0.10797E-01   440   0.185E+00    0.130E+00
DAV:   5    -0.615703634634E+02    0.75633E-02   -0.40157E-02   440   0.121E+00    0.822E-01
DAV:   6    -0.615696123936E+02    0.75107E-03   -0.18079E-02   440   0.739E-01    0.716E-01
DAV:   7    -0.615711873610E+02   -0.15750E-02   -0.30302E-02   456   0.834E-01    0.963E-01
DAV:   8    -0.615668876869E+02    0.42997E-02   -0.23414E-02   432   0.773E-01    0.369E-01
DAV:   9    -0.615672332455E+02   -0.34556E-03   -0.55797E-03   448   0.438E-01    0.253E-01
DAV:  10    -0.615670214147E+02    0.21183E-03   -0.14222E-03   456   0.246E-01    0.132E-01
DAV:  11    -0.615670660029E+02   -0.44588E-04   -0.30662E-04   296   0.125E-01
  15 F= -.61567066E+02 E0= -.61591040E+02  d E =-.500943E-01  mag=     8.2397
       N       E                     dE             d eps       ncg     rms          rms(c)
DAV:   1    -0.615358420317E+02    0.31179E-01   -0.25724E+01   416   0.132E+01    0.761E-01
DAV:   2    -0.615807662178E+02   -0.44924E-01   -0.44134E-01   432   0.268E+00    0.158E+00
DAV:   3    -0.615700548959E+02    0.10711E-01   -0.75100E-02   432   0.173E+00    0.563E-01
DAV:   4    -0.615710324129E+02   -0.97752E-03   -0.15379E-02   440   0.696E-01    0.503E-01
DAV:   5    -0.615698627536E+02    0.11697E-02   -0.59009E-03   432   0.468E-01    0.295E-01
DAV:   6    -0.615699986853E+02   -0.13593E-03   -0.25839E-03   440   0.280E-01    0.272E-01
DAV:   7    -0.615704792474E+02   -0.48056E-03   -0.47967E-03   456   0.319E-01    0.369E-01
DAV:   8    -0.615700494465E+02    0.42980E-03   -0.33698E-03   440   0.289E-01    0.122E-01
DAV:   9    -0.615702867387E+02   -0.23729E-03   -0.58175E-04   344   0.144E-01    0.728E-02
DAV:  10    -0.615703554008E+02   -0.68662E-04   -0.13863E-04   288   0.749E-02
  16 F= -.61570355E+02 E0= -.61595570E+02  d E =-.533837E-01  mag=     8.2490
       N       E                     dE             d eps       ncg     rms          rms(c)
DAV:   1    -0.615290809055E+02    0.41206E-01   -0.49541E+01   416   0.184E+01    0.104E+00
DAV:   2    -0.616108985286E+02   -0.81818E-01   -0.83833E-01   432   0.356E+00    0.195E+00
DAV:   3    -0.615973420011E+02    0.13557E-01   -0.15443E-01   424   0.225E+00    0.100E+00
DAV:   4    -0.615980858729E+02   -0.74387E-03   -0.53198E-02   424   0.112E+00    0.917E-01
DAV:   5    -0.615946746922E+02    0.34112E-02   -0.20015E-02   432   0.726E-01    0.455E-01
DAV:   6    -0.615945752467E+02    0.99445E-04   -0.64323E-03   440   0.453E-01    0.394E-01
DAV:   7    -0.615948857209E+02   -0.31047E-03   -0.73874E-03   440   0.439E-01    0.385E-01
DAV:   8    -0.615943070209E+02    0.57870E-03   -0.44176E-03   440   0.387E-01    0.142E-01
DAV:   9    -0.615945688172E+02   -0.26180E-03   -0.82105E-04   424   0.182E-01    0.859E-02
DAV:  10    -0.615946382177E+02   -0.69401E-04   -0.15998E-04   280   0.916E-02
  17 F= -.61594638E+02 E0= -.61620733E+02  d E =-.242828E-01  mag=     8.2486
       N       E                     dE             d eps       ncg     rms          rms(c)
DAV:   1    -0.615072403593E+02    0.87328E-01   -0.73142E+01   416   0.223E+01    0.127E+00
DAV:   2    -0.616260141821E+02   -0.11877E+00   -0.12244E+00   432   0.428E+00    0.227E+00
DAV:   3    -0.616073462733E+02    0.18668E-01   -0.21563E-01   424   0.267E+00    0.116E+00
DAV:   4    -0.616082816132E+02   -0.93534E-03   -0.77880E-02   440   0.132E+00    0.108E+00
DAV:   5    -0.616033140692E+02    0.49675E-02   -0.30315E-02   432   0.874E-01    0.557E-01
DAV:   6    -0.616030622293E+02    0.25184E-03   -0.98757E-03   432   0.561E-01    0.489E-01
DAV:   7    -0.616031513405E+02   -0.89111E-04   -0.11066E-02   432   0.536E-01    0.451E-01
DAV:   8    -0.616022441703E+02    0.90717E-03   -0.60103E-03   440   0.466E-01    0.167E-01
DAV:   9    -0.616025951779E+02   -0.35101E-03   -0.11393E-03   448   0.212E-01    0.983E-02
DAV:  10    -0.616027360808E+02   -0.14090E-03   -0.20546E-04   280   0.105E-01    0.490E-02
DAV:  11    -0.616030017505E+02   -0.26567E-03   -0.79194E-05   288   0.520E-02    0.433E-02
DAV:  12    -0.616032520522E+02   -0.25030E-03   -0.70241E-05   296   0.468E-02    0.335E-02
DAV:  13    -0.616034305605E+02   -0.17851E-03   -0.42992E-05   280   0.388E-02    0.252E-02
DAV:  14    -0.616036355420E+02   -0.20498E-03   -0.27000E-05   280   0.266E-02    0.108E-02
DAV:  15    -0.616037910724E+02   -0.15553E-03   -0.11635E-05   280   0.146E-02    0.693E-03
DAV:  16    -0.616039175996E+02   -0.12653E-03   -0.53800E-06   264   0.943E-03    0.409E-03
DAV:  17    -0.616040607902E+02   -0.14319E-03   -0.36601E-06   272   0.529E-03    0.318E-03
DAV:  18    -0.616041820068E+02   -0.12122E-03   -0.27045E-06   272   0.414E-03    0.222E-03
DAV:  19    -0.616043514920E+02   -0.16949E-03   -0.37202E-06   280   0.355E-03    0.207E-03
DAV:  20    -0.616044988281E+02   -0.14734E-03   -0.36208E-06   288   0.367E-03    0.203E-03
DAV:  21    -0.616046562447E+02   -0.15742E-03   -0.48249E-06   288   0.360E-03    0.121E-03
DAV:  22    -0.616047430268E+02   -0.86782E-04   -0.36680E-06   288   0.311E-03
  18 F= -.61604743E+02 E0= -.61631788E+02  d E =-.343876E-01  mag=     8.2309
       N       E                     dE             d eps       ncg     rms          rms(c)
DAV:   1    -0.615562156063E+02    0.48441E-01   -0.55032E+01   416   0.192E+01    0.110E+00
DAV:   2    -0.616575951944E+02   -0.10138E+00   -0.97718E-01   440   0.394E+00    0.251E+00
DAV:   3    -0.616285432280E+02    0.29052E-01   -0.18827E-01   432   0.261E+00    0.807E-01
DAV:   4    -0.616300548208E+02   -0.15116E-02   -0.30620E-02   432   0.105E+00    0.714E-01
DAV:   5    -0.616273099856E+02    0.27448E-02   -0.10824E-02   432   0.667E-01    0.395E-01
DAV:   6    -0.616274777833E+02   -0.16780E-03   -0.73846E-03   448   0.413E-01    0.460E-01
DAV:   7    -0.616269874041E+02    0.49038E-03   -0.11222E-02   440   0.471E-01    0.446E-01
DAV:   8    -0.616258939287E+02    0.10935E-02   -0.52655E-03   448   0.390E-01    0.170E-01
DAV:   9    -0.616260048897E+02   -0.11096E-03   -0.11839E-03   432   0.203E-01    0.127E-01
DAV:  10    -0.616260516042E+02   -0.46714E-04   -0.26420E-04   272   0.115E-01
  19 F= -.61626052E+02 E0= -.61654254E+02  d E =-.213086E-01  mag=     8.2144
       N       E                     dE             d eps       ncg     rms          rms(c)
DAV:   1    -0.613533991899E+02    0.27261E+00   -0.21673E+02   416   0.384E+01    0.217E+00
DAV:   2    -0.617521612860E+02   -0.39876E+00   -0.37887E+00   440   0.776E+00    0.473E+00
DAV:   3    -0.616437100296E+02    0.10845E+00   -0.70292E-01   424   0.510E+00    0.164E+00
DAV:   4    -0.616442498427E+02   -0.53981E-03   -0.11123E-01   440   0.216E+00    0.141E+00
DAV:   5    -0.616329311278E+02    0.11319E-01   -0.30083E-02   440   0.137E+00    0.735E-01
DAV:   6    -0.616311969701E+02    0.17342E-02   -0.14145E-02   440   0.773E-01    0.701E-01
DAV:   7    -0.616292515388E+02    0.19454E-02   -0.20964E-02   440   0.817E-01    0.706E-01
DAV:   8    -0.616266699906E+02    0.25815E-02   -0.13362E-02   448   0.724E-01    0.356E-01
DAV:   9    -0.616275198343E+02   -0.84984E-03   -0.41238E-03   448   0.358E-01    0.234E-01
DAV:  10    -0.616278228184E+02   -0.30298E-03   -0.18425E-03   400   0.211E-01    0.136E-01
DAV:  11    -0.616287135335E+02   -0.89072E-03   -0.46875E-04   288   0.114E-01    0.771E-02
DAV:  12    -0.616301016546E+02   -0.13881E-02   -0.22663E-04   288   0.750E-02    0.545E-02
DAV:  13    -0.616311867676E+02   -0.10851E-02   -0.12839E-04   280   0.596E-02    0.380E-02
DAV:  14    -0.616322542884E+02   -0.10675E-02   -0.85341E-05   272   0.423E-02    0.183E-02
DAV:  15    -0.616330631931E+02   -0.80890E-03   -0.38516E-05   280   0.238E-02    0.128E-02
DAV:  16    -0.616337023651E+02   -0.63917E-03   -0.19814E-05   272   0.167E-02    0.971E-03
DAV:  17    -0.616345714235E+02   -0.86906E-03   -0.20079E-05   272   0.111E-02    0.800E-03
DAV:  18    -0.616352858725E+02   -0.71445E-03   -0.16487E-05   288   0.926E-03    0.671E-03
DAV:  19    -0.616367182891E+02   -0.14324E-02   -0.47536E-05   280   0.107E-02    0.524E-03
DAV:  20    -0.616377215249E+02   -0.10032E-02   -0.34807E-05   304   0.956E-03    0.441E-03
DAV:  21    -0.616383552475E+02   -0.63372E-03   -0.28486E-05   288   0.925E-03    0.301E-03
DAV:  22    -0.616387875267E+02   -0.43228E-03   -0.22607E-05   304   0.743E-03    0.265E-03
DAV:  23    -0.616390834634E+02   -0.29594E-03   -0.15272E-05   280   0.623E-03    0.182E-03
DAV:  24    -0.616393481497E+02   -0.26469E-03   -0.11255E-05   296   0.491E-03    0.112E-03
DAV:  25    -0.616395013087E+02   -0.15316E-03   -0.66175E-06   280   0.390E-03    0.847E-04
DAV:  26    -0.616396446556E+02   -0.14335E-03   -0.44797E-06   288   0.294E-03    0.518E-04
DAV:  27    -0.616397370056E+02   -0.92350E-04   -0.26417E-06   280   0.236E-03
  20 F= -.61639737E+02 E0= -.61668857E+02  d E =-.349940E-01  mag=     8.0987
       N       E                     dE             d eps       ncg     rms          rms(c)
DAV:   1    -0.615616718678E+02    0.77973E-01   -0.78904E+01   416   0.231E+01    0.119E+00
DAV:   2    -0.616933627206E+02   -0.13169E+00   -0.12777E+00   440   0.431E+00    0.236E+00
DAV:   3    -0.616711079618E+02    0.22255E-01   -0.18415E-01   440   0.278E+00    0.104E+00
DAV:   4    -0.616686581761E+02    0.24498E-02   -0.32084E-02   440   0.121E+00    0.771E-01
DAV:   5    -0.616652682189E+02    0.33900E-02   -0.82215E-03   448   0.700E-01    0.383E-01
DAV:   6    -0.616640936656E+02    0.11746E-02   -0.64668E-03   456   0.405E-01    0.417E-01
DAV:   7    -0.616629868314E+02    0.11068E-02   -0.11654E-02   464   0.505E-01    0.458E-01
DAV:   8    -0.616617182575E+02    0.12686E-02   -0.74012E-03   440   0.416E-01    0.224E-01
DAV:   9    -0.616618363022E+02   -0.11804E-03   -0.14079E-03   440   0.215E-01    0.106E-01
DAV:  10    -0.616619815770E+02   -0.14527E-03   -0.28176E-04   280   0.111E-01    0.653E-02
DAV:  11    -0.616622817027E+02   -0.30013E-03   -0.10603E-04   288   0.608E-02    0.490E-02
DAV:  12    -0.616627169172E+02   -0.43521E-03   -0.82299E-05   288   0.466E-02    0.295E-02
DAV:  13    -0.616631386142E+02   -0.42170E-03   -0.46532E-05   288   0.309E-02    0.205E-02
DAV:  14    -0.616634991571E+02   -0.36054E-03   -0.26918E-05   288   0.232E-02    0.113E-02
DAV:  15    -0.616638633536E+02   -0.36420E-03   -0.15114E-05   272   0.145E-02    0.847E-03
DAV:  16    -0.616641795786E+02   -0.31622E-03   -0.87504E-06   288   0.102E-02    0.648E-03
DAV:  17    -0.616645979597E+02   -0.41838E-03   -0.93005E-06   272   0.679E-03    0.497E-03
DAV:  18    -0.616650101922E+02   -0.41223E-03   -0.91918E-06   280   0.634E-03    0.460E-03
DAV:  19    -0.616657310389E+02   -0.72085E-03   -0.22320E-05   296   0.744E-03    0.390E-03
DAV:  20    -0.616662481418E+02   -0.51710E-03   -0.17157E-05   296   0.724E-03    0.312E-03
DAV:  21    -0.616666373851E+02   -0.38924E-03   -0.16530E-05   304   0.658E-03    0.195E-03
DAV:  22    -0.616668808198E+02   -0.24343E-03   -0.11086E-05   296   0.499E-03    0.138E-03
DAV:  23    -0.616670886611E+02   -0.20784E-03   -0.82269E-06   288   0.418E-03    0.105E-03
DAV:  24    -0.616672452824E+02   -0.15662E-03   -0.53661E-06   280   0.347E-03    0.698E-04
DAV:  25    -0.616673680326E+02   -0.12275E-03   -0.35830E-06   280   0.261E-03    0.488E-04
DAV:  26    -0.616674400810E+02   -0.72048E-04   -0.20988E-06   280   0.208E-03
  21 F= -.61667440E+02 E0= -.61695637E+02  d E =-.277031E-01  mag=     8.0247
       N       E                     dE             d eps       ncg     rms          rms(c)
DAV:   1    -0.614314234026E+02    0.23594E+00   -0.18510E+02   416   0.355E+01    0.183E+00
DAV:   2    -0.617485944322E+02   -0.31717E+00   -0.30228E+00   440   0.667E+00    0.373E+00
DAV:   3    -0.616921411678E+02    0.56453E-01   -0.47842E-01   432   0.436E+00    0.173E+00
DAV:   4    -0.616827831915E+02    0.93580E-02   -0.93259E-02   440   0.196E+00    0.122E+00
DAV:   5    -0.616741311115E+02    0.86521E-02   -0.22404E-02   432   0.111E+00    0.587E-01
DAV:   6    -0.616716110180E+02    0.25201E-02   -0.14461E-02   448   0.646E-01    0.643E-01
DAV:   7    -0.616691643534E+02    0.24467E-02   -0.25007E-02   448   0.791E-01    0.689E-01
DAV:   8    -0.616664660043E+02    0.26983E-02   -0.15959E-02   440   0.651E-01    0.369E-01
DAV:   9    -0.616668804114E+02   -0.41441E-03   -0.38463E-03   448   0.362E-01    0.195E-01
DAV:  10    -0.616672256772E+02   -0.34527E-03   -0.90851E-04   400   0.192E-01    0.101E-01
DAV:  11    -0.616680835214E+02   -0.85784E-03   -0.25235E-04   280   0.994E-02    0.731E-02
DAV:  12    -0.616691061766E+02   -0.10227E-02   -0.16786E-04   280   0.723E-02    0.465E-02
DAV:  13    -0.616701041758E+02   -0.99800E-03   -0.10509E-04   280   0.488E-02    0.334E-02
DAV:  14    -0.616709799622E+02   -0.87579E-03   -0.66388E-05   280   0.385E-02    0.193E-02
DAV:  15    -0.616717266101E+02   -0.74665E-03   -0.35353E-05   280   0.241E-02    0.138E-02
DAV:  16    -0.616723702263E+02   -0.64362E-03   -0.19569E-05   272   0.166E-02    0.104E-02
DAV:  17    -0.616732788431E+02   -0.90862E-03   -0.20467E-05   280   0.108E-02    0.831E-03
DAV:  18    -0.616741025219E+02   -0.82368E-03   -0.21107E-05   288   0.961E-03    0.742E-03
DAV:  19    -0.616755000814E+02   -0.13976E-02   -0.45002E-05   296   0.115E-02    0.671E-03
DAV:  20    -0.616765772939E+02   -0.10772E-02   -0.31634E-05   296   0.109E-02    0.526E-03
DAV:  21    -0.616774148720E+02   -0.83758E-03   -0.37348E-05   312   0.962E-03    0.315E-03
DAV:  22    -0.616778716848E+02   -0.45681E-03   -0.19284E-05   296   0.703E-03    0.219E-03
DAV:  23    -0.616782818490E+02   -0.41016E-03   -0.15491E-05   296   0.582E-03    0.166E-03
DAV:  24    -0.616785231644E+02   -0.24132E-03   -0.85616E-06   288   0.481E-03    0.121E-03
DAV:  25    -0.616787930050E+02   -0.26984E-03   -0.67891E-06   296   0.361E-03    0.848E-04
DAV:  26    -0.616789341212E+02   -0.14112E-03   -0.36076E-06   272   0.302E-03    0.676E-04
DAV:  27    -0.616790334930E+02   -0.99372E-04   -0.23215E-06   280   0.212E-03
  22 F= -.61679033E+02 E0= -.61704275E+02  d E =-.392965E-01  mag=     7.9029
       N       E                     dE             d eps       ncg     rms          rms(c)
DAV:   1    -0.616641577891E+02    0.14776E-01   -0.12134E+01   432   0.905E+00    0.463E-01
DAV:   2    -0.616835054083E+02   -0.19348E-01   -0.19458E-01   440   0.167E+00    0.898E-01
DAV:   3    -0.616803078759E+02    0.31975E-02   -0.27509E-02   448   0.108E+00    0.401E-01
DAV:   4    -0.616802258505E+02    0.82025E-04   -0.56066E-03   448   0.470E-01    0.331E-01
DAV:   5    -0.616796772200E+02    0.54863E-03   -0.19629E-03   448   0.283E-01    0.168E-01
DAV:   6    -0.616796487387E+02    0.28481E-04   -0.17461E-03   432   0.197E-01    0.230E-01
DAV:   7    -0.616791889229E+02    0.45982E-03   -0.19078E-03   456   0.213E-01    0.138E-01
DAV:   8    -0.616789828081E+02    0.20611E-03   -0.60123E-04   384   0.156E-01    0.677E-02
DAV:   9    -0.616789637804E+02    0.19028E-04   -0.14267E-04   296   0.825E-02
  23 F= -.61678964E+02 E0= -.61704976E+02  d E =-.392268E-01  mag=     7.9147
       N       E                     dE             d eps       ncg     rms          rms(c)
DAV:   1    -0.616839062120E+02   -0.49234E-02   -0.14336E+01   416   0.990E+00    0.672E-01
DAV:   2    -0.617083876973E+02   -0.24481E-01   -0.25163E-01   440   0.208E+00    0.123E+00
DAV:   3    -0.617023044992E+02    0.60832E-02   -0.53897E-02   432   0.141E+00    0.490E-01
DAV:   4    -0.617033933329E+02   -0.10888E-02   -0.18876E-02   448   0.700E-01    0.607E-01
DAV:   5    -0.617020339611E+02    0.13594E-02   -0.98897E-03   448   0.511E-01    0.319E-01
DAV:   6    -0.617020279678E+02    0.59932E-05   -0.36415E-03   440   0.343E-01    0.256E-01
DAV:   7    -0.617022268534E+02   -0.19889E-03   -0.27429E-03   440   0.322E-01    0.264E-01
DAV:   8    -0.617018771729E+02    0.34968E-03   -0.12818E-03   440   0.255E-01    0.785E-02
DAV:   9    -0.617019879370E+02   -0.11076E-03   -0.23100E-04   304   0.107E-01    0.677E-02
DAV:  10    -0.617019992752E+02   -0.11338E-04   -0.84304E-05   280   0.672E-02
  24 F= -.61701999E+02 E0= -.61727646E+02  d E =-.230355E-01  mag=     7.9236
       N       E                     dE             d eps       ncg     rms          rms(c)
DAV:   1    -0.616942255603E+02    0.77624E-02   -0.10958E+01   416   0.866E+00    0.592E-01
DAV:   2    -0.617125157187E+02   -0.18290E-01   -0.19308E-01   448   0.181E+00    0.105E+00
DAV:   3    -0.617082988638E+02    0.42169E-02   -0.39997E-02   432   0.123E+00    0.420E-01
DAV:   4    -0.617091584194E+02   -0.85956E-03   -0.14386E-02   440   0.613E-01    0.535E-01
DAV:   5    -0.617081120031E+02    0.10464E-02   -0.78160E-03   432   0.448E-01    0.278E-01
DAV:   6    -0.617081825177E+02   -0.70515E-04   -0.27583E-03   432   0.295E-01    0.218E-01
DAV:   7    -0.617084584629E+02   -0.27595E-03   -0.20650E-03   440   0.272E-01    0.228E-01
DAV:   8    -0.617082736436E+02    0.18482E-03   -0.98569E-04   408   0.220E-01    0.700E-02
DAV:   9    -0.617084103125E+02   -0.13667E-03   -0.18147E-04   288   0.937E-02    0.579E-02
DAV:  10    -0.617084455669E+02   -0.35254E-04   -0.63728E-05   264   0.584E-02
  25 F= -.61708446E+02 E0= -.61733552E+02  d E =-.294818E-01  mag=     7.9271
       N       E                     dE             d eps       ncg     rms          rms(c)
DAV:   1    -0.617078647025E+02    0.54561E-03   -0.12007E+01   416   0.904E+00    0.578E-01
DAV:   2    -0.617312619543E+02   -0.23397E-01   -0.22136E-01   440   0.188E+00    0.134E+00
DAV:   3    -0.617243832367E+02    0.68787E-02   -0.62700E-02   432   0.134E+00    0.583E-01
DAV:   4    -0.617244346981E+02   -0.51461E-04   -0.17069E-02   432   0.666E-01    0.422E-01
DAV:   5    -0.617239068696E+02    0.52783E-03   -0.54015E-03   432   0.410E-01    0.297E-01
DAV:   6    -0.617238214331E+02    0.85436E-04   -0.20566E-03   448   0.276E-01    0.203E-01
DAV:   7    -0.617240517362E+02   -0.23030E-03   -0.16219E-03   464   0.253E-01    0.206E-01
DAV:   8    -0.617238025086E+02    0.24923E-03   -0.94713E-04   432   0.224E-01    0.944E-02
DAV:   9    -0.617238468136E+02   -0.44305E-04   -0.29386E-04   288   0.109E-01
  26 F= -.61723847E+02 E0= -.61748617E+02  d E =-.154012E-01  mag=     7.9214
       N       E                     dE             d eps       ncg     rms          rms(c)
DAV:   1    -0.617056433096E+02    0.18159E-01   -0.18697E+01   416   0.113E+01    0.734E-01
DAV:   2    -0.617428900526E+02   -0.37247E-01   -0.35165E-01   456   0.238E+00    0.175E+00
DAV:   3    -0.617308638977E+02    0.12026E-01   -0.10513E-01   432   0.173E+00    0.728E-01
DAV:   4    -0.617304567183E+02    0.40718E-03   -0.27167E-02   432   0.844E-01    0.535E-01
DAV:   5    -0.617293519793E+02    0.11047E-02   -0.90364E-03   432   0.523E-01    0.374E-01
DAV:   6    -0.617289412492E+02    0.41073E-03   -0.33496E-03   456   0.346E-01    0.250E-01
DAV:   7    -0.617288777488E+02    0.63500E-04   -0.25444E-03   440   0.316E-01    0.262E-01
DAV:   8    -0.617283268555E+02    0.55089E-03   -0.15831E-03   456   0.284E-01    0.123E-01
DAV:   9    -0.617283795960E+02   -0.52740E-04   -0.49178E-04   336   0.140E-01
  27 F= -.61728380E+02 E0= -.61752752E+02  d E =-.199340E-01  mag=     7.9054
       N       E                     dE             d eps       ncg     rms          rms(c)
DAV:   1    -0.617253362675E+02    0.29906E-02   -0.10632E+01   416   0.853E+00    0.459E-01
DAV:   2    -0.617410323918E+02   -0.15696E-01   -0.16701E-01   432   0.150E+00    0.701E-01
DAV:   3    -0.617405267100E+02    0.50568E-03   -0.23151E-02   432   0.917E-01    0.473E-01
DAV:   4    -0.617400890479E+02    0.43766E-03   -0.84606E-03   432   0.518E-01    0.347E-01
DAV:   5    -0.617396121493E+02    0.47690E-03   -0.34270E-03   432   0.303E-01    0.198E-01
DAV:   6    -0.617396582732E+02   -0.46124E-04   -0.17597E-03   432   0.209E-01    0.196E-01
DAV:   7    -0.617397415646E+02   -0.83291E-04   -0.15709E-03   440   0.217E-01    0.163E-01
DAV:   8    -0.617397074278E+02    0.34137E-04   -0.67187E-04   360   0.173E-01
  28 F= -.61739707E+02 E0= -.61764106E+02  d E =-.113278E-01  mag=     7.8928
       N       E                     dE             d eps       ncg     rms          rms(c)
DAV:   1    -0.616435925583E+02    0.96149E-01   -0.79749E+01   416   0.234E+01    0.124E+00
DAV:   2    -0.617644827330E+02   -0.12089E+00   -0.12505E+00   432   0.409E+00    0.197E+00
DAV:   3    -0.617582833143E+02    0.61994E-02   -0.19086E-01   432   0.250E+00    0.131E+00
DAV:   4    -0.617535062102E+02    0.47771E-02   -0.64048E-02   432   0.140E+00    0.925E-01
DAV:   5    -0.617498142593E+02    0.36920E-02   -0.24223E-02   432   0.837E-01    0.578E-01
DAV:   6    -0.617488609522E+02    0.95331E-03   -0.11312E-02   448   0.569E-01    0.508E-01
DAV:   7    -0.617481793158E+02    0.68164E-03   -0.10807E-02   432   0.570E-01    0.432E-01
DAV:   8    -0.617470818658E+02    0.10974E-02   -0.60964E-03   424   0.487E-01    0.202E-01
DAV:   9    -0.617474681402E+02   -0.38627E-03   -0.17828E-03   440   0.255E-01    0.149E-01
DAV:  10    -0.617475699537E+02   -0.10181E-03   -0.38750E-04   296   0.142E-01    0.576E-02
DAV:  11    -0.617479385923E+02   -0.36864E-03   -0.91018E-05   280   0.620E-02    0.461E-02
DAV:  12    -0.617485628388E+02   -0.62425E-03   -0.98667E-05   288   0.445E-02    0.288E-02
DAV:  13    -0.617489790943E+02   -0.41626E-03   -0.47744E-05   288   0.355E-02    0.221E-02
DAV:  14    -0.617493092603E+02   -0.33017E-03   -0.27307E-05   272   0.259E-02    0.110E-02
DAV:  15    -0.617496642437E+02   -0.35498E-03   -0.13547E-05   280   0.129E-02    0.741E-03
DAV:  16    -0.617499377706E+02   -0.27353E-03   -0.65857E-06   272   0.896E-03    0.602E-03
DAV:  17    -0.617504181759E+02   -0.48041E-03   -0.93450E-06   272   0.661E-03    0.501E-03
DAV:  18    -0.617508152553E+02   -0.39708E-03   -0.75055E-06   288   0.619E-03    0.409E-03
DAV:  19    -0.617515114572E+02   -0.69620E-03   -0.19259E-05   304   0.690E-03    0.344E-03
DAV:  20    -0.617519757845E+02   -0.46433E-03   -0.12464E-05   296   0.622E-03    0.278E-03
DAV:  21    -0.617523756904E+02   -0.39991E-03   -0.13968E-05   304   0.602E-03    0.170E-03
DAV:  22    -0.617525980302E+02   -0.22234E-03   -0.89946E-06   296   0.458E-03    0.127E-03
DAV:  23    -0.617527676766E+02   -0.16965E-03   -0.64639E-06   296   0.376E-03    0.897E-04
DAV:  24    -0.617528941839E+02   -0.12651E-03   -0.42359E-06   280   0.306E-03    0.640E-04
DAV:  25    -0.617529863371E+02   -0.92153E-04   -0.27247E-06   280   0.233E-03
  29 F= -.61752986E+02 E0= -.61776743E+02  d E =-.246067E-01  mag=     7.8283
       N       E                     dE             d eps       ncg     rms          rms(c)
DAV:   1    -0.617361709014E+02    0.16723E-01   -0.21683E+01   416   0.122E+01    0.630E-01
DAV:   2    -0.617702743996E+02   -0.34103E-01   -0.34474E-01   440   0.216E+00    0.112E+00
DAV:   3    -0.617669056627E+02    0.33687E-02   -0.61965E-02   432   0.137E+00    0.626E-01
DAV:   4    -0.617664746131E+02    0.43105E-03   -0.21507E-02   440   0.735E-01    0.543E-01
DAV:   5    -0.617651672084E+02    0.13074E-02   -0.58864E-03   440   0.436E-01    0.298E-01
DAV:   6    -0.617652859150E+02   -0.11871E-03   -0.28009E-03   432   0.310E-01    0.285E-01
DAV:   7    -0.617651919663E+02    0.93949E-04   -0.32853E-03   440   0.298E-01    0.228E-01
DAV:   8    -0.617650456140E+02    0.14635E-03   -0.16142E-03   432   0.259E-01    0.118E-01
DAV:   9    -0.617651061061E+02   -0.60492E-04   -0.47101E-04   288   0.135E-01
  30 F= -.61765106E+02 E0= -.61789032E+02  d E =-.121198E-01  mag=     7.8278
       N       E                     dE             d eps       ncg     rms          rms(c)
DAV:   1    -0.616889178484E+02    0.76128E-01   -0.61224E+01   416   0.205E+01    0.107E+00
DAV:   2    -0.617863816999E+02   -0.97464E-01   -0.97706E-01   432   0.362E+00    0.188E+00
DAV:   3    -0.617769007912E+02    0.94809E-02   -0.18887E-01   432   0.231E+00    0.109E+00
DAV:   4    -0.617750262783E+02    0.18745E-02   -0.67785E-02   432   0.127E+00    0.928E-01
DAV:   5    -0.617710810302E+02    0.39452E-02   -0.18411E-02   432   0.752E-01    0.515E-01
DAV:   6    -0.617711135025E+02   -0.32472E-04   -0.87171E-03   424   0.527E-01    0.474E-01
DAV:   7    -0.617707245638E+02    0.38894E-03   -0.97204E-03   440   0.503E-01    0.397E-01
DAV:   8    -0.617701687241E+02    0.55584E-03   -0.50667E-03   432   0.446E-01    0.202E-01
DAV:   9    -0.617703292730E+02   -0.16055E-03   -0.14836E-03   440   0.235E-01    0.134E-01
DAV:  10    -0.617702834154E+02    0.45858E-04   -0.30576E-04   288   0.119E-01
  31 F= -.61770283E+02 E0= -.61794160E+02  d E =-.172971E-01  mag=     7.8268
       N       E                     dE             d eps       ncg     rms          rms(c)
DAV:   1    -0.617611972217E+02    0.91321E-02   -0.14016E+01   416   0.977E+00    0.501E-01
DAV:   2    -0.617826810176E+02   -0.21484E-01   -0.21986E-01   440   0.172E+00    0.871E-01
DAV:   3    -0.617817681930E+02    0.91282E-03   -0.35298E-02   424   0.108E+00    0.592E-01
DAV:   4    -0.617808369121E+02    0.93128E-03   -0.15999E-02   424   0.605E-01    0.437E-01
DAV:   5    -0.617802205057E+02    0.61641E-03   -0.45113E-03   424   0.350E-01    0.207E-01
DAV:   6    -0.617802851815E+02   -0.64676E-04   -0.15241E-03   432   0.230E-01    0.210E-01
DAV:   7    -0.617802936987E+02   -0.85173E-05   -0.17413E-03   448   0.219E-01    0.152E-01
DAV:   8    -0.617803253035E+02   -0.31605E-04   -0.90699E-04   384   0.184E-01
  32 F= -.61780325E+02 E0= -.61804039E+02  d E =-.100419E-01  mag=     7.8240
       N       E                     dE             d eps       ncg     rms          rms(c)
DAV:   1    -0.616262310370E+02    0.15406E+00   -0.12698E+02   416   0.295E+01    0.148E+00
DAV:   2    -0.618251293098E+02   -0.19890E+00   -0.19607E+00   448   0.513E+00    0.257E+00
DAV:   3    -0.618128650561E+02    0.12264E-01   -0.32984E-01   432   0.318E+00    0.174E+00
DAV:   4    -0.618044877964E+02    0.83773E-02   -0.12947E-01   432   0.176E+00    0.130E+00
DAV:   5    -0.617977007201E+02    0.67871E-02   -0.41313E-02   432   0.103E+00    0.641E-01
DAV:   6    -0.617971874184E+02    0.51330E-03   -0.13121E-02   424   0.686E-01    0.598E-01
DAV:   7    -0.617960622223E+02    0.11252E-02   -0.14420E-02   440   0.658E-01    0.470E-01
DAV:   8    -0.617957991881E+02    0.26303E-03   -0.85804E-03   424   0.562E-01    0.294E-01
DAV:   9    -0.617960343028E+02   -0.23511E-03   -0.35734E-03   440   0.331E-01    0.200E-01
DAV:  10    -0.617960224500E+02    0.11853E-04   -0.79785E-04   344   0.175E-01
  33 F= -.61796022E+02 E0= -.61819173E+02  d E =-.257390E-01  mag=     7.8146
       N       E                     dE             d eps       ncg     rms          rms(c)
DAV:   1    -0.617768687103E+02    0.19166E-01   -0.14757E+01   416   0.100E+01    0.538E-01
DAV:   2    -0.617999803099E+02   -0.23112E-01   -0.23401E-01   440   0.178E+00    0.922E-01
DAV:   3    -0.617988151807E+02    0.11651E-02   -0.37342E-02   432   0.115E+00    0.617E-01
DAV:   4    -0.617980130277E+02    0.80215E-03   -0.16854E-02   432   0.651E-01    0.496E-01
DAV:   5    -0.617971661440E+02    0.84688E-03   -0.54070E-03   432   0.384E-01    0.213E-01
DAV:   6    -0.617973610488E+02   -0.19490E-03   -0.18451E-03   424   0.248E-01    0.232E-01
DAV:   7    -0.617974641899E+02   -0.10314E-03   -0.19245E-03   432   0.233E-01    0.163E-01
DAV:   8    -0.617975793687E+02   -0.11518E-03   -0.10695E-03   384   0.194E-01    0.102E-01
DAV:   9    -0.617977052608E+02   -0.12589E-03   -0.43741E-04   296   0.116E-01    0.618E-02
DAV:  10    -0.617977923132E+02   -0.87052E-04   -0.81706E-05   280   0.571E-02
  34 F= -.61797792E+02 E0= -.61820886E+02  d E =-.275089E-01  mag=     7.8107
       N       E                     dE             d eps       ncg     rms          rms(c)
DAV:   1    -0.617738433687E+02    0.23862E-01   -0.29354E+01   416   0.142E+01    0.739E-01
DAV:   2    -0.618193326337E+02   -0.45489E-01   -0.46214E-01   440   0.247E+00    0.125E+00
DAV:   3    -0.618168831828E+02    0.24495E-02   -0.75427E-02   432   0.153E+00    0.821E-01
DAV:   4    -0.618157466308E+02    0.11366E-02   -0.22712E-02   432   0.837E-01    0.604E-01
DAV:   5    -0.618141710360E+02    0.15756E-02   -0.73782E-03   432   0.479E-01    0.305E-01
DAV:   6    -0.618145638233E+02   -0.39279E-03   -0.54876E-03   432   0.372E-01    0.346E-01
DAV:   7    -0.618142881825E+02    0.27564E-03   -0.56392E-03   424   0.349E-01    0.267E-01
DAV:   8    -0.618143215118E+02   -0.33329E-04   -0.23421E-03   432   0.288E-01    0.133E-01
DAV:   9    -0.618144917097E+02   -0.17020E-03   -0.66267E-04   320   0.157E-01    0.897E-02
DAV:  10    -0.618145495951E+02   -0.57885E-04   -0.13323E-04   288   0.822E-02
  35 F= -.61814550E+02 E0= -.61836474E+02  d E =-.167573E-01  mag=     7.8083
       N       E                     dE             d eps       ncg     rms          rms(c)
DAV:   1    -0.616496357526E+02    0.16486E+00   -0.13098E+02   416   0.300E+01    0.156E+00
DAV:   2    -0.618549093020E+02   -0.20527E+00   -0.20300E+00   448   0.524E+00    0.268E+00
DAV:   3    -0.618409660215E+02    0.13943E-01   -0.30528E-01   432   0.326E+00    0.167E+00
DAV:   4    -0.618340753670E+02    0.68907E-02   -0.88944E-02   432   0.173E+00    0.123E+00
DAV:   5    -0.618274424371E+02    0.66329E-02   -0.34140E-02   432   0.100E+00    0.658E-01
DAV:   6    -0.618282193751E+02   -0.77694E-03   -0.26781E-02   432   0.788E-01    0.757E-01
DAV:   7    -0.618260128331E+02    0.22065E-02   -0.25241E-02   424   0.731E-01    0.569E-01
DAV:   8    -0.618253319017E+02    0.68093E-03   -0.94813E-03   440   0.616E-01    0.273E-01
DAV:   9    -0.618258317730E+02   -0.49987E-03   -0.30553E-03   456   0.342E-01    0.209E-01
DAV:  10    -0.618258377127E+02   -0.59397E-05   -0.71135E-04   384   0.187E-01
  36 F= -.61825838E+02 E0= -.61845498E+02  d E =-.280454E-01  mag=     7.8090
       N       E                     dE             d eps       ncg     rms          rms(c)
DAV:   1    -0.617694431760E+02    0.56389E-01   -0.54871E+01   416   0.193E+01    0.962E-01
DAV:   2    -0.618521409677E+02   -0.82698E-01   -0.85073E-01   424   0.331E+00    0.144E+00
DAV:   3    -0.618484521420E+02    0.36888E-02   -0.91007E-02   424   0.191E+00    0.897E-01
DAV:   4    -0.618475714017E+02    0.88074E-03   -0.30953E-02   440   0.982E-01    0.825E-01
DAV:   5    -0.618445242970E+02    0.30471E-02   -0.15168E-02   440   0.624E-01    0.387E-01
DAV:   6    -0.618445375093E+02   -0.13212E-04   -0.55194E-03   440   0.403E-01    0.393E-01
DAV:   7    -0.618442231541E+02    0.31436E-03   -0.76173E-03   456   0.474E-01    0.376E-01
DAV:   8    -0.618436022242E+02    0.62093E-03   -0.44931E-03   448   0.369E-01    0.146E-01
DAV:   9    -0.618438199915E+02   -0.21777E-03   -0.64197E-04   384   0.160E-01    0.757E-02
DAV:  10    -0.618438761159E+02   -0.56124E-04   -0.11798E-04   296   0.832E-02
  37 F= -.61843876E+02 E0= -.61861720E+02  d E =-.180384E-01  mag=     7.8234
       N       E                     dE             d eps       ncg     rms          rms(c)
DAV:   1    -0.617271573636E+02    0.11666E+00   -0.91483E+01   416   0.250E+01    0.124E+00
DAV:   2    -0.618651731363E+02   -0.13802E+00   -0.14105E+00   432   0.429E+00    0.185E+00
DAV:   3    -0.618574857489E+02    0.76874E-02   -0.14156E-01   432   0.246E+00    0.107E+00
DAV:   4    -0.618556578615E+02    0.18279E-02   -0.42887E-02   432   0.119E+00    0.101E+00
DAV:   5    -0.618515440770E+02    0.41138E-02   -0.23772E-02   432   0.767E-01    0.534E-01
DAV:   6    -0.618506925599E+02    0.85152E-03   -0.94339E-03   440   0.523E-01    0.465E-01
DAV:   7    -0.618489383510E+02    0.17542E-02   -0.10155E-02   456   0.523E-01    0.320E-01
DAV:   8    -0.618487113760E+02    0.22698E-03   -0.52734E-03   464   0.422E-01    0.234E-01
DAV:   9    -0.618486270001E+02    0.84376E-04   -0.14309E-03   440   0.229E-01    0.111E-01
DAV:  10    -0.618486402068E+02   -0.13207E-04   -0.31469E-04   296   0.112E-01
  38 F= -.61848640E+02 E0= -.61864581E+02  d E =-.228025E-01  mag=     7.8518
       N       E                     dE             d eps       ncg     rms          rms(c)
DAV:   1    -0.618379320993E+02    0.10695E-01   -0.18532E+01   416   0.112E+01    0.634E-01
DAV:   2    -0.618720456305E+02   -0.34114E-01   -0.32724E-01   432   0.220E+00    0.155E+00
DAV:   3    -0.618641933345E+02    0.78523E-02   -0.72787E-02   424   0.150E+00    0.757E-01
DAV:   4    -0.618638621301E+02    0.33120E-03   -0.24009E-02   424   0.783E-01    0.536E-01
DAV:   5    -0.618626817010E+02    0.11804E-02   -0.51826E-03   424   0.429E-01    0.247E-01
DAV:   6    -0.618627266737E+02   -0.44973E-04   -0.24420E-03   448   0.267E-01    0.260E-01
DAV:   7    -0.618625004684E+02    0.22621E-03   -0.27948E-03   440   0.265E-01    0.195E-01
DAV:   8    -0.618624107393E+02    0.89729E-04   -0.11712E-03   448   0.220E-01    0.825E-02
DAV:   9    -0.618625478185E+02   -0.13708E-03   -0.21818E-04   288   0.923E-02    0.446E-02
DAV:  10    -0.618626668147E+02   -0.11900E-03   -0.47929E-05   280   0.468E-02    0.319E-02
DAV:  11    -0.618629247228E+02   -0.25791E-03   -0.28530E-05   288   0.314E-02    0.249E-02
DAV:  12    -0.618631865161E+02   -0.26179E-03   -0.23957E-05   288   0.258E-02    0.195E-02
DAV:  13    -0.618635113301E+02   -0.32481E-03   -0.17199E-05   264   0.189E-02    0.161E-02
DAV:  14    -0.618638222087E+02   -0.31088E-03   -0.11495E-05   280   0.148E-02    0.892E-03
DAV:  15    -0.618642374783E+02   -0.41527E-03   -0.94611E-06   272   0.994E-03    0.744E-03
DAV:  16    -0.618646280379E+02   -0.39056E-03   -0.76665E-06   280   0.810E-03    0.641E-03
DAV:  17    -0.618651956904E+02   -0.56765E-03   -0.11398E-05   280   0.654E-03    0.491E-03
DAV:  18    -0.618655990365E+02   -0.40335E-03   -0.86572E-06   296   0.583E-03    0.408E-03
DAV:  19    -0.618663700094E+02   -0.77097E-03   -0.23564E-05   296   0.742E-03    0.330E-03
DAV:  20    -0.618669686080E+02   -0.59860E-03   -0.25566E-05   296   0.743E-03    0.229E-03
DAV:  21    -0.618671961475E+02   -0.22754E-03   -0.12484E-05   296   0.598E-03    0.142E-03
DAV:  22    -0.618673818410E+02   -0.18569E-03   -0.86302E-06   272   0.425E-03    0.110E-03
DAV:  23    -0.618675159639E+02   -0.13412E-03   -0.50104E-06   280   0.342E-03    0.831E-04
DAV:  24    -0.618676391720E+02   -0.12321E-03   -0.33962E-06   272   0.273E-03    0.642E-04
DAV:  25    -0.618677543129E+02   -0.11514E-03   -0.25337E-06   280   0.238E-03    0.425E-04
DAV:  26    -0.618678209895E+02   -0.66677E-04   -0.16775E-06   280   0.191E-03
  39 F= -.61867821E+02 E0= -.61883019E+02  d E =-.191808E-01  mag=     7.9235
       N       E                     dE             d eps       ncg     rms          rms(c)
DAV:   1    -0.617936456912E+02    0.74109E-01   -0.64472E+01   416   0.210E+01    0.118E+00
DAV:   2    -0.619175931856E+02   -0.12395E+00   -0.11499E+00   448   0.417E+00    0.302E+00
DAV:   3    -0.618845203296E+02    0.33073E-01   -0.25587E-01   432   0.287E+00    0.139E+00
DAV:   4    -0.618826801832E+02    0.18401E-02   -0.83518E-02   432   0.142E+00    0.971E-01
DAV:   5    -0.618789419407E+02    0.37382E-02   -0.18431E-02   440   0.788E-01    0.516E-01
DAV:   6    -0.618786476580E+02    0.29428E-03   -0.86310E-03   432   0.505E-01    0.459E-01
DAV:   7    -0.618778489369E+02    0.79872E-03   -0.92372E-03   440   0.473E-01    0.368E-01
DAV:   8    -0.618770369211E+02    0.81202E-03   -0.45613E-03   456   0.424E-01    0.171E-01
DAV:   9    -0.618770277772E+02    0.91438E-05   -0.10858E-03   464   0.199E-01    0.120E-01
DAV:  10    -0.618769492860E+02    0.78491E-04   -0.36544E-04   304   0.120E-01
  40 F= -.61876949E+02 E0= -.61890310E+02  d E =-.283091E-01  mag=     7.9397
       N       E                     dE             d eps       ncg     rms          rms(c)
DAV:   1    -0.618471317967E+02    0.29896E-01   -0.33717E+01   416   0.151E+01    0.931E-01
DAV:   2    -0.619137316616E+02   -0.66600E-01   -0.60804E-01   432   0.325E+00    0.221E+00
DAV:   3    -0.618916088998E+02    0.22123E-01   -0.12642E-01   432   0.225E+00    0.808E-01
DAV:   4    -0.618952754130E+02   -0.36665E-02   -0.53013E-02   424   0.104E+00    0.101E+00
DAV:   5    -0.618908466927E+02    0.44287E-02   -0.21230E-02   424   0.717E-01    0.415E-01
DAV:   6    -0.618908530184E+02   -0.63257E-05   -0.37945E-03   432   0.369E-01    0.306E-01
DAV:   7    -0.618908462741E+02    0.67444E-05   -0.48170E-03   432   0.352E-01    0.337E-01
DAV:   8    -0.618902709798E+02    0.57529E-03   -0.29840E-03   448   0.337E-01    0.174E-01
DAV:   9    -0.618902878388E+02   -0.16859E-04   -0.96165E-04   392   0.192E-01
  41 F= -.61890288E+02 E0= -.61903249E+02  d E =-.133386E-01  mag=     7.9596
       N       E                     dE             d eps       ncg     rms          rms(c)
DAV:   1    -0.618701815490E+02    0.20089E-01   -0.17425E+01   416   0.108E+01    0.684E-01
DAV:   2    -0.619042502026E+02   -0.34069E-01   -0.31903E-01   432   0.235E+00    0.160E+00
DAV:   3    -0.618930663281E+02    0.11184E-01   -0.68806E-02   432   0.164E+00    0.588E-01
DAV:   4    -0.618953892878E+02   -0.23230E-02   -0.29120E-02   424   0.775E-01    0.757E-01
DAV:   5    -0.618930102706E+02    0.23790E-02   -0.11984E-02   416   0.533E-01    0.307E-01
DAV:   6    -0.618931340053E+02   -0.12373E-03   -0.21580E-03   416   0.271E-01    0.225E-01
DAV:   7    -0.618933996572E+02   -0.26565E-03   -0.25722E-03   432   0.268E-01    0.274E-01
DAV:   8    -0.618931855559E+02    0.21410E-03   -0.18182E-03   424   0.260E-01    0.139E-01
DAV:   9    -0.618932514894E+02   -0.65933E-04   -0.54372E-04   296   0.148E-01
  42 F= -.61893251E+02 E0= -.61906011E+02  d E =-.163022E-01  mag=     7.9778
       N       E                     dE             d eps       ncg     rms          rms(c)
DAV:   1    -0.618791293559E+02    0.14056E-01   -0.17533E+01   416   0.109E+01    0.564E-01
DAV:   2    -0.619066478815E+02   -0.27519E-01   -0.27784E-01   416   0.202E+00    0.961E-01
DAV:   3    -0.619035474496E+02    0.31004E-02   -0.32657E-02   416   0.122E+00    0.435E-01
DAV:   4    -0.619042204901E+02   -0.67304E-03   -0.86669E-03   440   0.509E-01    0.488E-01
DAV:   5    -0.619033070252E+02    0.91346E-03   -0.54397E-03   432   0.359E-01    0.242E-01
DAV:   6    -0.619033980211E+02   -0.90996E-04   -0.16441E-03   416   0.217E-01    0.196E-01
DAV:   7    -0.619036687956E+02   -0.27077E-03   -0.21688E-03   424   0.217E-01    0.180E-01
DAV:   8    -0.619038024577E+02   -0.13366E-03   -0.14193E-03   376   0.215E-01    0.130E-01
DAV:   9    -0.619038722905E+02   -0.69833E-04   -0.44704E-04   248   0.124E-01
  43 F= -.61903872E+02 E0= -.61915767E+02  d E =-.106208E-01  mag=     7.9888
       N       E                     dE             d eps       ncg     rms          rms(c)
DAV:   1    -0.617020654254E+02    0.20174E+00   -0.15884E+02   416   0.331E+01    0.168E+00
DAV:   2    -0.619562921600E+02   -0.25423E+00   -0.24766E+00   432   0.604E+00    0.285E+00
DAV:   3    -0.619229409113E+02    0.33351E-01   -0.29052E-01   424   0.362E+00    0.137E+00
DAV:   4    -0.619264878093E+02   -0.35469E-02   -0.10739E-01   440   0.158E+00    0.155E+00
DAV:   5    -0.619163231436E+02    0.10165E-01   -0.53701E-02   432   0.112E+00    0.719E-01
DAV:   6    -0.619153029777E+02    0.10202E-02   -0.13157E-02   432   0.643E-01    0.594E-01
DAV:   7    -0.619153457565E+02   -0.42779E-04   -0.20497E-02   432   0.687E-01    0.628E-01
DAV:   8    -0.619143052756E+02    0.10405E-02   -0.13076E-02   440   0.669E-01    0.365E-01
DAV:   9    -0.619144724532E+02   -0.16718E-03   -0.44348E-03   440   0.386E-01    0.205E-01
DAV:  10    -0.619145603020E+02   -0.87849E-04   -0.10527E-03   384   0.190E-01    0.101E-01
DAV:  11    -0.619147400528E+02   -0.17975E-03   -0.23633E-04   280   0.924E-02    0.761E-02
DAV:  12    -0.619151288104E+02   -0.38876E-03   -0.19366E-04   288   0.710E-02    0.506E-02
DAV:  13    -0.619154103947E+02   -0.28158E-03   -0.12525E-04   304   0.560E-02    0.352E-02
DAV:  14    -0.619156233648E+02   -0.21297E-03   -0.60186E-05   296   0.389E-02    0.158E-02
DAV:  15    -0.619157675852E+02   -0.14422E-03   -0.23542E-05   264   0.222E-02    0.985E-03
DAV:  16    -0.619159057760E+02   -0.13819E-03   -0.10157E-05   288   0.139E-02    0.604E-03
DAV:  17    -0.619160220521E+02   -0.11628E-03   -0.51617E-06   272   0.774E-03    0.430E-03
DAV:  18    -0.619161013462E+02   -0.79294E-04   -0.30300E-06   280   0.544E-03
  44 F= -.61916101E+02 E0= -.61925580E+02  d E =-.228499E-01  mag=     7.9915
       N       E                     dE             d eps       ncg     rms          rms(c)
DAV:   1    -0.618806548884E+02    0.35367E-01   -0.37361E+01   416   0.159E+01    0.850E-01
DAV:   2    -0.619443304492E+02   -0.63676E-01   -0.60239E-01   432   0.307E+00    0.169E+00
DAV:   3    -0.619316531881E+02    0.12677E-01   -0.79771E-02   424   0.193E+00    0.645E-01
DAV:   4    -0.619326492101E+02   -0.99602E-03   -0.21526E-02   432   0.764E-01    0.753E-01
DAV:   5    -0.619304803128E+02    0.21689E-02   -0.12775E-02   432   0.548E-01    0.382E-01
DAV:   6    -0.619301113690E+02    0.36894E-03   -0.35621E-03   456   0.326E-01    0.286E-01
DAV:   7    -0.619297917185E+02    0.31965E-03   -0.53482E-03   448   0.333E-01    0.311E-01
DAV:   8    -0.619293745812E+02    0.41714E-03   -0.35511E-03   440   0.333E-01    0.194E-01
DAV:   9    -0.619293509687E+02    0.23612E-04   -0.10034E-03   384   0.184E-01    0.813E-02
DAV:  10    -0.619294144720E+02   -0.63503E-04   -0.12952E-04   296   0.809E-02
  45 F= -.61929414E+02 E0= -.61938178E+02  d E =-.133131E-01  mag=     7.9803
       N       E                     dE             d eps       ncg     rms          rms(c)
DAV:   1    -0.614958780827E+02    0.43347E+00   -0.34127E+02   416   0.487E+01    0.263E+00
DAV:   2    -0.620893706462E+02   -0.59349E+00   -0.54582E+00   432   0.939E+00    0.508E+00
DAV:   3    -0.619621844867E+02    0.12719E+00   -0.69927E-01   424   0.594E+00    0.205E+00
DAV:   4    -0.619652832381E+02   -0.30988E-02   -0.24638E-01   432   0.242E+00    0.222E+00
DAV:   5    -0.619469892151E+02    0.18294E-01   -0.11520E-01   432   0.171E+00    0.125E+00
DAV:   6    -0.619401565193E+02    0.68327E-02   -0.29082E-02   424   0.999E-01    0.816E-01
DAV:   7    -0.619360611898E+02    0.40953E-02   -0.42781E-02   440   0.916E-01    0.874E-01
DAV:   8    -0.619338823572E+02    0.21788E-02   -0.28930E-02   432   0.960E-01    0.597E-01
DAV:   9    -0.619337358955E+02    0.14646E-03   -0.10025E-02   448   0.572E-01    0.279E-01
DAV:  10    -0.619343229796E+02   -0.58708E-03   -0.14808E-03   440   0.267E-01    0.121E-01
DAV:  11    -0.619356557812E+02   -0.13328E-02   -0.49419E-04   336   0.135E-01    0.121E-01
DAV:  12    -0.619369331621E+02   -0.12774E-02   -0.49940E-04   312   0.127E-01    0.976E-02
DAV:  13    -0.619379580814E+02   -0.10249E-02   -0.25033E-04   280   0.896E-02    0.568E-02
DAV:  14    -0.619389529492E+02   -0.99487E-03   -0.14221E-04   288   0.587E-02    0.268E-02
DAV:  15    -0.619396712143E+02   -0.71827E-03   -0.55755E-05   280   0.368E-02    0.191E-02
DAV:  16    -0.619403575782E+02   -0.68636E-03   -0.27848E-05   280   0.235E-02    0.107E-02
DAV:  17    -0.619409642402E+02   -0.60666E-03   -0.16127E-05   272   0.131E-02    0.844E-03
DAV:  18    -0.619415708664E+02   -0.60663E-03   -0.13469E-05   272   0.936E-03    0.637E-03
DAV:  19    -0.619427241152E+02   -0.11532E-02   -0.33712E-05   296   0.949E-03    0.650E-03
DAV:  20    -0.619434254600E+02   -0.70134E-03   -0.18410E-05   288   0.912E-03    0.523E-03
DAV:  21    -0.619443426961E+02   -0.91724E-03   -0.36635E-05   296   0.959E-03    0.354E-03
DAV:  22    -0.619448344846E+02   -0.49179E-03   -0.20029E-05   304   0.706E-03    0.256E-03
DAV:  23    -0.619452600943E+02   -0.42561E-03   -0.20052E-05   296   0.648E-03    0.174E-03
DAV:  24    -0.619455196176E+02   -0.25952E-03   -0.12216E-05   296   0.537E-03    0.134E-03
DAV:  25    -0.619456695733E+02   -0.14996E-03   -0.75903E-06   264   0.399E-03    0.100E-03
DAV:  26    -0.619458141365E+02   -0.14456E-03   -0.49870E-06   288   0.331E-03    0.619E-04
DAV:  27    -0.619459055114E+02   -0.91375E-04   -0.31801E-06   280   0.246E-03
  46 F= -.61945906E+02 E0= -.61953544E+02  d E =-.298042E-01  mag=     7.8846
       N       E                     dE             d eps       ncg     rms          rms(c)
DAV:   1    -0.619091963280E+02    0.36618E-01   -0.38335E+01   416   0.161E+01    0.954E-01
DAV:   2    -0.619861291925E+02   -0.76933E-01   -0.68438E-01   432   0.344E+00    0.235E+00
DAV:   3    -0.619593031514E+02    0.26826E-01   -0.13963E-01   432   0.236E+00    0.678E-01
DAV:   4    -0.619612718265E+02   -0.19687E-02   -0.28032E-02   432   0.890E-01    0.714E-01
DAV:   5    -0.619590031969E+02    0.22686E-02   -0.11169E-02   432   0.591E-01    0.416E-01
DAV:   6    -0.619585283800E+02    0.47482E-03   -0.42203E-03   440   0.361E-01    0.357E-01
DAV:   7    -0.619584040574E+02    0.12432E-03   -0.69194E-03   432   0.399E-01    0.454E-01
DAV:   8    -0.619570143854E+02    0.13897E-02   -0.55872E-03   432   0.378E-01    0.216E-01
DAV:   9    -0.619570784165E+02   -0.64031E-04   -0.15281E-03   432   0.230E-01    0.144E-01
DAV:  10    -0.619570861326E+02   -0.77161E-05   -0.40457E-04   288   0.130E-01
  47 F= -.61957086E+02 E0= -.61964691E+02  d E =-.111806E-01  mag=     7.8683
       N       E                     dE             d eps       ncg     rms          rms(c)
DAV:   1    -0.617304602298E+02    0.22662E+00   -0.17903E+02   416   0.351E+01    0.211E+00
DAV:   2    -0.621028282796E+02   -0.37237E+00   -0.32474E+00   424   0.755E+00    0.515E+00
DAV:   3    -0.619718731616E+02    0.13096E+00   -0.69342E-01   424   0.522E+00    0.166E+00
DAV:   4    -0.619740034928E+02   -0.21303E-02   -0.16542E-01   432   0.212E+00    0.156E+00
DAV:   5    -0.619633943392E+02    0.10609E-01   -0.53925E-02   432   0.133E+00    0.922E-01
DAV:   6    -0.619606264230E+02    0.27679E-02   -0.18906E-02   432   0.811E-01    0.758E-01
DAV:   7    -0.619607370492E+02   -0.11063E-03   -0.28916E-02   440   0.827E-01    0.957E-01
DAV:   8    -0.619564782101E+02    0.42588E-02   -0.27352E-02   440   0.800E-01    0.487E-01
DAV:   9    -0.619569148129E+02   -0.43660E-03   -0.74317E-03   432   0.519E-01    0.324E-01
DAV:  10    -0.619572022439E+02   -0.28743E-03   -0.21634E-03   448   0.292E-01    0.137E-01
DAV:  11    -0.619577859632E+02   -0.58372E-03   -0.37464E-04   296   0.128E-01    0.853E-02
DAV:  12    -0.619587565091E+02   -0.97055E-03   -0.21674E-04   288   0.799E-02    0.648E-02
DAV:  13    -0.619596087356E+02   -0.85223E-03   -0.13843E-04   288   0.645E-02    0.491E-02
DAV:  14    -0.619604739240E+02   -0.86519E-03   -0.10865E-04   272   0.440E-02    0.239E-02
DAV:  15    -0.619609865488E+02   -0.51262E-03   -0.45953E-05   288   0.295E-02    0.147E-02
DAV:  16    -0.619614968117E+02   -0.51026E-03   -0.24170E-05   272   0.198E-02    0.879E-03
DAV:  17    -0.619619129198E+02   -0.41611E-03   -0.12870E-05   288   0.115E-02    0.696E-03
DAV:  18    -0.619622946095E+02   -0.38169E-03   -0.95523E-06   272   0.807E-03    0.519E-03
DAV:  19    -0.619628290353E+02   -0.53443E-03   -0.11988E-05   288   0.691E-03    0.495E-03
DAV:  20    -0.619634748232E+02   -0.64579E-03   -0.16137E-05   288   0.756E-03    0.384E-03
DAV:  21    -0.619641760416E+02   -0.70122E-03   -0.23111E-05   304   0.701E-03    0.295E-03
DAV:  22    -0.619645450123E+02   -0.36897E-03   -0.15335E-05   296   0.630E-03    0.221E-03
DAV:  23    -0.619648663233E+02   -0.32131E-03   -0.15220E-05   296   0.544E-03    0.158E-03
DAV:  24    -0.619651038966E+02   -0.23757E-03   -0.11057E-05   296   0.473E-03    0.114E-03
DAV:  25    -0.619652347702E+02   -0.13087E-03   -0.72294E-06   264   0.384E-03    0.978E-04
DAV:  26    -0.619653330078E+02   -0.98238E-04   -0.47504E-06   288   0.308E-03
  48 F= -.61965333E+02 E0= -.61973085E+02  d E =-.194275E-01  mag=     7.7951
       N       E                     dE             d eps       ncg     rms          rms(c)
DAV:   1    -0.619391245037E+02    0.26110E-01   -0.21713E+01   416   0.121E+01    0.723E-01
DAV:   2    -0.619842887715E+02   -0.45164E-01   -0.39189E-01   424   0.263E+00    0.188E+00
DAV:   3    -0.619668994698E+02    0.17389E-01   -0.87464E-02   416   0.181E+00    0.497E-01
DAV:   4    -0.619683809447E+02   -0.14815E-02   -0.14394E-02   416   0.652E-01    0.494E-01
DAV:   5    -0.619672258590E+02    0.11551E-02   -0.51107E-03   432   0.425E-01    0.266E-01
DAV:   6    -0.619671500311E+02    0.75828E-04   -0.20758E-03   440   0.270E-01    0.253E-01
DAV:   7    -0.619671829727E+02   -0.32942E-04   -0.33990E-03   448   0.303E-01    0.311E-01
DAV:   8    -0.619666645826E+02    0.51839E-03   -0.21661E-03   432   0.275E-01    0.136E-01
DAV:   9    -0.619667637776E+02   -0.99195E-04   -0.74309E-04   296   0.144E-01
  49 F= -.61966764E+02 E0= -.61974509E+02  d E =-.208583E-01  mag=     7.8007
       N       E                     dE             d eps       ncg     rms          rms(c)
DAV:   1    -0.619726774317E+02   -0.60128E-02   -0.46978E+00   416   0.566E+00    0.362E-01
DAV:   2    -0.619806068605E+02   -0.79294E-02   -0.79840E-02   440   0.112E+00    0.702E-01
DAV:   3    -0.619791124394E+02    0.14944E-02   -0.16806E-02   432   0.773E-01    0.351E-01
DAV:   4    -0.619794260749E+02   -0.31364E-03   -0.62859E-03   424   0.408E-01    0.364E-01
DAV:   5    -0.619789430963E+02    0.48298E-03   -0.22565E-03   400   0.265E-01    0.169E-01
DAV:   6    -0.619791305665E+02   -0.18747E-03   -0.11884E-03   344   0.183E-01    0.177E-01
DAV:   7    -0.619791753827E+02   -0.44816E-04   -0.11485E-03   448   0.178E-01    0.134E-01
DAV:   8    -0.619791273535E+02    0.48029E-04   -0.52859E-04   344   0.145E-01
  50 F= -.61979127E+02 E0= -.61986533E+02  d E =-.123636E-01  mag=     7.7966
       N       E                     dE             d eps       ncg     rms          rms(c)
DAV:   1    -0.619569832453E+02    0.22192E-01   -0.25230E+01   416   0.131E+01    0.856E-01
DAV:   2    -0.620016979039E+02   -0.44715E-01   -0.44149E-01   440   0.264E+00    0.178E+00
DAV:   3    -0.619914553162E+02    0.10243E-01   -0.11087E-01   432   0.187E+00    0.966E-01
DAV:   4    -0.619913208467E+02    0.13447E-03   -0.42705E-02   432   0.101E+00    0.861E-01
DAV:   5    -0.619879004682E+02    0.34204E-02   -0.13374E-02   432   0.649E-01    0.406E-01
DAV:   6    -0.619876526495E+02    0.24782E-03   -0.59870E-03   432   0.436E-01    0.364E-01
DAV:   7    -0.619867936340E+02    0.85902E-03   -0.49368E-03   448   0.385E-01    0.285E-01
DAV:   8    -0.619859702914E+02    0.82334E-03   -0.24610E-03   440   0.323E-01    0.167E-01
DAV:   9    -0.619859229335E+02    0.47358E-04   -0.10729E-03   360   0.191E-01    0.122E-01
DAV:  10    -0.619858992566E+02    0.23677E-04   -0.28986E-04   256   0.103E-01
  51 F= -.61985899E+02 E0= -.61992427E+02  d E =-.191355E-01  mag=     7.7691
       N       E                     dE             d eps       ncg     rms          rms(c)
DAV:   1    -0.619864320688E+02   -0.50914E-03   -0.68540E+00   416   0.682E+00    0.401E-01
DAV:   2    -0.619997397453E+02   -0.13308E-01   -0.12235E-01   440   0.137E+00    0.107E+00
DAV:   3    -0.619956336286E+02    0.41061E-02   -0.33361E-02   432   0.979E-01    0.470E-01
DAV:   4    -0.619959487427E+02   -0.31511E-03   -0.91441E-03   432   0.475E-01    0.373E-01
DAV:   5    -0.619954190652E+02    0.52968E-03   -0.29368E-03   424   0.299E-01    0.178E-01
DAV:   6    -0.619954149699E+02    0.40954E-05   -0.76751E-04   360   0.173E-01
  52 F= -.61995415E+02 E0= -.62002225E+02  d E =-.951571E-02  mag=     7.7545
       N       E                     dE             d eps       ncg     rms          rms(c)
DAV:   1    -0.619246781569E+02    0.70741E-01   -0.61380E+01   416   0.205E+01    0.116E+00
DAV:   2    -0.620405980457E+02   -0.11592E+00   -0.10538E+00   432   0.395E+00    0.298E+00
DAV:   3    -0.620104638423E+02    0.30134E-01   -0.28458E-01   432   0.272E+00    0.140E+00
DAV:   4    -0.620086553908E+02    0.18085E-02   -0.78101E-02   432   0.138E+00    0.110E+00
DAV:   5    -0.620031884045E+02    0.54670E-02   -0.20704E-02   424   0.861E-01    0.507E-01
DAV:   6    -0.620023658750E+02    0.82253E-03   -0.70412E-03   424   0.533E-01    0.437E-01
DAV:   7    -0.620015005286E+02    0.86535E-03   -0.75936E-03   432   0.506E-01    0.414E-01
DAV:   8    -0.620000016887E+02    0.14988E-02   -0.44483E-03   440   0.438E-01    0.162E-01
DAV:   9    -0.620005814501E+02   -0.57976E-03   -0.90169E-04   432   0.195E-01    0.113E-01
DAV:  10    -0.620008867107E+02   -0.30526E-03   -0.21735E-04   288   0.118E-01    0.562E-02
DAV:  11    -0.620013471745E+02   -0.46046E-03   -0.13640E-04   272   0.665E-02    0.661E-02
DAV:  12    -0.620018035003E+02   -0.45633E-03   -0.13006E-04   280   0.621E-02    0.396E-02
DAV:  13    -0.620022757407E+02   -0.47224E-03   -0.59066E-05   288   0.396E-02    0.265E-02
DAV:  14    -0.620028750153E+02   -0.59927E-03   -0.34815E-05   280   0.271E-02    0.143E-02
DAV:  15    -0.620034376348E+02   -0.56262E-03   -0.19677E-05   280   0.165E-02    0.106E-02
DAV:  16    -0.620039201648E+02   -0.48253E-03   -0.11651E-05   272   0.121E-02    0.887E-03
DAV:  17    -0.620046482582E+02   -0.72809E-03   -0.15261E-05   272   0.892E-03    0.714E-03
DAV:  18    -0.620053899140E+02   -0.74166E-03   -0.17497E-05   288   0.835E-03    0.590E-03
DAV:  19    -0.620064708134E+02   -0.10809E-02   -0.36798E-05   296   0.891E-03    0.417E-03
DAV:  20    -0.620073634921E+02   -0.89268E-03   -0.33623E-05   296   0.845E-03    0.357E-03
DAV:  21    -0.620077588136E+02   -0.39532E-03   -0.18640E-05   304   0.767E-03    0.216E-03
DAV:  22    -0.620080981019E+02   -0.33929E-03   -0.15432E-05   296   0.553E-03    0.165E-03
DAV:  23    -0.620083789793E+02   -0.28088E-03   -0.10593E-05   280   0.482E-03    0.126E-03
DAV:  24    -0.620085679312E+02   -0.18895E-03   -0.69694E-06   288   0.392E-03    0.993E-04
DAV:  25    -0.620087436108E+02   -0.17568E-03   -0.48030E-06   280   0.315E-03    0.647E-04
DAV:  26    -0.620088604788E+02   -0.11687E-03   -0.31977E-06   280   0.255E-03    0.551E-04
DAV:  27    -0.620089191183E+02   -0.58639E-04   -0.18857E-06   272   0.199E-03
  53 F= -.62008919E+02 E0= -.62016549E+02  d E =-.230199E-01  mag=     7.6607
       N       E                     dE             d eps       ncg     rms          rms(c)
DAV:   1    -0.619957262934E+02    0.13134E-01   -0.17357E+01   416   0.109E+01    0.664E-01
DAV:   2    -0.620351556938E+02   -0.39429E-01   -0.33180E-01   440   0.232E+00    0.215E+00
DAV:   3    -0.620177155915E+02    0.17440E-01   -0.10289E-01   432   0.166E+00    0.732E-01
DAV:   4    -0.620187472862E+02   -0.10317E-02   -0.19968E-02   432   0.800E-01    0.484E-01
DAV:   5    -0.620175484148E+02    0.11989E-02   -0.41350E-03   440   0.419E-01    0.282E-01
DAV:   6    -0.620173372337E+02    0.21118E-03   -0.23070E-03   440   0.288E-01    0.256E-01
DAV:   7    -0.620167188835E+02    0.61835E-03   -0.25124E-03   448   0.267E-01    0.240E-01
DAV:   8    -0.620159904309E+02    0.72845E-03   -0.14303E-03   440   0.253E-01    0.119E-01
DAV:   9    -0.620159621224E+02    0.28308E-04   -0.35974E-04   280   0.123E-01
  54 F= -.62015962E+02 E0= -.62024092E+02  d E =-.704300E-02  mag=     7.6430
       N       E                     dE             d eps       ncg     rms          rms(c)
DAV:   1    -0.620048321136E+02    0.11158E-01   -0.98295E+00   416   0.818E+00    0.518E-01
DAV:   2    -0.620277710641E+02   -0.22939E-01   -0.19217E-01   432   0.178E+00    0.169E+00
DAV:   3    -0.620166747305E+02    0.11096E-01   -0.60540E-02   432   0.130E+00    0.558E-01
DAV:   4    -0.620175315182E+02   -0.85679E-03   -0.11966E-02   432   0.626E-01    0.380E-01
DAV:   5    -0.620166545738E+02    0.87694E-03   -0.28457E-03   448   0.338E-01    0.223E-01
DAV:   6    -0.620164833164E+02    0.17126E-03   -0.14297E-03   416   0.228E-01    0.190E-01
DAV:   7    -0.620161384544E+02    0.34486E-03   -0.14927E-03   440   0.213E-01    0.203E-01
DAV:   8    -0.620156052195E+02    0.53323E-03   -0.98417E-04   376   0.199E-01    0.928E-02
DAV:   9    -0.620156469602E+02   -0.41741E-04   -0.25717E-04   272   0.102E-01
  55 F= -.62015647E+02 E0= -.62024088E+02  d E =-.672784E-02  mag=     7.6186
       N       E                     dE             d eps       ncg     rms          rms(c)
DAV:   1    -0.620084848521E+02    0.71204E-02   -0.11115E+01   416   0.872E+00    0.559E-01
DAV:   2    -0.620292553536E+02   -0.20771E-01   -0.19870E-01   432   0.181E+00    0.131E+00
DAV:   3    -0.620242907283E+02    0.49646E-02   -0.56707E-02   432   0.129E+00    0.710E-01
DAV:   4    -0.620236271132E+02    0.66362E-03   -0.15396E-02   432   0.663E-01    0.425E-01
DAV:   5    -0.620230339245E+02    0.59319E-03   -0.35241E-03   432   0.386E-01    0.260E-01
DAV:   6    -0.620231112747E+02   -0.77350E-04   -0.15765E-03   424   0.252E-01    0.189E-01
[...]
DAV:   5    -0.624802668861E+02    0.92641E-02   -0.42146E-02   456   0.133E+00    0.880E-01
DAV:   6    -0.624796289656E+02    0.63792E-03   -0.27696E-02   456   0.881E-01    0.998E-01
DAV:   7    -0.624764947377E+02    0.31342E-02   -0.38881E-02   440   0.930E-01    0.664E-01
DAV:   8    -0.624776247102E+02   -0.11300E-02   -0.17273E-02   456   0.802E-01    0.626E-01
DAV:   9    -0.624768363709E+02    0.78834E-03   -0.65163E-03   440   0.544E-01    0.237E-01
DAV:  10    -0.624772670115E+02   -0.43064E-03   -0.10301E-03   440   0.236E-01    0.995E-02
DAV:  11    -0.624780468008E+02   -0.77979E-03   -0.29657E-04   320   0.102E-01    0.781E-02
DAV:  12    -0.624785275989E+02   -0.48080E-03   -0.18544E-04   296   0.916E-02    0.550E-02
DAV:  13    -0.624791460926E+02   -0.61849E-03   -0.14638E-04   280   0.585E-02    0.289E-02
DAV:  14    -0.624794897189E+02   -0.34363E-03   -0.61843E-05   288   0.417E-02    0.179E-02
DAV:  15    -0.624798110154E+02   -0.32130E-03   -0.25008E-05   272   0.240E-02    0.972E-03
DAV:  16    -0.624800778348E+02   -0.26682E-03   -0.10771E-05   280   0.133E-02    0.759E-03
DAV:  17    -0.624803353938E+02   -0.25756E-03   -0.69850E-06   272   0.879E-03    0.407E-03
DAV:  18    -0.624806122449E+02   -0.27685E-03   -0.60729E-06   272   0.545E-03    0.373E-03
DAV:  19    -0.624809252598E+02   -0.31301E-03   -0.66087E-06   296   0.527E-03    0.311E-03
DAV:  20    -0.624813142589E+02   -0.38900E-03   -0.96946E-06   272   0.512E-03    0.235E-03
DAV:  21    -0.624816015088E+02   -0.28725E-03   -0.84200E-06   296   0.472E-03    0.211E-03
DAV:  22    -0.624818352203E+02   -0.23371E-03   -0.83662E-06   296   0.441E-03    0.138E-03
DAV:  23    -0.624819860972E+02   -0.15088E-03   -0.59453E-06   280   0.358E-03    0.898E-04
DAV:  24    -0.624820883819E+02   -0.10228E-03   -0.41622E-06   288   0.291E-03    0.658E-04
DAV:  25    -0.624821537273E+02   -0.65345E-04   -0.26324E-06   280   0.235E-03
 136 F= -.62482154E+02 E0= -.62503451E+02  d E =-.353445E-01  mag=     8.3654
       N       E                     dE             d eps       ncg     rms          rms(c)
DAV:   1    -0.624246643530E+02    0.57424E-01   -0.44225E+01   416   0.172E+01    0.870E-01
DAV:   2    -0.624903307226E+02   -0.65666E-01   -0.68774E-01   432   0.301E+00    0.139E+00
DAV:   3    -0.624882948058E+02    0.20359E-02   -0.92891E-02   424   0.178E+00    0.947E-01
DAV:   4    -0.624851708571E+02    0.31239E-02   -0.25658E-02   432   0.943E-01    0.554E-01
DAV:   5    -0.624840524481E+02    0.11184E-02   -0.50174E-03   448   0.471E-01    0.304E-01
DAV:   6    -0.624841567692E+02   -0.10432E-03   -0.45122E-03   456   0.333E-01    0.415E-01
DAV:   7    -0.624834284433E+02    0.72833E-03   -0.52032E-03   448   0.357E-01    0.231E-01
DAV:   8    -0.624835406707E+02   -0.11223E-03   -0.20625E-03   448   0.285E-01    0.171E-01
DAV:   9    -0.624835393776E+02    0.12932E-05   -0.65439E-04   312   0.167E-01
 137 F= -.62483539E+02 E0= -.62505275E+02  d E =-.367302E-01  mag=     8.3748
       N       E                     dE             d eps       ncg     rms          rms(c)
DAV:   1    -0.624766648783E+02    0.68758E-02   -0.13486E+01   416   0.949E+00    0.461E-01
DAV:   2    -0.624961705156E+02   -0.19506E-01   -0.20323E-01   432   0.163E+00    0.683E-01
DAV:   3    -0.624961639698E+02    0.65458E-05   -0.22219E-02   432   0.908E-01    0.498E-01
DAV:   4    -0.624955798087E+02    0.58416E-03   -0.75588E-03   440   0.475E-01    0.328E-01
DAV:   5    -0.624952627282E+02    0.31708E-03   -0.17245E-03   440   0.255E-01    0.176E-01
DAV:   6    -0.624955503629E+02   -0.28763E-03   -0.14139E-03   432   0.213E-01    0.252E-01
DAV:   7    -0.624955362034E+02    0.14159E-04   -0.17980E-03   440   0.221E-01    0.116E-01
DAV:   8    -0.624957303884E+02   -0.19418E-03   -0.52324E-04   328   0.147E-01    0.823E-02
DAV:   9    -0.624957540431E+02   -0.23655E-04   -0.21313E-04   264   0.846E-02
 138 F= -.62495754E+02 E0= -.62517308E+02  d E =-.122147E-01  mag=     8.3776
       N       E                     dE             d eps       ncg     rms          rms(c)
DAV:   1    -0.623541336560E+02    0.14160E+00   -0.12241E+02   416   0.287E+01    0.147E+00
DAV:   2    -0.625395550131E+02   -0.18542E+00   -0.19013E+00   440   0.500E+00    0.212E+00
DAV:   3    -0.625327282731E+02    0.68267E-02   -0.21694E-01   432   0.291E+00    0.159E+00
DAV:   4    -0.625268477173E+02    0.58806E-02   -0.85289E-02   432   0.152E+00    0.108E+00
DAV:   5    -0.625220711386E+02    0.47766E-02   -0.20188E-02   448   0.841E-01    0.544E-01
DAV:   6    -0.625224800084E+02   -0.40887E-03   -0.10058E-02   440   0.612E-01    0.657E-01
DAV:   7    -0.625203911789E+02    0.20888E-02   -0.12524E-02   440   0.604E-01    0.367E-01
DAV:   8    -0.625206804347E+02   -0.28926E-03   -0.55399E-03   432   0.462E-01    0.258E-01
DAV:   9    -0.625207078456E+02   -0.27411E-04   -0.22499E-03   448   0.273E-01    0.171E-01
DAV:  10    -0.625207214554E+02   -0.13610E-04   -0.44725E-04   304   0.146E-01
 139 F= -.62520721E+02 E0= -.62541542E+02  d E =-.371821E-01  mag=     8.3631
       N       E                     dE             d eps       ncg     rms          rms(c)
DAV:   1    -0.618013976752E+02    0.71931E+00   -0.50494E+02   416   0.592E+01    0.320E+00
DAV:   2    -0.626477032085E+02   -0.84631E+00   -0.81751E+00   432   0.108E+01    0.543E+00
DAV:   3    -0.625251918675E+02    0.12251E+00   -0.11418E+00   424   0.684E+00    0.296E+00
DAV:   4    -0.625033360287E+02    0.21856E-01   -0.29013E-01   432   0.320E+00    0.208E+00
DAV:   5    -0.624863188936E+02    0.17017E-01   -0.85334E-02   448   0.183E+00    0.134E+00
DAV:   6    -0.624817682869E+02    0.45506E-02   -0.48485E-02   440   0.132E+00    0.126E+00
DAV:   7    -0.624704666565E+02    0.11302E-01   -0.47595E-02   440   0.117E+00    0.841E-01
DAV:   8    -0.624682471747E+02    0.22195E-02   -0.34391E-02   448   0.106E+00    0.743E-01
DAV:   9    -0.624677281881E+02    0.51899E-03   -0.16184E-02   440   0.714E-01    0.419E-01
DAV:  10    -0.624685998432E+02   -0.87166E-03   -0.30655E-03   440   0.365E-01    0.144E-01
DAV:  11    -0.624708223608E+02   -0.22225E-02   -0.65817E-04   448   0.165E-01    0.119E-01
DAV:  12    -0.624733733509E+02   -0.25510E-02   -0.42430E-04   360   0.130E-01    0.800E-02
DAV:  13    -0.624756959461E+02   -0.23226E-02   -0.23631E-04   312   0.888E-02    0.544E-02
DAV:  14    -0.624774245690E+02   -0.17286E-02   -0.12378E-04   272   0.644E-02    0.283E-02
DAV:  15    -0.624791112521E+02   -0.16867E-02   -0.74967E-05   304   0.362E-02    0.210E-02
DAV:  16    -0.624806218097E+02   -0.15106E-02   -0.34081E-05   272   0.243E-02    0.152E-02
DAV:  17    -0.624828056687E+02   -0.21839E-02   -0.47772E-05   296   0.157E-02    0.120E-02
DAV:  18    -0.624846889089E+02   -0.18832E-02   -0.32052E-05   288   0.131E-02    0.107E-02
DAV:  19    -0.624872321710E+02   -0.25433E-02   -0.74762E-05   288   0.148E-02    0.878E-03
DAV:  20    -0.624898657278E+02   -0.26336E-02   -0.11233E-04   312   0.164E-02    0.734E-03
DAV:  21    -0.624910243751E+02   -0.11586E-02   -0.38318E-05   304   0.123E-02    0.430E-03
DAV:  22    -0.624918721323E+02   -0.84776E-03   -0.29973E-05   280   0.874E-03    0.294E-03
DAV:  23    -0.624924740928E+02   -0.60196E-03   -0.20863E-05   272   0.738E-03    0.235E-03
DAV:  24    -0.624928869688E+02   -0.41288E-03   -0.14089E-05   272   0.614E-03    0.175E-03
DAV:  25    -0.624932195664E+02   -0.33260E-03   -0.96806E-06   296   0.472E-03    0.127E-03
DAV:  26    -0.624934602255E+02   -0.24066E-03   -0.59208E-06   264   0.383E-03    0.110E-03
DAV:  27    -0.624936279116E+02   -0.16769E-03   -0.37625E-06   280   0.301E-03    0.714E-04
DAV:  28    -0.624937499742E+02   -0.12206E-03   -0.23883E-06   272   0.229E-03    0.413E-04
DAV:  29    -0.624938090548E+02   -0.59081E-04   -0.14503E-06   272   0.175E-03
 140 F= -.62493809E+02 E0= -.62509472E+02  d E =-.102697E-01  mag=     8.1761
       N       E                     dE             d eps       ncg     rms          rms(c)
DAV:   1    -0.621341481843E+02    0.35960E+00   -0.29209E+02   416   0.448E+01    0.230E+00
DAV:   2    -0.625805164047E+02   -0.44637E+00   -0.45093E+00   440   0.773E+00    0.368E+00
DAV:   3    -0.625629289895E+02    0.17587E-01   -0.72777E-01   448   0.450E+00    0.272E+00
DAV:   4    -0.625392373896E+02    0.23692E-01   -0.17852E-01   440   0.262E+00    0.160E+00
DAV:   5    -0.625268303806E+02    0.12407E-01   -0.45628E-02   424   0.141E+00    0.831E-01
DAV:   6    -0.625253180966E+02    0.15123E-02   -0.24077E-02   432   0.965E-01    0.988E-01
DAV:   7    -0.625175056097E+02    0.78125E-02   -0.25436E-02   440   0.970E-01    0.622E-01
DAV:   8    -0.625144083578E+02    0.30973E-02   -0.13724E-02   424   0.762E-01    0.435E-01
DAV:   9    -0.625138304925E+02    0.57787E-03   -0.54629E-03   424   0.432E-01    0.272E-01
DAV:  10    -0.625137010262E+02    0.12947E-03   -0.12618E-03   432   0.244E-01    0.123E-01
DAV:  11    -0.625142561220E+02   -0.55510E-03   -0.41482E-04   304   0.122E-01    0.912E-02
DAV:  12    -0.625150372861E+02   -0.78116E-03   -0.23939E-04   288   0.980E-02    0.550E-02
DAV:  13    -0.625163713968E+02   -0.13341E-02   -0.19183E-04   280   0.639E-02    0.347E-02
DAV:  14    -0.625173874879E+02   -0.10161E-02   -0.79383E-05   280   0.461E-02    0.217E-02
DAV:  15    -0.625185259029E+02   -0.11384E-02   -0.43751E-05   272   0.261E-02    0.160E-02
DAV:  16    -0.625196173344E+02   -0.10914E-02   -0.25846E-05   288   0.166E-02    0.133E-02
DAV:  17    -0.625211971946E+02   -0.15799E-02   -0.34313E-05   272   0.127E-02    0.964E-03
DAV:  18    -0.625228559295E+02   -0.16587E-02   -0.41270E-05   280   0.115E-02    0.905E-03
DAV:  19    -0.625246026396E+02   -0.17467E-02   -0.65267E-05   288   0.127E-02    0.647E-03
DAV:  20    -0.625260569369E+02   -0.14543E-02   -0.56295E-05   280   0.121E-02    0.500E-03
DAV:  21    -0.625268060233E+02   -0.74909E-03   -0.34221E-05   296   0.103E-02    0.365E-03
DAV:  22    -0.625273410653E+02   -0.53504E-03   -0.24050E-05   272   0.791E-03    0.245E-03
DAV:  23    -0.625278569465E+02   -0.51588E-03   -0.18230E-05   288   0.644E-03    0.180E-03
DAV:  24    -0.625282649616E+02   -0.40802E-03   -0.12027E-05   280   0.543E-03    0.137E-03
DAV:  25    -0.625285113788E+02   -0.24642E-03   -0.70745E-06   288   0.426E-03    0.101E-03
DAV:  26    -0.625287251610E+02   -0.21378E-03   -0.46585E-06   272   0.328E-03    0.704E-04
DAV:  27    -0.625288602226E+02   -0.13506E-03   -0.28054E-06   280   0.263E-03    0.524E-04
DAV:  28    -0.625289202412E+02   -0.60019E-04   -0.16173E-06   272   0.190E-03
 141 F= -.62528920E+02 E0= -.62548996E+02  d E =-.453809E-01  mag=     8.3204
       N       E                     dE             d eps       ncg     rms          rms(c)
DAV:   1    -0.625343247739E+02   -0.54646E-02   -0.10314E+01   424   0.830E+00    0.516E-01
DAV:   2    -0.625519695067E+02   -0.17645E-01   -0.16654E-01   432   0.162E+00    0.109E+00
DAV:   3    -0.625479124405E+02    0.40571E-02   -0.30912E-02   424   0.115E+00    0.444E-01
DAV:   4    -0.625477767735E+02    0.13567E-03   -0.56407E-03   416   0.439E-01    0.271E-01
DAV:   5    -0.625476205684E+02    0.15621E-03   -0.21270E-03   424   0.278E-01    0.235E-01
DAV:   6    -0.625476683915E+02   -0.47823E-04   -0.21104E-03   432   0.243E-01    0.233E-01
DAV:   7    -0.625475016500E+02    0.16674E-03   -0.16195E-03   432   0.213E-01    0.132E-01
DAV:   8    -0.625474865132E+02    0.15137E-04   -0.54590E-04   360   0.158E-01
 142 F= -.62547487E+02 E0= -.62566885E+02  d E =-.185663E-01  mag=     8.3161
       N       E                     dE             d eps       ncg     rms          rms(c)
DAV:   1    -0.624599565447E+02    0.87545E-01   -0.81475E+01   416   0.234E+01    0.148E+00
DAV:   2    -0.626098839761E+02   -0.14993E+00   -0.13305E+00   440   0.465E+00    0.322E+00
DAV:   3    -0.625710767056E+02    0.38807E-01   -0.28795E-01   440   0.333E+00    0.127E+00
DAV:   4    -0.625675146237E+02    0.35621E-02   -0.51676E-02   424   0.124E+00    0.755E-01
DAV:   5    -0.625659824113E+02    0.15322E-02   -0.16986E-02   432   0.782E-01    0.677E-01
DAV:   6    -0.625653855223E+02    0.59689E-03   -0.16800E-02   432   0.668E-01    0.642E-01
DAV:   7    -0.625632068700E+02    0.21787E-02   -0.12942E-02   440   0.592E-01    0.385E-01
DAV:   8    -0.625625489441E+02    0.65793E-03   -0.44120E-03   448   0.443E-01    0.197E-01
DAV:   9    -0.625626686876E+02   -0.11974E-03   -0.13298E-03   448   0.238E-01    0.167E-01
DAV:  10    -0.625626702425E+02   -0.15549E-05   -0.45613E-04   296   0.143E-01
 143 F= -.62562670E+02 E0= -.62579288E+02  d E =-.337500E-01  mag=     8.2879
       N       E                     dE             d eps       ncg     rms          rms(c)
DAV:   1    -0.625551391105E+02    0.75296E-02   -0.15142E+01   416   0.102E+01    0.761E-01
DAV:   2    -0.625890730110E+02   -0.33934E-01   -0.29003E-01   440   0.239E+00    0.181E+00
DAV:   3    -0.625754316239E+02    0.13641E-01   -0.81672E-02   432   0.177E+00    0.712E-01
DAV:   4    -0.625757029203E+02   -0.27130E-03   -0.26918E-02   432   0.790E-01    0.594E-01
DAV:   5    -0.625746384020E+02    0.10645E-02   -0.69761E-03   424   0.496E-01    0.372E-01
DAV:   6    -0.625744422095E+02    0.19619E-03   -0.28874E-03   440   0.357E-01    0.272E-01
DAV:   7    -0.625747049620E+02   -0.26275E-03   -0.21614E-03   440   0.255E-01    0.182E-01
DAV:   8    -0.625747873890E+02   -0.82427E-04   -0.95127E-04   456   0.222E-01
 144 F= -.62574787E+02 E0= -.62591238E+02  d E =-.121171E-01  mag=     8.2682
       N       E                     dE             d eps       ncg     rms          rms(c)
DAV:   1    -0.625732726273E+02    0.14323E-02   -0.25554E+00   416   0.417E+00    0.329E-01
DAV:   2    -0.625795659859E+02   -0.62934E-02   -0.51905E-02   440   0.102E+00    0.796E-01
DAV:   3    -0.625769723948E+02    0.25936E-02   -0.16832E-02   432   0.770E-01    0.321E-01
DAV:   4    -0.625771493673E+02   -0.17697E-03   -0.50668E-03   432   0.345E-01    0.246E-01
DAV:   5    -0.625771514821E+02   -0.21148E-05   -0.12803E-03   400   0.219E-01    0.165E-01
DAV:   6    -0.625771908618E+02   -0.39380E-04   -0.57741E-04   280   0.155E-01
 145 F= -.62577191E+02 E0= -.62593526E+02  d E =-.145206E-01  mag=     8.2582
       N       E                     dE             d eps       ncg     rms          rms(c)
DAV:   1    -0.625790175562E+02   -0.18661E-02   -0.43382E+00   416   0.541E+00    0.358E-01
DAV:   2    -0.625867657852E+02   -0.77482E-02   -0.76871E-02   432   0.108E+00    0.763E-01
DAV:   3    -0.625848459303E+02    0.19199E-02   -0.18299E-02   432   0.761E-01    0.333E-01
DAV:   4    -0.625851759057E+02   -0.32998E-03   -0.46376E-03   432   0.359E-01    0.272E-01
DAV:   5    -0.625850141773E+02    0.16173E-03   -0.19384E-03   408   0.240E-01    0.174E-01
DAV:   6    -0.625852107859E+02   -0.19661E-03   -0.82616E-04   320   0.178E-01    0.139E-01
DAV:   7    -0.625856303911E+02   -0.41961E-03   -0.52348E-04   400   0.123E-01    0.724E-02
DAV:   8    -0.625858517793E+02   -0.22139E-03   -0.19579E-04   288   0.986E-02    0.518E-02
DAV:   9    -0.625859798334E+02   -0.12805E-03   -0.81725E-05   256   0.595E-02    0.383E-02
DAV:  10    -0.625860619778E+02   -0.82144E-04   -0.26736E-05   264   0.359E-02
 146 F= -.62586062E+02 E0= -.62603262E+02  d E =-.887112E-02  mag=     8.2496
       N       E                     dE             d eps       ncg     rms          rms(c)
DAV:   1    -0.625870592126E+02   -0.10794E-02   -0.41357E-01   424   0.167E+00    0.114E-01
DAV:   2    -0.625878731242E+02   -0.81391E-03   -0.73410E-03   448   0.336E-01    0.221E-01
DAV:   3    -0.625877607528E+02    0.11237E-03   -0.15903E-03   432   0.240E-01    0.107E-01
DAV:   4    -0.625878608239E+02   -0.10007E-03   -0.48233E-04   272   0.122E-01    0.910E-02
DAV:   5    -0.625878874682E+02   -0.26644E-04   -0.17442E-04   264   0.753E-02
 147 F= -.62587887E+02 E0= -.62605304E+02  d E =-.106966E-01  mag=     8.2478
       N       E                     dE             d eps       ncg     rms          rms(c)
DAV:   1    -0.625888468603E+02   -0.98604E-03   -0.16215E+00   416   0.331E+00    0.190E-01
DAV:   2    -0.625914342198E+02   -0.25874E-02   -0.25776E-02   448   0.619E-01    0.348E-01
DAV:   3    -0.625910832696E+02    0.35095E-03   -0.37999E-03   424   0.400E-01    0.160E-01
DAV:   4    -0.625912457448E+02   -0.16248E-03   -0.13898E-03   384   0.191E-01    0.176E-01
DAV:   5    -0.625911393163E+02    0.10643E-03   -0.56867E-04   272   0.132E-01    0.712E-02
DAV:   6    -0.625912839381E+02   -0.14462E-03   -0.18085E-04   280   0.814E-02    0.828E-02
DAV:   7    -0.625913742741E+02   -0.90336E-04   -0.24306E-04   264   0.938E-02
 148 F= -.62591374E+02 E0= -.62608925E+02  d E =-.348681E-02  mag=     8.2454
       N       E                     dE             d eps       ncg     rms          rms(c)
DAV:   1    -0.625801305256E+02    0.11153E-01   -0.10219E+01   416   0.831E+00    0.474E-01
DAV:   2    -0.625953711559E+02   -0.15241E-01   -0.16052E-01   424   0.151E+00    0.783E-01
DAV:   3    -0.625938135686E+02    0.15576E-02   -0.18414E-02   424   0.942E-01    0.362E-01
DAV:   4    -0.625940470926E+02   -0.23352E-03   -0.49383E-03   424   0.461E-01    0.372E-01
DAV:   5    -0.625934610901E+02    0.58600E-03   -0.21769E-03   424   0.294E-01    0.179E-01
DAV:   6    -0.625937340423E+02   -0.27295E-03   -0.17244E-03   448   0.208E-01    0.232E-01
DAV:   7    -0.625936231767E+02    0.11087E-03   -0.18285E-03   416   0.223E-01    0.170E-01
DAV:   8    -0.625936244145E+02   -0.12378E-05   -0.64441E-04   368   0.164E-01
 149 F= -.62593624E+02 E0= -.62611482E+02  d E =-.573695E-02  mag=     8.2431
       N       E                     dE             d eps       ncg     rms          rms(c)
DAV:   1    -0.625942475313E+02   -0.62435E-03   -0.48021E-01   448   0.179E+00    0.102E-01
DAV:   2    -0.625949254489E+02   -0.67792E-03   -0.76487E-03   440   0.313E-01    0.124E-01
DAV:   3    -0.625949841784E+02   -0.58729E-04   -0.89746E-04   424   0.191E-01
 150 F= -.62594984E+02 E0= -.62613014E+02  d E =-.135976E-02  mag=     8.2428
       N       E                     dE             d eps       ncg     rms          rms(c)
DAV:   1    -0.625941080790E+02    0.81737E-03   -0.20455E+00   424   0.370E+00    0.202E-01
DAV:   2    -0.625972435087E+02   -0.31354E-02   -0.32188E-02   440   0.668E-01    0.385E-01
DAV:   3    -0.625968214760E+02    0.42203E-03   -0.49155E-03   432   0.426E-01    0.191E-01
DAV:   4    -0.625968047592E+02    0.16717E-04   -0.95785E-04   408   0.194E-01
 151 F= -.62596805E+02 E0= -.62614972E+02  d E =-.318034E-02  mag=     8.2425
       N       E                     dE             d eps       ncg     rms          rms(c)
DAV:   1    -0.625975721282E+02   -0.75065E-03   -0.14662E-01   448   0.100E+00    0.122E-01
DAV:   2    -0.625980736754E+02   -0.50155E-03   -0.40725E-03   448   0.294E-01    0.304E-01
DAV:   3    -0.625977057306E+02    0.36794E-03   -0.22443E-03   424   0.259E-01    0.120E-01
DAV:   4    -0.625978127745E+02   -0.10704E-03   -0.50623E-04   272   0.128E-01    0.882E-02
DAV:   5    -0.625978069179E+02    0.58566E-05   -0.15818E-04   264   0.889E-02
 152 F= -.62597807E+02 E0= -.62616120E+02  d E =-.100216E-02  mag=     8.2421
       N       E                     dE             d eps       ncg     rms          rms(c)
DAV:   1    -0.625980379630E+02   -0.22519E-03   -0.63947E-01   432   0.208E+00    0.183E-01
DAV:   2    -0.625995258404E+02   -0.14879E-02   -0.12077E-02   432   0.510E-01    0.451E-01
DAV:   3    -0.625985808670E+02    0.94497E-03   -0.31981E-03   432   0.411E-01    0.120E-01
DAV:   4    -0.625988560739E+02   -0.27521E-03   -0.78561E-04   416   0.173E-01    0.141E-01
DAV:   5    -0.625987623948E+02    0.93679E-04   -0.42405E-04   280   0.134E-01
 153 F= -.62598762E+02 E0= -.62617019E+02  d E =-.195764E-02  mag=     8.2416
