<?xml version="1.0" encoding="ISO-8859-1"?>
<modeling>
 <generator>
  <i name="program" type="string">vasp </i>
  <i name="version" type="string">6.1.2  </i>
  <i name="subversion" type="string">22Jul20 (build Aug  2 2021 21:04:21) gamma-only                       parallel </i>
  <i name="platform" type="string">LinuxPGI </i>
  <i name="date" type="string">2021 12 15 </i>
  <i name="time" type="string">16:26:01 </i>
 </generator>
 <incar>
  <i type="int" name="ISPIN">     2</i>
  <i type="int" name="IBRION">     2</i>
  <i type="int" name="NSW">  1000</i>
  <i type="int" name="ISIF">     0</i>
  <i type="int" name="ISYM">     0</i>
  <i name="ENCUT">    400.00000000</i>
  <i type="logical" name="LREAL"> F  </i>
  <i type="int" name="ISMEAR">     1</i>
  <i name="SIGMA">      0.20000000</i>
  <i type="logical" name="LWAVE"> F  </i>
  <i type="logical" name="LCHARG"> F  </i>
  <i type="int" name="KPAR">     1</i>
  <i type="int" name="NCORE">     8</i>
  <i type="string" name="GGA"> PE</i>
  <i type="int" name="ISPIN">     2</i>
 </incar>
 <structure name="primitive_cell" >
  <crystal>
   <varray name="basis" >
    <v>      23.74183393       0.00000000       0.00000000 </v>
    <v>       0.00000000      25.63324930       0.00000000 </v>
    <v>       0.00000000       0.00000000      24.24635478 </v>
   </varray>
   <i name="volume">  14755.85502514 </i>
   <varray name="rec_basis" >
    <v>       0.04211975       0.00000000       0.00000000 </v>
    <v>       0.00000000       0.03901183       0.00000000 </v>
    <v>       0.00000000       0.00000000       0.04124331 </v>
   </varray>
  </crystal>
  <varray name="positions" >
   <v>       0.62269133       0.55881436       0.46272737 </v>
   <v>       0.53829428       0.60892418       0.51036871 </v>
   <v>       0.58306087       0.51516734       0.37434400 </v>
   <v>       0.54850608       0.60622422       0.40389244 </v>
   <v>       0.59846810       0.45874569       0.46104744 </v>
   <v>       0.57918141       0.52417979       0.55481956 </v>
   <v>       0.51321683       0.52316133       0.45688214 </v>
   <v>       0.51757164       0.44426626       0.53178011 </v>
   <v>       0.50650405       0.47797859       0.63196111 </v>
   <v>       0.46882269       0.53933900       0.55723609 </v>
   <v>       0.48277076       0.42260854       0.43428908 </v>
   <v>       0.41295747       0.48763022       0.48300631 </v>
   <v>       0.47304893       0.35287993       0.51697857 </v>
   <v>       0.50091403       0.37956577       0.61541423 </v>
   <v>       0.41840072       0.43276909       0.57393181 </v>
   <v>       0.38542743       0.39255625       0.47716369 </v>
  </varray>
 </structure>
 <varray name="primitive_index" >
  <v type="int" >        1 </v>
  <v type="int" >        2 </v>
  <v type="int" >        3 </v>
  <v type="int" >        4 </v>
  <v type="int" >        5 </v>
  <v type="int" >        6 </v>
  <v type="int" >        7 </v>
  <v type="int" >        8 </v>
  <v type="int" >        9 </v>
  <v type="int" >       10 </v>
  <v type="int" >       11 </v>
  <v type="int" >       12 </v>
  <v type="int" >       13 </v>
  <v type="int" >       14 </v>
  <v type="int" >       15 </v>
  <v type="int" >       16 </v>
 </varray>
 <kpoints>
  <generation param="Gamma">
   <v type="int" name="divisions">       1        1        1 </v>
   <v name="usershift">      0.00000000       0.00000000       0.00000000 </v>
   <v name="genvec1">      1.00000000       0.00000000       0.00000000 </v>
   <v name="genvec2">      0.00000000       1.00000000       0.00000000 </v>
   <v name="genvec3">      0.00000000       0.00000000       1.00000000 </v>
   <v name="shift">      0.00000000       0.00000000       0.00000000 </v>
  </generation>
  <varray name="kpointlist" >
   <v>       0.00000000       0.00000000       0.00000000 </v>
  </varray>
  <varray name="weights" >
   <v>       1.00000000 </v>
  </varray>
 </kpoints>
 <parameters>
  <separator name="general" >
   <i type="string" name="SYSTEM">unknown system</i>
   <i type="logical" name="LCOMPAT"> F  </i>
  </separator>
  <separator name="electronic" >
   <i type="string" name="PREC">normal</i>
   <i name="ENMAX">    400.00000000</i>
   <i name="ENAUG">    416.23000000</i>
   <i name="EDIFF">      0.00010000</i>
   <i type="int" name="IALGO">    38</i>
   <i type="int" name="IWAVPR">    11</i>
   <i type="int" name="NBANDS">   104</i>
   <i type="int" name="NBANDSLOW">    -1</i>
   <i type="int" name="NBANDSHIGH">    -1</i>
   <i name="NELECT">    160.00000000</i>
   <i type="int" name="TURBO">     0</i>
   <i type="int" name="IRESTART">     0</i>
   <i type="int" name="NREBOOT">     0</i>
   <i type="int" name="NMIN">     0</i>
   <i name="EREF">      0.00000000</i>
   <separator name="electronic smearing" >
    <i type="int" name="ISMEAR">     1</i>
    <i name="SIGMA">      0.20000000</i>
    <i name="KSPACING">      0.50000000</i>
    <i type="logical" name="KGAMMA"> T  </i>
    <i type="logical" name="KBLOWUP"> T  </i>
   </separator>
   <separator name="electronic projectors" >
    <i type="logical" name="LREAL"> F  </i>
    <v name="ROPT">      0.00000000</v>
    <i type="int" name="LMAXPAW">  -100</i>
    <i type="int" name="LMAXMIX">     2</i>
    <i type="logical" name="NLSPLINE"> F  </i>
   </separator>
   <separator name="electronic startup" >
    <i type="int" name="ISTART">     0</i>
    <i type="int" name="ICHARG">     2</i>
    <i type="int" name="INIWAV">     1</i>
   </separator>
   <separator name="electronic spin" >
    <i type="int" name="ISPIN">     2</i>
    <i type="logical" name="LNONCOLLINEAR"> F  </i>
    <v name="MAGMOM">      1.00000000      1.00000000      1.00000000      1.00000000      1.00000000      1.00000000      1.00000000      1.00000000      1.00000000      1.00000000      1.00000000      1.00000000      1.00000000      1.00000000      1.00000000      1.00000000</v>
    <i name="NUPDOWN">     -1.00000000</i>
    <i type="logical" name="LSORBIT"> F  </i>
    <v name="SAXIS">      0.00000000      0.00000000      1.00000000</v>
    <i type="logical" name="LSPIRAL"> F  </i>
    <v name="QSPIRAL">      0.00000000      0.00000000      0.00000000</v>
    <i type="logical" name="LZEROZ"> F  </i>
   </separator>
   <separator name="electronic exchange-correlation" >
    <i type="logical" name="LASPH"> F  </i>
    <i type="logical" name="LMETAGGA"> F  </i>
   </separator>
   <separator name="electronic convergence" >
    <i type="int" name="NELM">    60</i>
    <i type="int" name="NELMDL">     0</i>
    <i type="int" name="NELMIN">     2</i>
    <i name="ENINI">    400.00000000</i>
    <separator name="electronic convergence detail" >
     <i type="logical" name="LDIAG"> T  </i>
     <i type="logical" name="LSUBROT"> F  </i>
     <i name="WEIMIN">      0.00100000</i>
     <i name="EBREAK">      0.00000024</i>
     <i name="DEPER">      0.30000000</i>
     <i type="int" name="NRMM">     4</i>
     <i name="TIME">      0.40000000</i>
    </separator>
   </separator>
   <separator name="electronic mixer" >
    <i name="AMIX">      0.40000000</i>
    <i name="BMIX">      1.00000000</i>
    <i name="AMIN">      0.10000000</i>
    <i name="AMIX_MAG">      1.60000000</i>
    <i name="BMIX_MAG">      1.00000000</i>
    <separator name="electronic mixer details" >
     <i type="int" name="IMIX">     4</i>
     <i type="logical" name="MIXFIRST"> F  </i>
     <i type="int" name="MAXMIX">   -45</i>
     <i name="WC">    100.00000000</i>
     <i type="int" name="INIMIX">     1</i>
     <i type="int" name="MIXPRE">     1</i>
     <i type="int" name="MREMOVE">     5</i>
    </separator>
   </separator>
   <separator name="electronic dipolcorrection" >
    <i type="logical" name="LDIPOL"> F  </i>
    <i type="logical" name="LMONO"> F  </i>
    <i type="int" name="IDIPOL">     0</i>
    <i name="EPSILON">      1.00000000</i>
    <v name="DIPOL">   -100.00000000   -100.00000000   -100.00000000</v>
    <i name="EFIELD">      0.00000000</i>
   </separator>
  </separator>
  <separator name="grids" >
   <i type="int" name="NGX">   120</i>
   <i type="int" name="NGY">   126</i>
   <i type="int" name="NGZ">   120</i>
   <i type="int" name="NGXF">   240</i>
   <i type="int" name="NGYF">   252</i>
   <i type="int" name="NGZF">   240</i>
   <i type="logical" name="ADDGRID"> F  </i>
  </separator>
  <separator name="ionic" >
   <i type="int" name="NSW">  1000</i>
   <i type="int" name="IBRION">     2</i>
   <i type="int" name="MDALGO">     0</i>
   <i type="int" name="ISIF">     0</i>
   <i name="PSTRESS">      0.00000000</i>
   <i name="EDIFFG">      0.00100000</i>
   <i type="int" name="NFREE">     1</i>
   <i name="POTIM">      0.50000000</i>
   <i name="SMASS">     -3.00000000</i>
   <i name="SCALEE">      1.00000000</i>
  </separator>
  <separator name="ionic md" >
   <i name="TEBEG">      0.00010000</i>
   <i name="TEEND">      0.00010000</i>
   <i type="int" name="NBLOCK">     1</i>
   <i type="int" name="KBLOCK">  1000</i>
   <i type="int" name="NPACO">   256</i>
   <i name="APACO">     16.00000000</i>
  </separator>
  <separator name="symmetry" >
   <i type="int" name="ISYM">     0</i>
   <i name="SYMPREC">      0.00001000</i>
  </separator>
  <separator name="dos" >
   <i type="int" name="LORBIT">     0</i>
   <v name="RWIGS">     -1.00000000</v>
   <i type="int" name="NEDOS">   301</i>
   <i name="EMIN">     10.00000000</i>
   <i name="EMAX">    -10.00000000</i>
   <i name="EFERMI">      0.00000000</i>
  </separator>
  <separator name="writing" >
   <i type="int" name="NWRITE">     2</i>
   <i type="logical" name="LWAVE"> F  </i>
   <i type="logical" name="LDOWNSAMPLE"> F  </i>
   <i type="logical" name="LCHARG"> F  </i>
   <i type="logical" name="LPARD"> F  </i>
   <i type="logical" name="LVTOT"> F  </i>
   <i type="logical" name="LVHAR"> F  </i>
   <i type="logical" name="LELF"> F  </i>
   <i type="logical" name="LOPTICS"> F  </i>
   <v name="STM">      0.00000000      0.00000000      0.00000000      0.00000000      0.00000000      0.00000000      0.00000000</v>
  </separator>
  <separator name="performance" >
   <i type="int" name="NPAR">     2</i>
   <i type="int" name="NSIM">     4</i>
   <i type="int" name="NBLK">    -1</i>
   <i type="logical" name="LPLANE"> T  </i>
   <i type="logical" name="LSCALAPACK"> T  </i>
   <i type="logical" name="LSCAAWARE"> F  </i>
   <i type="logical" name="LSCALU"> F  </i>
   <i type="logical" name="LASYNC"> F  </i>
   <i type="logical" name="LORBITALREAL"> F  </i>
  </separator>
  <separator name="miscellaneous" >
   <i type="int" name="IDIOT">     3</i>
   <i type="int" name="PHON_NSTRUCT">    -1</i>
   <i type="logical" name="LMUSIC"> F  </i>
   <v name="POMASS">    106.42000000</v>
   <v name="DARWINR">      0.00000000</v>
   <v name="DARWINV">      1.00000000</v>
   <i type="logical" name="LCORR"> T  </i>
  </separator>
  <i type="logical" name="GGA_COMPAT"> T  </i>
  <i type="logical" name="LBERRY"> F  </i>
  <i type="int" name="ICORELEVEL">     0</i>
  <i type="logical" name="LDAU"> F  </i>
  <i type="int" name="I_CONSTRAINED_M">     0</i>
  <separator name="electronic exchange-correlation" >
   <i type="string" name="GGA">PE</i>
   <i type="int" name="VOSKOWN">     0</i>
   <i type="logical" name="LHFCALC"> F  </i>
   <i type="string" name="PRECFOCK"></i>
   <i type="logical" name="LSYMGRAD"> F  </i>
   <i type="logical" name="LHFONE"> F  </i>
   <i type="logical" name="LRHFCALC"> F  </i>
   <i type="logical" name="LTHOMAS"> F  </i>
   <i type="logical" name="LMODELHF"> F  </i>
   <i type="logical" name="LFOCKACE"> F  </i>
   <i name="ENCUT4O">     -1.00000000</i>
   <i type="int" name="EXXOEP">     0</i>
   <i type="int" name="FOURORBIT">     0</i>
   <i name="AEXX">      0.00000000</i>
   <i name="HFALPHA">      0.00000000</i>
   <i name="MCALPHA">      0.00000000</i>
   <i name="ALDAX">      1.00000000</i>
   <i name="AGGAX">      1.00000000</i>
   <i name="ALDAC">      1.00000000</i>
   <i name="AGGAC">      1.00000000</i>
   <i type="int" name="NKREDX">     1</i>
   <i type="int" name="NKREDY">     1</i>
   <i type="int" name="NKREDZ">     1</i>
   <i type="logical" name="SHIFTRED"> F  </i>
   <i type="logical" name="ODDONLY"> F  </i>
   <i type="logical" name="EVENONLY"> F  </i>
   <i type="int" name="LMAXFOCK">     0</i>
   <i type="int" name="NMAXFOCKAE">     0</i>
   <i type="logical" name="LFOCKAEDFT"> F  </i>
   <i name="HFSCREEN">      0.00000000</i>
   <i name="HFSCREENC">      0.00000000</i>
   <i type="int" name="NBANDSGWLOW">     0</i>
  </separator>
  <separator name="vdW DFT" >
   <i type="logical" name="LUSE_VDW"> F  </i>
   <i name="Zab_VDW">     -0.84910000</i>
   <i name="PARAM1">      0.12340000</i>
   <i name="PARAM2">      1.00000000</i>
   <i name="PARAM3">      0.00000000</i>
  </separator>
  <separator name="model GW" >
   <i type="int" name="MODEL_GW">     0</i>
   <i name="MODEL_EPS0">    553.34456344</i>
   <i name="MODEL_ALPHA">      1.00000000</i>
  </separator>
  <separator name="linear response parameters" >
   <i type="logical" name="LEPSILON"> F  </i>
   <i type="logical" name="LRPA"> F  </i>
   <i type="logical" name="LNABLA"> F  </i>
   <i type="logical" name="LVEL"> F  </i>
   <i type="int" name="KINTER">     0</i>
   <i name="CSHIFT">      0.10000000</i>
   <i name="OMEGAMAX">     -1.00000000</i>
   <i name="DEG_THRESHOLD">      0.00200000</i>
   <i name="RTIME">     -0.10000000</i>
   <i name="WPLASMAI">      0.00000000</i>
   <v name="DFIELD">      0.00000000      0.00000000      0.00000000</v>
   <v name="WPLASMA">      0.00000000      0.00000000      0.00000000      0.00000000      0.00000000      0.00000000      0.00000000      0.00000000      0.00000000</v>
  </separator>
  <separator name="orbital magnetization" >
   <i type="logical" name="NUCIND"> F  </i>
   <v name="MAGPOS">      0.00000000      0.00000000      0.00000000</v>
   <i type="logical" name="LNICSALL"> T  </i>
   <i type="logical" name="ORBITALMAG"> F  </i>
   <i type="logical" name="LMAGBLOCH"> F  </i>
   <i type="logical" name="LCHIMAG"> F  </i>
   <i type="logical" name="LGAUGE"> T  </i>
   <i type="int" name="MAGATOM">     0</i>
   <v name="MAGDIPOL">      0.00000000      0.00000000      0.00000000</v>
   <v name="AVECCONST">      0.00000000      0.00000000      0.00000000</v>
  </separator>
  <separator name="response functions" >
   <i type="logical" name="LFINITE_TEMPERATURE"> F  </i>
   <i type="logical" name="LADDER"> F  </i>
   <i type="logical" name="LRPAFORCE"> F  </i>
   <i type="logical" name="LFXC"> F  </i>
   <i type="logical" name="LHARTREE"> T  </i>
   <i type="int" name="IBSE">     0</i>
   <v type="int" name="KPOINT">    -1     0     0     0</v>
   <i type="logical" name="LTCTC"> F  </i>
   <i type="logical" name="LTCTE"> F  </i>
   <i type="logical" name="LTETE"> F  </i>
   <i type="logical" name="LTRIPLET"> F  </i>
   <i type="logical" name="LFXCEPS"> F  </i>
   <i type="logical" name="LFXHEG"> F  </i>
   <i type="int" name="NATURALO">     2</i>
   <i type="logical" name="LHOLEGF"> F  </i>
   <i type="logical" name="L2ORDER"> F  </i>
   <i type="logical" name="LDMP1"> F  </i>
   <i type="logical" name="LMP2LT"> F  </i>
   <i type="logical" name="LSMP2LT"> F  </i>
   <i type="logical" name="LGWLF"> F  </i>
   <i name="ENCUTGW">     -2.00000000</i>
   <i name="ENCUTGWSOFT">     -2.00000000</i>
   <i name="ENCUTLF">     -1.00000000</i>
   <i type="logical" name="LESF_SPLINES"> F  </i>
   <i type="int" name="LMAXMP2">    -1</i>
   <i name="SCISSOR">      0.00000000</i>
   <i type="int" name="NOMEGA">     0</i>
   <i type="int" name="NOMEGAR">     0</i>
   <i type="int" name="NBANDSGW">    -1</i>
   <i type="int" name="NBANDSO">    -1</i>
   <i type="int" name="NBANDSV">    -1</i>
   <i type="int" name="NELM">     1</i>
   <i type="int" name="NELMHF">     1</i>
   <i type="int" name="DIM">     3</i>
   <i type="int" name="IESPILON">     4</i>
   <i type="int" name="ANTIRES">     0</i>
   <i name="OMEGAMAX">    -30.00000000</i>
   <i name="OMEGAMIN">    -30.00000000</i>
   <i name="OMEGATL">   -200.00000000</i>
   <i type="int" name="OMEGAGRID">     0</i>
   <i name="CSHIFT">     -0.10000000</i>
   <i type="logical" name="LSELFENERGY"> F  </i>
   <i type="logical" name="LSPECTRAL"> F  </i>
   <i type="logical" name="LSPECTRALGW"> F  </i>
   <i type="logical" name="LSINGLES"> F  </i>
   <i type="logical" name="LFERMIGW"> F  </i>
   <i type="logical" name="ODDONLYGW"> F  </i>
   <i type="logical" name="EVENONLYGW"> F  </i>
   <i type="int" name="NKREDLFX">     1</i>
   <i type="int" name="NKREDLFY">     1</i>
   <i type="int" name="NKREDLFZ">     1</i>
   <i type="int" name="MAXMEM">  2800</i>
   <i type="int" name="TELESCOPE">     0</i>
   <i type="int" name="NTAUPAR">    -1</i>
   <i type="int" name="NOMEGAPAR">    -1</i>
   <i name="LAMBDA">      1.00000000</i>
  </separator>
  <separator name="External order field" >
   <i name="OFIELD_KAPPA">      0.00000000</i>
   <v name="OFIELD_K">      0.00000000      0.00000000      0.00000000</v>
   <i name="OFIELD_Q6_NEAR">      0.00000000</i>
   <i name="OFIELD_Q6_FAR">      0.00000000</i>
   <i name="OFIELD_A">      0.00000000</i>
  </separator>
 </parameters>
 <atominfo>
  <atoms>      16 </atoms>
  <types>       1 </types>
  <array name="atoms" >
   <dimension dim="1">ion</dimension>
   <field type="string">element</field>
   <field type="int">atomtype</field>
   <set>
    <rc><c>Pd</c><c>   1</c></rc>
    <rc><c>Pd</c><c>   1</c></rc>
    <rc><c>Pd</c><c>   1</c></rc>
    <rc><c>Pd</c><c>   1</c></rc>
    <rc><c>Pd</c><c>   1</c></rc>
    <rc><c>Pd</c><c>   1</c></rc>
    <rc><c>Pd</c><c>   1</c></rc>
    <rc><c>Pd</c><c>   1</c></rc>
    <rc><c>Pd</c><c>   1</c></rc>
    <rc><c>Pd</c><c>   1</c></rc>
    <rc><c>Pd</c><c>   1</c></rc>
    <rc><c>Pd</c><c>   1</c></rc>
    <rc><c>Pd</c><c>   1</c></rc>
    <rc><c>Pd</c><c>   1</c></rc>
    <rc><c>Pd</c><c>   1</c></rc>
    <rc><c>Pd</c><c>   1</c></rc>
   </set>
  </array>
  <array name="atomtypes" >
   <dimension dim="1">type</dimension>
   <field type="int">atomspertype</field>
   <field type="string">element</field>
   <field>mass</field>
   <field>valence</field>
   <field type="string">pseudopotential</field>
   <set>
    <rc><c>  16</c><c>Pd</c><c>    106.42000000</c><c>     10.00000000</c><c>  PAW_PBE Pd 04Jan2005                  </c></rc>
   </set>
  </array>
 </atominfo>
 <structure name="initialpos" >
  <crystal>
   <varray name="basis" >
    <v>      23.74183393       0.00000000       0.00000000 </v>
    <v>       0.00000000      25.63324930       0.00000000 </v>
    <v>       0.00000000       0.00000000      24.24635478 </v>
   </varray>
   <i name="volume">  14755.85502514 </i>
   <varray name="rec_basis" >
    <v>       0.04211975       0.00000000       0.00000000 </v>
    <v>       0.00000000       0.03901183       0.00000000 </v>
    <v>       0.00000000       0.00000000       0.04124331 </v>
   </varray>
  </crystal>
  <varray name="positions" >
   <v>       0.62269133       0.55881436       0.46272737 </v>
   <v>       0.53829428       0.60892418       0.51036871 </v>
   <v>       0.58306087       0.51516734       0.37434400 </v>
   <v>       0.54850608       0.60622422       0.40389244 </v>
   <v>       0.59846810       0.45874569       0.46104744 </v>
   <v>       0.57918141       0.52417979       0.55481956 </v>
   <v>       0.51321683       0.52316133       0.45688214 </v>
   <v>       0.51757164       0.44426626       0.53178011 </v>
   <v>       0.50650405       0.47797859       0.63196111 </v>
   <v>       0.46882269       0.53933900       0.55723609 </v>
   <v>       0.48277076       0.42260854       0.43428908 </v>
   <v>       0.41295747       0.48763022       0.48300631 </v>
   <v>       0.47304893       0.35287993       0.51697857 </v>
   <v>       0.50091403       0.37956577       0.61541423 </v>
   <v>       0.41840072       0.43276909       0.57393181 </v>
   <v>       0.38542743       0.39255625       0.47716369 </v>
  </varray>
 </structure>
 <calculation>
  <scstep>
   <time name="dav">   34.91   35.00</time>
   <time name="total">   39.58   39.69</time>
   <energy>
    <i name="alphaZ">     11.30727943 </i>
    <i name="ewald">  26113.85111003 </i>
    <i name="hartreedc"> -38409.13194075 </i>
    <i name="XCdc">   -479.62790872 </i>
    <i name="pawpsdc">  12906.36685261 </i>
    <i name="pawaedc"> -11910.91650437 </i>
    <i name="eentropy">      0.03948536 </i>
    <i name="bandstr">    242.26544449 </i>
    <i name="atom">  12955.90228127 </i>
    <i name="e_fr_energy">   1430.05609934 </i>
    <i name="e_wo_entrp">   1430.01661399 </i>
    <i name="e_0_energy">   1430.04293756 </i>
   </energy>
  </scstep>
  <scstep>
   <time name="dav">   55.63   55.74</time>
   <time name="total">   55.63   55.75</time>
   <energy>
    <i name="e_fr_energy">    744.69993149 </i>
    <i name="e_wo_entrp">    744.67182733 </i>
    <i name="e_0_energy">    744.69056344 </i>
   </energy>
  </scstep>
  <scstep>
   <time name="dav">   48.68   48.81</time>
   <time name="total">   48.69   48.82</time>
   <energy>
    <i name="e_fr_energy">    143.62206977 </i>
    <i name="e_wo_entrp">    143.63218811 </i>
    <i name="e_0_energy">    143.62544255 </i>
   </energy>
  </scstep>
  <scstep>
   <time name="dav">   42.57   42.64</time>
   <time name="total">   42.57   42.65</time>
   <energy>
    <i name="e_fr_energy">    -40.17176499 </i>
    <i name="e_wo_entrp">    -40.14996839 </i>
    <i name="e_0_energy">    -40.16449945 </i>
   </energy>
  </scstep>
  <scstep>
   <time name="dav">   43.46   43.54</time>
   <time name="total">   45.70   45.79</time>
   <energy>
    <i name="e_fr_energy">    -62.91518721 </i>
    <i name="e_wo_entrp">    -62.91087432 </i>
    <i name="e_0_energy">    -62.91374958 </i>
   </energy>
  </scstep>
  <scstep>
   <time name="dav">   35.29   35.37</time>
   <time name="total">   42.30   42.41</time>
   <energy>
    <i name="e_fr_energy">    -56.75906171 </i>
    <i name="e_wo_entrp">    -56.78637158 </i>
    <i name="e_0_energy">    -56.76816500 </i>
   </energy>
  </scstep>
  <scstep>
   <time name="dav">   33.76   33.83</time>
   <time name="total">   40.81   40.90</time>
   <energy>
    <i name="e_fr_energy">    -59.44847562 </i>
    <i name="e_wo_entrp">    -59.43344980 </i>
    <i name="e_0_energy">    -59.44346702 </i>
   </energy>
  </scstep>
  <scstep>
   <time name="dav">   34.12   34.20</time>
   <time name="total">   41.18   41.27</time>
   <energy>
    <i name="e_fr_energy">    -49.54138852 </i>
    <i name="e_wo_entrp">    -49.53374484 </i>
    <i name="e_0_energy">    -49.53884063 </i>
   </energy>
  </scstep>
  <scstep>
   <time name="dav">   36.18   36.29</time>
   <time name="total">   43.25   43.39</time>
   <energy>
    <i name="e_fr_energy">    -46.38283032 </i>
    <i name="e_wo_entrp">    -46.36944523 </i>
    <i name="e_0_energy">    -46.37836862 </i>
   </energy>
  </scstep>
  <scstep>
   <time name="dav">   36.73   36.82</time>
   <time name="total">   43.75   43.86</time>
   <energy>
    <i name="e_fr_energy">    -46.37241861 </i>
    <i name="e_wo_entrp">    -46.35076254 </i>
    <i name="e_0_energy">    -46.36519992 </i>
   </energy>
  </scstep>
  <scstep>
   <time name="dav">   36.12   36.20</time>
   <time name="total">   43.34   43.45</time>
   <energy>
    <i name="e_fr_energy">    -47.64327437 </i>
    <i name="e_wo_entrp">    -47.60630213 </i>
    <i name="e_0_energy">    -47.63095029 </i>
   </energy>
  </scstep>
  <scstep>
   <time name="dav">   35.59   35.66</time>
   <time name="total">   42.75   42.85</time>
   <energy>
    <i name="e_fr_energy">    -48.85932403 </i>
    <i name="e_wo_entrp">    -48.84729493 </i>
    <i name="e_0_energy">    -48.85531433 </i>
   </energy>
  </scstep>
  <scstep>
   <time name="dav">   36.24   36.32</time>
   <time name="total">   43.59   43.68</time>
   <energy>
    <i name="e_fr_energy">    -50.89113319 </i>
    <i name="e_wo_entrp">    -50.89095573 </i>
    <i name="e_0_energy">    -50.89107403 </i>
   </energy>
  </scstep>
  <scstep>
   <time name="dav">   36.09   36.15</time>
   <time name="total">   43.29   43.37</time>
   <energy>
    <i name="e_fr_energy">    -52.94611592 </i>
    <i name="e_wo_entrp">    -52.93970315 </i>
    <i name="e_0_energy">    -52.94397833 </i>
   </energy>
  </scstep>
  <scstep>
   <time name="dav">   37.99   38.06</time>
   <time name="total">   45.34   45.43</time>
   <energy>
    <i name="e_fr_energy">    -54.18903707 </i>
    <i name="e_wo_entrp">    -54.17124599 </i>
    <i name="e_0_energy">    -54.18310671 </i>
   </energy>
  </scstep>
  <scstep>
   <time name="dav">   34.06   34.12</time>
   <time name="total">   41.52   41.63</time>
   <energy>
    <i name="e_fr_energy">    -54.65435187 </i>
    <i name="e_wo_entrp">    -54.64434372 </i>
    <i name="e_0_energy">    -54.65101582 </i>
   </energy>
  </scstep>
  <scstep>
   <time name="dav">   32.90   32.98</time>
   <time name="total">   40.39   40.50</time>
   <energy>
    <i name="e_fr_energy">    -55.80432004 </i>
    <i name="e_wo_entrp">    -55.79498196 </i>
    <i name="e_0_energy">    -55.80120735 </i>
   </energy>
  </scstep>
  <scstep>
   <time name="dav">   36.24   36.31</time>
   <time name="total">   43.70   43.80</time>
   <energy>
    <i name="e_fr_energy">    -56.32599845 </i>
    <i name="e_wo_entrp">    -56.31746160 </i>
    <i name="e_0_energy">    -56.32315283 </i>
   </energy>
  </scstep>
  <scstep>
   <time name="dav">   34.34   34.41</time>
   <time name="total">   41.70   41.79</time>
   <energy>
    <i name="e_fr_energy">    -57.09010027 </i>
    <i name="e_wo_entrp">    -57.08386485 </i>
    <i name="e_0_energy">    -57.08802180 </i>
   </energy>
  </scstep>
  <scstep>
   <time name="dav">   35.57   35.64</time>
   <time name="total">   42.83   43.23</time>
   <energy>
    <i name="e_fr_energy">    -57.71920328 </i>
    <i name="e_wo_entrp">    -57.71525655 </i>
    <i name="e_0_energy">    -57.71788770 </i>
   </energy>
  </scstep>
  <scstep>
   <time name="dav">   35.13   35.21</time>
   <time name="total">   42.74   42.84</time>
   <energy>
    <i name="e_fr_energy">    -58.23521212 </i>
    <i name="e_wo_entrp">    -58.23299168 </i>
    <i name="e_0_energy">    -58.23447197 </i>
   </energy>
  </scstep>
  <scstep>
   <time name="dav">   32.61   32.68</time>
   <time name="total">   40.05   40.13</time>
   <energy>
    <i name="e_fr_energy">    -58.56540556 </i>
    <i name="e_wo_entrp">    -58.56206028 </i>
    <i name="e_0_energy">    -58.56429046 </i>
   </energy>
  </scstep>
  <scstep>
   <time name="dav">   32.48   32.55</time>
   <time name="total">   39.77   39.87</time>
   <energy>
    <i name="e_fr_energy">    -59.08025279 </i>
    <i name="e_wo_entrp">    -59.07886942 </i>
    <i name="e_0_energy">    -59.07979167 </i>
   </energy>
  </scstep>
  <scstep>
   <time name="dav">   32.83   32.89</time>
   <time name="total">   40.20   40.29</time>
   <energy>
    <i name="e_fr_energy">    -59.51981665 </i>
    <i name="e_wo_entrp">    -59.51920406 </i>
    <i name="e_0_energy">    -59.51961245 </i>
   </energy>
  </scstep>
  <scstep>
   <time name="dav">   33.88   33.94</time>
   <time name="total">   41.90   41.98</time>
   <energy>
    <i name="e_fr_energy">    -59.81398505 </i>
    <i name="e_wo_entrp">    -59.81422232 </i>
    <i name="e_0_energy">    -59.81406414 </i>
   </energy>
  </scstep>
  <scstep>
   <time name="dav">   35.16   35.29</time>
   <time name="total">   42.98   43.16</time>
   <energy>
    <i name="e_fr_energy">    -60.13314560 </i>
    <i name="e_wo_entrp">    -60.13357269 </i>
    <i name="e_0_energy">    -60.13328796 </i>
   </energy>
  </scstep>
  <scstep>
   <time name="dav">   35.58   35.71</time>
   <time name="total">   43.19   43.35</time>
   <energy>
    <i name="e_fr_energy">    -60.35415038 </i>
    <i name="e_wo_entrp">    -60.35294506 </i>
    <i name="e_0_energy">    -60.35374861 </i>
   </energy>
  </scstep>
  <scstep>
   <time name="dav">   34.44   34.61</time>
   <time name="total">   42.04   42.28</time>
   <energy>
    <i name="e_fr_energy">    -60.59464559 </i>
    <i name="e_wo_entrp">    -60.59377249 </i>
    <i name="e_0_energy">    -60.59435455 </i>
   </energy>
  </scstep>
  <scstep>
   <time name="dav">   35.08   35.20</time>
   <time name="total">   42.88   43.12</time>
   <energy>
    <i name="e_fr_energy">    -60.70726774 </i>
    <i name="e_wo_entrp">    -60.70641907 </i>
    <i name="e_0_energy">    -60.70698485 </i>
   </energy>
  </scstep>
  <scstep>
   <time name="dav">   32.57   32.87</time>
   <time name="total">   40.46   40.87</time>
   <energy>
    <i name="e_fr_energy">    -60.81039775 </i>
    <i name="e_wo_entrp">    -60.80964106 </i>
    <i name="e_0_energy">    -60.81014552 </i>
   </energy>
  </scstep>
  <scstep>
   <time name="dav">   32.01   32.21</time>
   <time name="total">   40.08   40.43</time>
   <energy>
    <i name="e_fr_energy">    -60.89137884 </i>
    <i name="e_wo_entrp">    -60.88995085 </i>
    <i name="e_0_energy">    -60.89090285 </i>
   </energy>
  </scstep>
  <scstep>
   <time name="dav">   28.67   28.97</time>
   <time name="total">   36.60   37.00</time>
   <energy>
    <i name="e_fr_energy">    -60.94132458 </i>
    <i name="e_wo_entrp">    -60.94007004 </i>
    <i name="e_0_energy">    -60.94090640 </i>
   </energy>
  </scstep>
  <scstep>
   <time name="dav">   26.20   26.50</time>
   <time name="total">   34.17   34.62</time>
   <energy>
    <i name="e_fr_energy">    -60.96563376 </i>
    <i name="e_wo_entrp">    -60.96400038 </i>
    <i name="e_0_energy">    -60.96508930 </i>
   </energy>
  </scstep>
  <scstep>
   <time name="dav">   26.02   26.36</time>
   <time name="total">   34.16   34.58</time>
   <energy>
    <i name="e_fr_energy">    -60.98598338 </i>
    <i name="e_wo_entrp">    -60.98438598 </i>
    <i name="e_0_energy">    -60.98545091 </i>
   </energy>
  </scstep>
  <scstep>
   <time name="dav">   24.19   24.53</time>
   <time name="total">   32.54   33.07</time>
   <energy>
    <i name="e_fr_energy">    -60.99817149 </i>
    <i name="e_wo_entrp">    -60.99653646 </i>
    <i name="e_0_energy">    -60.99762648 </i>
   </energy>
  </scstep>
  <scstep>
   <time name="dav">   26.04   26.19</time>
   <time name="total">   34.19   34.71</time>
   <energy>
    <i name="e_fr_energy">    -61.00287826 </i>
    <i name="e_wo_entrp">    -61.00132871 </i>
    <i name="e_0_energy">    -61.00236174 </i>
   </energy>
  </scstep>
  <scstep>
   <time name="dav">   26.17   26.37</time>
   <time name="total">   34.53   34.80</time>
   <energy>
    <i name="e_fr_energy">    -61.00604262 </i>
    <i name="e_wo_entrp">    -61.00439314 </i>
    <i name="e_0_energy">    -61.00549279 </i>
   </energy>
  </scstep>
  <scstep>
   <time name="dav">   25.27   25.50</time>
   <time name="total">   33.41   33.76</time>
   <energy>
    <i name="e_fr_energy">    -61.00811913 </i>
    <i name="e_wo_entrp">    -61.00643128 </i>
    <i name="e_0_energy">    -61.00755652 </i>
   </energy>
  </scstep>
  <scstep>
   <time name="dav">   26.24   26.54</time>
   <time name="total">   34.74   35.14</time>
   <energy>
    <i name="e_fr_energy">    -61.00972076 </i>
    <i name="e_wo_entrp">    -61.00803409 </i>
    <i name="e_0_energy">    -61.00915854 </i>
   </energy>
  </scstep>
  <scstep>
   <time name="dav">   25.76   25.83</time>
   <time name="total">   34.21   34.35</time>
   <energy>
    <i name="e_fr_energy">    -61.01070634 </i>
    <i name="e_wo_entrp">    -61.00900357 </i>
    <i name="e_0_energy">    -61.01013875 </i>
   </energy>
  </scstep>
  <scstep>
   <time name="dav">   25.51   25.57</time>
   <time name="total">   33.93   34.02</time>
   <energy>
    <i name="e_fr_energy">    -61.01155445 </i>
    <i name="e_wo_entrp">    -61.00984215 </i>
    <i name="e_0_energy">    -61.01098368 </i>
   </energy>
  </scstep>
  <scstep>
   <time name="dav">   25.79   25.86</time>
   <time name="total">   34.54   34.64</time>
   <energy>
    <i name="e_fr_energy">    -61.01208503 </i>
    <i name="e_wo_entrp">    -61.01035924 </i>
    <i name="e_0_energy">    -61.01150977 </i>
   </energy>
  </scstep>
  <scstep>
   <time name="dav">   25.00   25.05</time>
   <time name="total">   33.19   33.71</time>
   <energy>
    <i name="e_fr_energy">    -61.01228144 </i>
    <i name="e_wo_entrp">    -61.01055504 </i>
    <i name="e_0_energy">    -61.01170598 </i>
   </energy>
  </scstep>
  <scstep>
   <time name="dav">   22.77   22.90</time>
   <time name="total">   31.23   31.40</time>
   <energy>
    <i name="e_fr_energy">    -61.01243507 </i>
    <i name="e_wo_entrp">    -61.01070796 </i>
    <i name="e_0_energy">    -61.01185937 </i>
   </energy>
  </scstep>
  <scstep>
   <time name="dav">   23.06   23.19</time>
   <time name="total">   28.14   28.41</time>
   <energy>
    <i name="alphaZ">     11.30727943 </i>
    <i name="ewald">  26113.85111003 </i>
    <i name="hartreedc"> -38655.00984775 </i>
    <i name="XCdc">   -479.61357709 </i>
    <i name="pawpsdc">  14936.88822375 </i>
    <i name="pawaedc"> -13962.74666163 </i>
    <i name="eentropy">     -0.00172780 </i>
    <i name="bandstr">   -981.58960797 </i>
    <i name="atom">  12955.90228127 </i>
    <i name="e_fr_energy">    -61.01252776 </i>
    <i name="e_wo_entrp">    -61.01079996 </i>
    <i name="e_0_energy">    -61.01195183 </i>
   </energy>
  </scstep>
  <structure>
   <crystal>
    <varray name="basis" >
     <v>      23.74183393       0.00000000       0.00000000 </v>
     <v>       0.00000000      25.63324930       0.00000000 </v>
     <v>       0.00000000       0.00000000      24.24635478 </v>
    </varray>
    <i name="volume">  14755.85502514 </i>
    <varray name="rec_basis" >
     <v>       0.04211975       0.00000000       0.00000000 </v>
     <v>       0.00000000       0.03901183       0.00000000 </v>
     <v>       0.00000000       0.00000000       0.04124331 </v>
    </varray>
   </crystal>
   <varray name="positions" >
    <v>       0.62269133       0.55881436       0.46272737 </v>
    <v>       0.53829428       0.60892418       0.51036871 </v>
    <v>       0.58306087       0.51516734       0.37434400 </v>
    <v>       0.54850608       0.60622422       0.40389244 </v>
    <v>       0.59846810       0.45874569       0.46104744 </v>
    <v>       0.57918141       0.52417979       0.55481956 </v>
    <v>       0.51321683       0.52316133       0.45688214 </v>
    <v>       0.51757164       0.44426626       0.53178011 </v>
    <v>       0.50650405       0.47797859       0.63196111 </v>
    <v>       0.46882269       0.53933900       0.55723609 </v>
    <v>       0.48277076       0.42260854       0.43428908 </v>
    <v>       0.41295747       0.48763022       0.48300631 </v>
    <v>       0.47304893       0.35287993       0.51697857 </v>
    <v>       0.50091403       0.37956577       0.61541423 </v>
    <v>       0.41840072       0.43276909       0.57393181 </v>
    <v>       0.38542743       0.39255625       0.47716369 </v>
   </varray>
  </structure>
  <varray name="forces" >
   <v>       1.15157468       0.27178126       0.17499184 </v>
   <v>      -0.40044490       0.59298914       0.59909727 </v>
   <v>       0.08510841      -0.36753350      -0.89628190 </v>
   <v>      -0.31597449       0.74542890      -0.58621585 </v>
   <v>       0.27142496      -0.89573876       0.20646573 </v>
   <v>       0.40834633      -0.27799069       0.68376326 </v>
   <v>      -1.06987146      -0.12112052      -0.27737660 </v>
   <v>       0.55200292      -0.25847643      -0.25977376 </v>
   <v>       0.18748458       0.27925906       0.63149356 </v>
   <v>      -0.38825211       0.82821059       0.03585093 </v>
   <v>       0.49673030      -0.02775572      -0.67394830 </v>
   <v>      -0.43417992       0.56764841      -0.30555295 </v>
   <v>       0.38498111      -0.66742122      -0.08899513 </v>
   <v>       0.36224118      -0.72052134       0.70204902 </v>
   <v>      -0.50324790       0.27320139       0.31208815 </v>
   <v>      -0.78792370      -0.22196058      -0.25765528 </v>
  </varray>
  <energy>
   <i name="e_fr_energy">    -61.01252776 </i>
   <i name="e_wo_entrp">    -61.01079996 </i>
   <i name="e_0_energy">    -61.01195183 </i>
  </energy>
  <time name="totalsc"> 1821.89 1831.03</time>
 </calculation>
 <calculation>
  <scstep>
   <time name="dav">   32.15   32.26</time>
   <time name="total">   40.00   40.14</time>
   <energy>
    <i name="alphaZ">     11.30727943 </i>
    <i name="ewald">  25539.19099471 </i>
    <i name="hartreedc"> -38088.93707115 </i>
    <i name="XCdc">   -481.14236737 </i>
    <i name="pawpsdc">  14936.88832855 </i>
    <i name="pawaedc"> -13962.74688710 </i>
    <i name="eentropy">      0.00734632 </i>
    <i name="bandstr">   -971.63863162 </i>
    <i name="atom">  12955.90228127 </i>
    <i name="e_fr_energy">    -61.16872697 </i>
    <i name="e_wo_entrp">    -61.17607329 </i>
    <i name="e_0_energy">    -61.17117574 </i>
   </energy>
  </scstep>
  <scstep>
   <time name="dav">   33.03   33.14</time>
   <time name="total">   40.42   40.59</time>
   <energy>
    <i name="e_fr_energy">    -61.52154828 </i>
    <i name="e_wo_entrp">    -61.49765448 </i>
    <i name="e_0_energy">    -61.51358368 </i>
   </energy>
  </scstep>
  <scstep>
   <time name="dav">   32.82   32.95</time>
   <time name="total">   40.43   40.63</time>
   <energy>
    <i name="e_fr_energy">    -61.47625810 </i>
    <i name="e_wo_entrp">    -61.48853386 </i>
    <i name="e_0_energy">    -61.48035002 </i>
   </energy>
  </scstep>
  <scstep>
   <time name="dav">   35.90   36.04</time>
   <time name="total">   43.59   43.77</time>
   <energy>
    <i name="e_fr_energy">    -61.46842160 </i>
    <i name="e_wo_entrp">    -61.48128828 </i>
    <i name="e_0_energy">    -61.47271049 </i>
   </energy>
  </scstep>
  <scstep>
   <time name="dav">   35.05   35.18</time>
   <time name="total">   42.93   43.09</time>
   <energy>
    <i name="e_fr_energy">    -61.38921609 </i>
    <i name="e_wo_entrp">    -61.39959053 </i>
    <i name="e_0_energy">    -61.39267424 </i>
   </energy>
  </scstep>
  <scstep>
   <time name="dav">   32.99   33.10</time>
   <time name="total">   40.64   40.78</time>
   <energy>
    <i name="e_fr_energy">    -61.38760534 </i>
    <i name="e_wo_entrp">    -61.38555802 </i>
    <i name="e_0_energy">    -61.38692290 </i>
   </energy>
  </scstep>
  <scstep>
   <time name="dav">   32.37   32.49</time>
   <time name="total">   40.05   40.19</time>
   <energy>
    <i name="e_fr_energy">    -61.38478460 </i>
    <i name="e_wo_entrp">    -61.38329994 </i>
    <i name="e_0_energy">    -61.38428971 </i>
   </energy>
  </scstep>
  <scstep>
   <time name="dav">   33.93   34.04</time>
   <time name="total">   41.76   41.90</time>
   <energy>
    <i name="e_fr_energy">    -61.37819874 </i>
    <i name="e_wo_entrp">    -61.38003425 </i>
    <i name="e_0_energy">    -61.37881058 </i>
   </energy>
  </scstep>
  <scstep>
   <time name="dav">   33.72   33.89</time>
   <time name="total">   41.46   41.66</time>
   <energy>
    <i name="e_fr_energy">    -61.37924297 </i>
    <i name="e_wo_entrp">    -61.38076479 </i>
    <i name="e_0_energy">    -61.37975024 </i>
   </energy>
  </scstep>
  <scstep>
   <time name="dav">   34.28   34.38</time>
   <time name="total">   42.04   42.19</time>
   <energy>
    <i name="e_fr_energy">    -61.37933976 </i>
    <i name="e_wo_entrp">    -61.38066733 </i>
    <i name="e_0_energy">    -61.37978228 </i>
   </energy>
  </scstep>
  <scstep>
   <time name="dav">   34.07   34.21</time>
   <time name="total">   41.55   41.73</time>
   <energy>
    <i name="e_fr_energy">    -61.37996121 </i>
    <i name="e_wo_entrp">    -61.38101815 </i>
    <i name="e_0_energy">    -61.38031353 </i>
   </energy>
  </scstep>
  <scstep>
   <time name="dav">   30.19   30.28</time>
   <time name="total">   37.76   37.88</time>
   <energy>
    <i name="e_fr_energy">    -61.38054378 </i>
    <i name="e_wo_entrp">    -61.38119728 </i>
    <i name="e_0_energy">    -61.38076161 </i>
   </energy>
  </scstep>
  <scstep>
   <time name="dav">   25.24   25.32</time>
   <time name="total">   32.90   33.02</time>
   <energy>
    <i name="e_fr_energy">    -61.38087235 </i>
    <i name="e_wo_entrp">    -61.38128185 </i>
    <i name="e_0_energy">    -61.38100885 </i>
   </energy>
  </scstep>
  <scstep>
   <time name="dav">   24.22   24.33</time>
   <time name="total">   31.81   31.97</time>
   <energy>
    <i name="e_fr_energy">    -61.38126877 </i>
    <i name="e_wo_entrp">    -61.38171413 </i>
    <i name="e_0_energy">    -61.38141722 </i>
   </energy>
  </scstep>
  <scstep>
   <time name="dav">   24.06   24.15</time>
   <time name="total">   32.02   32.13</time>
   <energy>
    <i name="e_fr_energy">    -61.38149804 </i>
    <i name="e_wo_entrp">    -61.38198979 </i>
    <i name="e_0_energy">    -61.38166196 </i>
   </energy>
  </scstep>
  <scstep>
   <time name="dav">   22.50   22.59</time>
   <time name="total">   30.32   30.47</time>
   <energy>
    <i name="e_fr_energy">    -61.38180211 </i>
    <i name="e_wo_entrp">    -61.38224146 </i>
    <i name="e_0_energy">    -61.38194856 </i>
   </energy>
  </scstep>
  <scstep>
   <time name="dav">   22.63   22.70</time>
   <time name="total">   30.89   31.31</time>
   <energy>
    <i name="e_fr_energy">    -61.38199955 </i>
    <i name="e_wo_entrp">    -61.38247932 </i>
    <i name="e_0_energy">    -61.38215948 </i>
   </energy>
  </scstep>
  <scstep>
   <time name="dav">   22.23   22.32</time>
   <time name="total">   30.19   30.34</time>
   <energy>
    <i name="e_fr_energy">    -61.38216713 </i>
    <i name="e_wo_entrp">    -61.38258085 </i>
    <i name="e_0_energy">    -61.38230503 </i>
   </energy>
  </scstep>
  <scstep>
   <time name="dav">   22.57   22.65</time>
   <time name="total">   30.62   30.73</time>
   <energy>
    <i name="e_fr_energy">    -61.38229231 </i>
    <i name="e_wo_entrp">    -61.38271407 </i>
    <i name="e_0_energy">    -61.38243290 </i>
   </energy>
  </scstep>
  <scstep>
   <time name="dav">   23.22   23.27</time>
   <time name="total">   31.15   31.23</time>
   <energy>
    <i name="e_fr_energy">    -61.38247458 </i>
    <i name="e_wo_entrp">    -61.38291979 </i>
    <i name="e_0_energy">    -61.38262298 </i>
   </energy>
  </scstep>
  <scstep>
   <time name="dav">   24.04   24.13</time>
   <time name="total">   32.07   32.20</time>
   <energy>
    <i name="e_fr_energy">    -61.38268546 </i>
    <i name="e_wo_entrp">    -61.38314245 </i>
    <i name="e_0_energy">    -61.38283779 </i>
   </energy>
  </scstep>
  <scstep>
   <time name="dav">   24.42   24.51</time>
   <time name="total">   32.33   32.44</time>
   <energy>
    <i name="e_fr_energy">    -61.38279681 </i>
    <i name="e_wo_entrp">    -61.38326971 </i>
    <i name="e_0_energy">    -61.38295444 </i>
   </energy>
  </scstep>
  <scstep>
   <time name="dav">   23.49   23.60</time>
   <time name="total">   31.54   31.71</time>
   <energy>
    <i name="e_fr_energy">    -61.38292403 </i>
    <i name="e_wo_entrp">    -61.38339185 </i>
    <i name="e_0_energy">    -61.38307997 </i>
   </energy>
  </scstep>
  <scstep>
   <time name="dav">   24.17   24.39</time>
   <time name="total">   29.50   29.75</time>
   <energy>
    <i name="alphaZ">     11.30727943 </i>
    <i name="ewald">  25539.19099471 </i>
    <i name="hartreedc"> -38098.77143764 </i>
    <i name="XCdc">   -480.89774898 </i>
    <i name="pawpsdc">  14682.08086860 </i>
    <i name="pawaedc"> -13704.35521336 </i>
    <i name="eentropy">      0.00047325 </i>
    <i name="bandstr">   -965.84051291 </i>
    <i name="atom">  12955.90228127 </i>
    <i name="e_fr_energy">    -61.38301564 </i>
    <i name="e_wo_entrp">    -61.38348889 </i>
    <i name="e_0_energy">    -61.38317339 </i>
   </energy>
  </scstep>
  <structure>
   <crystal>
    <varray name="basis" >
     <v>      23.74183393       0.00000000       0.00000000 </v>
     <v>       0.00000000      25.63324930       0.00000000 </v>
     <v>       0.00000000       0.00000000      24.24635478 </v>
    </varray>
    <i name="volume">  14755.85502514 </i>
    <varray name="rec_basis" >
     <v>       0.04211975       0.00000000       0.00000000 </v>
     <v>       0.00000000       0.03901183       0.00000000 </v>
     <v>       0.00000000       0.00000000       0.04124331 </v>
    </varray>
   </crystal>
   <varray name="positions" >
    <v>       0.62503129       0.55932586       0.46307554 </v>
    <v>       0.53748059       0.61004021       0.51156073 </v>
    <v>       0.58323381       0.51447563       0.37256068 </v>
    <v>       0.54786403       0.60762714       0.40272606 </v>
    <v>       0.59901962       0.45705988       0.46145824 </v>
    <v>       0.58001116       0.52365660       0.55618004 </v>
    <v>       0.51104289       0.52293338       0.45633025 </v>
    <v>       0.51869329       0.44377980       0.53126324 </v>
    <v>       0.50688501       0.47850416       0.63321758 </v>
    <v>       0.46803377       0.54089772       0.55730742 </v>
    <v>       0.48378010       0.42255630       0.43294814 </v>
    <v>       0.41207523       0.48869855       0.48239836 </v>
    <v>       0.47383120       0.35162382       0.51680150 </v>
    <v>       0.50165009       0.37820973       0.61681109 </v>
    <v>       0.41737814       0.43328327       0.57455277 </v>
    <v>       0.38382639       0.39213852       0.47665104 </v>
   </varray>
  </structure>
  <varray name="forces" >
   <v>       0.13274842       0.03174284      -0.02773044 </v>
   <v>      -0.12244351       0.02369225       0.14830101 </v>
   <v>      -0.05370703      -0.08674464      -0.04649239 </v>
   <v>      -0.04973913       0.05553500      -0.03697686 </v>
   <v>       0.08386868      -0.22671187      -0.05281303 </v>
   <v>       0.08212791      -0.10885814       0.22902048 </v>
   <v>      -0.07279054       0.19152911      -0.26852922 </v>
   <v>       0.01135325      -0.25338673       0.13857257 </v>
   <v>       0.07826656       0.09140875       0.10084913 </v>
   <v>      -0.13532387       0.39766243       0.07211903 </v>
   <v>       0.23528922      -0.01164637      -0.29217952 </v>
   <v>      -0.34559824       0.07924885      -0.13485385 </v>
   <v>       0.11790437      -0.10840669      -0.04797603 </v>
   <v>       0.11923706      -0.22964041       0.24616683 </v>
   <v>       0.07081583       0.16435177      -0.00360442 </v>
   <v>      -0.15200898      -0.00977614      -0.02387328 </v>
  </varray>
  <energy>
   <i name="e_fr_energy">    -61.38301564 </i>
   <i name="e_wo_entrp">    -61.38348889 </i>
   <i name="e_0_energy">    -61.38317339 </i>
  </energy>
  <time name="totalsc">  892.08  896.14</time>
 </calculation>
 <calculation>
  <scstep>
   <time name="dav">   31.65   32.09</time>
   <time name="total">   39.22   39.82</time>
   <energy>
    <i name="alphaZ">     11.30727943 </i>
    <i name="ewald">  25356.94966356 </i>
    <i name="hartreedc"> -37918.93711627 </i>
    <i name="XCdc">   -481.36625520 </i>
    <i name="pawpsdc">  14682.07325048 </i>
    <i name="pawaedc"> -13704.34772320 </i>
    <i name="eentropy">      0.00358021 </i>
    <i name="bandstr">   -962.96535605 </i>
    <i name="atom">  12955.90228127 </i>
    <i name="e_fr_energy">    -61.38039577 </i>
    <i name="e_wo_entrp">    -61.38397598 </i>
    <i name="e_0_energy">    -61.38158917 </i>
   </energy>
  </scstep>
  <scstep>
   <time name="dav">   32.80   33.41</time>
   <time name="total">   40.42   41.22</time>
   <energy>
    <i name="e_fr_energy">    -61.41780028 </i>
    <i name="e_wo_entrp">    -61.41223018 </i>
    <i name="e_0_energy">    -61.41594358 </i>
   </energy>
  </scstep>
  <scstep>
   <time name="dav">   33.13   33.26</time>
   <time name="total">   40.74   40.91</time>
   <energy>
    <i name="e_fr_energy">    -61.40947913 </i>
    <i name="e_wo_entrp">    -61.41230644 </i>
    <i name="e_0_energy">    -61.41042156 </i>
   </energy>
  </scstep>
  <scstep>
   <time name="dav">   33.02   33.13</time>
   <time name="total">   40.60   40.78</time>
   <energy>
    <i name="e_fr_energy">    -61.41071718 </i>
    <i name="e_wo_entrp">    -61.41519816 </i>
    <i name="e_0_energy">    -61.41221084 </i>
   </energy>
  </scstep>
  <scstep>
   <time name="dav">   31.82   31.93</time>
   <time name="total">   39.14   39.27</time>
   <energy>
    <i name="e_fr_energy">    -61.40344367 </i>
    <i name="e_wo_entrp">    -61.40758052 </i>
    <i name="e_0_energy">    -61.40482262 </i>
   </energy>
  </scstep>
  <scstep>
   <time name="dav">   32.31   32.47</time>
   <time name="total">   39.78   39.99</time>
   <energy>
    <i name="e_fr_energy">    -61.40364552 </i>
    <i name="e_wo_entrp">    -61.40416305 </i>
    <i name="e_0_energy">    -61.40381803 </i>
   </energy>
  </scstep>
  <scstep>
   <time name="dav">   32.73   33.25</time>
   <time name="total">   40.39   41.02</time>
   <energy>
    <i name="e_fr_energy">    -61.40362120 </i>
    <i name="e_wo_entrp">    -61.40375488 </i>
    <i name="e_0_energy">    -61.40366576 </i>
   </energy>
  </scstep>
  <scstep>
   <time name="dav">   32.95   33.29</time>
   <time name="total">   40.48   40.96</time>
   <energy>
    <i name="e_fr_energy">    -61.40287370 </i>
    <i name="e_wo_entrp">    -61.40434487 </i>
    <i name="e_0_energy">    -61.40336409 </i>
   </energy>
  </scstep>
  <scstep>
   <time name="dav">   29.33   29.91</time>
   <time name="total">   36.72   37.39</time>
   <energy>
    <i name="e_fr_energy">    -61.40309466 </i>
    <i name="e_wo_entrp">    -61.40470627 </i>
    <i name="e_0_energy">    -61.40363186 </i>
   </energy>
  </scstep>
  <scstep>
   <time name="dav">   23.11   23.61</time>
   <time name="total">   28.30   28.88</time>
   <energy>
    <i name="alphaZ">     11.30727943 </i>
    <i name="ewald">  25356.94966356 </i>
    <i name="hartreedc"> -37921.62411107 </i>
    <i name="XCdc">   -481.28954218 </i>
    <i name="pawpsdc">  14609.87894148 </i>
    <i name="pawaedc"> -13631.07503641 </i>
    <i name="eentropy">      0.00162963 </i>
    <i name="bandstr">   -961.45420080 </i>
    <i name="atom">  12955.90228127 </i>
    <i name="e_fr_energy">    -61.40309510 </i>
    <i name="e_wo_entrp">    -61.40472473 </i>
    <i name="e_0_energy">    -61.40363831 </i>
   </energy>
  </scstep>
  <structure>
   <crystal>
    <varray name="basis" >
     <v>      23.74183393       0.00000000       0.00000000 </v>
     <v>       0.00000000      25.63324930       0.00000000 </v>
     <v>       0.00000000       0.00000000      24.24635478 </v>
    </varray>
    <i name="volume">  14755.85502514 </i>
    <varray name="rec_basis" >
     <v>       0.04211975       0.00000000       0.00000000 </v>
     <v>       0.00000000       0.03901183       0.00000000 </v>
     <v>       0.00000000       0.00000000       0.04124331 </v>
    </varray>
   </crystal>
   <varray name="positions" >
    <v>       0.62579017       0.55949174       0.46318846 </v>
    <v>       0.53721670       0.61040215       0.51194731 </v>
    <v>       0.58328989       0.51425130       0.37198233 </v>
    <v>       0.54765580       0.60808213       0.40234778 </v>
    <v>       0.59919849       0.45651315       0.46159147 </v>
    <v>       0.58028025       0.52348693       0.55662125 </v>
    <v>       0.51033785       0.52285945       0.45615126 </v>
    <v>       0.51905705       0.44362203       0.53109561 </v>
    <v>       0.50700856       0.47867461       0.63362507 </v>
    <v>       0.46777792       0.54140323       0.55733056 </v>
    <v>       0.48410744       0.42253936       0.43251325 </v>
    <v>       0.41178911       0.48904503       0.48220119 </v>
    <v>       0.47408490       0.35121645       0.51674407 </v>
    <v>       0.50188880       0.37776995       0.61726411 </v>
    <v>       0.41704650       0.43345002       0.57475415 </v>
    <v>       0.38330716       0.39200304       0.47648478 </v>
   </varray>
  </structure>
  <varray name="forces" >
   <v>      -0.12500927      -0.03137985      -0.07542352 </v>
   <v>      -0.05014553      -0.12251043       0.02831744 </v>
   <v>      -0.09450947      -0.01407938       0.17816669 </v>
   <v>       0.01484808      -0.12443166       0.10416016 </v>
   <v>       0.03994208      -0.05159004      -0.12877965 </v>
   <v>      -0.00540081      -0.06321679       0.10809307 </v>
   <v>       0.19157341       0.27346000      -0.26484470 </v>
   <v>      -0.14312583      -0.25298226       0.24731575 </v>
   <v>       0.04850486       0.04090670      -0.04251743 </v>
   <v>      -0.06850905       0.27409255       0.07799195 </v>
   <v>       0.16773954      -0.00251597      -0.18153116 </v>
   <v>      -0.32759364      -0.06071820      -0.08179279 </v>
   <v>       0.04535137       0.04775375      -0.03606272 </v>
   <v>       0.05541277      -0.10054711       0.12083685 </v>
   <v>       0.22668048       0.13682663      -0.09563840 </v>
   <v>       0.02424101       0.05093206       0.04170847 </v>
  </varray>
  <energy>
   <i name="e_fr_energy">    -61.40309510 </i>
   <i name="e_wo_entrp">    -61.40472473 </i>
   <i name="e_0_energy">    -61.40363831 </i>
  </energy>
  <time name="totalsc">  408.19  413.21</time>
 </calculation>
 <calculation>
  <scstep>
   <time name="dav">   29.40   30.04</time>
   <time name="total">   36.74   37.63</time>
   <energy>
    <i name="alphaZ">     11.30727943 </i>
    <i name="ewald">  25301.14082302 </i>
    <i name="hartreedc"> -37866.58086042 </i>
    <i name="XCdc">   -481.41043679 </i>
    <i name="pawpsdc">  14609.99357921 </i>
    <i name="pawaedc"> -13631.19134863 </i>
    <i name="eentropy">      0.00544327 </i>
    <i name="bandstr">   -960.58288235 </i>
    <i name="atom">  12955.90228127 </i>
    <i name="e_fr_energy">    -61.41612199 </i>
    <i name="e_wo_entrp">    -61.42156527 </i>
    <i name="e_0_energy">    -61.41793642 </i>
   </energy>
  </scstep>
  <scstep>
   <time name="dav">   30.17   30.47</time>
   <time name="total">   37.50   37.86</time>
   <energy>
    <i name="e_fr_energy">    -61.46258576 </i>
    <i name="e_wo_entrp">    -61.46865999 </i>
    <i name="e_0_energy">    -61.46461050 </i>
   </energy>
  </scstep>
  <scstep>
   <time name="dav">   29.99   30.22</time>
   <time name="total">   37.22   37.49</time>
   <energy>
    <i name="e_fr_energy">    -61.43312149 </i>
    <i name="e_wo_entrp">    -61.43455499 </i>
    <i name="e_0_energy">    -61.43359932 </i>
   </energy>
  </scstep>
  <scstep>
   <time name="dav">   30.89   31.05</time>
   <time name="total">   38.17   38.35</time>
   <energy>
    <i name="e_fr_energy">    -61.43549884 </i>
    <i name="e_wo_entrp">    -61.44146215 </i>
    <i name="e_0_energy">    -61.43748661 </i>
   </energy>
  </scstep>
  <scstep>
   <time name="dav">   30.68   31.17</time>
   <time name="total">   38.07   38.60</time>
   <energy>
    <i name="e_fr_energy">    -61.43357080 </i>
    <i name="e_wo_entrp">    -61.43828610 </i>
    <i name="e_0_energy">    -61.43514256 </i>
   </energy>
  </scstep>
  <scstep>
   <time name="dav">   29.16   29.25</time>
   <time name="total">   35.85   35.96</time>
   <energy>
    <i name="e_fr_energy">    -61.43311277 </i>
    <i name="e_wo_entrp">    -61.43650148 </i>
    <i name="e_0_energy">    -61.43424234 </i>
   </energy>
  </scstep>
  <scstep>
   <time name="dav">   34.65   34.74</time>
   <time name="total">   41.97   42.57</time>
   <energy>
    <i name="e_fr_energy">    -61.43377920 </i>
    <i name="e_wo_entrp">    -61.43656168 </i>
    <i name="e_0_energy">    -61.43470669 </i>
   </energy>
  </scstep>
  <scstep>
   <time name="dav">   36.04   36.15</time>
   <time name="total">   44.14   44.29</time>
   <energy>
    <i name="e_fr_energy">    -61.43323384 </i>
    <i name="e_wo_entrp">    -61.43687492 </i>
    <i name="e_0_energy">    -61.43444753 </i>
   </energy>
  </scstep>
  <scstep>
   <time name="dav">   28.92   29.36</time>
   <time name="total">   36.86   37.42</time>
   <energy>
    <i name="e_fr_energy">    -61.43337466 </i>
    <i name="e_wo_entrp">    -61.43695005 </i>
    <i name="e_0_energy">    -61.43456646 </i>
   </energy>
  </scstep>
  <scstep>
   <time name="dav">   26.96   27.01</time>
   <time name="total">   32.32   32.45</time>
   <energy>
    <i name="alphaZ">     11.30727943 </i>
    <i name="ewald">  25301.14082302 </i>
    <i name="hartreedc"> -37867.39812439 </i>
    <i name="XCdc">   -481.39431530 </i>
    <i name="pawpsdc">  14590.39598500 </i>
    <i name="pawaedc"> -13611.33357774 </i>
    <i name="eentropy">      0.00352207 </i>
    <i name="bandstr">   -960.05721664 </i>
    <i name="atom">  12955.90228127 </i>
    <i name="e_fr_energy">    -61.43334328 </i>
    <i name="e_wo_entrp">    -61.43686536 </i>
    <i name="e_0_energy">    -61.43451731 </i>
   </energy>
  </scstep>
  <structure>
   <crystal>
    <varray name="basis" >
     <v>      23.74183393       0.00000000       0.00000000 </v>
     <v>       0.00000000      25.63324930       0.00000000 </v>
     <v>       0.00000000       0.00000000      24.24635478 </v>
    </varray>
    <i name="volume">  14755.85502514 </i>
    <varray name="rec_basis" >
     <v>       0.04211975       0.00000000       0.00000000 </v>
     <v>       0.00000000       0.03901183       0.00000000 </v>
     <v>       0.00000000       0.00000000       0.04124331 </v>
    </varray>
   </crystal>
   <varray name="positions" >
    <v>       0.62569031       0.55946616       0.46305405 </v>
    <v>       0.53704886       0.61023801       0.51209423 </v>
    <v>       0.58309801       0.51417264       0.37222977 </v>
    <v>       0.54764111       0.60793506       0.40248341 </v>
    <v>       0.59932513       0.45628682       0.46134858 </v>
    <v>       0.58032907       0.52332208       0.55694948 </v>
    <v>       0.51059384       0.52339087       0.45554988 </v>
    <v>       0.51882916       0.44307956       0.53158192 </v>
    <v>       0.50714130       0.47879492       0.63362662 </v>
    <v>       0.46757215       0.54206621       0.55750101 </v>
    <v>       0.48454400       0.42253051       0.43203085 </v>
    <v>       0.41101594       0.48900125       0.48198356 </v>
    <v>       0.47424008       0.35122055       0.51665475 </v>
    <v>       0.50206238       0.37746955       0.61762199 </v>
    <v>       0.41746242       0.43376173       0.57459680 </v>
    <v>       0.38324286       0.39207465       0.47653576 </v>
   </varray>
  </structure>
  <varray name="forces" >
   <v>      -0.10300039      -0.06205340      -0.01857637 </v>
   <v>      -0.02296568      -0.10177075       0.04413844 </v>
   <v>      -0.06398871      -0.03386454       0.09204883 </v>
   <v>       0.01348354      -0.03625184       0.06076201 </v>
   <v>      -0.04445420      -0.04118784      -0.03388656 </v>
   <v>      -0.08435074      -0.08612847       0.02440096 </v>
   <v>      -0.00469433       0.03547189      -0.03136100 </v>
   <v>      -0.02179677      -0.05478625       0.02136469 </v>
   <v>       0.03746572       0.04169056      -0.05474627 </v>
   <v>      -0.03902556       0.12115876      -0.02037030 </v>
   <v>       0.14515801       0.07875227      -0.05035943 </v>
   <v>      -0.11156224       0.02231506      -0.06743109 </v>
   <v>       0.02177658       0.03089805      -0.03495767 </v>
   <v>       0.02436789      -0.06651569       0.09622862 </v>
   <v>       0.18424104       0.12579159      -0.07085161 </v>
   <v>       0.06934584       0.02648061       0.04359674 </v>
  </varray>
  <energy>
   <i name="e_fr_energy">    -61.43334328 </i>
   <i name="e_wo_entrp">    -61.43686536 </i>
   <i name="e_0_energy">    -61.43451731 </i>
  </energy>
  <time name="totalsc">  403.42  407.86</time>
 </calculation>
 <calculation>
  <scstep>
   <time name="dav">   33.95   34.07</time>
   <time name="total">   41.90   42.05</time>
   <energy>
    <i name="alphaZ">     11.30727943 </i>
    <i name="ewald">  25267.66704408 </i>
    <i name="hartreedc"> -37834.34877355 </i>
    <i name="XCdc">   -481.46390959 </i>
    <i name="pawpsdc">  14590.35065068 </i>
    <i name="pawaedc"> -13611.28819553 </i>
    <i name="eentropy">      0.00623881 </i>
    <i name="bandstr">   -959.56464030 </i>
    <i name="atom">  12955.90228127 </i>
    <i name="e_fr_energy">    -61.43202470 </i>
    <i name="e_wo_entrp">    -61.43826352 </i>
    <i name="e_0_energy">    -61.43410431 </i>
   </energy>
  </scstep>
  <scstep>
   <time name="dav">   35.09   35.42</time>
   <time name="total">   42.97   43.38</time>
   <energy>
    <i name="e_fr_energy">    -61.45111326 </i>
    <i name="e_wo_entrp">    -61.45743262 </i>
    <i name="e_0_energy">    -61.45321971 </i>
   </energy>
  </scstep>
  <scstep>
   <time name="dav">   36.21   36.33</time>
   <time name="total">   44.15   44.63</time>
   <energy>
    <i name="e_fr_energy">    -61.43756868 </i>
    <i name="e_wo_entrp">    -61.44123178 </i>
    <i name="e_0_energy">    -61.43878971 </i>
   </energy>
  </scstep>
  <scstep>
   <time name="dav">   35.16   35.28</time>
   <time name="total">   43.12   43.30</time>
   <energy>
    <i name="e_fr_energy">    -61.43905408 </i>
    <i name="e_wo_entrp">    -61.44558357 </i>
    <i name="e_0_energy">    -61.44123058 </i>
   </energy>
  </scstep>
  <scstep>
   <time name="dav">   34.47   34.60</time>
   <time name="total">   42.63   42.81</time>
   <energy>
    <i name="e_fr_energy">    -61.43838639 </i>
    <i name="e_wo_entrp">    -61.44429176 </i>
    <i name="e_0_energy">    -61.44035485 </i>
   </energy>
  </scstep>
  <scstep>
   <time name="dav">   33.90   34.02</time>
   <time name="total">   41.96   42.10</time>
   <energy>
    <i name="e_fr_energy">    -61.43822325 </i>
    <i name="e_wo_entrp">    -61.44327315 </i>
    <i name="e_0_energy">    -61.43990655 </i>
   </energy>
  </scstep>
  <scstep>
   <time name="dav">   35.60   35.70</time>
   <time name="total">   43.55   43.68</time>
   <energy>
    <i name="e_fr_energy">    -61.43851745 </i>
    <i name="e_wo_entrp">    -61.44312115 </i>
    <i name="e_0_energy">    -61.44005202 </i>
   </energy>
  </scstep>
  <scstep>
   <time name="dav">   31.40   31.76</time>
   <time name="total">   39.40   39.79</time>
   <energy>
    <i name="e_fr_energy">    -61.43831704 </i>
    <i name="e_wo_entrp">    -61.44343802 </i>
    <i name="e_0_energy">    -61.44002403 </i>
   </energy>
  </scstep>
  <scstep>
   <time name="dav">   26.33   26.47</time>
   <time name="total">   31.74   31.89</time>
   <energy>
    <i name="alphaZ">     11.30727943 </i>
    <i name="ewald">  25267.66704408 </i>
    <i name="hartreedc"> -37834.79277530 </i>
    <i name="XCdc">   -481.45456657 </i>
    <i name="pawpsdc">  14579.84519646 </i>
    <i name="pawaedc"> -13600.63916518 </i>
    <i name="eentropy">      0.00512674 </i>
    <i name="bandstr">   -959.27878098 </i>
    <i name="atom">  12955.90228127 </i>
    <i name="e_fr_energy">    -61.43836006 </i>
    <i name="e_wo_entrp">    -61.44348680 </i>
    <i name="e_0_energy">    -61.44006897 </i>
   </energy>
  </scstep>
  <structure>
   <crystal>
    <varray name="basis" >
     <v>      23.74183393       0.00000000       0.00000000 </v>
     <v>       0.00000000      25.63324930       0.00000000 </v>
     <v>       0.00000000       0.00000000      24.24635478 </v>
    </varray>
    <i name="volume">  14755.85502514 </i>
    <varray name="rec_basis" >
     <v>       0.04211975       0.00000000       0.00000000 </v>
     <v>       0.00000000       0.03901183       0.00000000 </v>
     <v>       0.00000000       0.00000000       0.04124331 </v>
    </varray>
   </crystal>
   <varray name="positions" >
    <v>       0.62562970       0.55945062       0.46297246 </v>
    <v>       0.53694697       0.61013837       0.51218342 </v>
    <v>       0.58298153       0.51412489       0.37237998 </v>
    <v>       0.54763219       0.60784578       0.40256575 </v>
    <v>       0.59940201       0.45614943       0.46120113 </v>
    <v>       0.58035871       0.52322202       0.55714873 </v>
    <v>       0.51074924       0.52371346       0.45518482 </v>
    <v>       0.51869082       0.44275026       0.53187712 </v>
    <v>       0.50722187       0.47886795       0.63362755 </v>
    <v>       0.46744724       0.54246865       0.55760447 </v>
    <v>       0.48480900       0.42252514       0.43173801 </v>
    <v>       0.41054660       0.48897467       0.48185145 </v>
    <v>       0.47433427       0.35122304       0.51660053 </v>
    <v>       0.50216775       0.37728720       0.61783924 </v>
    <v>       0.41771489       0.43395095       0.57450128 </v>
    <v>       0.38320383       0.39211812       0.47656671 </v>
   </varray>
  </structure>
  <varray name="forces" >
   <v>      -0.08151957      -0.08062692       0.01182597 </v>
   <v>      -0.00719943      -0.07785167       0.05466084 </v>
   <v>      -0.04491170      -0.04956594       0.03655700 </v>
   <v>       0.01137112       0.02315015       0.02648311 </v>
   <v>      -0.09729679      -0.03317219       0.01928995 </v>
   <v>      -0.12223888      -0.10136178      -0.02136596 </v>
   <v>      -0.11933514      -0.10775049       0.10267284 </v>
   <v>       0.05537563       0.05335738      -0.11482367 </v>
   <v>       0.03167822       0.04531346      -0.04773803 </v>
   <v>      -0.03206615       0.03360538      -0.07462819 </v>
   <v>       0.12844742       0.13065560       0.03866649 </v>
   <v>       0.01358348       0.06211772      -0.06213696 </v>
   <v>       0.00257251       0.02369409      -0.03949601 </v>
   <v>       0.00690838      -0.05208136       0.08057403 </v>
   <v>       0.15019770       0.11796712      -0.05606193 </v>
   <v>       0.10443320       0.01254945       0.04552050 </v>
  </varray>
  <energy>
   <i name="e_fr_energy">    -61.43836006 </i>
   <i name="e_wo_entrp">    -61.44348680 </i>
   <i name="e_0_energy">    -61.44006897 </i>
  </energy>
  <time name="totalsc">  395.95  398.37</time>
 </calculation>
 <calculation>
  <scstep>
   <time name="dav">   34.08   34.43</time>
   <time name="total">   41.94   42.36</time>
   <energy>
    <i name="alphaZ">     11.30727943 </i>
    <i name="ewald">  25298.77426429 </i>
    <i name="hartreedc"> -37865.65752105 </i>
    <i name="XCdc">   -481.40529789 </i>
    <i name="pawpsdc">  14579.75659840 </i>
    <i name="pawaedc"> -13600.55003596 </i>
    <i name="eentropy">      0.01004112 </i>
    <i name="bandstr">   -959.58069213 </i>
    <i name="atom">  12955.90228127 </i>
    <i name="e_fr_energy">    -61.44308253 </i>
    <i name="e_wo_entrp">    -61.45312365 </i>
    <i name="e_0_energy">    -61.44642957 </i>
   </energy>
  </scstep>
  <scstep>
   <time name="dav">   34.48   34.87</time>
   <time name="total">   42.16   42.66</time>
   <energy>
    <i name="e_fr_energy">    -61.46166748 </i>
    <i name="e_wo_entrp">    -61.46947368 </i>
    <i name="e_0_energy">    -61.46426955 </i>
   </energy>
  </scstep>
  <scstep>
   <time name="dav">   33.34   33.45</time>
   <time name="total">   41.51   41.66</time>
   <energy>
    <i name="e_fr_energy">    -61.45054481 </i>
    <i name="e_wo_entrp">    -61.45691611 </i>
    <i name="e_0_energy">    -61.45266858 </i>
   </energy>
  </scstep>
  <scstep>
   <time name="dav">   32.90   33.62</time>
   <time name="total">   40.93   41.74</time>
   <energy>
    <i name="e_fr_energy">    -61.45077167 </i>
    <i name="e_wo_entrp">    -61.46022250 </i>
    <i name="e_0_energy">    -61.45392194 </i>
   </energy>
  </scstep>
  <scstep>
   <time name="dav">   34.77   35.11</time>
   <time name="total">   42.43   42.80</time>
   <energy>
    <i name="e_fr_energy">    -61.45048091 </i>
    <i name="e_wo_entrp">    -61.45913456 </i>
    <i name="e_0_energy">    -61.45336546 </i>
   </energy>
  </scstep>
  <scstep>
   <time name="dav">   32.26   32.40</time>
   <time name="total">   37.58   37.74</time>
   <energy>
    <i name="alphaZ">     11.30727943 </i>
    <i name="ewald">  25298.77426429 </i>
    <i name="hartreedc"> -37865.20328166 </i>
    <i name="XCdc">   -481.41227786 </i>
    <i name="pawpsdc">  14584.34127131 </i>
    <i name="pawaedc"> -13605.23012248 </i>
    <i name="eentropy">      0.00804598 </i>
    <i name="bandstr">   -959.93794647 </i>
    <i name="atom">  12955.90228127 </i>
    <i name="e_fr_energy">    -61.45048619 </i>
    <i name="e_wo_entrp">    -61.45853217 </i>
    <i name="e_0_energy">    -61.45316818 </i>
   </energy>
  </scstep>
  <structure>
   <crystal>
    <varray name="basis" >
     <v>      23.74183393       0.00000000       0.00000000 </v>
     <v>       0.00000000      25.63324930       0.00000000 </v>
     <v>       0.00000000       0.00000000      24.24635478 </v>
    </varray>
    <i name="volume">  14755.85502514 </i>
    <varray name="rec_basis" >
     <v>       0.04211975       0.00000000       0.00000000 </v>
     <v>       0.00000000       0.03901183       0.00000000 </v>
     <v>       0.00000000       0.00000000       0.04124331 </v>
    </varray>
   </crystal>
   <varray name="positions" >
    <v>       0.62540122       0.55926156       0.46295926 </v>
    <v>       0.53687795       0.60991298       0.51235843 </v>
    <v>       0.58281360       0.51398933       0.37254285 </v>
    <v>       0.54765527       0.60785263       0.40267034 </v>
    <v>       0.59920483       0.45600536       0.46117235 </v>
    <v>       0.58007710       0.52294357       0.55719880 </v>
    <v>       0.51053831       0.52363455       0.45524403 </v>
    <v>       0.51875518       0.44270353       0.53175369 </v>
    <v>       0.50733951       0.47900675       0.63351460 </v>
    <v>       0.46730622       0.54274784       0.55747952 </v>
    <v>       0.48525478       0.42281606       0.43168169 </v>
    <v>       0.41034204       0.48910083       0.48163696 </v>
    <v>       0.47438819       0.35127755       0.51647925 </v>
    <v>       0.50223783       0.37707788       0.61814062 </v>
    <v>       0.41820710       0.43431182       0.57431975 </v>
    <v>       0.38343748       0.39216832       0.47669053 </v>
   </varray>
  </structure>
  <varray name="forces" >
   <v>      -0.06629353      -0.08377999       0.03750113 </v>
   <v>       0.01261179      -0.04463936       0.04257987 </v>
   <v>      -0.04973574      -0.05069190       0.00542769 </v>
   <v>       0.00075671       0.02902505       0.02674960 </v>
   <v>      -0.05291032      -0.04943611       0.01651503 </v>
   <v>      -0.09666641      -0.07432866      -0.02662061 </v>
   <v>      -0.11091654      -0.07141061       0.10052744 </v>
   <v>       0.05412459       0.01457784      -0.06153956 </v>
   <v>       0.02554989       0.01514553      -0.06217950 </v>
   <v>      -0.05499237      -0.00920528      -0.04846645 </v>
   <v>       0.10588777       0.09302133       0.00683136 </v>
   <v>      -0.00257562       0.08002239      -0.06042482 </v>
   <v>       0.03546285       0.01843966      -0.00305318 </v>
   <v>      -0.01433997       0.01229994       0.01755821 </v>
   <v>       0.12436912       0.10836533      -0.02603401 </v>
   <v>       0.08966777       0.01259485       0.03462779 </v>
  </varray>
  <energy>
   <i name="e_fr_energy">    -61.45048619 </i>
   <i name="e_wo_entrp">    -61.45853217 </i>
   <i name="e_0_energy">    -61.45316818 </i>
  </energy>
  <time name="totalsc">  270.48  273.23</time>
 </calculation>
 <calculation>
  <scstep>
   <time name="dav">   32.67   32.80</time>
   <time name="total">   40.39   40.56</time>
   <energy>
    <i name="alphaZ">     11.30727943 </i>
    <i name="ewald">  25392.72308287 </i>
    <i name="hartreedc"> -37958.28993524 </i>
    <i name="XCdc">   -481.25520834 </i>
    <i name="pawpsdc">  14585.30788072 </i>
    <i name="pawaedc"> -13606.21044709 </i>
    <i name="eentropy">      0.02372821 </i>
    <i name="bandstr">   -960.90534880 </i>
    <i name="atom">  12955.90228127 </i>
    <i name="e_fr_energy">    -61.39668697 </i>
    <i name="e_wo_entrp">    -61.42041518 </i>
    <i name="e_0_energy">    -61.40459637 </i>
   </energy>
  </scstep>
  <scstep>
   <time name="dav">   33.94   34.16</time>
   <time name="total">   41.73   41.99</time>
   <energy>
    <i name="e_fr_energy">    -61.53939127 </i>
    <i name="e_wo_entrp">    -61.55744566 </i>
    <i name="e_0_energy">    -61.54540940 </i>
   </energy>
  </scstep>
  <scstep>
   <time name="dav">   32.44   32.56</time>
   <time name="total">   40.24   40.44</time>
   <energy>
    <i name="e_fr_energy">    -61.47171319 </i>
    <i name="e_wo_entrp">    -61.48742770 </i>
    <i name="e_0_energy">    -61.47695136 </i>
   </energy>
  </scstep>
  <scstep>
   <time name="dav">   33.66   33.77</time>
   <time name="total">   41.47   41.62</time>
   <energy>
    <i name="e_fr_energy">    -61.46820648 </i>
    <i name="e_wo_entrp">    -61.49113229 </i>
    <i name="e_0_energy">    -61.47584842 </i>
   </energy>
  </scstep>
  <scstep>
   <time name="dav">   33.91   34.06</time>
   <time name="total">   41.74   41.94</time>
   <energy>
    <i name="e_fr_energy">    -61.46347308 </i>
    <i name="e_wo_entrp">    -61.48278382 </i>
    <i name="e_0_energy">    -61.46990999 </i>
   </energy>
  </scstep>
  <scstep>
   <time name="dav">   33.51   33.77</time>
   <time name="total">   41.49   41.87</time>
   <energy>
    <i name="e_fr_energy">    -61.46379962 </i>
    <i name="e_wo_entrp">    -61.48285642 </i>
    <i name="e_0_energy">    -61.47015189 </i>
   </energy>
  </scstep>
  <scstep>
   <time name="dav">   41.22   41.33</time>
   <time name="total">   48.95   49.08</time>
   <energy>
    <i name="e_fr_energy">    -61.46377744 </i>
    <i name="e_wo_entrp">    -61.48101445 </i>
    <i name="e_0_energy">    -61.46952311 </i>
   </energy>
  </scstep>
  <scstep>
   <time name="dav">   35.35   35.47</time>
   <time name="total">   46.75   46.97</time>
   <energy>
    <i name="e_fr_energy">    -61.46222994 </i>
    <i name="e_wo_entrp">    -61.48084594 </i>
    <i name="e_0_energy">    -61.46843527 </i>
   </energy>
  </scstep>
  <scstep>
   <time name="dav">   37.69   37.82</time>
   <time name="total">   45.97   46.34</time>
   <energy>
    <i name="e_fr_energy">    -61.46216338 </i>
    <i name="e_wo_entrp">    -61.48104065 </i>
    <i name="e_0_energy">    -61.46845580 </i>
   </energy>
  </scstep>
  <scstep>
   <time name="dav">   27.82   27.91</time>
   <time name="total">   33.33   33.45</time>
   <energy>
    <i name="alphaZ">     11.30727943 </i>
    <i name="ewald">  25392.72308287 </i>
    <i name="hartreedc"> -37956.41375327 </i>
    <i name="XCdc">   -481.28075281 </i>
    <i name="pawpsdc">  14610.28165360 </i>
    <i name="pawaedc"> -13631.60667051 </i>
    <i name="eentropy">      0.01892192 </i>
    <i name="bandstr">   -962.39413691 </i>
    <i name="atom">  12955.90228127 </i>
    <i name="e_fr_energy">    -61.46209440 </i>
    <i name="e_wo_entrp">    -61.48101633 </i>
    <i name="e_0_energy">    -61.46840171 </i>
   </energy>
  </scstep>
  <structure>
   <crystal>
    <varray name="basis" >
     <v>      23.74183393       0.00000000       0.00000000 </v>
     <v>       0.00000000      25.63324930       0.00000000 </v>
     <v>       0.00000000       0.00000000      24.24635478 </v>
    </varray>
    <i name="volume">  14755.85502514 </i>
    <varray name="rec_basis" >
     <v>       0.04211975       0.00000000       0.00000000 </v>
     <v>       0.00000000       0.03901183       0.00000000 </v>
     <v>       0.00000000       0.00000000       0.04124331 </v>
    </varray>
   </crystal>
   <varray name="positions" >
    <v>       0.62471579       0.55869437       0.46291969 </v>
    <v>       0.53667086       0.60923682       0.51288345 </v>
    <v>       0.58230984       0.51358266       0.37303147 </v>
    <v>       0.54772450       0.60787318       0.40298410 </v>
    <v>       0.59861328       0.45557312       0.46108600 </v>
    <v>       0.57923227       0.52210825       0.55734899 </v>
    <v>       0.50990554       0.52339781       0.45542165 </v>
    <v>       0.51894825       0.44256334       0.53138341 </v>
    <v>       0.50769244       0.47942313       0.63317575 </v>
    <v>       0.46688317       0.54358540       0.55710465 </v>
    <v>       0.48659211       0.42368881       0.43151273 </v>
    <v>       0.40972839       0.48947929       0.48099349 </v>
    <v>       0.47454992       0.35144109       0.51611541 </v>
    <v>       0.50244808       0.37644989       0.61904477 </v>
    <v>       0.41968375       0.43539445       0.57377513 </v>
    <v>       0.38413843       0.39231893       0.47706198 </v>
   </varray>
  </structure>
  <varray name="forces" >
   <v>      -0.01459655      -0.07998697       0.08572598 </v>
   <v>       0.06543011       0.07421397      -0.01711966 </v>
   <v>      -0.07918636      -0.04023250      -0.06900087 </v>
   <v>      -0.03547551       0.02053280       0.02560922 </v>
   <v>       0.08814436      -0.09178711      -0.01148847 </v>
   <v>       0.03596577       0.02953083      -0.02565026 </v>
   <v>      -0.06800787       0.05006358       0.07986806 </v>
   <v>       0.03879498      -0.10626245       0.08722357 </v>
   <v>       0.00349848      -0.04888140      -0.04671584 </v>
   <v>      -0.15704929      -0.13285819       0.02149378 </v>
   <v>       0.00278692      -0.00962817      -0.07158139 </v>
   <v>      -0.01414032       0.09562867      -0.05557925 </v>
   <v>       0.11497277      -0.00565796       0.07195785 </v>
   <v>      -0.06016925       0.13683301      -0.12104889 </v>
   <v>       0.01649629       0.06793224       0.04538240 </v>
   <v>       0.06253547       0.04055964       0.00092377 </v>
  </varray>
  <energy>
   <i name="e_fr_energy">    -61.46209440 </i>
   <i name="e_wo_entrp">    -61.48101633 </i>
   <i name="e_0_energy">    -61.46840171 </i>
  </energy>
  <time name="totalsc">  447.03  449.55</time>
 </calculation>
 <calculation>
  <scstep>
   <time name="dav">   33.88   34.36</time>
   <time name="total">   41.92   42.58</time>
   <energy>
    <i name="alphaZ">     11.30727943 </i>
    <i name="ewald">  25418.82949147 </i>
    <i name="hartreedc"> -37982.42041721 </i>
    <i name="XCdc">   -481.25449755 </i>
    <i name="pawpsdc">  14610.39733572 </i>
    <i name="pawaedc"> -13631.72553079 </i>
    <i name="eentropy">      0.02567669 </i>
    <i name="bandstr">   -962.52149025 </i>
    <i name="atom">  12955.90228127 </i>
    <i name="e_fr_energy">    -61.45987123 </i>
    <i name="e_wo_entrp">    -61.48554792 </i>
    <i name="e_0_energy">    -61.46843013 </i>
   </energy>
  </scstep>
  <scstep>
   <time name="dav">   35.42   35.84</time>
   <time name="total">   43.48   44.16</time>
   <energy>
    <i name="e_fr_energy">    -61.48218127 </i>
    <i name="e_wo_entrp">    -61.50197470 </i>
    <i name="e_0_energy">    -61.48877908 </i>
   </energy>
  </scstep>
  <scstep>
   <time name="dav">   34.99   35.86</time>
   <time name="total">   43.29   44.39</time>
   <energy>
    <i name="e_fr_energy">    -61.47193458 </i>
    <i name="e_wo_entrp">    -61.49518896 </i>
    <i name="e_0_energy">    -61.47968604 </i>
   </energy>
  </scstep>
  <scstep>
   <time name="dav">   35.26   35.63</time>
   <time name="total">   43.33   43.80</time>
   <energy>
    <i name="e_fr_energy">    -61.47257520 </i>
    <i name="e_wo_entrp">    -61.49638423 </i>
    <i name="e_0_energy">    -61.48051154 </i>
   </energy>
  </scstep>
  <scstep>
   <time name="dav">   35.36   35.75</time>
   <time name="total">   43.52   44.08</time>
   <energy>
    <i name="e_fr_energy">    -61.47170368 </i>
    <i name="e_wo_entrp">    -61.49619476 </i>
    <i name="e_0_energy">    -61.47986737 </i>
   </energy>
  </scstep>
  <scstep>
   <time name="dav">   33.25   33.91</time>
   <time name="total">   41.37   42.17</time>
   <energy>
    <i name="e_fr_energy">    -61.47146236 </i>
    <i name="e_wo_entrp">    -61.49452825 </i>
    <i name="e_0_energy">    -61.47915099 </i>
   </energy>
[...]
       <r>    -0.8455     6.6831    97.3532 </r>
       <r>    -0.8005     6.0896    97.6271 </r>
       <r>    -0.7556     5.7824    97.8871 </r>
       <r>    -0.7106     5.5925    98.1386 </r>
       <r>    -0.6656     5.3121    98.3775 </r>
       <r>    -0.6207     4.8423    98.5953 </r>
       <r>    -0.5757     4.2632    98.7870 </r>
       <r>    -0.5307     3.7817    98.9571 </r>
       <r>    -0.4857     3.5764    99.1180 </r>
       <r>    -0.4408     3.6437    99.2818 </r>
       <r>    -0.3958     3.7795    99.4518 </r>
       <r>    -0.3508     3.7327    99.6197 </r>
       <r>    -0.3058     3.4168    99.7733 </r>
       <r>    -0.2609     2.9941    99.9080 </r>
       <r>    -0.2159     2.7582   100.0320 </r>
       <r>    -0.1709     2.9168   100.1632 </r>
       <r>    -0.1260     3.4664   100.3191 </r>
       <r>    -0.0810     4.2553   100.5105 </r>
       <r>    -0.0360     5.1505   100.7421 </r>
       <r>     0.0090     6.1396   101.0182 </r>
       <r>     0.0539     7.2705   101.3452 </r>
       <r>     0.0989     8.4954   101.7273 </r>
       <r>     0.1439     9.5719   102.1578 </r>
       <r>     0.1889    10.1206   102.6129 </r>
       <r>     0.2338     9.8108   103.0541 </r>
       <r>     0.2788     8.5529   103.4388 </r>
       <r>     0.3238     6.5725   103.7344 </r>
       <r>     0.3688     4.3231   103.9288 </r>
       <r>     0.4137     2.2902   104.0318 </r>
       <r>     0.4587     0.8024   104.0679 </r>
       <r>     0.5037    -0.0536   104.0655 </r>
       <r>     0.5486    -0.3917   104.0479 </r>
       <r>     0.5936    -0.4143   104.0292 </r>
       <r>     0.6386    -0.3063   104.0154 </r>
       <r>     0.6836    -0.1837   104.0072 </r>
       <r>     0.7285    -0.0938   104.0030 </r>
       <r>     0.7735    -0.0417   104.0011 </r>
       <r>     0.8185    -0.0163   104.0004 </r>
       <r>     0.8635    -0.0056   104.0001 </r>
       <r>     0.9084    -0.0017   104.0000 </r>
       <r>     0.9534    -0.0005   104.0000 </r>
       <r>     0.9984    -0.0001   104.0000 </r>
       <r>     1.0433    -0.0000   104.0000 </r>
       <r>     1.0883    -0.0000   104.0000 </r>
       <r>     1.1333    -0.0000   104.0000 </r>
       <r>     1.1783    -0.0000   104.0000 </r>
       <r>     1.2232    -0.0000   104.0000 </r>
       <r>     1.2682    -0.0000   104.0000 </r>
       <r>     1.3132    -0.0000   104.0000 </r>
       <r>     1.3582    -0.0000   104.0000 </r>
       <r>     1.4031    -0.0000   104.0000 </r>
       <r>     1.4481    -0.0000   104.0000 </r>
       <r>     1.4931    -0.0000   104.0000 </r>
       <r>     1.5381     0.0000   104.0000 </r>
       <r>     1.5830     0.0000   104.0000 </r>
       <r>     1.6280     0.0000   104.0000 </r>
       <r>     1.6730     0.0000   104.0000 </r>
       <r>     1.7179     0.0000   104.0000 </r>
       <r>     1.7629     0.0000   104.0000 </r>
       <r>     1.8079     0.0000   104.0000 </r>
       <r>     1.8529     0.0000   104.0000 </r>
       <r>     1.8978     0.0000   104.0000 </r>
       <r>     1.9428     0.0000   104.0000 </r>
       <r>     1.9878     0.0000   104.0000 </r>
       <r>     2.0328     0.0000   104.0000 </r>
       <r>     2.0777     0.0000   104.0000 </r>
       <r>     2.1227     0.0000   104.0000 </r>
       <r>     2.1677     0.0000   104.0000 </r>
       <r>     2.2126     0.0000   104.0000 </r>
       <r>     2.2576     0.0000   104.0000 </r>
       <r>     2.3026     0.0000   104.0000 </r>
      </set>
      <set comment="spin 2">
       <r>   -11.1893     0.0000     0.0000 </r>
       <r>   -11.1444     0.0000     0.0000 </r>
       <r>   -11.0994     0.0000     0.0000 </r>
       <r>   -11.0544     0.0000     0.0000 </r>
       <r>   -11.0094     0.0000     0.0000 </r>
       <r>   -10.9645     0.0000     0.0000 </r>
       <r>   -10.9195     0.0000     0.0000 </r>
       <r>   -10.8745     0.0000     0.0000 </r>
       <r>   -10.8295     0.0000     0.0000 </r>
       <r>   -10.7846     0.0000     0.0000 </r>
       <r>   -10.7396    -0.0000    -0.0000 </r>
       <r>   -10.6946    -0.0000    -0.0000 </r>
       <r>   -10.6496    -0.0000    -0.0000 </r>
       <r>   -10.6047    -0.0000    -0.0000 </r>
       <r>   -10.5597    -0.0000    -0.0000 </r>
       <r>   -10.5147    -0.0000    -0.0000 </r>
       <r>   -10.4698    -0.0000    -0.0000 </r>
       <r>   -10.4248    -0.0000    -0.0000 </r>
       <r>   -10.3798    -0.0000    -0.0000 </r>
       <r>   -10.3348    -0.0000    -0.0000 </r>
       <r>   -10.2899    -0.0000    -0.0000 </r>
       <r>   -10.2449    -0.0000    -0.0000 </r>
       <r>   -10.1999    -0.0000    -0.0000 </r>
       <r>   -10.1549    -0.0000    -0.0000 </r>
       <r>   -10.1100    -0.0000    -0.0000 </r>
       <r>   -10.0650    -0.0000    -0.0000 </r>
       <r>   -10.0200    -0.0000    -0.0000 </r>
       <r>    -9.9751    -0.0000    -0.0000 </r>
       <r>    -9.9301    -0.0000    -0.0000 </r>
       <r>    -9.8851    -0.0000    -0.0000 </r>
       <r>    -9.8401    -0.0000    -0.0000 </r>
       <r>    -9.7952    -0.0002    -0.0000 </r>
       <r>    -9.7502    -0.0007    -0.0000 </r>
       <r>    -9.7052    -0.0024    -0.0002 </r>
       <r>    -9.6602    -0.0074    -0.0005 </r>
       <r>    -9.6153    -0.0198    -0.0014 </r>
       <r>    -9.5703    -0.0465    -0.0035 </r>
       <r>    -9.5253    -0.0944    -0.0077 </r>
       <r>    -9.4803    -0.1613    -0.0150 </r>
       <r>    -9.4354    -0.2199    -0.0249 </r>
       <r>    -9.3904    -0.1992    -0.0338 </r>
       <r>    -9.3454     0.0144    -0.0332 </r>
       <r>    -9.3005     0.5368    -0.0090 </r>
       <r>    -9.2555     1.4049     0.0542 </r>
       <r>    -9.2105     2.4962     0.1664 </r>
       <r>    -9.1655     3.5202     0.3247 </r>
       <r>    -9.1206     4.1247     0.5102 </r>
       <r>    -9.0756     4.0710     0.6933 </r>
       <r>    -9.0306     3.3672     0.8448 </r>
       <r>    -8.9856     2.2615     0.9465 </r>
       <r>    -8.9407     1.1075     0.9963 </r>
       <r>    -8.8957     0.2065     1.0056 </r>
       <r>    -8.8507    -0.2708     0.9934 </r>
       <r>    -8.8058    -0.2690     0.9813 </r>
       <r>    -8.7608     0.1969     0.9901 </r>
       <r>    -8.7158     1.0522     1.0375 </r>
       <r>    -8.6708     2.1491     1.1341 </r>
       <r>    -8.6259     3.2894     1.2820 </r>
       <r>    -8.5809     4.3201     1.4763 </r>
       <r>    -8.5359     5.2483     1.7124 </r>
       <r>    -8.4909     6.2677     1.9942 </r>
       <r>    -8.4460     7.6329     2.3375 </r>
       <r>    -8.4010     9.4324     2.7617 </r>
       <r>    -8.3560    11.4093     3.2748 </r>
       <r>    -8.3110    12.9728     3.8583 </r>
       <r>    -8.2661    13.4403     4.4627 </r>
       <r>    -8.2211    12.3958     5.0202 </r>
       <r>    -8.1761     9.9582     5.4680 </r>
       <r>    -8.1312     6.7898     5.7734 </r>
       <r>    -8.0862     3.8339     5.9458 </r>
       <r>    -8.0412     1.9386     6.0330 </r>
       <r>    -7.9962     1.5629     6.1033 </r>
       <r>    -7.9513     2.6712     6.2234 </r>
       <r>    -7.9063     4.7945     6.4391 </r>
       <r>    -7.8613     7.1894     6.7624 </r>
       <r>    -7.8163     9.0552     7.1696 </r>
       <r>    -7.7714     9.7999     7.6104 </r>
       <r>    -7.7264     9.3059     8.0289 </r>
       <r>    -7.6814     8.0724     8.3919 </r>
       <r>    -7.6365     7.0876     8.7107 </r>
       <r>    -7.5915     7.4025     9.0436 </r>
       <r>    -7.5465     9.5856     9.4747 </r>
       <r>    -7.5015    13.3700    10.0760 </r>
       <r>    -7.4566    17.7288    10.8733 </r>
       <r>    -7.4116    21.3503    11.8335 </r>
       <r>    -7.3666    23.2406    12.8787 </r>
       <r>    -7.3216    23.1295    13.9189 </r>
       <r>    -7.2767    21.5142    14.8864 </r>
       <r>    -7.2317    19.3785    15.7579 </r>
       <r>    -7.1867    17.7514    16.5563 </r>
       <r>    -7.1417    17.2881    17.3338 </r>
       <r>    -7.0968    18.0288    18.1446 </r>
       <r>    -7.0518    19.4419    19.0189 </r>
       <r>    -7.0068    20.7419    19.9518 </r>
       <r>    -6.9619    21.3240    20.9108 </r>
       <r>    -6.9169    21.0679    21.8583 </r>
       <r>    -6.8719    20.3344    22.7728 </r>
       <r>    -6.8269    19.6831    23.6580 </r>
       <r>    -6.7820    19.5094    24.5354 </r>
       <r>    -6.7370    19.8247    25.4269 </r>
       <r>    -6.6920    20.2828    26.3391 </r>
       <r>    -6.6470    20.3977    27.2565 </r>
       <r>    -6.6021    19.8073    28.1473 </r>
       <r>    -6.5571    18.4402    28.9766 </r>
       <r>    -6.5121    16.5213    29.7196 </r>
       <r>    -6.4672    14.4534    30.3696 </r>
       <r>    -6.4222    12.6567    30.9388 </r>
       <r>    -6.3772    11.4310    31.4529 </r>
       <r>    -6.3322    10.8727    31.9419 </r>
       <r>    -6.2873    10.8654    32.4305 </r>
       <r>    -6.2423    11.1629    32.9326 </r>
       <r>    -6.1973    11.5365    33.4514 </r>
       <r>    -6.1523    11.8948    33.9863 </r>
       <r>    -6.1074    12.2844    34.5388 </r>
       <r>    -6.0624    12.7777    35.1135 </r>
       <r>    -6.0174    13.3604    35.7143 </r>
       <r>    -5.9724    13.9315    36.3409 </r>
       <r>    -5.9275    14.4110    36.9890 </r>
       <r>    -5.8825    14.8382    37.6563 </r>
       <r>    -5.8375    15.3508    38.3467 </r>
       <r>    -5.7926    16.0604    39.0689 </r>
       <r>    -5.7476    16.9477    39.8311 </r>
       <r>    -5.7026    17.8826    40.6354 </r>
       <r>    -5.6576    18.7399    41.4782 </r>
       <r>    -5.6127    19.4878    42.3546 </r>
       <r>    -5.5677    20.1683    43.2616 </r>
       <r>    -5.5227    20.8156    44.1978 </r>
       <r>    -5.4777    21.4103    45.1606 </r>
       <r>    -5.4328    21.9078    46.1459 </r>
       <r>    -5.3878    22.2837    47.1481 </r>
       <r>    -5.3428    22.5342    48.1615 </r>
       <r>    -5.2979    22.6376    49.1796 </r>
       <r>    -5.2529    22.5395    50.1933 </r>
       <r>    -5.2079    22.2093    51.1921 </r>
       <r>    -5.1629    21.7399    52.1698 </r>
       <r>    -5.1180    21.3998    53.1322 </r>
       <r>    -5.0730    21.5624    54.1019 </r>
       <r>    -5.0280    22.5337    55.1153 </r>
       <r>    -4.9830    24.3924    56.2123 </r>
       <r>    -4.9381    26.9502    57.4244 </r>
       <r>    -4.8931    29.8319    58.7660 </r>
       <r>    -4.8481    32.5793    60.2312 </r>
       <r>    -4.8032    34.7076    61.7921 </r>
       <r>    -4.7582    35.7493    63.3999 </r>
       <r>    -4.7132    35.3670    64.9904 </r>
       <r>    -4.6682    33.5366    66.4987 </r>
       <r>    -4.6233    30.6726    67.8781 </r>
       <r>    -4.5783    27.5438    69.1168 </r>
       <r>    -4.5333    24.9705    70.2398 </r>
       <r>    -4.4883    23.4729    71.2955 </r>
       <r>    -4.4434    23.0924    72.3340 </r>
       <r>    -4.3984    23.4764    73.3898 </r>
       <r>    -4.3534    24.1307    74.4751 </r>
       <r>    -4.3084    24.6589    75.5841 </r>
       <r>    -4.2635    24.8689    76.7025 </r>
       <r>    -4.2185    24.7419    77.8152 </r>
       <r>    -4.1735    24.3198    78.9089 </r>
       <r>    -4.1286    23.5801    79.9694 </r>
       <r>    -4.0836    22.3623    80.9751 </r>
       <r>    -4.0386    20.4067    81.8929 </r>
       <r>    -3.9936    17.5153    82.6806 </r>
       <r>    -3.9487    13.7493    83.2989 </r>
       <r>    -3.9037     9.5193    83.7270 </r>
       <r>    -3.8587     5.4772    83.9734 </r>
       <r>    -3.8137     2.2681    84.0754 </r>
       <r>    -3.7688     0.2993    84.0888 </r>
       <r>    -3.7238    -0.3474    84.0732 </r>
       <r>    -3.6788     0.1400    84.0795 </r>
       <r>    -3.6339     1.4149    84.1431 </r>
       <r>    -3.5889     3.0658    84.2810 </r>
       <r>    -3.5439     4.6803    84.4915 </r>
       <r>    -3.4989     5.8998    84.7568 </r>
       <r>    -3.4540     6.4721    85.0479 </r>
       <r>    -3.4090     6.2971    85.3311 </r>
       <r>    -3.3640     5.4558    85.5765 </r>
       <r>    -3.3190     4.2156    85.7660 </r>
       <r>    -3.2741     2.9795    85.9000 </r>
       <r>    -3.2291     2.1613    85.9972 </r>
       <r>    -3.1841     2.0209    86.0881 </r>
       <r>    -3.1391     2.5535    86.2030 </r>
       <r>    -3.0942     3.5163    86.3611 </r>
       <r>    -3.0492     4.5837    86.5672 </r>
       <r>    -3.0042     5.5195    86.8155 </r>
       <r>    -2.9593     6.2466    87.0964 </r>
       <r>    -2.9143     6.7813    87.4014 </r>
       <r>    -2.8693     7.1131    87.7213 </r>
       <r>    -2.8243     7.1430    88.0425 </r>
       <r>    -2.7794     6.7289    88.3451 </r>
       <r>    -2.7344     5.7969    88.6059 </r>
       <r>    -2.6894     4.4291    88.8050 </r>
       <r>    -2.6444     2.8653    88.9339 </r>
       <r>    -2.5995     1.4204    88.9978 </r>
       <r>    -2.5545     0.3783    89.0148 </r>
       <r>    -2.5095    -0.0788    89.0112 </r>
       <r>    -2.4646     0.1087    89.0161 </r>
       <r>    -2.4196     0.8725    89.0554 </r>
       <r>    -2.3746     2.0042    89.1455 </r>
       <r>    -2.3296     3.1650    89.2879 </r>
       <r>    -2.2847     3.9674    89.4663 </r>
       <r>    -2.2397     4.1254    89.6518 </r>
       <r>    -2.1947     3.5900    89.8133 </r>
       <r>    -2.1497     2.5676    89.9287 </r>
       <r>    -2.1048     1.4023    89.9918 </r>
       <r>    -2.0598     0.4091    90.0102 </r>
       <r>    -2.0148    -0.2262    90.0000 </r>
       <r>    -1.9698    -0.4364    89.9804 </r>
       <r>    -1.9249    -0.2042    89.9712 </r>
       <r>    -1.8799     0.4780    89.9927 </r>
       <r>    -1.8349     1.5813    90.0638 </r>
       <r>    -1.7900     2.9844    90.1980 </r>
       <r>    -1.7450     4.4607    90.3987 </r>
       <r>    -1.7000     5.7417    90.6569 </r>
       <r>    -1.6550     6.6212    90.9546 </r>
       <r>    -1.6101     7.0275    91.2707 </r>
       <r>    -1.5651     7.0173    91.5863 </r>
       <r>    -1.5201     6.7101    91.8881 </r>
       <r>    -1.4751     6.2250    92.1680 </r>
       <r>    -1.4302     5.6710    92.4231 </r>
       <r>    -1.3852     5.1804    92.6560 </r>
       <r>    -1.3402     4.9227    92.8774 </r>
       <r>    -1.2953     5.0457    93.1043 </r>
       <r>    -1.2503     5.5745    93.3551 </r>
       <r>    -1.2053     6.3673    93.6414 </r>
       <r>    -1.1603     7.1944    93.9650 </r>
       <r>    -1.1154     7.8865    94.3196 </r>
       <r>    -1.0704     8.4145    94.6981 </r>
       <r>    -1.0254     8.8228    95.0949 </r>
       <r>    -0.9804     9.0915    95.5037 </r>
       <r>    -0.9355     9.0848    95.9123 </r>
       <r>    -0.8905     8.6588    96.3017 </r>
       <r>    -0.8455     7.8281    96.6538 </r>
       <r>    -0.8005     6.8169    96.9603 </r>
       <r>    -0.7556     5.9355    97.2273 </r>
       <r>    -0.7106     5.3926    97.4698 </r>
       <r>    -0.6656     5.1968    97.7035 </r>
       <r>    -0.6207     5.1957    97.9372 </r>
       <r>    -0.5757     5.1840    98.1703 </r>
       <r>    -0.5307     5.0019    98.3953 </r>
       <r>    -0.4857     4.6033    98.6023 </r>
       <r>    -0.4408     4.0859    98.7861 </r>
       <r>    -0.3958     3.6522    98.9503 </r>
       <r>    -0.3508     3.4904    99.1073 </r>
       <r>    -0.3058     3.6448    99.2712 </r>
       <r>    -0.2609     3.9862    99.4505 </r>
       <r>    -0.2159     4.3141    99.6445 </r>
       <r>    -0.1709     4.4971    99.8467 </r>
       <r>    -0.1260     4.5319   100.0505 </r>
       <r>    -0.0810     4.5049   100.2531 </r>
       <r>    -0.0360     4.5423   100.4574 </r>
       <r>     0.0090     4.8052   100.6735 </r>
       <r>     0.0539     5.4808   100.9200 </r>
       <r>     0.0989     6.6854   101.2207 </r>
       <r>     0.1439     8.3032   101.5941 </r>
       <r>     0.1889     9.9067   102.0396 </r>
       <r>     0.2338    10.8834   102.5291 </r>
       <r>     0.2788    10.7323   103.0118 </r>
       <r>     0.3238     9.3391   103.4318 </r>
       <r>     0.3688     7.0450   103.7486 </r>
       <r>     0.4137     4.4705   103.9497 </r>
       <r>     0.4587     2.2207   104.0495 </r>
       <r>     0.5037     0.6525   104.0789 </r>
       <r>     0.5486    -0.1878   104.0704 </r>
       <r>     0.5936    -0.4738   104.0491 </r>
       <r>     0.6386    -0.4492   104.0289 </r>
       <r>     0.6836    -0.3137   104.0148 </r>
       <r>     0.7285    -0.1804   104.0067 </r>
       <r>     0.7735    -0.0890   104.0027 </r>
       <r>     0.8185    -0.0383   104.0010 </r>
       <r>     0.8635    -0.0146   104.0003 </r>
       <r>     0.9084    -0.0049   104.0001 </r>
       <r>     0.9534    -0.0015   104.0000 </r>
       <r>     0.9984    -0.0004   104.0000 </r>
       <r>     1.0433    -0.0001   104.0000 </r>
       <r>     1.0883    -0.0000   104.0000 </r>
       <r>     1.1333    -0.0000   104.0000 </r>
       <r>     1.1783    -0.0000   104.0000 </r>
       <r>     1.2232    -0.0000   104.0000 </r>
       <r>     1.2682    -0.0000   104.0000 </r>
       <r>     1.3132    -0.0000   104.0000 </r>
       <r>     1.3582    -0.0000   104.0000 </r>
       <r>     1.4031    -0.0000   104.0000 </r>
       <r>     1.4481    -0.0000   104.0000 </r>
       <r>     1.4931    -0.0000   104.0000 </r>
       <r>     1.5381    -0.0000   104.0000 </r>
       <r>     1.5830     0.0000   104.0000 </r>
       <r>     1.6280     0.0000   104.0000 </r>
       <r>     1.6730     0.0000   104.0000 </r>
       <r>     1.7179     0.0000   104.0000 </r>
       <r>     1.7629     0.0000   104.0000 </r>
       <r>     1.8079     0.0000   104.0000 </r>
       <r>     1.8529     0.0000   104.0000 </r>
       <r>     1.8978     0.0000   104.0000 </r>
       <r>     1.9428     0.0000   104.0000 </r>
       <r>     1.9878     0.0000   104.0000 </r>
       <r>     2.0328     0.0000   104.0000 </r>
       <r>     2.0777     0.0000   104.0000 </r>
       <r>     2.1227     0.0000   104.0000 </r>
       <r>     2.1677     0.0000   104.0000 </r>
       <r>     2.2126     0.0000   104.0000 </r>
       <r>     2.2576     0.0000   104.0000 </r>
       <r>     2.3026     0.0000   104.0000 </r>
      </set>
     </set>
    </array>
   </total>
  </dos>
 </calculation>
 <structure name="finalpos" >
  <crystal>
   <varray name="basis" >
    <v>      23.74183393       0.00000000       0.00000000 </v>
    <v>       0.00000000      25.63324930       0.00000000 </v>
    <v>       0.00000000       0.00000000      24.24635478 </v>
   </varray>
   <i name="volume">  14755.85502514 </i>
   <varray name="rec_basis" >
    <v>       0.04211975       0.00000000       0.00000000 </v>
    <v>       0.00000000       0.03901183       0.00000000 </v>
    <v>       0.00000000       0.00000000       0.04124331 </v>
   </varray>
  </crystal>
  <varray name="positions" >
   <v>       0.61574304       0.51826207       0.48197322 </v>
   <v>       0.54336194       0.59469909       0.51916037 </v>
   <v>       0.56079586       0.49326872       0.38763127 </v>
   <v>       0.57464252       0.59254129       0.41477705 </v>
   <v>       0.58725505       0.41607007       0.45562986 </v>
   <v>       0.57357506       0.52194004       0.58957350 </v>
   <v>       0.47903468       0.54697688       0.44251443 </v>
   <v>       0.52039985       0.47733939       0.50907680 </v>
   <v>       0.48680586       0.48690319       0.64580596 </v>
   <v>       0.45512967       0.54302023       0.55894355 </v>
   <v>       0.47344497       0.43794443       0.42187611 </v>
   <v>       0.39522953       0.49049479       0.48170323 </v>
   <v>       0.50251905       0.36686689       0.50364609 </v>
   <v>       0.54827057       0.41685782       0.59050998 </v>
   <v>       0.43791890       0.43452452       0.56535176 </v>
   <v>       0.39571006       0.38710116       0.47766950 </v>
  </varray>
 </structure>
</modeling>
