unknown system                          
            1
    23.741834    0.000000    0.000000
     0.000000   25.633249    0.000000
     0.000000    0.000000   24.246355
   Pd
    16
Direct configuration=     1
   0.62269133  0.55881436  0.46272737
   0.53829428  0.60892418  0.51036871
   0.58306087  0.51516734  0.37434400
   0.54850608  0.60622422  0.40389244
   0.59846810  0.45874569  0.46104744
   0.57918141  0.52417979  0.55481956
   0.51321683  0.52316133  0.45688214
   0.51757164  0.44426626  0.53178011
   0.50650405  0.47797859  0.63196111
   0.46882269  0.53933900  0.55723609
   0.48277076  0.42260854  0.43428908
   0.41295747  0.48763022  0.48300631
   0.47304893  0.35287993  0.51697857
   0.50091403  0.37956577  0.61541423
   0.41840072  0.43276909  0.57393181
   0.38542743  0.39255625  0.47716369
Direct configuration=     2
   0.62503129  0.55932586  0.46307554
   0.53748059  0.61004021  0.51156073
   0.58323381  0.51447563  0.37256068
   0.54786403  0.60762714  0.40272606
   0.59901962  0.45705988  0.46145824
   0.58001116  0.52365660  0.55618004
   0.51104289  0.52293338  0.45633025
   0.51869329  0.44377980  0.53126324
   0.50688501  0.47850416  0.63321758
   0.46803377  0.54089772  0.55730742
   0.48378010  0.42255630  0.43294814
   0.41207523  0.48869855  0.48239836
   0.47383120  0.35162382  0.51680150
   0.50165009  0.37820973  0.61681109
   0.41737814  0.43328327  0.57455277
   0.38382639  0.39213852  0.47665104
Direct configuration=     3
   0.62579017  0.55949174  0.46318846
   0.53721670  0.61040215  0.51194731
   0.58328989  0.51425130  0.37198233
   0.54765580  0.60808213  0.40234778
   0.59919849  0.45651315  0.46159147
   0.58028025  0.52348693  0.55662125
   0.51033785  0.52285945  0.45615126
   0.51905705  0.44362203  0.53109561
   0.50700856  0.47867461  0.63362507
   0.46777792  0.54140323  0.55733056
   0.48410744  0.42253936  0.43251325
   0.41178911  0.48904503  0.48220119
   0.47408490  0.35121645  0.51674407
   0.50188880  0.37776995  0.61726411
   0.41704650  0.43345002  0.57475415
   0.38330716  0.39200304  0.47648478
Direct configuration=     4
   0.62569031  0.55946616  0.46305405
   0.53704886  0.61023801  0.51209423
   0.58309801  0.51417264  0.37222977
   0.54764111  0.60793506  0.40248341
   0.59932513  0.45628682  0.46134858
   0.58032907  0.52332208  0.55694948
   0.51059384  0.52339087  0.45554988
   0.51882916  0.44307956  0.53158192
   0.50714130  0.47879492  0.63362662
   0.46757215  0.54206621  0.55750101
   0.48454400  0.42253051  0.43203085
   0.41101594  0.48900125  0.48198356
   0.47424008  0.35122055  0.51665475
   0.50206238  0.37746955  0.61762199
   0.41746242  0.43376173  0.57459680
   0.38324286  0.39207465  0.47653576
Direct configuration=     5
   0.62562970  0.55945062  0.46297246
   0.53694697  0.61013837  0.51218342
   0.58298153  0.51412489  0.37237998
   0.54763219  0.60784578  0.40256575
   0.59940201  0.45614943  0.46120113
   0.58035871  0.52322202  0.55714873
   0.51074924  0.52371346  0.45518482
   0.51869082  0.44275026  0.53187712
   0.50722187  0.47886795  0.63362755
   0.46744724  0.54246865  0.55760447
   0.48480900  0.42252514  0.43173801
   0.41054660  0.48897467  0.48185145
   0.47433427  0.35122304  0.51660053
   0.50216775  0.37728720  0.61783924
   0.41771489  0.43395095  0.57450128
   0.38320383  0.39211812  0.47656671
Direct configuration=     6
   0.62540122  0.55926156  0.46295926
   0.53687795  0.60991298  0.51235843
   0.58281360  0.51398933  0.37254285
   0.54765527  0.60785263  0.40267034
   0.59920483  0.45600536  0.46117235
   0.58007710  0.52294357  0.55719880
   0.51053831  0.52363455  0.45524403
   0.51875518  0.44270353  0.53175369
   0.50733951  0.47900675  0.63351460
   0.46730622  0.54274784  0.55747952
   0.48525478  0.42281606  0.43168169
   0.41034204  0.48910083  0.48163696
   0.47438819  0.35127755  0.51647925
   0.50223783  0.37707788  0.61814062
   0.41820710  0.43431182  0.57431975
   0.38343748  0.39216832  0.47669053
Direct configuration=     7
   0.62471579  0.55869437  0.46291969
   0.53667086  0.60923682  0.51288345
   0.58230984  0.51358266  0.37303147
   0.54772450  0.60787318  0.40298410
   0.59861328  0.45557312  0.46108600
   0.57923227  0.52210825  0.55734899
   0.50990554  0.52339781  0.45542165
   0.51894825  0.44256334  0.53138341
   0.50769244  0.47942313  0.63317575
   0.46688317  0.54358540  0.55710465
   0.48659211  0.42368881  0.43151273
   0.40972839  0.48947929  0.48099349
   0.47454992  0.35144109  0.51611541
   0.50244808  0.37644989  0.61904477
   0.41968375  0.43539445  0.57377513
   0.38413843  0.39231893  0.47706198
Direct configuration=     8
   0.62445449  0.55832563  0.46311316
   0.53676371  0.60918357  0.51301485
   0.58194940  0.51335727  0.37302593
   0.54766001  0.60792672  0.40314896
   0.59863559  0.45522187  0.46102994
   0.57904294  0.52190085  0.55733660
   0.50953018  0.52343403  0.45567243
   0.51910717  0.44227514  0.53147174
   0.50781709  0.47944868  0.63295181
   0.46635775  0.54355812  0.55703316
   0.48703872  0.42395386  0.43128476
   0.40949182  0.48982162  0.48064803
   0.47488591  0.35148197  0.51616909
   0.50236921  0.37655515  0.61905051
   0.42020988  0.43590522  0.57370536
   0.38452274  0.39246086  0.47718635
Direct configuration=     9
   0.62371399  0.55728062  0.46366145
   0.53702686  0.60903264  0.51338725
   0.58092793  0.51271852  0.37301026
   0.54747722  0.60807844  0.40361616
   0.59869880  0.45422643  0.46087105
   0.57850638  0.52131310  0.55730147
   0.50846642  0.52353667  0.45638314
   0.51955754  0.44145839  0.53172208
   0.50817036  0.47952109  0.63231715
   0.46486869  0.54348079  0.55683055
   0.48830439  0.42470500  0.43063869
   0.40882138  0.49079176  0.47966900
   0.47583812  0.35159783  0.51632123
   0.50214569  0.37685344  0.61906677
   0.42170094  0.43735273  0.57350762
   0.38561189  0.39286309  0.47753881
Direct configuration=    10
   0.62350060  0.55695654  0.46379118
   0.53708803  0.60900629  0.51352683
   0.58051581  0.51254811  0.37307669
   0.54741610  0.60804569  0.40375636
   0.59879483  0.45395622  0.46078850
   0.57842530  0.52126970  0.55728113
   0.50841884  0.52363296  0.45656941
   0.51989648  0.44126758  0.53158076
   0.50830177  0.47960719  0.63229082
   0.46445619  0.54339838  0.55683770
   0.48856184  0.42486144  0.43048872
   0.40852335  0.49100481  0.47937775
   0.47612138  0.35150002  0.51633193
   0.50204828  0.37695096  0.61904956
   0.42177255  0.43777496  0.57345277
   0.38599526  0.39302970  0.47764254
Direct configuration=    11
   0.62286041  0.55598432  0.46418037
   0.53727156  0.60892725  0.51394560
   0.57927947  0.51203688  0.37327599
   0.54723272  0.60794743  0.40417694
   0.59908290  0.45314559  0.46054084
   0.57818207  0.52113950  0.55722011
   0.50827612  0.52392185  0.45712822
   0.52091328  0.44069512  0.53115683
   0.50869600  0.47986547  0.63221185
   0.46321867  0.54315115  0.55685916
   0.48933419  0.42533077  0.43003884
   0.40762927  0.49164398  0.47850399
   0.47697115  0.35120657  0.51636404
   0.50175602  0.37724352  0.61899794
   0.42198739  0.43904165  0.57328823
   0.38714538  0.39352951  0.47795373
Direct configuration=    12
   0.62158004  0.55403987  0.46495876
   0.53763862  0.60876916  0.51478313
   0.57680678  0.51101442  0.37367458
   0.54686598  0.60775090  0.40501810
   0.59965906  0.45152432  0.46004553
   0.57769562  0.52087911  0.55709806
   0.50799067  0.52449962  0.45824585
   0.52294689  0.43955022  0.53030895
   0.50948446  0.48038204  0.63205389
   0.46074362  0.54265669  0.55690208
   0.49087889  0.42626943  0.42913907
   0.40584109  0.49292232  0.47675648
   0.47867070  0.35061968  0.51642825
   0.50117151  0.37782863  0.61889470
   0.42241706  0.44157502  0.57295913
   0.38944560  0.39452914  0.47857611
Direct configuration=    13
   0.62228390  0.55510879  0.46453086
   0.53743684  0.60885607  0.51432272
   0.57816608  0.51157649  0.37345546
   0.54706759  0.60785894  0.40455569
   0.59934233  0.45241557  0.46031782
   0.57796303  0.52102225  0.55716515
   0.50814759  0.52418200  0.45763146
   0.52182896  0.44017960  0.53077505
   0.50905102  0.48009807  0.63214073
   0.46210422  0.54292851  0.55687849
   0.49002973  0.42575342  0.42963370
   0.40682410  0.49221958  0.47771713
   0.47773641  0.35094231  0.51639295
   0.50149283  0.37750697  0.61895146
   0.42218086  0.44018236  0.57314004
   0.38818111  0.39397962  0.47823397
Direct configuration=    14
   0.62210122  0.55467705  0.46440332
   0.53729719  0.60884646  0.51481987
   0.57722369  0.51122618  0.37369172
   0.54698167  0.60769659  0.40473584
   0.60000184  0.45197373  0.45982755
   0.57789250  0.52117337  0.55742702
   0.50823464  0.52419288  0.45809698
   0.52196238  0.44001502  0.53074365
   0.50929810  0.48039264  0.63224020
   0.46181532  0.54270950  0.55685801
   0.49018912  0.42598522  0.42949332
   0.40637404  0.49260263  0.47724148
   0.47814604  0.35056953  0.51627292
   0.50114897  0.37775933  0.61881509
   0.42217180  0.44079256  0.57276404
   0.38899810  0.39419787  0.47841166
Direct configuration=    15
   0.62155319  0.55338184  0.46402069
   0.53687823  0.60881763  0.51631133
   0.57439651  0.51017525  0.37440050
   0.54672389  0.60720954  0.40527628
   0.60198036  0.45064821  0.45835677
   0.57768090  0.52162671  0.55821264
   0.50849580  0.52422549  0.45949356
   0.52236262  0.43952128  0.53064945
   0.51003935  0.48127636  0.63253861
   0.46094860  0.54205247  0.55679658
   0.49066730  0.42668062  0.42907218
   0.40502387  0.49375176  0.47581451
   0.47937491  0.34945121  0.51591282
   0.50011739  0.37851638  0.61840599
   0.42214460  0.44262319  0.57163602
   0.39144908  0.39485263  0.47894474
Direct configuration=    16
   0.62134456  0.55288876  0.46387502
   0.53671873  0.60880666  0.51687912
   0.57332021  0.50977516  0.37467033
   0.54662576  0.60702413  0.40548203
   0.60273358  0.45014359  0.45779684
   0.57760034  0.52179930  0.55851172
   0.50859523  0.52423790  0.46002524
   0.52251499  0.43933331  0.53061359
   0.51032154  0.48161279  0.63265221
   0.46061864  0.54180234  0.55677320
   0.49084934  0.42694535  0.42891185
   0.40450987  0.49418923  0.47527127
   0.47984274  0.34902547  0.51577573
   0.49972467  0.37880458  0.61825024
   0.42213425  0.44332010  0.57120659
   0.39238216  0.39510189  0.47914769
Direct configuration=    17
   0.62115609  0.55230374  0.46361600
   0.53633828  0.60895321  0.51762504
   0.57167238  0.50894282  0.37477026
   0.54636791  0.60685824  0.40585139
   0.60342315  0.44930364  0.45748258
   0.57776907  0.52193821  0.55889543
   0.50843298  0.52384489  0.46117428
   0.52302071  0.43981101  0.53021847
   0.51039216  0.48189985  0.63287865
   0.46074158  0.54185394  0.55661225
   0.49118096  0.42737102  0.42888469
   0.40412660  0.49503314  0.47457667
   0.48070760  0.34838620  0.51547619
   0.49885025  0.37939439  0.61789017
   0.42231045  0.44377174  0.57081919
   0.39334643  0.39514454  0.47907142
Direct configuration=    18
   0.62092723  0.55159336  0.46330148
   0.53587630  0.60913118  0.51853079
   0.56967145  0.50793213  0.37489160
   0.54605482  0.60665680  0.40629990
   0.60426048  0.44828371  0.45710097
   0.57797396  0.52210688  0.55936137
   0.50823596  0.52336767  0.46256953
   0.52363480  0.44039106  0.52973868
   0.51047792  0.48224841  0.63315361
   0.46089085  0.54191660  0.55641681
   0.49158365  0.42788789  0.42885170
   0.40366121  0.49605787  0.47373322
   0.48175779  0.34760995  0.51511246
   0.49778846  0.38011057  0.61745293
   0.42252440  0.44432015  0.57034877
   0.39451732  0.39519633  0.47897882
Direct configuration=    19
   0.62040752  0.55082264  0.46303949
   0.53562009  0.60941315  0.51897178
   0.56778586  0.50684516  0.37522890
   0.54560301  0.60623471  0.40697291
   0.60472088  0.44748353  0.45690284
   0.57863056  0.52240340  0.55974197
   0.50849747  0.52335044  0.46330818
   0.52401283  0.44065161  0.52970628
   0.51021397  0.48235861  0.63332652
   0.46101066  0.54237014  0.55668458
   0.49195719  0.42808771  0.42858654
   0.40330375  0.49670390  0.47327400
   0.48294408  0.34750909  0.51471666
   0.49675166  0.38080162  0.61687782
   0.42292624  0.44448191  0.56983329
   0.39545083  0.39529293  0.47867091
Direct configuration=    20
   0.61938122  0.54930066  0.46252212
   0.53511412  0.60996998  0.51984263
   0.56406229  0.50469865  0.37589498
   0.54471079  0.60540119  0.40830194
   0.60563007  0.44590335  0.45651158
   0.57992717  0.52298896  0.56049355
   0.50901388  0.52331641  0.46476684
   0.52475935  0.44116615  0.52964231
   0.50969275  0.48257623  0.63366798
   0.46124726  0.54326578  0.55721337
   0.49269484  0.42848232  0.42806289
   0.40259787  0.49797964  0.47236714
   0.48528670  0.34730993  0.51393504
   0.49470421  0.38216627  0.61574210
   0.42371978  0.44480135  0.56881533
   0.39729430  0.39548369  0.47806288
Direct configuration=    21
   0.61882145  0.54809623  0.46234795
   0.53522875  0.61044281  0.52013930
   0.56203587  0.50306428  0.37617661
   0.54391375  0.60494581  0.40899060
   0.60588677  0.44515933  0.45631502
   0.58058914  0.52334391  0.56108066
   0.50886148  0.52344076  0.46554405
   0.52552644  0.44150726  0.52982857
   0.50928672  0.48287499  0.63364550
   0.46108535  0.54385745  0.55797878
   0.49307074  0.42850988  0.42761687
   0.40271117  0.49831761  0.47237345
   0.48677008  0.34777426  0.51310768
   0.49385784  0.38225988  0.61548615
   0.42369692  0.44539345  0.56771245
   0.39849414  0.39582267  0.47749900
Direct configuration=    22
   0.61796696  0.54625769  0.46208210
   0.53540374  0.61116456  0.52059217
   0.55894258  0.50056943  0.37660651
   0.54269707  0.60425069  0.41004184
   0.60627863  0.44402358  0.45601499
   0.58159961  0.52388573  0.56197688
   0.50862886  0.52363057  0.46673045
   0.52669738  0.44202794  0.53011290
   0.50866692  0.48333104  0.63361119
   0.46083818  0.54476061  0.55914717
   0.49364455  0.42855196  0.42693603
   0.40288413  0.49883351  0.47238309
   0.48903444  0.34848305  0.51184473
   0.49256587  0.38240279  0.61509544
   0.42366203  0.44629728  0.56602893
   0.40032567  0.39634013  0.47663826
Direct configuration=    23
   0.61818708  0.54673131  0.46215058
   0.53535866  0.61097863  0.52047551
   0.55973944  0.50121212  0.37649576
   0.54301050  0.60442976  0.40977103
   0.60617768  0.44431616  0.45609228
   0.58133931  0.52374615  0.56174601
   0.50868878  0.52358167  0.46642483
   0.52639574  0.44189381  0.53003966
   0.50882658  0.48321356  0.63362003
   0.46090185  0.54452795  0.55884618
   0.49349674  0.42854112  0.42711142
   0.40283957  0.49870061  0.47238060
   0.48845112  0.34830046  0.51217007
   0.49289869  0.38236597  0.61519609
   0.42367101  0.44606445  0.56646262
   0.39985386  0.39620683  0.47685999
Direct configuration=    24
   0.61827623  0.54645319  0.46228190
   0.53586970  0.61076362  0.52043983
   0.56010651  0.50101550  0.37621433
   0.54279266  0.60449129  0.40939729
   0.60595049  0.44438236  0.45602081
   0.58083894  0.52391530  0.56192254
   0.50803347  0.52350227  0.46668306
   0.52675879  0.44209897  0.53034602
   0.50878234  0.48320923  0.63328244
   0.46069841  0.54482841  0.55909642
   0.49339796  0.42836283  0.42737600
   0.40322563  0.49854342  0.47274371
   0.48863772  0.34893181  0.51181478
   0.49313702  0.38179122  0.61537115
   0.42359202  0.44637535  0.56646072
   0.39973873  0.39614581  0.47639167
Direct configuration=    25
   0.61835419  0.54620995  0.46239675
   0.53631667  0.61057556  0.52040863
   0.56042756  0.50084353  0.37596819
   0.54260214  0.60454511  0.40907041
   0.60575178  0.44444026  0.45595830
   0.58040131  0.52406323  0.56207694
   0.50746032  0.52343282  0.46690891
   0.52707632  0.44227841  0.53061397
   0.50874364  0.48320543  0.63298718
   0.46052047  0.54509120  0.55931528
   0.49331157  0.42820690  0.42760741
   0.40356328  0.49840594  0.47306128
   0.48880092  0.34948400  0.51150404
   0.49334546  0.38128852  0.61552426
   0.42352293  0.44664727  0.56645905
   0.39963804  0.39609244  0.47598207
Direct configuration=    26
   0.61810566  0.54599874  0.46249241
   0.53685937  0.61035796  0.52019068
   0.56066166  0.50083272  0.37606779
   0.54243906  0.60425722  0.40883973
   0.60549956  0.44441274  0.45584873
   0.58010605  0.52440051  0.56227872
   0.50760352  0.52355663  0.46658420
   0.52729293  0.44237229  0.53101937
   0.50860135  0.48302687  0.63279605
   0.46020499  0.54560789  0.55966949
   0.49341134  0.42810557  0.42785984
   0.40350183  0.49824164  0.47338485
   0.48896661  0.35017908  0.51116258
   0.49353052  0.38086455  0.61550549
   0.42371118  0.44656332  0.56653654
   0.39934094  0.39603283  0.47560618
Direct configuration=    27
   0.61779553  0.54573517  0.46261180
   0.53753660  0.61008642  0.51991870
   0.56095380  0.50081922  0.37619208
   0.54223556  0.60389797  0.40855187
   0.60518482  0.44437840  0.45571200
   0.57973759  0.52482139  0.56253051
   0.50778222  0.52371113  0.46617901
   0.52756325  0.44248944  0.53152527
   0.50842379  0.48280404  0.63255754
   0.45981131  0.54625267  0.56011151
   0.49353585  0.42797912  0.42817485
   0.40342514  0.49803661  0.47378862
   0.48917337  0.35104647  0.51073649
   0.49376147  0.38033549  0.61548207
   0.42394611  0.44645856  0.56663323
   0.39897019  0.39595846  0.47513711
Direct configuration=    28
   0.61762007  0.54568208  0.46275268
   0.53789376  0.61015532  0.51955707
   0.56104068  0.50089986  0.37613391
   0.54217672  0.60358332  0.40821473
   0.60501783  0.44401487  0.45570147
   0.57974148  0.52515857  0.56289006
   0.50765727  0.52364172  0.46637032
   0.52784906  0.44292539  0.53169433
   0.50813612  0.48253310  0.63267768
   0.45966948  0.54666766  0.56003048
   0.49382845  0.42803358  0.42839936
   0.40330357  0.49802627  0.47412382
   0.48920831  0.35148233  0.51037862
   0.49387299  0.38006967  0.61534342
   0.42430359  0.44596029  0.56660011
   0.39851724  0.39597652  0.47497463
Direct configuration=    29
   0.61714024  0.54553689  0.46313795
   0.53887045  0.61034374  0.51856815
   0.56127825  0.50112038  0.37597484
   0.54201580  0.60272285  0.40729274
   0.60456116  0.44302075  0.45567266
   0.57975212  0.52608063  0.56387329
   0.50731556  0.52345190  0.46689350
   0.52863067  0.44411756  0.53215666
   0.50734945  0.48179219  0.63300621
   0.45928163  0.54780253  0.55980887
   0.49462860  0.42818251  0.42901330
   0.40297113  0.49799800  0.47504048
   0.48930386  0.35267425  0.50939998
   0.49417796  0.37934275  0.61496424
   0.42528117  0.44459771  0.56650952
   0.39727856  0.39602592  0.47453028
Direct configuration=    30
   0.61695551  0.54518701  0.46342675
   0.53901740  0.61075001  0.51789389
   0.56117888  0.50119020  0.37606377
   0.54198653  0.60227138  0.40669433
   0.60472354  0.44256545  0.45545458
   0.57982825  0.52667637  0.56484486
   0.50706319  0.52352489  0.46714756
   0.52912227  0.44444755  0.53260167
   0.50684620  0.48170595  0.63315969
   0.45946872  0.54771320  0.55977590
   0.49464359  0.42818647  0.42907708
   0.40277037  0.49803891  0.47565747
   0.48912246  0.35319961  0.50895986
   0.49460624  0.37895054  0.61475355
   0.42548995  0.44411919  0.56595464
   0.39701353  0.39628383  0.47437709
Direct configuration=    31
   0.61664537  0.54459962  0.46391161
   0.53926410  0.61143207  0.51676191
   0.56101205  0.50130744  0.37621306
   0.54193737  0.60151341  0.40568968
   0.60499616  0.44180107  0.45508844
   0.57995606  0.52767652  0.56647600
   0.50663949  0.52364744  0.46757410
   0.52994759  0.44500156  0.53334876
   0.50600132  0.48156117  0.63341735
   0.45978282  0.54756323  0.55972055
   0.49466874  0.42819312  0.42918416
   0.40243331  0.49810760  0.47669330
   0.48881792  0.35408162  0.50822095
   0.49532527  0.37829206  0.61439982
   0.42584047  0.44331580  0.56502308
   0.39656858  0.39671683  0.47411991
Direct configuration=    32
   0.61636241  0.54416586  0.46430671
   0.53924536  0.61158892  0.51625043
   0.56082599  0.50119027  0.37641943
   0.54198198  0.60120408  0.40524277
   0.60503888  0.44157290  0.45487658
   0.57981521  0.52828999  0.56716691
   0.50667356  0.52360090  0.46758294
   0.53060870  0.44521277  0.53351361
   0.50558338  0.48149580  0.63355301
   0.46010331  0.54739795  0.55991678
   0.49465100  0.42834465  0.42921023
   0.40213872  0.49836660  0.47700841
   0.48872454  0.35438468  0.50803234
   0.49573510  0.37814007  0.61416791
   0.42603607  0.44301551  0.56486294
   0.39631238  0.39683961  0.47373169
Direct configuration=    33
   0.61551354  0.54286457  0.46549201
   0.53918914  0.61205946  0.51471597
   0.56026781  0.50083877  0.37703851
   0.54211582  0.60027609  0.40390203
   0.60516705  0.44088841  0.45424100
   0.57939268  0.53013042  0.56923964
   0.50677578  0.52346128  0.46760947
   0.53259203  0.44584639  0.53400814
   0.50432956  0.48129969  0.63396001
   0.46106478  0.54690210  0.56050546
   0.49459777  0.42879923  0.42928845
   0.40125497  0.49914360  0.47795372
   0.48844442  0.35529387  0.50746652
   0.49696460  0.37768410  0.61347215
   0.42662289  0.44211463  0.56438253
   0.39554377  0.39720796  0.47256706
Direct configuration=    34
   0.61522328  0.54241962  0.46589730
   0.53916992  0.61222035  0.51419129
   0.56007695  0.50071859  0.37725020
   0.54216158  0.59995878  0.40344359
   0.60521088  0.44065436  0.45402367
   0.57924820  0.53075972  0.56994837
   0.50681073  0.52341354  0.46761854
   0.53327019  0.44606304  0.53417724
   0.50390083  0.48123264  0.63409918
   0.46139354  0.54673256  0.56070675
   0.49457957  0.42895466  0.42931519
   0.40095279  0.49940928  0.47827695
   0.48834864  0.35560475  0.50727305
   0.49738500  0.37752819  0.61323425
   0.42682354  0.44180659  0.56421827
   0.39528096  0.39733391  0.47216883
Direct configuration=    35
   0.61493832  0.54190197  0.46671657
   0.53896714  0.61216944  0.51359389
   0.55985772  0.50023479  0.37704996
   0.54237625  0.59973038  0.40299243
   0.60522651  0.44025160  0.45371276
   0.57864971  0.53162164  0.57070583
   0.50633047  0.52325865  0.46789339
   0.53425555  0.44634575  0.53438321
   0.50351119  0.48093254  0.63437378
   0.46197716  0.54658206  0.56094451
   0.49437935  0.42911693  0.42940038
   0.40070022  0.49982893  0.47860309
   0.48829920  0.35603480  0.50719996
   0.49805191  0.37761640  0.61285940
   0.42726232  0.44151547  0.56398093
   0.39505358  0.39766924  0.47143257
Direct configuration=    36
   0.61433791  0.54081127  0.46844278
   0.53853986  0.61206218  0.51233517
   0.55939581  0.49921542  0.37662806
   0.54282855  0.59924913  0.40204184
   0.60525945  0.43940300  0.45305766
   0.57738869  0.53343770  0.57230180
   0.50531855  0.52293229  0.46847249
   0.53633171  0.44694141  0.53481719
   0.50269020  0.48030022  0.63495237
   0.46320688  0.54626495  0.56144548
   0.49395749  0.42945882  0.42957986
   0.40016807  0.50071312  0.47929028
   0.48819505  0.35694092  0.50704597
   0.49945710  0.37780225  0.61206960
   0.42818684  0.44090210  0.56348085
   0.39457447  0.39837578  0.46988126
Direct configuration=    37
   0.61368601  0.54018867  0.46945544
   0.53810015  0.61198699  0.51156804
   0.55906369  0.49857045  0.37641023
   0.54336808  0.59868018  0.40198558
   0.60514527  0.43878883  0.45249669
   0.57640592  0.53437526  0.57330150
   0.50502412  0.52278630  0.46801978
   0.53751317  0.44724634  0.53517627
   0.50258434  0.47970493  0.63549218
   0.46357524  0.54632865  0.56210386
   0.49364503  0.42947404  0.42969055
   0.39965732  0.50106312  0.47974661
   0.48818966  0.35757288  0.50700574
   0.50059573  0.37808175  0.61179963
   0.42875545  0.44080179  0.56265733
   0.39452743  0.39916038  0.46893323
Direct configuration=    38
   0.61284509  0.53938556  0.47076173
   0.53753294  0.61189000  0.51057847
   0.55863529  0.49773848  0.37612923
   0.54406404  0.59794627  0.40191302
   0.60499800  0.43799659  0.45177308
   0.57513821  0.53558467  0.57459107
   0.50464432  0.52259798  0.46743580
   0.53903719  0.44763967  0.53563947
   0.50244778  0.47893703  0.63618851
   0.46405042  0.54641081  0.56295314
   0.49324196  0.42949367  0.42983334
   0.39899848  0.50151460  0.48033524
   0.48818271  0.35838809  0.50695384
   0.50206450  0.37844228  0.61145139
   0.42948893  0.44067240  0.56159503
   0.39446677  0.40017247  0.46771032
Direct configuration=    39
   0.61244556  0.53900408  0.47097782
   0.53711315  0.61205678  0.51048118
   0.55858761  0.49751845  0.37605813
   0.54470837  0.59755761  0.40208557
   0.60468232  0.43762172  0.45141616
   0.57485974  0.53577428  0.57529128
   0.50411436  0.52246826  0.46744784
   0.53927653  0.44797350  0.53553294
   0.50277981  0.47869798  0.63641434
   0.46370352  0.54641011  0.56300529
   0.49347910  0.42919954  0.42960260
   0.39862484  0.50184715  0.48050852
   0.48831569  0.35855431  0.50697810
   0.50281902  0.37853130  0.61174336
   0.43000534  0.44096122  0.56103628
   0.39432164  0.40063426  0.46726325
Direct configuration=    40
   0.61170130  0.53829346  0.47138035
   0.53633116  0.61236745  0.51029995
   0.55849879  0.49710856  0.37592567
   0.54590865  0.59683360  0.40240699
   0.60409427  0.43692342  0.45075129
   0.57434102  0.53612750  0.57659566
   0.50312714  0.52222663  0.46747028
   0.53972237  0.44859535  0.53533450
   0.50339833  0.47825266  0.63683502
   0.46305731  0.54640881  0.56310244
   0.49392084  0.42865165  0.42917278
   0.39792883  0.50246663  0.48083131
   0.48856343  0.35886396  0.50702331
   0.50422455  0.37869714  0.61228725
   0.43096731  0.44149926  0.55999544
   0.39405130  0.40149449  0.46643044
Direct configuration=    41
   0.61086572  0.53785143  0.47180259
   0.53584768  0.61186027  0.51069925
   0.55844667  0.49709554  0.37589092
   0.54690092  0.59653762  0.40265890
   0.60401767  0.43613542  0.45032944
   0.57405661  0.53659808  0.57697893
   0.50263205  0.52225027  0.46738934
   0.53971171  0.44886208  0.53518550
   0.50388746  0.47824242  0.63676144
   0.46264808  0.54637464  0.56314650
   0.49420115  0.42813787  0.42871907
   0.39681320  0.50310937  0.48075680
   0.48867320  0.35906654  0.50736119
   0.50500793  0.37910236  0.61231163
   0.43194640  0.44149149  0.55984968
   0.39418017  0.40209517  0.46600148
Direct configuration=    42
   0.61026470  0.53753348  0.47210631
   0.53549991  0.61149547  0.51098646
   0.55840918  0.49708617  0.37586593
   0.54761464  0.59632473  0.40284010
   0.60396257  0.43556863  0.45002600
   0.57385203  0.53693656  0.57725462
   0.50227593  0.52226728  0.46733113
   0.53970404  0.44905394  0.53507833
   0.50423928  0.47823505  0.63670853
   0.46235373  0.54635006  0.56317819
   0.49440278  0.42776831  0.42839272
   0.39601074  0.50357168  0.48070320
   0.48875215  0.35921225  0.50760423
   0.50557140  0.37939382  0.61232917
   0.43265066  0.44148590  0.55974484
   0.39427287  0.40252723  0.46569293
Direct configuration=    43
   0.60977653  0.53707374  0.47248444
   0.53517987  0.61115390  0.51134690
   0.55838385  0.49702676  0.37594265
   0.54834701  0.59635047  0.40297516
   0.60397611  0.43499401  0.44975896
   0.57371123  0.53725116  0.57747469
   0.50152676  0.52198256  0.46707172
   0.53996162  0.44930351  0.53472180
   0.50458488  0.47844211  0.63670690
   0.46204561  0.54624381  0.56320805
   0.49462646  0.42756630  0.42814277
   0.39530050  0.50389470  0.48081247
   0.48879187  0.35928664  0.50778163
   0.50615680  0.37961764  0.61234658
   0.43291007  0.44156081  0.55955823
   0.39455746  0.40306244  0.46550972
Direct configuration=    44
   0.60831201  0.53569451  0.47361884
   0.53421974  0.61012918  0.51242823
   0.55830784  0.49684852  0.37617281
   0.55054410  0.59642769  0.40338034
   0.60401672  0.43327018  0.44895786
   0.57328883  0.53819495  0.57813490
   0.49927924  0.52112838  0.46629351
   0.54073436  0.45005224  0.53365220
   0.50562168  0.47906330  0.63670202
   0.46112125  0.54592506  0.56329764
   0.49529749  0.42696028  0.42739289
   0.39316981  0.50486373  0.48114030
   0.48891103  0.35950983  0.50831384
   0.50791298  0.38028911  0.61239880
   0.43368830  0.44178553  0.55899841
   0.39541124  0.40466807  0.46496008
Direct configuration=    45
   0.60747588  0.53473712  0.47409867
   0.53372941  0.60980669  0.51229657
   0.55839342  0.49678923  0.37643439
   0.55145438  0.59644969  0.40388549
   0.60433875  0.43253561  0.44844663
   0.57325130  0.53839159  0.57873348
   0.49818503  0.52112077  0.46566991
   0.54125292  0.45043338  0.53330203
   0.50588882  0.47931896  0.63670068
   0.46075908  0.54559717  0.56326344
   0.49558886  0.42657950  0.42710572
   0.39227339  0.50514251  0.48178023
   0.48899046  0.35964444  0.50834033
   0.50876617  0.38078997  0.61227519
   0.43367513  0.44211884  0.55885570
   0.39581360  0.40535510  0.46465420
Direct configuration=    46
   0.60496750  0.53186494  0.47553813
   0.53225841  0.60883921  0.51190160
   0.55865015  0.49661135  0.37721915
   0.55418521  0.59651568  0.40540094
   0.60530483  0.43033192  0.44691297
   0.57313872  0.53898149  0.58052922
   0.49490239  0.52109792  0.46379912
   0.54280862  0.45157681  0.53225149
   0.50669025  0.48008596  0.63669667
   0.45967257  0.54461350  0.56316086
   0.49646297  0.42543718  0.42624422
   0.38958414  0.50597884  0.48370000
   0.48922875  0.36004826  0.50841981
   0.51132577  0.38229255  0.61190436
   0.43363563  0.44311878  0.55842758
   0.39702070  0.40741617  0.46373656
Direct configuration=    47
   0.60402380  0.53079296  0.47610967
   0.53178827  0.60841281  0.51158417
   0.55884385  0.49658757  0.37738597
   0.55500043  0.59646418  0.40587757
   0.60566227  0.42961152  0.44636257
   0.57319021  0.53937940  0.58113005
   0.49389810  0.52114722  0.46327739
   0.54298266  0.45190942  0.53189292
   0.50661043  0.48012919  0.63681205
   0.45968414  0.54447685  0.56300129
   0.49697533  0.42520399  0.42611644
   0.38859310  0.50634545  0.48453141
   0.48933385  0.36037113  0.50843929
   0.51210033  0.38296050  0.61147997