  10  10   0   0
  0.1121537E+04  0.2214784E-08  0.2206865E-08  0.2294599E-08  0.5000000E-15
   1.0000000000000000E-004
  CAR 
 unknown system                          
      1.89545977    -11.82912636  301     -4.07170523      1.00000000
    -11.829  0.0000E+00  0.0000E+00  0.0000E+00  0.0000E+00
    -11.783  0.0000E+00  0.0000E+00  0.0000E+00  0.0000E+00
    -11.738  0.0000E+00  0.0000E+00  0.0000E+00  0.0000E+00
    -11.692  0.0000E+00  0.0000E+00  0.0000E+00  0.0000E+00
    -11.646  0.0000E+00  0.0000E+00  0.0000E+00  0.0000E+00
    -11.600  0.0000E+00  0.0000E+00  0.0000E+00  0.0000E+00
    -11.555  0.0000E+00  0.0000E+00  0.0000E+00  0.0000E+00
    -11.509  0.0000E+00  0.0000E+00  0.0000E+00  0.0000E+00
    -11.463 -0.5166E-30  0.0000E+00 -0.2363E-31  0.0000E+00
    -11.417 -0.1950E-28  0.0000E+00 -0.9157E-30  0.0000E+00
    -11.372 -0.6778E-27 -0.4506E-29 -0.3193E-28 -0.2062E-30
    -11.326 -0.2120E-25 -0.1596E-27 -0.1002E-26 -0.7506E-29
    -11.280 -0.5962E-24 -0.5212E-26 -0.2828E-25 -0.2459E-27
    -11.234 -0.1508E-22 -0.1531E-24 -0.7182E-24 -0.7251E-26
    -11.189 -0.3430E-21 -0.4046E-23 -0.1641E-22 -0.1924E-24
    -11.143 -0.7016E-20 -0.9615E-22 -0.3374E-21 -0.4591E-23
    -11.097 -0.1290E-18 -0.2054E-20 -0.6240E-20 -0.9858E-22
    -11.051 -0.2132E-17 -0.3947E-19 -0.1038E-18 -0.1904E-20
    -11.006 -0.3046E-16 -0.6816E-18 -0.1497E-17 -0.3308E-19
    -10.960 -0.4093E-15 -0.1058E-16 -0.2022E-16 -0.5170E-18
    -10.914 -0.4897E-14 -0.1427E-15 -0.2443E-15 -0.7044E-17
    -10.868 -0.5255E-13 -0.1789E-14 -0.2648E-14 -0.8889E-16
    -10.823 -0.5060E-12 -0.2006E-13 -0.2580E-13 -0.1007E-14
    -10.777 -0.4371E-11 -0.2020E-12 -0.2258E-12 -0.1025E-13
    -10.731 -0.3384E-10 -0.1825E-11 -0.1774E-11 -0.9374E-13
    -10.685 -0.2348E-09 -0.1478E-10 -0.1251E-10 -0.7700E-12
    -10.640 -0.1458E-08 -0.1073E-09 -0.7920E-10 -0.5678E-11
    -10.594 -0.8093E-08 -0.6972E-09 -0.4494E-09 -0.3758E-10
    -10.548 -0.4013E-07 -0.4054E-08 -0.2285E-08 -0.2230E-09
    -10.502 -0.1775E-06 -0.2106E-07 -0.1041E-07 -0.1187E-08
    -10.457 -0.6985E-06 -0.9766E-07 -0.4236E-07 -0.5655E-08
    -10.411 -0.2440E-05 -0.4033E-06 -0.1540E-06 -0.2411E-07
    -10.365 -0.7534E-05 -0.1480E-05 -0.4986E-06 -0.9183E-07
    -10.319 -0.2045E-04 -0.4811E-05 -0.1434E-05 -0.3119E-06
    -10.274 -0.4840E-04 -0.1378E-04 -0.3649E-05 -0.9425E-06
    -10.228 -0.9841E-04 -0.3456E-04 -0.8151E-05 -0.2524E-05
    -10.182 -0.1672E-03 -0.7497E-04 -0.1580E-04 -0.5953E-05
    -10.136 -0.2229E-03 -0.1378E-03 -0.2600E-04 -0.1226E-04
    -10.091 -0.1861E-03 -0.2055E-03 -0.3451E-04 -0.2166E-04
    -10.045  0.6575E-04 -0.2196E-03 -0.3150E-04 -0.3171E-04
     -9.999  0.6489E-03 -0.7239E-04 -0.1815E-05 -0.3502E-04
     -9.953  0.1582E-02  0.3644E-03  0.7056E-04 -0.1834E-04
     -9.908  0.2705E-02  0.1162E-02  0.1943E-03  0.3480E-04
     -9.862  0.3692E-02  0.2239E-02  0.3632E-03  0.1372E-03
     -9.816  0.4184E-02  0.3327E-02  0.5546E-03  0.2894E-03
     -9.770  0.3984E-02  0.4060E-02  0.7369E-03  0.4752E-03
     -9.725  0.3173E-02  0.4151E-02  0.8820E-03  0.6651E-03
     -9.679  0.2063E-02  0.3564E-02  0.9764E-03  0.8281E-03
     -9.633  0.1016E-02  0.2531E-02  0.1023E-02  0.9439E-03
     -9.587  0.2739E-03  0.1419E-02  0.1035E-02  0.1009E-02
     -9.542 -0.1110E-03  0.5347E-03  0.1030E-02  0.1033E-02
     -9.496 -0.2248E-03  0.7520E-05  0.1020E-02  0.1034E-02
     -9.450 -0.1965E-03 -0.2024E-03  0.1011E-02  0.1024E-02
     -9.404 -0.1270E-03 -0.2177E-03  0.1005E-02  0.1014E-02
     -9.359 -0.6720E-04 -0.1562E-03  0.1002E-02  0.1007E-02
     -9.313 -0.3026E-04 -0.8915E-04  0.1001E-02  0.1003E-02
     -9.267 -0.1182E-04 -0.4278E-04  0.1000E-02  0.1001E-02
     -9.221 -0.4053E-05 -0.1768E-04  0.1000E-02  0.1000E-02
     -9.176 -0.1270E-05 -0.6382E-05  0.1000E-02  0.1000E-02
     -9.130 -0.5423E-06 -0.2027E-05  0.1000E-02  0.1000E-02
     -9.084 -0.9145E-06 -0.5698E-06  0.9999E-03  0.1000E-02
     -9.038 -0.2897E-05 -0.1429E-06  0.9998E-03  0.1000E-02
     -8.993 -0.8773E-05 -0.3623E-07  0.9994E-03  0.1000E-02
     -8.947 -0.2350E-04 -0.3022E-07  0.9983E-03  0.1000E-02
     -8.901 -0.5498E-04 -0.1112E-06  0.9958E-03  0.1000E-02
     -8.855 -0.1109E-03 -0.4505E-06  0.9908E-03  0.1000E-02
     -8.810 -0.1882E-03 -0.1637E-05  0.9821E-03  0.9999E-03
     -8.764 -0.2550E-03 -0.5269E-05  0.9705E-03  0.9997E-03
     -8.718 -0.2330E-03 -0.1495E-04  0.9598E-03  0.9990E-03
     -8.672 -0.8299E-06 -0.3710E-04  0.9598E-03  0.9973E-03
     -8.627  0.5625E-03 -0.7967E-04  0.9855E-03  0.9936E-03
     -8.581  0.1504E-02 -0.1450E-03  0.1054E-02  0.9870E-03
     -8.535  0.2736E-02 -0.2144E-03  0.1179E-02  0.9772E-03
     -8.489  0.4047E-02 -0.2286E-03  0.1365E-02  0.9667E-03
     -8.444  0.5174E-02 -0.8268E-04  0.1601E-02  0.9629E-03
     -8.398  0.5903E-02  0.3428E-03  0.1871E-02  0.9786E-03
     -8.352  0.6108E-02  0.1106E-02  0.2151E-02  0.1029E-02
     -8.306  0.5744E-02  0.2128E-02  0.2414E-02  0.1127E-02
     -8.261  0.4842E-02  0.3184E-02  0.2635E-02  0.1272E-02
     -8.215  0.3550E-02  0.4010E-02  0.2797E-02  0.1456E-02
     -8.169  0.2164E-02  0.4466E-02  0.2896E-02  0.1660E-02
     -8.123  0.1102E-02  0.4614E-02  0.2947E-02  0.1871E-02
     -8.078  0.7848E-03  0.4630E-02  0.2983E-02  0.2083E-02
     -8.032  0.1474E-02  0.4622E-02  0.3050E-02  0.2294E-02
     -7.986  0.3143E-02  0.4515E-02  0.3194E-02  0.2501E-02
     -7.940  0.5431E-02  0.4129E-02  0.3443E-02  0.2690E-02
     -7.895  0.7731E-02  0.3357E-02  0.3796E-02  0.2843E-02
     -7.849  0.9391E-02  0.2286E-02  0.4226E-02  0.2948E-02
     -7.803  0.1000E-01  0.1154E-02  0.4683E-02  0.3001E-02
     -7.757  0.9606E-02  0.2110E-03  0.5123E-02  0.3010E-02
     -7.712  0.8740E-02 -0.3861E-03  0.5523E-02  0.2993E-02
     -7.666  0.8195E-02 -0.5574E-03  0.5898E-02  0.2967E-02
     -7.620  0.8624E-02 -0.2329E-03  0.6292E-02  0.2957E-02
     -7.575  0.1019E-01  0.6682E-03  0.6758E-02  0.2987E-02
     -7.529  0.1245E-01  0.2157E-02  0.7327E-02  0.3086E-02
     -7.483  0.1461E-01  0.4049E-02  0.7996E-02  0.3271E-02
     -7.437  0.1589E-01  0.5927E-02  0.8723E-02  0.3542E-02
     -7.392  0.1584E-01  0.7279E-02  0.9447E-02  0.3875E-02
     -7.346  0.1451E-01  0.7750E-02  0.1011E-01  0.4230E-02
     -7.300  0.1234E-01  0.7356E-02  0.1068E-01  0.4566E-02
     -7.254  0.9940E-02  0.6467E-02  0.1113E-01  0.4862E-02
     -7.209  0.7948E-02  0.5597E-02  0.1149E-01  0.5118E-02
     -7.163  0.6787E-02  0.5146E-02  0.1180E-01  0.5354E-02
     -7.117  0.6561E-02  0.5274E-02  0.1210E-01  0.5595E-02
     -7.071  0.7009E-02  0.5933E-02  0.1243E-01  0.5866E-02
     -7.026  0.7612E-02  0.6967E-02  0.1277E-01  0.6185E-02
     -6.980  0.7875E-02  0.8175E-02  0.1313E-01  0.6559E-02
     -6.934  0.7634E-02  0.9366E-02  0.1348E-01  0.6988E-02
     -6.888  0.7162E-02  0.1040E-01  0.1381E-01  0.7463E-02
     -6.843  0.6972E-02  0.1122E-01  0.1413E-01  0.7977E-02
     -6.797  0.7450E-02  0.1179E-01  0.1447E-01  0.8516E-02
     -6.751  0.8612E-02  0.1207E-01  0.1486E-01  0.9068E-02
     -6.705  0.1016E-01  0.1205E-01  0.1533E-01  0.9620E-02
     -6.660  0.1172E-01  0.1176E-01  0.1587E-01  0.1016E-01
     -6.614  0.1309E-01  0.1134E-01  0.1646E-01  0.1068E-01
     -6.568  0.1432E-01  0.1095E-01  0.1712E-01  0.1118E-01
     -6.522  0.1548E-01  0.1061E-01  0.1783E-01  0.1166E-01
     -6.477  0.1662E-01  0.1021E-01  0.1859E-01  0.1213E-01
     -6.431  0.1760E-01  0.9644E-02  0.1939E-01  0.1257E-01
     -6.385  0.1820E-01  0.8913E-02  0.2023E-01  0.1298E-01
     -6.339  0.1825E-01  0.8238E-02  0.2106E-01  0.1336E-01
     -6.294  0.1768E-01  0.7955E-02  0.2187E-01  0.1372E-01
     -6.248  0.1657E-01  0.8355E-02  0.2263E-01  0.1410E-01
     -6.202  0.1508E-01  0.9551E-02  0.2332E-01  0.1454E-01
     -6.156  0.1343E-01  0.1142E-01  0.2393E-01  0.1506E-01
     -6.111  0.1194E-01  0.1366E-01  0.2448E-01  0.1569E-01
     -6.065  0.1094E-01  0.1588E-01  0.2498E-01  0.1641E-01
     -6.019  0.1058E-01  0.1771E-01  0.2546E-01  0.1722E-01
     -5.973  0.1073E-01  0.1888E-01  0.2595E-01  0.1809E-01
     -5.928  0.1099E-01  0.1924E-01  0.2646E-01  0.1897E-01
     -5.882  0.1098E-01  0.1877E-01  0.2696E-01  0.1983E-01
     -5.836  0.1058E-01  0.1756E-01  0.2744E-01  0.2063E-01
     -5.790  0.1006E-01  0.1582E-01  0.2790E-01  0.2135E-01
     -5.745  0.9812E-02  0.1383E-01  0.2835E-01  0.2199E-01
     -5.699  0.1009E-01  0.1195E-01  0.2881E-01  0.2253E-01
     -5.653  0.1090E-01  0.1051E-01  0.2931E-01  0.2301E-01
     -5.607  0.1210E-01  0.9733E-02  0.2987E-01  0.2346E-01
     -5.562  0.1361E-01  0.9680E-02  0.3049E-01  0.2390E-01
     -5.516  0.1551E-01  0.1026E-01  0.3120E-01  0.2437E-01
     -5.470  0.1787E-01  0.1124E-01  0.3202E-01  0.2488E-01
     -5.424  0.2050E-01  0.1233E-01  0.3295E-01  0.2545E-01
     -5.379  0.2294E-01  0.1317E-01  0.3400E-01  0.2605E-01
     -5.333  0.2472E-01  0.1343E-01  0.3513E-01  0.2667E-01
     -5.287  0.2567E-01  0.1293E-01  0.3631E-01  0.2726E-01
     -5.241  0.2611E-01  0.1172E-01  0.3750E-01  0.2779E-01
     -5.196  0.2658E-01  0.1016E-01  0.3872E-01  0.2826E-01
     -5.150  0.2741E-01  0.8840E-02  0.3997E-01  0.2866E-01
     -5.104  0.2852E-01  0.8338E-02  0.4128E-01  0.2904E-01
     -5.058  0.2949E-01  0.8955E-02  0.4263E-01  0.2945E-01
     -5.013  0.2996E-01  0.1059E-01  0.4400E-01  0.2994E-01
     -4.967  0.2977E-01  0.1280E-01  0.4536E-01  0.3052E-01
     -4.921  0.2884E-01  0.1504E-01  0.4668E-01  0.3121E-01
     -4.875  0.2704E-01  0.1681E-01  0.4792E-01  0.3198E-01
     -4.830  0.2424E-01  0.1777E-01  0.4903E-01  0.3279E-01
     -4.784  0.2065E-01  0.1785E-01  0.4997E-01  0.3361E-01
     -4.738  0.1682E-01  0.1724E-01  0.5074E-01  0.3440E-01
     -4.692  0.1344E-01  0.1641E-01  0.5135E-01  0.3515E-01
     -4.647  0.1087E-01  0.1596E-01  0.5185E-01  0.3588E-01
     -4.601  0.8911E-02  0.1631E-01  0.5226E-01  0.3663E-01
     -4.555  0.7100E-02  0.1747E-01  0.5258E-01  0.3743E-01
     -4.509  0.5133E-02  0.1901E-01  0.5282E-01  0.3829E-01
     -4.464  0.3125E-02  0.2025E-01  0.5296E-01  0.3922E-01
     -4.418  0.1506E-02  0.2059E-01  0.5303E-01  0.4016E-01
     -4.372  0.7017E-03  0.1983E-01  0.5306E-01  0.4107E-01
     -4.326  0.8618E-03  0.1824E-01  0.5310E-01  0.4190E-01
     -4.281  0.1767E-02  0.1649E-01  0.5318E-01  0.4266E-01
     -4.235  0.2929E-02  0.1531E-01  0.5332E-01  0.4336E-01
     -4.189  0.3798E-02  0.1518E-01  0.5349E-01  0.4405E-01
     -4.143  0.4000E-02  0.1613E-01  0.5367E-01  0.4479E-01
     -4.098  0.3478E-02  0.1774E-01  0.5383E-01  0.4560E-01
     -4.052  0.2479E-02  0.1935E-01  0.5395E-01  0.4649E-01
     -4.006  0.1387E-02  0.2037E-01  0.5401E-01  0.4742E-01
     -3.960  0.5160E-03  0.2053E-01  0.5403E-01  0.4836E-01
     -3.915 -0.1040E-05  0.1994E-01  0.5403E-01  0.4927E-01
     -3.869 -0.2046E-03  0.1892E-01  0.5402E-01  0.5014E-01
     -3.823 -0.2169E-03  0.1780E-01  0.5401E-01  0.5095E-01
     -3.777 -0.1546E-03  0.1661E-01  0.5401E-01  0.5171E-01
     -3.732 -0.8789E-04  0.1515E-01  0.5400E-01  0.5240E-01
     -3.686 -0.4214E-04  0.1312E-01  0.5400E-01  0.5300E-01
     -3.640 -0.1787E-04  0.1041E-01  0.5400E-01  0.5348E-01
     -3.594 -0.8265E-05  0.7288E-02  0.5400E-01  0.5381E-01
     -3.549 -0.8504E-05  0.4251E-02  0.5400E-01  0.5401E-01
     -3.503 -0.1908E-04  0.1817E-02  0.5400E-01  0.5409E-01
     -3.457 -0.4635E-04  0.2550E-03  0.5400E-01  0.5410E-01
     -3.411 -0.1005E-03 -0.4788E-03  0.5399E-01  0.5408E-01
     -3.366 -0.1874E-03 -0.6392E-03  0.5398E-01  0.5405E-01
     -3.320 -0.2901E-03 -0.5214E-03  0.5397E-01  0.5403E-01
     -3.274 -0.3432E-03 -0.3427E-03  0.5395E-01  0.5401E-01
     -3.228 -0.2161E-03 -0.2142E-03  0.5394E-01  0.5400E-01
     -3.183  0.2657E-03 -0.1706E-03  0.5396E-01  0.5400E-01
     -3.137  0.1242E-02 -0.2074E-03  0.5401E-01  0.5399E-01
     -3.091  0.2707E-02 -0.2933E-03  0.5414E-01  0.5397E-01
     -3.045  0.4425E-02 -0.3561E-03  0.5434E-01  0.5396E-01
     -3.000  0.5982E-02 -0.2616E-03  0.5461E-01  0.5394E-01
     -2.954  0.6967E-02  0.1761E-03  0.5493E-01  0.5395E-01
     -2.908  0.7217E-02  0.1125E-02  0.5526E-01  0.5400E-01
     -2.862  0.6944E-02  0.2614E-02  0.5558E-01  0.5412E-01
     -2.817  0.6629E-02  0.4427E-02  0.5588E-01  0.5433E-01
     -2.771  0.6699E-02  0.6112E-02  0.5619E-01  0.5461E-01
     -2.725  0.7216E-02  0.7140E-02  0.5652E-01  0.5493E-01
     -2.679  0.7801E-02  0.7183E-02  0.5688E-01  0.5526E-01
     -2.634  0.7880E-02  0.6326E-02  0.5724E-01  0.5555E-01
     -2.588  0.7074E-02  0.5091E-02  0.5756E-01  0.5578E-01
     -2.542  0.5451E-02  0.4190E-02  0.5781E-01  0.5597E-01
     -2.496  0.3458E-02  0.4154E-02  0.5797E-01  0.5616E-01
     -2.451  0.1640E-02  0.5029E-02  0.5804E-01  0.5639E-01
     -2.405  0.3476E-03  0.6335E-02  0.5806E-01  0.5668E-01
     -2.359 -0.3581E-03  0.7331E-02  0.5804E-01  0.5702E-01
     -2.313 -0.6123E-03  0.7414E-02  0.5801E-01  0.5736E-01
     -2.268 -0.5742E-03  0.6424E-02  0.5799E-01  0.5765E-01
     -2.222 -0.3062E-03  0.4671E-02  0.5797E-01  0.5787E-01
     -2.176  0.2321E-03  0.2717E-02  0.5799E-01  0.5799E-01
     -2.130  0.1085E-02  0.1065E-02  0.5803E-01  0.5804E-01
     -2.085  0.2175E-02 -0.1858E-04  0.5813E-01  0.5804E-01
     -2.039  0.3239E-02 -0.5037E-03  0.5828E-01  0.5802E-01
     -1.993  0.3917E-02 -0.4651E-03  0.5846E-01  0.5799E-01
     -1.947  0.3946E-02  0.2749E-04  0.5864E-01  0.5800E-01
     -1.902  0.3349E-02  0.9147E-03  0.5880E-01  0.5804E-01
     -1.856  0.2467E-02  0.2064E-02  0.5891E-01  0.5813E-01
     -1.810  0.1794E-02  0.3202E-02  0.5899E-01  0.5828E-01
     -1.764  0.1707E-02  0.3964E-02  0.5907E-01  0.5846E-01
     -1.719  0.2256E-02  0.4058E-02  0.5917E-01  0.5865E-01
     -1.673  0.3132E-02  0.3444E-02  0.5932E-01  0.5880E-01
     -1.627  0.3843E-02  0.2377E-02  0.5949E-01  0.5891E-01
     -1.581  0.3988E-02  0.1306E-02  0.5967E-01  0.5897E-01
     -1.536  0.3455E-02  0.6710E-03  0.5983E-01  0.5900E-01
     -1.490  0.2446E-02  0.7255E-03  0.5994E-01  0.5904E-01
     -1.444  0.1317E-02  0.1445E-02  0.6000E-01  0.5910E-01
     -1.398  0.3747E-03  0.2531E-02  0.6002E-01  0.5922E-01
     -1.353 -0.2363E-03  0.3523E-02  0.6001E-01  0.5938E-01
     -1.307 -0.5053E-03  0.3983E-02  0.5999E-01  0.5956E-01
     -1.261 -0.4504E-03  0.3708E-02  0.5997E-01  0.5973E-01
     -1.215 -0.4115E-04  0.2828E-02  0.5996E-01  0.5986E-01
     -1.170  0.7871E-03  0.1753E-02  0.6000E-01  0.5994E-01
     -1.124  0.2042E-02  0.9727E-03  0.6009E-01  0.5998E-01
     -1.078  0.3581E-02  0.8402E-03  0.6026E-01  0.6002E-01
     -1.032  0.5099E-02  0.1439E-02  0.6049E-01  0.6009E-01
     -0.987  0.6221E-02  0.2577E-02  0.6078E-01  0.6021E-01
     -0.941  0.6672E-02  0.3898E-02  0.6108E-01  0.6038E-01
     -0.895  0.6424E-02  0.5032E-02  0.6137E-01  0.6061E-01
     -0.849  0.5747E-02  0.5731E-02  0.6164E-01  0.6088E-01
     -0.804  0.5100E-02  0.5925E-02  0.6187E-01  0.6115E-01
     -0.758  0.4906E-02  0.5714E-02  0.6210E-01  0.6141E-01
     -0.712  0.5308E-02  0.5325E-02  0.6234E-01  0.6165E-01
     -0.666  0.6079E-02  0.5040E-02  0.6262E-01  0.6188E-01
     -0.621  0.6764E-02  0.5086E-02  0.6293E-01  0.6212E-01
     -0.575  0.6990E-02  0.5505E-02  0.6325E-01  0.6237E-01
     -0.529  0.6726E-02  0.6098E-02  0.6355E-01  0.6265E-01
     -0.483  0.6300E-02  0.6510E-02  0.6384E-01  0.6295E-01
     -0.438  0.6147E-02  0.6446E-02  0.6412E-01  0.6324E-01
     -0.392  0.6475E-02  0.5895E-02  0.6442E-01  0.6351E-01
     -0.346  0.7079E-02  0.5185E-02  0.6474E-01  0.6375E-01
     -0.300  0.7463E-02  0.4825E-02  0.6508E-01  0.6397E-01
     -0.255  0.7162E-02  0.5174E-02  0.6541E-01  0.6420E-01
     -0.209  0.6035E-02  0.6161E-02  0.6569E-01  0.6449E-01
     -0.163  0.4335E-02  0.7266E-02  0.6589E-01  0.6482E-01
     -0.117  0.2536E-02  0.7794E-02  0.6600E-01  0.6518E-01
     -0.072  0.1068E-02  0.7295E-02  0.6605E-01  0.6551E-01
     -0.026  0.1394E-03  0.5812E-02  0.6606E-01  0.6577E-01
      0.020 -0.2808E-03  0.3825E-02  0.6604E-01  0.6595E-01
      0.066 -0.3611E-03  0.1938E-02  0.6603E-01  0.6604E-01
      0.111 -0.2843E-03  0.5743E-03  0.6602E-01  0.6606E-01
      0.157 -0.1753E-03 -0.1595E-03  0.6601E-01  0.6606E-01
      0.203 -0.9057E-04 -0.3995E-03  0.6600E-01  0.6604E-01
      0.249 -0.4030E-04 -0.3679E-03  0.6600E-01  0.6602E-01
      0.294 -0.1567E-04 -0.2471E-03  0.6600E-01  0.6601E-01
      0.340 -0.5370E-05 -0.1357E-03  0.6600E-01  0.6600E-01
      0.386 -0.1630E-05 -0.6343E-04  0.6600E-01  0.6600E-01
      0.432 -0.4396E-06 -0.2575E-04  0.6600E-01  0.6600E-01
      0.477 -0.1056E-06 -0.9182E-05  0.6600E-01  0.6600E-01
      0.523 -0.2266E-07 -0.2893E-05  0.6600E-01  0.6600E-01
      0.569 -0.4346E-08 -0.8095E-06  0.6600E-01  0.6600E-01
      0.614 -0.7457E-09 -0.2017E-06  0.6600E-01  0.6600E-01
      0.660 -0.1146E-09 -0.4483E-07  0.6600E-01  0.6600E-01
      0.706 -0.1578E-10 -0.8909E-08  0.6600E-01  0.6600E-01
      0.752 -0.1948E-11 -0.1584E-08  0.6600E-01  0.6600E-01
      0.797 -0.2158E-12 -0.2524E-09  0.6600E-01  0.6600E-01
      0.843 -0.2145E-13 -0.3604E-10  0.6600E-01  0.6600E-01
      0.889 -0.1917E-14 -0.4617E-11  0.6600E-01  0.6600E-01
      0.935 -0.1553E-15 -0.5307E-12  0.6600E-01  0.6600E-01
      0.980 -0.9707E-17 -0.5476E-13  0.6600E-01  0.6600E-01
      1.026  0.0000E+00 -0.5077E-14  0.6600E-01  0.6600E-01
      1.072  0.0000E+00 -0.4223E-15  0.6600E-01  0.6600E-01
      1.118  0.0000E+00 -0.3398E-16  0.6600E-01  0.6600E-01
      1.163  0.0000E+00  0.0000E+00  0.6600E-01  0.6600E-01
      1.209  0.0000E+00  0.0000E+00  0.6600E-01  0.6600E-01
      1.255  0.0000E+00  0.0000E+00  0.6600E-01  0.6600E-01
      1.301  0.0000E+00  0.0000E+00  0.6600E-01  0.6600E-01
      1.346  0.0000E+00  0.0000E+00  0.6600E-01  0.6600E-01
      1.392  0.0000E+00  0.0000E+00  0.6600E-01  0.6600E-01
      1.438  0.0000E+00  0.0000E+00  0.6600E-01  0.6600E-01
      1.484  0.0000E+00  0.0000E+00  0.6600E-01  0.6600E-01
      1.529  0.0000E+00  0.0000E+00  0.6600E-01  0.6600E-01
      1.575  0.0000E+00  0.0000E+00  0.6600E-01  0.6600E-01
      1.621  0.0000E+00  0.0000E+00  0.6600E-01  0.6600E-01
      1.667  0.0000E+00  0.0000E+00  0.6600E-01  0.6600E-01
      1.712  0.0000E+00  0.0000E+00  0.6600E-01  0.6600E-01
      1.758  0.0000E+00  0.0000E+00  0.6600E-01  0.6600E-01
      1.804  0.0000E+00  0.0000E+00  0.6600E-01  0.6600E-01
      1.850  0.0000E+00  0.0000E+00  0.6600E-01  0.6600E-01
      1.895  0.0000E+00  0.0000E+00  0.6600E-01  0.6600E-01
