   10   10 1000    2
  0.1121537E+04  0.2214784E-08  0.2206864E-08  0.2294599E-08  0.5000000E-15
   1.0000000000000000E-004
  CAR 
 unknown system                          
    100      1     66
 
  0.1262379E-14  0.1262379E-14  0.1262379E-14  0.1000000E+01
    1       -9.829126     -9.764565   1.000000   1.000000
    2       -8.462891     -8.212827   1.000000   1.000000
    3       -8.291939     -7.978483   1.000000   1.000000
    4       -7.909136     -7.420934   1.000000   1.000000
    5       -7.825954     -7.340999   1.000000   1.000000
    6       -7.751714     -7.134957   1.000000   1.000000
    7       -7.565184     -6.963297   1.000000   1.000000
    8       -7.494575     -6.906817   1.000000   1.000000
    9       -7.469325     -6.771135   1.000000   1.000000
   10       -7.371829     -6.734620   1.000000   1.000000
   11       -7.356751     -6.638745   1.000000   1.000000
   12       -7.209332     -6.516480   1.000000   1.000000
   13       -7.019865     -6.459372   1.000000   1.000000
   14       -6.977579     -6.328841   1.000000   1.000000
   15       -6.767238     -6.193779   1.000000   1.000000
   16       -6.699934     -6.105661   1.000000   1.000000
   17       -6.602077     -6.070002   1.000000   1.000000
   18       -6.556673     -5.980068   1.000000   1.000000
   19       -6.459784     -5.964610   1.000000   1.000000
   20       -6.425786     -5.912246   1.000000   1.000000
   21       -6.366763     -5.827758   1.000000   1.000000
   22       -6.337018     -5.805427   1.000000   1.000000
   23       -6.235370     -5.709136   1.000000   1.000000
   24       -6.206341     -5.596093   1.000000   1.000000
   25       -6.125672     -5.496723   1.000000   1.000000
   26       -5.991441     -5.408993   1.000000   1.000000
   27       -5.911244     -5.344275   1.000000   1.000000
   28       -5.867469     -5.277531   1.000000   1.000000
   29       -5.711858     -5.195518   1.000000   1.000000
   30       -5.638498     -5.007869   1.000000   1.000000
   31       -5.569884     -4.990219   1.000000   1.000000
   32       -5.499062     -4.888737   1.000000   1.000000
   33       -5.422535     -4.842768   1.000000   1.000000
   34       -5.385430     -4.791863   1.000000   1.000002
   35       -5.349209     -4.756770   1.000000   1.000007
   36       -5.335247     -4.681560   1.000000   1.000071
   37       -5.298374     -4.591684   1.000000   1.000733
   38       -5.259103     -4.527920   1.000000   1.002910
   39       -5.206065     -4.508230   1.000000   1.004242
   40       -5.134932     -4.424020   1.000000   1.015951
   41       -5.113399     -4.419096   1.000000   1.016967
   42       -5.083759     -4.375526   1.000000   1.026792
   43       -5.073272     -4.299578   1.000000   1.034200
   44       -5.054007     -4.228527   1.000000   0.985869
   45       -5.011039     -4.138059   1.000000   0.764369
   46       -4.952220     -4.087010   1.000000   0.564551
   47       -4.893733     -4.055571   1.000000   0.431977
   48       -4.885561     -3.991800   1.000000   0.189954
   49       -4.849679     -3.978067   1.000000   0.147870
   50       -4.842708     -3.890234   1.000000  -0.012650
   51       -4.791904     -3.867697   1.000002  -0.027084
   52       -4.624333     -3.770587   1.000330  -0.027401
   53       -4.597250     -3.714129   1.000642  -0.014902
   54       -4.184257     -3.671804   0.902603  -0.008007
   55       -3.003941     -2.767807  -0.000000  -0.000000
   56       -2.900546     -2.672128  -0.000000  -0.000000
   57       -2.688696     -2.397948  -0.000000  -0.000000
   58       -2.625959     -2.317355  -0.000000  -0.000000
   59       -1.987043     -1.755696  -0.000000  -0.000000
   60       -1.621625     -1.322791  -0.000000  -0.000000
   61       -1.023953     -0.917451  -0.000000  -0.000000
   62       -0.893108     -0.750946  -0.000000  -0.000000
   63       -0.662130     -0.537250  -0.000000  -0.000000
   64       -0.561564     -0.413366  -0.000000  -0.000000
   65       -0.350609     -0.165121  -0.000000  -0.000000
   66       -0.259445     -0.104540  -0.000000  -0.000000
