       N       E                     dE             d eps       ncg     rms          rms(c)
DAV:   1     0.730642264019E+03    0.73064E+03   -0.16047E+04   264   0.694E+02
DAV:   2     0.248794739452E+03   -0.48185E+03   -0.44744E+03   464   0.124E+02
DAV:   3     0.178788041495E+02   -0.23092E+03   -0.21667E+03   400   0.128E+02
DAV:   4    -0.376174000090E+02   -0.55496E+02   -0.48457E+02   392   0.550E+01
DAV:   5    -0.440408725424E+02   -0.64235E+01   -0.57004E+01   326   0.239E+01    0.266E+01
DAV:   6    -0.565883238638E+02   -0.12547E+02   -0.93511E+01   298   0.160E+02    0.523E+01
DAV:   7    -0.393718450649E+02    0.17216E+02   -0.60296E+01   338   0.757E+01    0.284E+01
DAV:   8    -0.387797307293E+02    0.59211E+00   -0.30701E+01   344   0.785E+01    0.304E+01
DAV:   9    -0.409735351412E+02   -0.21938E+01   -0.32187E+01   348   0.677E+01    0.466E+01
DAV:  10    -0.372112556608E+02    0.37623E+01   -0.29731E+01   368   0.482E+01    0.274E+01
DAV:  11    -0.363674149270E+02    0.84384E+00   -0.85225E+00   358   0.336E+01    0.178E+01
DAV:  12    -0.357797933855E+02    0.58762E+00   -0.45781E+00   350   0.330E+01    0.216E+01
DAV:  13    -0.354654480320E+02    0.31435E+00   -0.52017E+00   302   0.291E+01    0.200E+01
DAV:  14    -0.356798373407E+02   -0.21439E+00   -0.31848E+00   308   0.214E+01    0.187E+01
DAV:  15    -0.353469673108E+02    0.33287E+00   -0.28906E+00   310   0.171E+01    0.113E+01
DAV:  16    -0.353171558208E+02    0.29811E-01   -0.41180E-01   378   0.940E+00    0.720E+00
DAV:  17    -0.355999400944E+02   -0.28278E+00   -0.23885E-01   298   0.518E+00    0.556E+00
DAV:  18    -0.361901027656E+02   -0.59016E+00   -0.25802E-01   346   0.433E+00    0.486E+00
DAV:  19    -0.366049362899E+02   -0.41483E+00   -0.15705E-01   354   0.443E+00    0.224E+00
DAV:  20    -0.367877678515E+02   -0.18283E+00   -0.51662E-02   286   0.207E+00    0.190E+00
DAV:  21    -0.370308883098E+02   -0.24312E+00   -0.45749E-02   372   0.250E+00    0.149E+00
DAV:  22    -0.372283977034E+02   -0.19751E+00   -0.25231E-02   358   0.139E+00    0.140E+00
DAV:  23    -0.373773733790E+02   -0.14898E+00   -0.13066E-02   338   0.110E+00    0.812E-01
DAV:  24    -0.374971773844E+02   -0.11980E+00   -0.96023E-03   328   0.918E-01    0.450E-01
DAV:  25    -0.375585273395E+02   -0.61350E-01   -0.26924E-03   354   0.550E-01    0.496E-01
DAV:  26    -0.376305084779E+02   -0.71981E-01   -0.27299E-03   326   0.533E-01    0.346E-01
DAV:  27    -0.377039754674E+02   -0.73467E-01   -0.20422E-03   274   0.287E-01    0.241E-01
DAV:  28    -0.377572065810E+02   -0.53231E-01   -0.10778E-03   266   0.245E-01    0.112E-01
DAV:  29    -0.378069966858E+02   -0.49790E-01   -0.13090E-03   274   0.180E-01    0.989E-02
DAV:  30    -0.378469237440E+02   -0.39927E-01   -0.12314E-03   250   0.173E-01    0.144E-01
DAV:  31    -0.378610619486E+02   -0.14138E-01   -0.22257E-04   214   0.126E-01    0.810E-02
DAV:  32    -0.378747179203E+02   -0.13656E-01   -0.29716E-04   218   0.747E-02    0.900E-02
DAV:  33    -0.378854889120E+02   -0.10771E-01   -0.17638E-04   204   0.849E-02    0.391E-02
DAV:  34    -0.378936259273E+02   -0.81370E-02   -0.17824E-04   210   0.609E-02    0.311E-02
DAV:  35    -0.379010499691E+02   -0.74240E-02   -0.16737E-04   204   0.408E-02    0.283E-02
DAV:  36    -0.379042885201E+02   -0.32386E-02   -0.63394E-05   190   0.302E-02    0.173E-02
DAV:  37    -0.379071936768E+02   -0.29052E-02   -0.79094E-05   194   0.327E-02    0.145E-02
DAV:  38    -0.379082338381E+02   -0.10402E-02   -0.35334E-05   192   0.258E-02    0.938E-03
DAV:  39    -0.379090252303E+02   -0.79139E-03   -0.33815E-05   178   0.200E-02    0.695E-03
DAV:  40    -0.379093589764E+02   -0.33375E-03   -0.15594E-05   184   0.135E-02    0.469E-03
DAV:  41    -0.379097549981E+02   -0.39602E-03   -0.15305E-05   170   0.117E-02    0.483E-03
DAV:  42    -0.379100082778E+02   -0.25328E-03   -0.11394E-05   172   0.117E-02    0.415E-03
DAV:  43    -0.379101676563E+02   -0.15938E-03   -0.81822E-06   178   0.959E-03    0.489E-03
DAV:  44    -0.379103176027E+02   -0.14995E-03   -0.73527E-06   172   0.928E-03    0.430E-03
DAV:  45    -0.379104412916E+02   -0.12369E-03   -0.74133E-06   180   0.942E-03    0.249E-03
DAV:  46    -0.379105464064E+02   -0.10511E-03   -0.66866E-06   172   0.743E-03    0.181E-03
DAV:  47    -0.379105942751E+02   -0.47869E-04   -0.36451E-06   176   0.657E-03
   1 F= -.37910594E+02 E0= -.37900902E+02  d E =-.379106E+02  mag=     7.8005
       N       E                     dE             d eps       ncg     rms          rms(c)
DAV:   1    -0.379107987723E+02   -0.25237E-03   -0.12574E-01   264   0.126E+00    0.113E-01
DAV:   2    -0.379113454096E+02   -0.54664E-03   -0.43265E-03   396   0.814E-01    0.573E-01
DAV:   3    -0.379103998734E+02    0.94554E-03   -0.32528E-03   300   0.838E-01    0.191E-01
DAV:   4    -0.379110108915E+02   -0.61102E-03   -0.84662E-04   228   0.414E-01    0.279E-01
DAV:   5    -0.379107963131E+02    0.21458E-03   -0.63540E-04   196   0.363E-01    0.133E-01
DAV:   6    -0.379109396862E+02   -0.14337E-03   -0.18574E-04   162   0.223E-01    0.758E-02
DAV:   7    -0.379109561217E+02   -0.16436E-04   -0.86915E-05   160   0.163E-01
   2 F= -.37910956E+02 E0= -.37901345E+02  d E =-.361847E-03  mag=     7.8003
       N       E                     dE             d eps       ncg     rms          rms(c)
DAV:   1    -0.379108564766E+02    0.83210E-04   -0.16889E-01   264   0.146E+00    0.138E-01
DAV:   2    -0.379117677255E+02   -0.91125E-03   -0.50828E-03   396   0.975E-01    0.714E-01
DAV:   3    -0.379102462336E+02    0.15215E-02   -0.37351E-03   324   0.102E+00    0.255E-01
DAV:   4    -0.379111883232E+02   -0.94209E-03   -0.15506E-03   284   0.577E-01    0.372E-01
DAV:   5    -0.379108628721E+02    0.32545E-03   -0.11374E-03   244   0.471E-01    0.179E-01
DAV:   6    -0.379110514275E+02   -0.18856E-03   -0.32302E-04   164   0.305E-01    0.960E-02
DAV:   7    -0.379110882815E+02   -0.36854E-04   -0.13826E-04   172   0.207E-01
   3 F= -.37911088E+02 E0= -.37901511E+02  d E =-.494006E-03  mag=     7.8004
