 vasp.6.1.2 22Jul20 (build Aug  2 2021 21:04:21) gamma-only                      
 executed on             LinuxPGI date 2021.12.22  21:12:51
 running on   16 total cores
 distrk:  each k-point on   16 cores,    1 groups
 distr:  one band on NCORE=   8 cores,    2 groups


--------------------------------------------------------------------------------------------------------


 INCAR:
 POTCAR:    PAW_PBE Ni 02Aug2007                  
 POTCAR:    PAW_PBE Pd 04Jan2005                  
 -----------------------------------------------------------------------------
|                                                                             |
|           W    W    AA    RRRRR   N    N  II  N    N   GGGG   !!!           |
|           W    W   A  A   R    R  NN   N  II  NN   N  G    G  !!!           |
|           W    W  A    A  R    R  N N  N  II  N N  N  G       !!!           |
|           W WW W  AAAAAA  RRRRR   N  N N  II  N  N N  G  GGG   !            |
|           WW  WW  A    A  R   R   N   NN  II  N   NN  G    G                |
|           W    W  A    A  R    R  N    N  II  N    N   GGGG   !!!           |
|                                                                             |
|     You use a magnetic or noncollinear calculation, but did not specify     |
|     the initial magnetic moment with the MAGMOM tag. Note that a            |
|     default of 1 will be used for all atoms. This ferromagnetic setup       |
|     may break the symmetry of the crystal, in particular it may rule        |
|     out finding an antiferromagnetic solution. Thence, we recommend         |
|     setting the initial magnetic moment manually or verifying carefully     |
|     that this magnetic setup is desired.                                    |
|                                                                             |
 -----------------------------------------------------------------------------

 POTCAR:    PAW_PBE Ni 02Aug2007                  
   SHA256 =  0534bc51ca8003dfef23f56753fef9fdd3e22eac8d719fccacb59f3e6b7a69c7 Ni/POTCAR             
   COPYR  = (c) Copyright 02Aug2007 Georg Kresse                                                    
   COPYR  = This file is part of the software VASP. Any use, copying, and all other rights are regul
   COPYR  = If you do not have a valid VASP license, you may not use, copy or distribute this file. 
   VRHFIN =Ni:                                                                                      
   LEXCH  = PE                                                                                      
   EATOM  =  1077.6739 eV,   79.2068 Ry                                                             
                                                                                                    
   TITEL  = PAW_PBE Ni 02Aug2007                                                                    
   LULTRA =        F    use ultrasoft PP ?                                                          
   IUNSCR =        1    unscreen: 0-lin 1-nonlin 2-no                                               
   RPACOR =    2.000    partial core radius                                                         
   POMASS =   58.690; ZVAL   =   10.000    mass and valenz                                          
   RCORE  =    2.300    outmost cutoff radius                                                       
   RWIGS  =    2.430; RWIGS  =    1.286    wigner-seitz radius (au A)                               
   ENMAX  =  269.532; ENMIN  =  202.149 eV                                                          
   RCLOC  =    1.201    cutoff for local pot                                                        
   LCOR   =        T    correct aug charges                                                         
   LPAW   =        T    paw PP                                                                      
   EAUG   =  544.565                                                                                
   DEXC   =    0.000                                                                                
   RMAX   =    2.357    core radius for proj-oper                                                   
   RAUG   =    1.300    factor for augmentation sphere                                              
   RDEP   =    2.390    radius for radial grids                                                     
   RDEPT  =    1.838    core radius for aug-charge                                                  
                                                                                                    
   Atomic configuration                                                                             
    9 entries                                                                                       
     n  l   j            E        occ.                                                              
     1  0  0.50     -8206.4253   2.0000                                                             
     2  0  0.50      -976.1748   2.0000                                                             
     2  1  1.50      -839.0571   6.0000                                                             
     3  0  0.50      -105.9991   2.0000                                                             
     3  1  1.50       -66.4603   6.0000                                                             
     3  2  2.50        -4.6458   9.0000                                                             
     4  0  0.50        -4.4926   1.0000                                                             
     4  1  1.50        -4.0817   0.0000                                                             
     4  3  2.50        -1.3606   0.0000                                                             
   Description                                                                                      
     l       E           TYP  RCUT    TYP  RCUT                                                     
     2     -4.6457903     23  2.300                                                                 
     2     -6.0063729     23  2.300                                                                 
     0     -4.4925590     23  2.300                                                                 
     0      5.0102601     23  2.300                                                                 
     1     -2.7211652     23  2.300                                                                 
     1     16.5183231     23  2.300                                                                 
  local pseudopotential read in
  partial core-charges read in
  partial kinetic energy density read in
  atomic valenz-charges read in
  non local Contribution for L=            2  read in
    real space projection operators read in
  non local Contribution for L=            2  read in
    real space projection operators read in
  non local Contribution for L=            0  read in
    real space projection operators read in
  non local Contribution for L=            0  read in
    real space projection operators read in
  non local Contribution for L=            1  read in
    real space projection operators read in
  non local Contribution for L=            1  read in
    real space projection operators read in
    PAW grid and wavefunctions read in
 
   number of l-projection  operators is LMAX  =            6
   number of lm-projection operators is LMMAX =           18
 
 POTCAR:    PAW_PBE Pd 04Jan2005                  
   SHA256 =  dd6f6f02930356371984e2b707ff5e456046761dc76b07c1eba30abd15eb3c39 Pd/POTCAR             
   COPYR  = (c) Copyright 04Jan2005 Georg Kresse                                                    
   COPYR  = This file is part of the software VASP. Any use, copying, and all other rights are regul
   COPYR  = If you do not have a valid VASP license, you may not use, copy or distribute this file. 
   VRHFIN =Pd : s1 d9                                                                               
   LEXCH  = PE                                                                                      
   EATOM  =   809.7530 eV,   59.5152 Ry                                                             
                                                                                                    
   TITEL  = PAW_PBE Pd 04Jan2005                                                                    
   LULTRA =        F    use ultrasoft PP ?                                                          
   IUNSCR =        1    unscreen: 0-lin 1-nonlin 2-no                                               
   RPACOR =    2.000    partial core radius                                                         
   POMASS =  106.420; ZVAL   =   10.000    mass and valenz                                          
   RCORE  =    2.600    outmost cutoff radius                                                       
   RWIGS  =    2.710; RWIGS  =    1.434    wigner-seitz radius (au A)                               
   ENMAX  =  250.925; ENMIN  =  188.194 eV                                                          
   ICORE  =        3    local potential                                                             
   LCOR   =        T    correct aug charges                                                         
   LPAW   =        T    paw PP                                                                      
   EAUG   =  416.230                                                                                
   DEXC   =    0.000                                                                                
   RMAX   =    2.653    core radius for proj-oper                                                   
   RAUG   =    1.300    factor for augmentation sphere                                              
   RDEP   =    2.734    radius for radial grids                                                     
   RDEPT  =    2.103    core radius for aug-charge                                                  
                                                                                                    
   Atomic configuration                                                                             
   12 entries                                                                                       
     n  l   j            E        occ.                                                              
     1  0  0.50    -24164.6631   2.0000                                                             
     2  0  0.50     -3530.9218   2.0000                                                             
     2  1  1.50     -3165.6822   6.0000                                                             
     3  0  0.50      -639.4577   2.0000                                                             
     3  1  1.50      -519.4532   6.0000                                                             
     3  2  2.50      -328.9757  10.0000                                                             
     4  0  0.50       -88.7014   2.0000                                                             
     4  1  1.50       -54.4540   6.0000                                                             
     4  2  2.50        -6.6878   9.0000                                                             
     5  0  0.50        -4.3543   1.0000                                                             
     5  1  0.50        -1.3606   0.0000                                                             
     4  3  2.50        -1.3606   0.0000                                                             
   Description                                                                                      
     l       E           TYP  RCUT    TYP  RCUT                                                     
     2     -6.6878251     23  2.400                                                                 
     2     -8.0484077     23  2.400                                                                 
     0     -4.3542939     23  2.400                                                                 
     0      4.3406793     23  2.400                                                                 
     1     -4.0817478     23  2.600                                                                 
     1     15.8380318     23  2.600                                                                 
     3     -4.0817478     23  2.400                                                                 
  local pseudopotential read in
  partial core-charges read in
  partial kinetic energy density read in
  atomic valenz-charges read in
  non local Contribution for L=            2  read in
    real space projection operators read in
  non local Contribution for L=            2  read in
    real space projection operators read in
  non local Contribution for L=            0  read in
    real space projection operators read in
  non local Contribution for L=            0  read in
    real space projection operators read in
  non local Contribution for L=            1  read in
    real space projection operators read in
  non local Contribution for L=            1  read in
    real space projection operators read in
    PAW grid and wavefunctions read in
 
   number of l-projection  operators is LMAX  =            6
   number of lm-projection operators is LMMAX =           18
 
  PAW_PBE Ni 02Aug2007                  :
 energy of atom  1       EATOM=-1077.6739
 kinetic energy error for atom=    0.0101 (will be added to EATOM!!)
  PAW_PBE Pd 04Jan2005                  :
 energy of atom  2       EATOM= -809.7530
 kinetic energy error for atom=    0.0091 (will be added to EATOM!!)
 
 
 POSCAR: Ni Pd
  positions in cartesian coordinates
  No initial velocities read in
 exchange correlation table for  LEXCH =        8
   RHO(1)=    0.500       N(1)  =     2000
   RHO(2)=  100.500       N(2)  =     4000
 


--------------------------------------------------------------------------------------------------------


 ion  position               nearest neighbor table
   1  0.451  0.531  0.520-   4 2.34   2 2.35   6 2.38  10 2.47   7 2.47   9 2.49
   2  0.532  0.516  0.456-   6 2.32   3 2.35   1 2.35   4 2.35   5 2.38   7 2.52   8 2.53
   3  0.487  0.426  0.425-   5 2.28   6 2.34   2 2.35   7 2.49   9 2.49
   4  0.541  0.585  0.534-   1 2.34   2 2.35  10 2.45   8 2.48
   5  0.586  0.424  0.451-   3 2.28   2 2.38   6 2.38   8 2.54
   6  0.511  0.441  0.523-   2 2.32   3 2.34   5 2.38   1 2.38   8 2.50   9 2.51  10 2.51
   7  0.426  0.520  0.416-   1 2.47   3 2.49   2 2.52   9 2.69
   8  0.609  0.496  0.535-   4 2.48   6 2.50   2 2.53   5 2.54  10 2.78
   9  0.402  0.433  0.495-   1 2.49   3 2.49   6 2.51   7 2.69
  10  0.511  0.511  0.609-   4 2.45   1 2.47   6 2.51   8 2.78
 

IMPORTANT INFORMATION: All symmetrisations will be switched off!
NOSYMM: (Re-)initialisation of all symmetry stuff for point group C_1.


----------------------------------------------------------------------------------------

                                     Primitive cell                                     

  volume of cell :   11215.3745

  direct lattice vectors                    reciprocal lattice vectors
    22.147836523  0.000000000  0.000000000     0.045151137  0.000000000  0.000000000
     0.000000000 22.068644800  0.000000000     0.000000000  0.045313159  0.000000000
     0.000000000  0.000000000 22.945990380     0.000000000  0.000000000  0.043580599

  length of vectors
    22.147836523 22.068644800 22.945990380     0.045151137  0.045313159  0.043580599

  position of ions in fractional coordinates (direct lattice)
     0.451224912  0.530782408  0.520261718
     0.532283803  0.516498757  0.455697222
     0.487363476  0.425615874  0.424807191
     0.540908935  0.584519219  0.534176739
     0.586442572  0.423550200  0.451184962
     0.510844878  0.440860111  0.523064492
     0.426293370  0.519805510  0.415931766
     0.609104927  0.495644049  0.534844713
     0.401652484  0.433247050  0.494927401
     0.511209772  0.511351175  0.608980973

  ion indices of the primitive-cell ions
   primitive index   ion index
                 1           1
                 2           2
                 3           3
                 4           4
                 5           5
                 6           6
                 7           7
                 8           8
                 9           9
                10          10

----------------------------------------------------------------------------------------

 
 
 KPOINTS: KPOINTS created by Atomic Simulation Env

Automatic generation of k-mesh.
Space group operators:
 irot       det(A)        alpha          n_x          n_y          n_z        tau_x        tau_y        tau_z
    1     1.000000     0.000000     1.000000     0.000000     0.000000     0.000000     0.000000     0.000000
 
 Subroutine IBZKPT returns following result:
 ===========================================
 
 Found      1 irreducible k-points:
 
 Following reciprocal coordinates:
            Coordinates               Weight
  0.000000  0.000000  0.000000      1.000000
 
 Following cartesian coordinates:
            Coordinates               Weight
  0.000000  0.000000  0.000000      1.000000
 


--------------------------------------------------------------------------------------------------------




 Dimension of arrays:
   k-points           NKPTS =      1   k-points in BZ     NKDIM =      1   number of bands    NBANDS=     66
   number of dos      NEDOS =    301   number of ions     NIONS =     10
   non local maximal  LDIM  =      6   non local SUM 2l+1 LMDIM =     18
   total plane-waves  NPLWV = ******
   max r-space proj   IRMAX =      1   max aug-charges    IRDMAX=   5849
   dimension x,y,z NGX =   108 NGY =  108 NGZ =  112
   dimension x,y,z NGXF=   216 NGYF=  216 NGZF=  224
   support grid    NGXF=   216 NGYF=  216 NGZF=  224
   ions per type =               6   4
   NGX,Y,Z   is equivalent  to a cutoff of   8.11,  8.14,  8.11 a.u.
   NGXF,Y,Z  is equivalent  to a cutoff of  16.21, 16.27, 16.23 a.u.

 SYSTEM =  unknown system                          
 POSCAR =  Ni Pd                                   

 Startparameter for this run:
   NWRITE =      2    write-flag & timer
   PREC   = normal    normal or accurate (medium, high low for compatibility)
   ISTART =      0    job   : 0-new  1-cont  2-samecut
   ICHARG =      2    charge: 1-file 2-atom 10-const
   ISPIN  =      2    spin polarized calculation?
   LNONCOLLINEAR =      F non collinear calculations
   LSORBIT =      F    spin-orbit coupling
   INIWAV =      1    electr: 0-lowe 1-rand  2-diag
   LASPH  =      F    aspherical Exc in radial PAW
   METAGGA=      F    non-selfconsistent MetaGGA calc.

 Electronic Relaxation 1
   ENCUT  =  400.0 eV  29.40 Ry    5.42 a.u.  36.12 35.99 37.42*2*pi/ulx,y,z
   ENINI  =  400.0     initial cutoff
   ENAUG  =  544.6 eV  augmentation charge cutoff
   NELM   =     60;   NELMIN=  2; NELMDL=  0     # of ELM steps 
   EDIFF  = 0.1E-03   stopping-criterion for ELM
   LREAL  =      F    real-space projection
   NLSPLINE    = F    spline interpolate recip. space projectors
   LCOMPAT=      F    compatible to vasp.4.4
   GGA_COMPAT  = T    GGA compatible to vasp.4.4-vasp.4.6
   LMAXPAW     = -100 max onsite density
   LMAXMIX     =    2 max onsite mixed and CHGCAR
   VOSKOWN=      0    Vosko Wilk Nusair interpolation
   ROPT   =    0.00000   0.00000
 Ionic relaxation
   EDIFFG = 0.1E-02   stopping-criterion for IOM
   NSW    =   1000    number of steps for IOM
   NBLOCK =      1;   KBLOCK =   1000    inner block; outer block 
   IBRION =      2    ionic relax: 0-MD 1-quasi-New 2-CG
   NFREE  =      1    steps in history (QN), initial steepest desc. (CG)
   ISIF   =      0    stress and relaxation
   IWAVPR =     11    prediction:  0-non 1-charg 2-wave 3-comb
   ISYM   =      0    0-nonsym 1-usesym 2-fastsym
   LCORR  =      T    Harris-Foulkes like correction to forces

   POTIM  = 0.5000    time-step for ionic-motion
   TEIN   =    0.0    initial temperature
   TEBEG  =    0.0;   TEEND  =   0.0 temperature during run
   SMASS  =  -3.00    Nose mass-parameter (am)
   estimated Nose-frequenzy (Omega)   =  0.10E-29 period in steps = 0.13E+47 mass=  -0.112E-25a.u.
   SCALEE = 1.0000    scale energy and forces
   NPACO  =    256;   APACO  = 16.0  distance and # of slots for P.C.
   PSTRESS=    0.0 pullay stress

  Mass of Ions in am
   POMASS =  58.69106.42
  Ionic Valenz
   ZVAL   =  10.00 10.00
  Atomic Wigner-Seitz radii
   RWIGS  =  -1.00 -1.00
  virtual crystal weights 
   VCA    =   1.00  1.00
   NELECT =     100.0000    total number of electrons
   NUPDOWN=      -1.0000    fix difference up-down

 DOS related values:
   EMIN   =  10.00;   EMAX   =-10.00  energy-range for DOS
   EFERMI =   0.00
   ISMEAR =     1;   SIGMA  =   0.20  broadening in eV -4-tet -1-fermi 0-gaus

 Electronic relaxation 2 (details)
   IALGO  =     38    algorithm
   LDIAG  =      T    sub-space diagonalisation (order eigenvalues)
   LSUBROT=      F    optimize rotation matrix (better conditioning)
   TURBO    =      0    0=normal 1=particle mesh
   IRESTART =      0    0=no restart 2=restart with 2 vectors
   NREBOOT  =      0    no. of reboots
   NMIN     =      0    reboot dimension
   EREF     =   0.00    reference energy to select bands
   IMIX   =      4    mixing-type and parameters
     AMIX     =   0.40;   BMIX     =  1.00
     AMIX_MAG =   1.60;   BMIX_MAG =  1.00
     AMIN     =   0.10
     WC   =   100.;   INIMIX=   1;  MIXPRE=   1;  MAXMIX= -45

 Intra band minimization:
   WEIMIN = 0.0010     energy-eigenvalue tresh-hold
   EBREAK =  0.38E-06  absolut break condition
   DEPER  =   0.30     relativ break condition  

   TIME   =   0.40     timestep for ELM

  volume/ion in A,a.u.               =    1121.54      7568.51
  Fermi-wavevector in a.u.,A,eV,Ry     =   0.339472  0.641508  1.567949  0.115241
  Thomas-Fermi vector in A             =   1.242384
 
 Write flags
   LWAVE        =      F    write WAVECAR
   LDOWNSAMPLE  =      F    k-point downsampling of WAVECAR
   LCHARG       =      F    write CHGCAR
   LVTOT        =      F    write LOCPOT, total local potential
   LVHAR        =      F    write LOCPOT, Hartree potential only
   LELF         =      F    write electronic localiz. function (ELF)
   LORBIT       =      0    0 simple, 1 ext, 2 COOP (PROOUT), +10 PAW based schemes


 Dipole corrections
   LMONO  =      F    monopole corrections only (constant potential shift)
   LDIPOL =      F    correct potential (dipole corrections)
   IDIPOL =      0    1-x, 2-y, 3-z, 4-all directions 
   EPSILON=  1.0000000 bulk dielectric constant

 Exchange correlation treatment:
   GGA     =    PE    GGA type
   LEXCH   =     8    internal setting for exchange type
   VOSKOWN=      0    Vosko Wilk Nusair interpolation
   LHFCALC =     F    Hartree Fock is set to
   LHFONE  =     F    Hartree Fock one center treatment
   AEXX    =    0.0000 exact exchange contribution

 Linear response parameters
   LEPSILON=     F    determine dielectric tensor
   LRPA    =     F    only Hartree local field effects (RPA)
   LNABLA  =     F    use nabla operator in PAW spheres
   LVEL    =     F    velocity operator in full k-point grid
   LINTERFAST=   F  fast interpolation
   KINTER  =     0    interpolate to denser k-point grid
   CSHIFT  =0.1000    complex shift for real part using Kramers Kronig
   OMEGAMAX=  -1.0    maximum frequency
   DEG_THRESHOLD= 0.2000000E-02 threshold for treating states as degnerate
   RTIME   =   -0.100 relaxation time in fs
  (WPLASMAI=    0.000 imaginary part of plasma frequency in eV, 0.658/RTIME)
   DFIELD  = 0.0000000 0.0000000 0.0000000 field for delta impulse in time
 
 Orbital magnetization related:
   ORBITALMAG=     F  switch on orbital magnetization
   LCHIMAG   =     F  perturbation theory with respect to B field
   DQ        =  0.001000  dq finite difference perturbation B field
   LLRAUG    =     F  two centre corrections for induced B field



--------------------------------------------------------------------------------------------------------


 conjugate gradient relaxation of ions
 charge density and potential will be updated during run
 spin polarized calculation
 Variant of blocked Davidson
 Davidson routine will perform the subspace rotation
 perform sub-space diagonalisation
    after iterative eigenvector-optimisation
 modified Broyden-mixing scheme, WC =      100.0
 initial mixing is a Kerker type mixing with AMIX =  0.4000 and BMIX =      1.0000
 Hartree-type preconditioning will be used
 using additional bands            16
 reciprocal scheme for non local part
 use partial core corrections
 calculate Harris-corrections to forces 
   (improved forces if not selfconsistent)
 use gradient corrections 
 use of overlap-Matrix (Vanderbilt PP)
 Methfessel and Paxton  Order N= 1 SIGMA  =   0.20


--------------------------------------------------------------------------------------------------------


  energy-cutoff  :      400.00
  volume of cell :    11215.37
      direct lattice vectors                 reciprocal lattice vectors
    22.147836523  0.000000000  0.000000000     0.045151137  0.000000000  0.000000000
     0.000000000 22.068644800  0.000000000     0.000000000  0.045313159  0.000000000
     0.000000000  0.000000000 22.945990380     0.000000000  0.000000000  0.043580599

  length of vectors
    22.147836523 22.068644800 22.945990380     0.045151137  0.045313159  0.043580599


 
 k-points in units of 2pi/SCALE and weight: KPOINTS created by Atomic Simulation Env
   0.00000000  0.00000000  0.00000000       1.000
 
 k-points in reciprocal lattice and weights: KPOINTS created by Atomic Simulation Env
   0.00000000  0.00000000  0.00000000       1.000
 
 position of ions in fractional coordinates (direct lattice) 
   0.45122491  0.53078241  0.52026172
   0.53228380  0.51649876  0.45569722
   0.48736348  0.42561587  0.42480719
   0.54090893  0.58451922  0.53417674
   0.58644257  0.42355020  0.45118496
   0.51084488  0.44086011  0.52306449
   0.42629337  0.51980551  0.41593177
   0.60910493  0.49564405  0.53484471
   0.40165248  0.43324705  0.49492740
   0.51120977  0.51135117  0.60898097
 
 position of ions in cartesian coordinates  (Angst):
   9.99365559 11.71364843 11.93792038
  11.78893464 11.39842760 10.45642408
  10.79404659  9.39276555  9.74762172
  11.97996266 12.89954702 12.25721431
  12.98843422  9.34717893 10.35288580
  11.31410885  9.72918520 12.00223280
   9.44147586 11.47140316  9.54396630
  13.49035634 10.93819246 12.27254165
   8.89573356  9.56117525 11.35659937
  11.32219047 11.28482745 13.97367154
 


--------------------------------------------------------------------------------------------------------


 use parallel FFT for orbitals z direction half grid
 k-point   1 :   0.0000 0.0000 0.0000  plane waves:  101761

 maximum and minimum number of plane-waves per node :     12724    12712

 maximum number of plane-waves:    101761
 maximum index in each direction: 
   IXMAX=   36   IYMAX=   35   IZMAX=   37
   IXMIN=  -36   IYMIN=  -35   IZMIN=    0


 parallel 3D FFT for wavefunctions:
    minimum data exchange during FFTs selected (reduces bandwidth)
 parallel 3D FFT for charge:
    minimum data exchange during FFTs selected (reduces bandwidth)


 total amount of memory used by VASP MPI-rank0   143695. kBytes
=======================================================================

   base      :      30000. kBytes
   nonl-proj :       5700. kBytes
   fftplans  :      26336. kBytes
   grid      :      68173. kBytes
   one-center:         31. kBytes
   wavefun   :      13455. kBytes
 
     INWAV:  cpu time    0.0000: real time    0.0000
 Broyden mixing: mesh for mixing (old mesh)
   NGX = 73   NGY = 71   NGZ = 75
  (NGX  =216   NGY  =216   NGZ  =224)
  gives a total of 388725 points

 initial charge density was supplied:
 charge density of overlapping atoms calculated
 number of electron     100.0000000 magnetization      10.0000000
 keeping initial charge density in first step


--------------------------------------------------------------------------------------------------------


 Maximum index for augmentation-charges           373 (set IRDMAX)


--------------------------------------------------------------------------------------------------------


 First call to EWALD:  gamma=   0.079
 Maximum number of real-space cells 3x 3x 3
 Maximum number of reciprocal cells 3x 3x 3

    FEWALD:  cpu time    0.0011: real time    0.0011


--------------------------------------- Iteration      1(   1)  ---------------------------------------


    POTLOK:  cpu time    2.2421: real time    2.2551
    SETDIJ:  cpu time    0.0213: real time    0.0214
     EDDAV:  cpu time    5.6664: real time    5.6758
       DOS:  cpu time    0.0009: real time    0.0009
    --------------------------------------------
      LOOP:  cpu time    7.9307: real time    7.9532

 eigenvalue-minimisations  :   264
 total energy-change (2. order) : 0.7306423E+03  (-0.1604736E+04)
 number of electron     100.0000000 magnetization      10.0000000
 augmentation part      100.0000000 magnetization      10.0000000

 Free energy of the ion-electron system (eV)
  ---------------------------------------------------
  alpha Z        PSCENC =         5.05286118
  Ewald energy   TEWEN  =     12818.48236133
  -Hartree energ DENC   =    -21791.12653765
  -exchange      EXHF   =         0.00000000
  -V(xc)+E(xc)   XCENC  =        63.21907003
  PAW double counting   =      9003.59075477    -9155.75339974
  entropy T*S    EENTRO =        -0.02773217
  eigenvalues    EBANDS =        82.24629317
  atomic energy  EATOM  =      9704.95859309
  Solvation  Ediel_sol  =         0.00000000
  ---------------------------------------------------
  free energy    TOTEN  =       730.64226402 eV

  energy without entropy =      730.66999619  energy(sigma->0) =      730.65150808


--------------------------------------------------------------------------------------------------------




--------------------------------------- Iteration      1(   2)  ---------------------------------------


     EDDAV:  cpu time    8.5572: real time    8.5673
       DOS:  cpu time    0.0008: real time    0.0008
    --------------------------------------------
      LOOP:  cpu time    8.5580: real time    8.5681

 eigenvalue-minimisations  :   464
 total energy-change (2. order) :-0.4818475E+03  (-0.4474378E+03)
 number of electron     100.0000000 magnetization      10.0000000
 augmentation part      100.0000000 magnetization      10.0000000

 Free energy of the ion-electron system (eV)
  ---------------------------------------------------
  alpha Z        PSCENC =         5.05286118
  Ewald energy   TEWEN  =     12818.48236133
  -Hartree energ DENC   =    -21791.12653765
  -exchange      EXHF   =         0.00000000
  -V(xc)+E(xc)   XCENC  =        63.21907003
  PAW double counting   =      9003.59075477    -9155.75339974
  entropy T*S    EENTRO =         0.02522287
  eigenvalues    EBANDS =      -399.65418643
  atomic energy  EATOM  =      9704.95859309
  Solvation  Ediel_sol  =         0.00000000
  ---------------------------------------------------
  free energy    TOTEN  =       248.79473945 eV

  energy without entropy =      248.76951658  energy(sigma->0) =      248.78633183


--------------------------------------------------------------------------------------------------------




--------------------------------------- Iteration      1(   3)  ---------------------------------------


     EDDAV:  cpu time    7.5771: real time    7.5892
       DOS:  cpu time    0.0008: real time    0.0008
    --------------------------------------------
      LOOP:  cpu time    7.5778: real time    7.5899

 eigenvalue-minimisations  :   400
 total energy-change (2. order) :-0.2309159E+03  (-0.2166732E+03)
 number of electron     100.0000000 magnetization      10.0000000
 augmentation part      100.0000000 magnetization      10.0000000

 Free energy of the ion-electron system (eV)
  ---------------------------------------------------
  alpha Z        PSCENC =         5.05286118
  Ewald energy   TEWEN  =     12818.48236133
  -Hartree energ DENC   =    -21791.12653765
  -exchange      EXHF   =         0.00000000
  -V(xc)+E(xc)   XCENC  =        63.21907003
  PAW double counting   =      9003.59075477    -9155.75339974
  entropy T*S    EENTRO =         0.01154067
  eigenvalues    EBANDS =      -630.55643953
  atomic energy  EATOM  =      9704.95859309
  Solvation  Ediel_sol  =         0.00000000
  ---------------------------------------------------
  free energy    TOTEN  =        17.87880415 eV

  energy without entropy =       17.86726348  energy(sigma->0) =       17.87495726


--------------------------------------------------------------------------------------------------------




--------------------------------------- Iteration      1(   4)  ---------------------------------------


     EDDAV:  cpu time    7.6125: real time    7.6207
       DOS:  cpu time    0.0008: real time    0.0008
    --------------------------------------------
      LOOP:  cpu time    7.6133: real time    7.6215

 eigenvalue-minimisations  :   392
 total energy-change (2. order) :-0.5549620E+02  (-0.4845680E+02)
 number of electron     100.0000000 magnetization      10.0000000
 augmentation part      100.0000000 magnetization      10.0000000

 Free energy of the ion-electron system (eV)
  ---------------------------------------------------
  alpha Z        PSCENC =         5.05286118
  Ewald energy   TEWEN  =     12818.48236133
  -Hartree energ DENC   =    -21791.12653765
  -exchange      EXHF   =         0.00000000
  -V(xc)+E(xc)   XCENC  =        63.21907003
  PAW double counting   =      9003.59075477    -9155.75339974
  entropy T*S    EENTRO =        -0.04311981
  eigenvalues    EBANDS =      -685.99798321
  atomic energy  EATOM  =      9704.95859309
  Solvation  Ediel_sol  =         0.00000000
  ---------------------------------------------------
  free energy    TOTEN  =       -37.61740001 eV

  energy without entropy =      -37.57428019  energy(sigma->0) =      -37.60302674


--------------------------------------------------------------------------------------------------------




--------------------------------------- Iteration      1(   5)  ---------------------------------------


     EDDAV:  cpu time    6.6184: real time    6.6249
       DOS:  cpu time    0.0009: real time    0.0009
    CHARGE:  cpu time    0.5758: real time    0.5764
    MIXING:  cpu time    0.0370: real time    0.0370
    --------------------------------------------
      LOOP:  cpu time    7.2322: real time    7.2393

 eigenvalue-minimisations  :   326
 total energy-change (2. order) :-0.6423473E+01  (-0.5700366E+01)
 number of electron     100.0000045 magnetization       9.7793781
 augmentation part       52.1680765 magnetization       7.8920754

 Broyden mixing:
  rms(total) = 0.26561E+01    rms(broyden)= 0.26552E+01
  rms(prec ) = 0.27861E+01
  weight for this iteration     100.00

 Free energy of the ion-electron system (eV)
  ---------------------------------------------------
  alpha Z        PSCENC =         5.05286118
  Ewald energy   TEWEN  =     12818.48236133
  -Hartree energ DENC   =    -21791.12653765
  -exchange      EXHF   =         0.00000000
  -V(xc)+E(xc)   XCENC  =        63.21907003
  PAW double counting   =      9003.59075477    -9155.75339974
  entropy T*S    EENTRO =        -0.01762207
  eigenvalues    EBANDS =      -692.44695349
  atomic energy  EATOM  =      9704.95859309
  Solvation  Ediel_sol  =         0.00000000
  ---------------------------------------------------
  free energy    TOTEN  =       -44.04087254 eV

  energy without entropy =      -44.02325048  energy(sigma->0) =      -44.03499852


--------------------------------------------------------------------------------------------------------




--------------------------------------- Iteration      1(   6)  ---------------------------------------


    POTLOK:  cpu time    2.2603: real time    2.2629
    SETDIJ:  cpu time    0.0243: real time    0.0243
     EDDAV:  cpu time    6.0345: real time    6.0404
       DOS:  cpu time    0.0048: real time    0.0048
    CHARGE:  cpu time    0.5847: real time    0.5852
    MIXING:  cpu time    0.0445: real time    0.0445
    --------------------------------------------
      LOOP:  cpu time    8.9530: real time    8.9621

 eigenvalue-minimisations  :   298
 total energy-change (2. order) :-0.1254745E+02  (-0.9351134E+01)
 number of electron     100.0000052 magnetization       9.5342178
 augmentation part       56.6207950 magnetization       8.8546394

 Broyden mixing:
  rms(total) = 0.52334E+01    rms(broyden)= 0.52330E+01
  rms(prec ) = 0.55713E+01
  weight for this iteration     100.00

 eigenvalues of (default mixing * dielectric matrix)
  average eigenvalue GAMMA=   0.2962
  0.2962

 Free energy of the ion-electron system (eV)
  ---------------------------------------------------
  alpha Z        PSCENC =         5.05286118
  Ewald energy   TEWEN  =     12818.48236133
  -Hartree energ DENC   =    -21716.69744808
  -exchange      EXHF   =         0.00000000
  -V(xc)+E(xc)   XCENC  =        59.88596005
  PAW double counting   =      9479.93895122    -9607.62413817
  entropy T*S    EENTRO =        -0.02489875
  eigenvalues    EBANDS =      -800.56056575
  atomic energy  EATOM  =      9704.95859309
  Solvation  Ediel_sol  =         0.00000000
  ---------------------------------------------------
  free energy    TOTEN  =       -56.58832386 eV

  energy without entropy =      -56.56342512  energy(sigma->0) =      -56.58002428


--------------------------------------------------------------------------------------------------------




--------------------------------------- Iteration      1(   7)  ---------------------------------------


    POTLOK:  cpu time    2.2563: real time    2.2596
    SETDIJ:  cpu time    0.0231: real time    0.0231
     EDDAV:  cpu time    6.6865: real time    6.6993
       DOS:  cpu time    0.0048: real time    0.0048
    CHARGE:  cpu time    0.5682: real time    0.5687
    MIXING:  cpu time    0.0443: real time    0.0443
    --------------------------------------------
      LOOP:  cpu time    9.5832: real time    9.5998

 eigenvalue-minimisations  :   338
 total energy-change (2. order) : 0.1721648E+02  (-0.6029579E+01)
 number of electron     100.0000055 magnetization       9.4958098
 augmentation part       54.7916954 magnetization       7.1427263

 Broyden mixing:
  rms(total) = 0.28448E+01    rms(broyden)= 0.28442E+01
  rms(prec ) = 0.30088E+01
  weight for this iteration     100.00

 eigenvalues of (default mixing * dielectric matrix)
  average eigenvalue GAMMA=   0.2443
  0.2443  0.2443

 Free energy of the ion-electron system (eV)
  ---------------------------------------------------
  alpha Z        PSCENC =         5.05286118
  Ewald energy   TEWEN  =     12818.48236133
  -Hartree energ DENC   =    -21776.48607609
  -exchange      EXHF   =         0.00000000
  -V(xc)+E(xc)   XCENC  =        61.14193612
  PAW double counting   =      9634.15796683    -9784.94374166
  entropy T*S    EENTRO =        -0.04772224
  eigenvalues    EBANDS =      -701.68802363
  atomic energy  EATOM  =      9704.95859309
  Solvation  Ediel_sol  =         0.00000000
  ---------------------------------------------------
  free energy    TOTEN  =       -39.37184506 eV

  energy without entropy =      -39.32412282  energy(sigma->0) =      -39.35593765


--------------------------------------------------------------------------------------------------------




--------------------------------------- Iteration      1(   8)  ---------------------------------------


    POTLOK:  cpu time    2.2465: real time    2.2532
    SETDIJ:  cpu time    0.0235: real time    0.0235
     EDDAV:  cpu time    6.7920: real time    6.8004
       DOS:  cpu time    0.0050: real time    0.0050
    CHARGE:  cpu time    0.5642: real time    0.5647
    MIXING:  cpu time    0.0433: real time    0.0433
    --------------------------------------------
      LOOP:  cpu time    9.6745: real time    9.6902

 eigenvalue-minimisations  :   344
 total energy-change (2. order) : 0.5921143E+00  (-0.3070098E+01)
 number of electron     100.0000059 magnetization       9.3564336
 augmentation part       55.3332876 magnetization       7.2576005

 Broyden mixing:
  rms(total) = 0.30445E+01    rms(broyden)= 0.30437E+01
  rms(prec ) = 0.32169E+01
  weight for this iteration     100.00

 eigenvalues of (default mixing * dielectric matrix)
  average eigenvalue GAMMA=   0.3207
  0.5506  0.2482  0.1633

 Free energy of the ion-electron system (eV)
  ---------------------------------------------------
  alpha Z        PSCENC =         5.05286118
  Ewald energy   TEWEN  =     12818.48236133
  -Hartree energ DENC   =    -21775.51324982
  -exchange      EXHF   =         0.00000000
  -V(xc)+E(xc)   XCENC  =        61.25067621
  PAW double counting   =      9699.64557763    -9850.03619877
  entropy T*S    EENTRO =        -0.04278489
  eigenvalues    EBANDS =      -702.57756670
  atomic energy  EATOM  =      9704.95859309
  Solvation  Ediel_sol  =         0.00000000
  ---------------------------------------------------
  free energy    TOTEN  =       -38.77973073 eV

  energy without entropy =      -38.73694583  energy(sigma->0) =      -38.76546910


--------------------------------------------------------------------------------------------------------




--------------------------------------- Iteration      1(   9)  ---------------------------------------


    POTLOK:  cpu time    2.2474: real time    2.2519
    SETDIJ:  cpu time    0.0232: real time    0.0232
     EDDAV:  cpu time    6.9781: real time    6.9866
       DOS:  cpu time    0.0050: real time    0.0050
    CHARGE:  cpu time    0.5832: real time    0.5837
    MIXING:  cpu time    0.0479: real time    0.0480
    --------------------------------------------
      LOOP:  cpu time    9.8848: real time    9.8985

 eigenvalue-minimisations  :   348
 total energy-change (2. order) :-0.2193804E+01  (-0.3218696E+01)
 number of electron     100.0000038 magnetization       9.2196735
 augmentation part       54.4916093 magnetization       7.7572234

 Broyden mixing:
  rms(total) = 0.46638E+01    rms(broyden)= 0.46633E+01
  rms(prec ) = 0.50983E+01
  weight for this iteration     100.00

 eigenvalues of (default mixing * dielectric matrix)
  average eigenvalue GAMMA=   0.3497
  0.8510  0.2720  0.1379  0.1379

 Free energy of the ion-electron system (eV)
  ---------------------------------------------------
  alpha Z        PSCENC =         5.05286118
  Ewald energy   TEWEN  =     12818.48236133
  -Hartree energ DENC   =    -21809.17087586
  -exchange      EXHF   =         0.00000000
  -V(xc)+E(xc)   XCENC  =        62.35792943
  PAW double counting   =      9866.03653382   -10023.28115692
  entropy T*S    EENTRO =        -0.03063880
  eigenvalues    EBANDS =      -665.37914241
  atomic energy  EATOM  =      9704.95859309
  Solvation  Ediel_sol  =         0.00000000
  ---------------------------------------------------
  free energy    TOTEN  =       -40.97353514 eV

  energy without entropy =      -40.94289634  energy(sigma->0) =      -40.96332221


--------------------------------------------------------------------------------------------------------




--------------------------------------- Iteration      1(  10)  ---------------------------------------


    POTLOK:  cpu time    2.2881: real time    2.2904
    SETDIJ:  cpu time    0.0233: real time    0.0233
     EDDAV:  cpu time    7.2134: real time    7.2221
       DOS:  cpu time    0.0049: real time    0.0049
    CHARGE:  cpu time    0.5585: real time    0.5590
    MIXING:  cpu time    0.0506: real time    0.0507
    --------------------------------------------
      LOOP:  cpu time   10.1388: real time   10.1503

 eigenvalue-minimisations  :   368
 total energy-change (2. order) : 0.3762279E+01  (-0.2973107E+01)
 number of electron     100.0000040 magnetization       9.1771558
 augmentation part       54.4518672 magnetization       7.0263060

 Broyden mixing:
  rms(total) = 0.27366E+01    rms(broyden)= 0.27358E+01
  rms(prec ) = 0.29506E+01
  weight for this iteration     100.00

 eigenvalues of (default mixing * dielectric matrix)
  average eigenvalue GAMMA=   0.3031
  0.8681  0.2925  0.1442  0.1442  0.0664

 Free energy of the ion-electron system (eV)
  ---------------------------------------------------
  alpha Z        PSCENC =         5.05286118
  Ewald energy   TEWEN  =     12818.48236133
  -Hartree energ DENC   =    -21823.34267929
  -exchange      EXHF   =         0.00000000
  -V(xc)+E(xc)   XCENC  =        62.83104273
  PAW double counting   =      9960.25233422   -10120.35028009
  entropy T*S    EENTRO =        -0.04089273
  eigenvalues    EBANDS =      -645.05459612
  atomic energy  EATOM  =      9704.95859309
  Solvation  Ediel_sol  =         0.00000000
  ---------------------------------------------------
  free energy    TOTEN  =       -37.21125566 eV

  energy without entropy =      -37.17036294  energy(sigma->0) =      -37.19762475


--------------------------------------------------------------------------------------------------------




--------------------------------------- Iteration      1(  11)  ---------------------------------------


    POTLOK:  cpu time    2.2365: real time    2.2411
    SETDIJ:  cpu time    0.0232: real time    0.0232
     EDDAV:  cpu time    6.9507: real time    6.9615
       DOS:  cpu time    0.0061: real time    0.0061
    CHARGE:  cpu time    0.5781: real time    0.5787
    MIXING:  cpu time    0.0576: real time    0.0577
    --------------------------------------------
      LOOP:  cpu time    9.8523: real time    9.8683

 eigenvalue-minimisations  :   358
 total energy-change (2. order) : 0.8438407E+00  (-0.8522465E+00)
 number of electron     100.0000065 magnetization       9.0490560
 augmentation part       54.4585347 magnetization       6.9644411

 Broyden mixing:
  rms(total) = 0.17775E+01    rms(broyden)= 0.17770E+01
  rms(prec ) = 0.18991E+01
  weight for this iteration     100.00

 eigenvalues of (default mixing * dielectric matrix)
  average eigenvalue GAMMA=   0.3328
  0.9457  0.4925  0.2296  0.1294  0.0997  0.0997

 Free energy of the ion-electron system (eV)
  ---------------------------------------------------
  alpha Z        PSCENC =         5.05286118
  Ewald energy   TEWEN  =     12818.48236133
  -Hartree energ DENC   =    -21825.39203673
  -exchange      EXHF   =         0.00000000
  -V(xc)+E(xc)   XCENC  =        62.76895063
  PAW double counting   =      9988.15241465   -10148.76741691
  entropy T*S    EENTRO =        -0.08274218
  eigenvalues    EBANDS =      -641.54039999
  atomic energy  EATOM  =      9704.95859309
  Solvation  Ediel_sol  =         0.00000000
  ---------------------------------------------------
  free energy    TOTEN  =       -36.36741493 eV

  energy without entropy =      -36.28467275  energy(sigma->0) =      -36.33983420


--------------------------------------------------------------------------------------------------------




--------------------------------------- Iteration      1(  12)  ---------------------------------------


    POTLOK:  cpu time    2.2682: real time    2.2703
    SETDIJ:  cpu time    0.0230: real time    0.0230
     EDDAV:  cpu time    6.9304: real time    6.9412
       DOS:  cpu time    0.0099: real time    0.0100
    CHARGE:  cpu time    0.6013: real time    0.6018
    MIXING:  cpu time    0.0616: real time    0.0617
    --------------------------------------------
      LOOP:  cpu time    9.8944: real time    9.9080

 eigenvalue-minimisations  :   350
 total energy-change (2. order) : 0.5876215E+00  (-0.4578106E+00)
 number of electron     100.0000045 magnetization       8.9820553
 augmentation part       54.3707621 magnetization       6.7364953

 Broyden mixing:
  rms(total) = 0.21630E+01    rms(broyden)= 0.21624E+01
  rms(prec ) = 0.23304E+01
  weight for this iteration     100.00

 eigenvalues of (default mixing * dielectric matrix)
  average eigenvalue GAMMA=   0.3285
  1.0491  0.5472  0.2341  0.1666  0.1133  0.1133  0.0758

 Free energy of the ion-electron system (eV)
  ---------------------------------------------------
  alpha Z        PSCENC =         5.05286118
  Ewald energy   TEWEN  =     12818.48236133
  -Hartree energ DENC   =    -21831.89509647
  -exchange      EXHF   =         0.00000000
  -V(xc)+E(xc)   XCENC  =        62.85925885
  PAW double counting   =     10057.70574761   -10219.95695579
  entropy T*S    EENTRO =        -0.02947633
  eigenvalues    EBANDS =      -632.95708687
  atomic energy  EATOM  =      9704.95859309
  Solvation  Ediel_sol  =         0.00000000
  ---------------------------------------------------
  free energy    TOTEN  =       -35.77979339 eV

  energy without entropy =      -35.75031706  energy(sigma->0) =      -35.76996794


--------------------------------------------------------------------------------------------------------




--------------------------------------- Iteration      1(  13)  ---------------------------------------


    POTLOK:  cpu time    2.2496: real time    2.2524
    SETDIJ:  cpu time    0.0228: real time    0.0229
     EDDAV:  cpu time    6.0340: real time    6.0395
       DOS:  cpu time    0.0090: real time    0.0090
    CHARGE:  cpu time    0.5728: real time    0.5733
    MIXING:  cpu time    0.0690: real time    0.0691
    --------------------------------------------
      LOOP:  cpu time    8.9572: real time    8.9662

 eigenvalue-minimisations  :   302
 total energy-change (2. order) : 0.3143454E+00  (-0.5201730E+00)
 number of electron     100.0000061 magnetization       8.8667850
 augmentation part       54.3898813 magnetization       6.5028798

 Broyden mixing:
  rms(total) = 0.19997E+01    rms(broyden)= 0.19992E+01
  rms(prec ) = 0.21280E+01
  weight for this iteration     100.00

 eigenvalues of (default mixing * dielectric matrix)
  average eigenvalue GAMMA=   0.3564
  1.2244  0.5940  0.3920  0.2407  0.1181  0.1181  0.0981  0.0662

 Free energy of the ion-electron system (eV)
  ---------------------------------------------------
  alpha Z        PSCENC =         5.05286118
  Ewald energy   TEWEN  =     12818.48236133
  -Hartree energ DENC   =    -21834.80854026
  -exchange      EXHF   =         0.00000000
  -V(xc)+E(xc)   XCENC  =        62.90682207
  PAW double counting   =     10088.27034683   -10251.22142137
  entropy T*S    EENTRO =        -0.02611640
  eigenvalues    EBANDS =      -629.08035452
  atomic energy  EATOM  =      9704.95859309
  Solvation  Ediel_sol  =         0.00000000
  ---------------------------------------------------
  free energy    TOTEN  =       -35.46544803 eV

  energy without entropy =      -35.43933164  energy(sigma->0) =      -35.45674257


--------------------------------------------------------------------------------------------------------




--------------------------------------- Iteration      1(  14)  ---------------------------------------


    POTLOK:  cpu time    2.2365: real time    2.2394
    SETDIJ:  cpu time    0.0231: real time    0.0231
     EDDAV:  cpu time    6.2610: real time    6.2671
       DOS:  cpu time    0.0049: real time    0.0049
    CHARGE:  cpu time    0.5687: real time    0.5692
    MIXING:  cpu time    0.0742: real time    0.0742
    --------------------------------------------
      LOOP:  cpu time    9.1683: real time    9.1779

 eigenvalue-minimisations  :   308
 total energy-change (2. order) :-0.2143893E+00  (-0.3184836E+00)
 number of electron     100.0000050 magnetization       8.8017772
 augmentation part       54.4742204 magnetization       6.6550551

 Broyden mixing:
  rms(total) = 0.18657E+01    rms(broyden)= 0.18652E+01
  rms(prec ) = 0.19884E+01
  weight for this iteration     100.00

 eigenvalues of (default mixing * dielectric matrix)
  average eigenvalue GAMMA=   0.3535
  1.3392  0.5567  0.5567  0.2341  0.1283  0.1051  0.1051  0.0944  0.0619

 Free energy of the ion-electron system (eV)
  ---------------------------------------------------
  alpha Z        PSCENC =         5.05286118
  Ewald energy   TEWEN  =     12818.48236133
  -Hartree energ DENC   =    -21838.24590058
  -exchange      EXHF   =         0.00000000
  -V(xc)+E(xc)   XCENC  =        62.67546999
  PAW double counting   =     10130.64266248   -10294.29392078
  entropy T*S    EENTRO =        -0.00902395
  eigenvalues    EBANDS =      -624.94294012
  atomic energy  EATOM  =      9704.95859309
  Solvation  Ediel_sol  =         0.00000000
  ---------------------------------------------------
  free energy    TOTEN  =       -35.67983734 eV

  energy without entropy =      -35.67081339  energy(sigma->0) =      -35.67682936


--------------------------------------------------------------------------------------------------------




--------------------------------------- Iteration      1(  15)  ---------------------------------------


    POTLOK:  cpu time    2.2460: real time    2.2484
    SETDIJ:  cpu time    0.0256: real time    0.0256
     EDDAV:  cpu time    6.3444: real time    6.3503
       DOS:  cpu time    0.0060: real time    0.0060
    CHARGE:  cpu time    0.5647: real time    0.5652
    MIXING:  cpu time    0.0785: real time    0.0786
    --------------------------------------------
      LOOP:  cpu time    9.2652: real time    9.2741

 eigenvalue-minimisations  :   310
 total energy-change (2. order) : 0.3328700E+00  (-0.2890576E+00)
 number of electron     100.0000049 magnetization       8.7503100
 augmentation part       54.5487629 magnetization       6.6592302

 Broyden mixing:
  rms(total) = 0.11342E+01    rms(broyden)= 0.11337E+01
  rms(prec ) = 0.12213E+01
  weight for this iteration     100.00

 eigenvalues of (default mixing * dielectric matrix)
  average eigenvalue GAMMA=   0.3590
  1.3583  0.6131  0.6131  0.2639  0.2639  0.1120  0.1120  0.1113  0.0797  0.0623

 Free energy of the ion-electron system (eV)
  ---------------------------------------------------
  alpha Z        PSCENC =         5.05286118
  Ewald energy   TEWEN  =     12818.48236133
  -Hartree energ DENC   =    -21840.90145336
  -exchange      EXHF   =         0.00000000
  -V(xc)+E(xc)   XCENC  =        62.59367648
  PAW double counting   =     10150.21034981   -10314.45118310
  entropy T*S    EENTRO =        -0.02330729
  eigenvalues    EBANDS =      -621.26886546
  atomic energy  EATOM  =      9704.95859309
  Solvation  Ediel_sol  =         0.00000000
  ---------------------------------------------------
  free energy    TOTEN  =       -35.34696731 eV

  energy without entropy =      -35.32366003  energy(sigma->0) =      -35.33919822


--------------------------------------------------------------------------------------------------------




--------------------------------------- Iteration      1(  16)  ---------------------------------------


    POTLOK:  cpu time    2.2437: real time    2.2485
    SETDIJ:  cpu time    0.0234: real time    0.0234
     EDDAV:  cpu time    7.3944: real time    7.4070
       DOS:  cpu time    0.0008: real time    0.0008
    CHARGE:  cpu time    0.5890: real time    0.5897
    MIXING:  cpu time    0.0852: real time    0.0853
    --------------------------------------------
      LOOP:  cpu time   10.3365: real time   10.3546

 eigenvalue-minimisations  :   378
 total energy-change (2. order) : 0.2981149E-01  (-0.4117956E-01)
 number of electron     100.0000048 magnetization       8.7540679
 augmentation part       54.3465332 magnetization       6.5526474

 Broyden mixing:
  rms(total) = 0.71974E+00    rms(broyden)= 0.71961E+00
  rms(prec ) = 0.76356E+00
  weight for this iteration     100.00

 eigenvalues of (default mixing * dielectric matrix)
  average eigenvalue GAMMA=   0.3750
  1.4195  0.5734  0.5734  0.4246  0.4246  0.2277  0.1113  0.1113  0.1165  0.0801
  0.0625

 Free energy of the ion-electron system (eV)
  ---------------------------------------------------
  alpha Z        PSCENC =         5.05286118
  Ewald energy   TEWEN  =     12818.48236133
  -Hartree energ DENC   =    -21845.11220853
  -exchange      EXHF   =         0.00000000
  -V(xc)+E(xc)   XCENC  =        62.51611688
  PAW double counting   =     10158.24715664   -10323.07786907
  entropy T*S    EENTRO =        -0.02601711
  eigenvalues    EBANDS =      -616.35815023
  atomic energy  EATOM  =      9704.95859309
  Solvation  Ediel_sol  =         0.00000000
  ---------------------------------------------------
  free energy    TOTEN  =       -35.31715582 eV

  energy without entropy =      -35.29113871  energy(sigma->0) =      -35.30848345


--------------------------------------------------------------------------------------------------------




--------------------------------------- Iteration      1(  17)  ---------------------------------------


    POTLOK:  cpu time    2.2654: real time    2.2673
    SETDIJ:  cpu time    0.0228: real time    0.0228
     EDDAV:  cpu time    6.0300: real time    6.0383
       DOS:  cpu time    0.0008: real time    0.0008
    CHARGE:  cpu time    0.5762: real time    0.5769
    MIXING:  cpu time    0.0901: real time    0.0902
    --------------------------------------------
      LOOP:  cpu time    8.9853: real time    8.9963

 eigenvalue-minimisations  :   298
 total energy-change (2. order) :-0.2827843E+00  (-0.2388482E-01)
 number of electron     100.0000049 magnetization       8.6750791
 augmentation part       54.4114616 magnetization       6.5741090

 Broyden mixing:
  rms(total) = 0.55611E+00    rms(broyden)= 0.55596E+00
  rms(prec ) = 0.59525E+00
  weight for this iteration     100.00

 eigenvalues of (default mixing * dielectric matrix)
  average eigenvalue GAMMA=   0.4486
  1.4973  0.8910  0.8910  0.5017  0.4438  0.4438  0.2336  0.1112  0.1112  0.1162
  0.0803  0.0625

 Free energy of the ion-electron system (eV)
  ---------------------------------------------------
  alpha Z        PSCENC =         5.05286118
  Ewald energy   TEWEN  =     12818.48236133
  -Hartree energ DENC   =    -21842.95861545
  -exchange      EXHF   =         0.00000000
  -V(xc)+E(xc)   XCENC  =        62.21514318
  PAW double counting   =     10155.55877549   -10320.07720456
  entropy T*S    EENTRO =        -0.03265965
  eigenvalues    EBANDS =      -618.79919473
  atomic energy  EATOM  =      9704.95859309
  Solvation  Ediel_sol  =         0.00000000
  ---------------------------------------------------
  free energy    TOTEN  =       -35.59994009 eV

  energy without entropy =      -35.56728045  energy(sigma->0) =      -35.58905355


--------------------------------------------------------------------------------------------------------




--------------------------------------- Iteration      1(  18)  ---------------------------------------


    POTLOK:  cpu time    2.2392: real time    2.2464
    SETDIJ:  cpu time    0.0234: real time    0.0234
     EDDAV:  cpu time    6.8608: real time    6.8704
       DOS:  cpu time    0.0008: real time    0.0008
    CHARGE:  cpu time    0.5654: real time    0.5681
    MIXING:  cpu time    0.1029: real time    0.1030
    --------------------------------------------
      LOOP:  cpu time    9.7924: real time    9.8121

 eigenvalue-minimisations  :   346
 total energy-change (2. order) :-0.5901627E+00  (-0.2580176E-01)
 number of electron     100.0000050 magnetization       8.5594604
 augmentation part       54.5078272 magnetization       6.6017001

 Broyden mixing:
  rms(total) = 0.48580E+00    rms(broyden)= 0.48560E+00
  rms(prec ) = 0.52210E+00
  weight for this iteration     100.00

 eigenvalues of (default mixing * dielectric matrix)
  average eigenvalue GAMMA=   0.4848
  1.4870  0.9237  0.9237  0.7158  0.7158  0.4109  0.4109  0.2328  0.1112  0.1112
  0.1162  0.0803  0.0625

 Free energy of the ion-electron system (eV)
  ---------------------------------------------------
  alpha Z        PSCENC =         5.05286118
  Ewald energy   TEWEN  =     12818.48236133
  -Hartree energ DENC   =    -21843.79416082
  -exchange      EXHF   =         0.00000000
  -V(xc)+E(xc)   XCENC  =        61.70295649
  PAW double counting   =     10154.48453292   -10318.68291436
  entropy T*S    EENTRO =        -0.03194702
  eigenvalues    EBANDS =      -618.36238558
  atomic energy  EATOM  =      9704.95859309
  Solvation  Ediel_sol  =         0.00000000
  ---------------------------------------------------
  free energy    TOTEN  =       -36.19010277 eV

  energy without entropy =      -36.15815575  energy(sigma->0) =      -36.17945376


--------------------------------------------------------------------------------------------------------




--------------------------------------- Iteration      1(  19)  ---------------------------------------


    POTLOK:  cpu time    2.2249: real time    2.2331
    SETDIJ:  cpu time    0.0229: real time    0.0229
     EDDAV:  cpu time    7.0507: real time    7.0593
       DOS:  cpu time    0.0008: real time    0.0008
    CHARGE:  cpu time    0.5786: real time    0.5792
    MIXING:  cpu time    0.1154: real time    0.1155
    --------------------------------------------
      LOOP:  cpu time    9.9933: real time   10.0108

 eigenvalue-minimisations  :   354
 total energy-change (2. order) :-0.4148335E+00  (-0.1570533E-01)
 number of electron     100.0000048 magnetization       8.5250164
 augmentation part       54.4683029 magnetization       6.5684501

 Broyden mixing:
  rms(total) = 0.22416E+00    rms(broyden)= 0.22360E+00
  rms(prec ) = 0.23286E+00
  weight for this iteration     100.00

 eigenvalues of (default mixing * dielectric matrix)
  average eigenvalue GAMMA=   0.4923
  1.4665  1.0415  1.0415  0.6633  0.6633  0.4342  0.4342  0.4326  0.2330  0.1112
  0.1112  0.1162  0.0803  0.0625

 Free energy of the ion-electron system (eV)
  ---------------------------------------------------
  alpha Z        PSCENC =         5.05286118
  Ewald energy   TEWEN  =     12818.48236133
  -Hartree energ DENC   =    -21848.24192616
  -exchange      EXHF   =         0.00000000
  -V(xc)+E(xc)   XCENC  =        61.39771909
  PAW double counting   =     10153.98831168   -10318.33088482
  entropy T*S    EENTRO =        -0.03944298
  eigenvalues    EBANDS =      -613.87252872
  atomic energy  EATOM  =      9704.95859309
  Solvation  Ediel_sol  =         0.00000000
  ---------------------------------------------------
  free energy    TOTEN  =       -36.60493629 eV

  energy without entropy =      -36.56549331  energy(sigma->0) =      -36.59178863


--------------------------------------------------------------------------------------------------------




--------------------------------------- Iteration      1(  20)  ---------------------------------------


    POTLOK:  cpu time    2.2648: real time    2.2750
    SETDIJ:  cpu time    0.0232: real time    0.0232
     EDDAV:  cpu time    5.8519: real time    5.8609
       DOS:  cpu time    0.0009: real time    0.0009
    CHARGE:  cpu time    0.5739: real time    0.5745
    MIXING:  cpu time    0.1163: real time    0.1164
    --------------------------------------------
      LOOP:  cpu time    8.8310: real time    8.8509

 eigenvalue-minimisations  :   286
 total energy-change (2. order) :-0.1828316E+00  (-0.5166234E-02)
 number of electron     100.0000047 magnetization       8.4776017
 augmentation part       54.4615631 magnetization       6.5449504

 Broyden mixing:
  rms(total) = 0.19043E+00    rms(broyden)= 0.19025E+00
  rms(prec ) = 0.19877E+00
  weight for this iteration     100.00

 eigenvalues of (default mixing * dielectric matrix)
  average eigenvalue GAMMA=   0.5692
  1.4486  1.4486  1.4656  0.7251  0.7251  0.5745  0.5745  0.4308  0.4308  0.2329
  0.1112  0.1112  0.1162  0.0803  0.0625

 Free energy of the ion-electron system (eV)
  ---------------------------------------------------
  alpha Z        PSCENC =         5.05286118
  Ewald energy   TEWEN  =     12818.48236133
  -Hartree energ DENC   =    -21849.63803141
  -exchange      EXHF   =         0.00000000
  -V(xc)+E(xc)   XCENC  =        61.26751008
  PAW double counting   =     10152.82643177   -10317.23983979
  entropy T*S    EENTRO =        -0.03829212
  eigenvalues    EBANDS =      -612.45936199
  atomic energy  EATOM  =      9704.95859309
  Solvation  Ediel_sol  =         0.00000000
  ---------------------------------------------------
  free energy    TOTEN  =       -36.78776785 eV

  energy without entropy =      -36.74947573  energy(sigma->0) =      -36.77500381


--------------------------------------------------------------------------------------------------------




--------------------------------------- Iteration      1(  21)  ---------------------------------------


    POTLOK:  cpu time    2.2541: real time    2.2568
    SETDIJ:  cpu time    0.0232: real time    0.0232
     EDDAV:  cpu time    7.2541: real time    7.2633
       DOS:  cpu time    0.0045: real time    0.0045
    CHARGE:  cpu time    0.5859: real time    0.5864
    MIXING:  cpu time    0.1314: real time    0.1315
    --------------------------------------------
      LOOP:  cpu time   10.2532: real time   10.2658

 eigenvalue-minimisations  :   372
 total energy-change (2. order) :-0.2431205E+00  (-0.4574898E-02)
 number of electron     100.0000047 magnetization       8.3953862
 augmentation part       54.4506135 magnetization       6.5080460

 Broyden mixing:
  rms(total) = 0.14866E+00    rms(broyden)= 0.14853E+00
  rms(prec ) = 0.15381E+00
  weight for this iteration     100.00

 eigenvalues of (default mixing * dielectric matrix)
  average eigenvalue GAMMA=   0.5795
  1.8718  1.1144  1.1144  0.8687  0.8687  0.7027  0.7027  0.4279  0.4279  0.4590
  0.2329  0.1112  0.1112  0.1162  0.0803  0.0625

 Free energy of the ion-electron system (eV)
  ---------------------------------------------------
  alpha Z        PSCENC =         5.05286118
  Ewald energy   TEWEN  =     12818.48236133
  -Hartree energ DENC   =    -21851.62421536
  -exchange      EXHF   =         0.00000000
  -V(xc)+E(xc)   XCENC  =        61.09367298
  PAW double counting   =     10150.22452524   -10314.71702574
  entropy T*S    EENTRO =        -0.02884068
  eigenvalues    EBANDS =      -610.47282037
  atomic energy  EATOM  =      9704.95859309
  Solvation  Ediel_sol  =         0.00000000
  ---------------------------------------------------
  free energy    TOTEN  =       -37.03088831 eV

  energy without entropy =      -37.00204763  energy(sigma->0) =      -37.02127475


--------------------------------------------------------------------------------------------------------




--------------------------------------- Iteration      1(  22)  ---------------------------------------


    POTLOK:  cpu time    2.2254: real time    2.2322
    SETDIJ:  cpu time    0.0229: real time    0.0229
     EDDAV:  cpu time    6.9483: real time    6.9573
       DOS:  cpu time    0.0046: real time    0.0046
    CHARGE:  cpu time    0.5802: real time    0.5807
    MIXING:  cpu time    0.1357: real time    0.1358
    --------------------------------------------
      LOOP:  cpu time    9.9171: real time    9.9336

 eigenvalue-minimisations  :   358
 total energy-change (2. order) :-0.1975094E+00  (-0.2523063E-02)
 number of electron     100.0000046 magnetization       8.3194924
 augmentation part       54.4621852 magnetization       6.4493918

 Broyden mixing:
  rms(total) = 0.13953E+00    rms(broyden)= 0.13948E+00
  rms(prec ) = 0.14567E+00
  weight for this iteration     100.00

 eigenvalues of (default mixing * dielectric matrix)
  average eigenvalue GAMMA=   0.6222
  2.1495  1.1960  1.1960  1.2693  0.6607  0.6607  0.7132  0.7132  0.4290  0.4290
  0.4468  0.2329  0.1112  0.1112  0.1162  0.0803  0.0625

 Free energy of the ion-electron system (eV)
  ---------------------------------------------------
  alpha Z        PSCENC =         5.05286118
  Ewald energy   TEWEN  =     12818.48236133
  -Hartree energ DENC   =    -21854.54190331
  -exchange      EXHF   =         0.00000000
  -V(xc)+E(xc)   XCENC  =        60.93948855
  PAW double counting   =     10152.20809597   -10316.78849569
  entropy T*S    EENTRO =        -0.02965673
  eigenvalues    EBANDS =      -607.50974210
  atomic energy  EATOM  =      9704.95859309
  Solvation  Ediel_sol  =         0.00000000
  ---------------------------------------------------
  free energy    TOTEN  =       -37.22839770 eV

  energy without entropy =      -37.19874097  energy(sigma->0) =      -37.21851213


--------------------------------------------------------------------------------------------------------




--------------------------------------- Iteration      1(  23)  ---------------------------------------


    POTLOK:  cpu time    2.2208: real time    2.2245
    SETDIJ:  cpu time    0.0228: real time    0.0228
     EDDAV:  cpu time    6.6428: real time    6.6491
       DOS:  cpu time    0.0051: real time    0.0051
    CHARGE:  cpu time    0.5731: real time    0.5737
    MIXING:  cpu time    0.1457: real time    0.1458
    --------------------------------------------
      LOOP:  cpu time    9.6103: real time    9.6209

 eigenvalue-minimisations  :   338
 total energy-change (2. order) :-0.1489757E+00  (-0.1306606E-02)
 number of electron     100.0000046 magnetization       8.2536265
 augmentation part       54.4501363 magnetization       6.3717247

 Broyden mixing:
  rms(total) = 0.81199E-01    rms(broyden)= 0.81164E-01
  rms(prec ) = 0.85594E-01
  weight for this iteration     100.00

 eigenvalues of (default mixing * dielectric matrix)
  average eigenvalue GAMMA=   0.6654
  2.2501  1.6210  1.2860  1.2860  0.6900  0.6900  0.7587  0.7587  0.6229  0.4275
  0.4275  0.4440  0.2329  0.1112  0.1112  0.1162  0.0803  0.0625

 Free energy of the ion-electron system (eV)
  ---------------------------------------------------
  alpha Z        PSCENC =         5.05286118
  Ewald energy   TEWEN  =     12818.48236133
  -Hartree energ DENC   =    -21857.50185691
  -exchange      EXHF   =         0.00000000
  -V(xc)+E(xc)   XCENC  =        60.82388228
  PAW double counting   =     10152.05179791   -10316.75316712
  entropy T*S    EENTRO =        -0.03298203
  eigenvalues    EBANDS =      -604.45886312
  atomic energy  EATOM  =      9704.95859309
  Solvation  Ediel_sol  =         0.00000000
  ---------------------------------------------------
  free energy    TOTEN  =       -37.37737338 eV

  energy without entropy =      -37.34439135  energy(sigma->0) =      -37.36637937


--------------------------------------------------------------------------------------------------------




--------------------------------------- Iteration      1(  24)  ---------------------------------------


    POTLOK:  cpu time    2.2383: real time    2.2413
    SETDIJ:  cpu time    0.0230: real time    0.0230
     EDDAV:  cpu time    6.4605: real time    6.4668
       DOS:  cpu time    0.0084: real time    0.0084
    CHARGE:  cpu time    0.5568: real time    0.5573
    MIXING:  cpu time    0.1560: real time    0.1562
    --------------------------------------------
      LOOP:  cpu time    9.4431: real time    9.4529

 eigenvalue-minimisations  :   328
 total energy-change (2. order) :-0.1198040E+00  (-0.9602319E-03)
 number of electron     100.0000046 magnetization       8.2162250
 augmentation part       54.4263506 magnetization       6.3189120

 Broyden mixing:
  rms(total) = 0.45021E-01    rms(broyden)= 0.44977E-01
  rms(prec ) = 0.47973E-01
  weight for this iteration     100.00

 eigenvalues of (default mixing * dielectric matrix)
  average eigenvalue GAMMA=   0.6700
  2.2116  1.5863  1.3016  1.3016  0.8025  0.8025  0.6865  0.6865  0.7905  0.4277
  0.4277  0.5420  0.4494  0.2329  0.1112  0.1112  0.1162  0.0803  0.0625

 Free energy of the ion-electron system (eV)
  ---------------------------------------------------
  alpha Z        PSCENC =         5.05286118
  Ewald energy   TEWEN  =     12818.48236133
  -Hartree energ DENC   =    -21859.81309495
  -exchange      EXHF   =         0.00000000
  -V(xc)+E(xc)   XCENC  =        60.72641598
  PAW double counting   =     10149.66781129   -10314.44095293
  entropy T*S    EENTRO =        -0.03134926
  eigenvalues    EBANDS =      -602.09982313
  atomic energy  EATOM  =      9704.95859309
  Solvation  Ediel_sol  =         0.00000000
  ---------------------------------------------------
  free energy    TOTEN  =       -37.49717738 eV

  energy without entropy =      -37.46582812  energy(sigma->0) =      -37.48672763


--------------------------------------------------------------------------------------------------------




--------------------------------------- Iteration      1(  25)  ---------------------------------------


    POTLOK:  cpu time    2.2300: real time    2.2324
    SETDIJ:  cpu time    0.0228: real time    0.0228
     EDDAV:  cpu time    6.8921: real time    6.8988
       DOS:  cpu time    0.0073: real time    0.0074
    CHARGE:  cpu time    0.5759: real time    0.5787
    MIXING:  cpu time    0.1695: real time    0.1697
    --------------------------------------------
      LOOP:  cpu time    9.8977: real time    9.9097

 eigenvalue-minimisations  :   354
 total energy-change (2. order) :-0.6134996E-01  (-0.2692371E-03)
 number of electron     100.0000047 magnetization       8.1674693
 augmentation part       54.4314752 magnetization       6.2739627

 Broyden mixing:
  rms(total) = 0.49611E-01    rms(broyden)= 0.49582E-01
  rms(prec ) = 0.53706E-01
  weight for this iteration     100.00

 eigenvalues of (default mixing * dielectric matrix)
  average eigenvalue GAMMA=   0.6991
  2.5145  1.6929  1.3490  1.3490  0.9343  0.9343  0.6739  0.6739  0.6834  0.6834
  0.4278  0.4278  0.4718  0.4523  0.2329  0.1112  0.1112  0.1162  0.0803  0.0625

 Free energy of the ion-electron system (eV)
  ---------------------------------------------------
  alpha Z        PSCENC =         5.05286118
  Ewald energy   TEWEN  =     12818.48236133
  -Hartree energ DENC   =    -21860.70005838
  -exchange      EXHF   =         0.00000000
  -V(xc)+E(xc)   XCENC  =        60.66500885
  PAW double counting   =     10148.25422422   -10312.99114631
  entropy T*S    EENTRO =        -0.03232129
  eigenvalues    EBANDS =      -601.24805004
  atomic energy  EATOM  =      9704.95859309
  Solvation  Ediel_sol  =         0.00000000
  ---------------------------------------------------
  free energy    TOTEN  =       -37.55852734 eV

  energy without entropy =      -37.52620605  energy(sigma->0) =      -37.54775358


--------------------------------------------------------------------------------------------------------




--------------------------------------- Iteration      1(  26)  ---------------------------------------


    POTLOK:  cpu time    2.2310: real time    2.2336
    SETDIJ:  cpu time    0.0229: real time    0.0229
     EDDAV:  cpu time    6.4815: real time    6.4929
       DOS:  cpu time    0.0038: real time    0.0038
    CHARGE:  cpu time    0.5795: real time    0.5801
    MIXING:  cpu time    0.1757: real time    0.1760
    --------------------------------------------
      LOOP:  cpu time    9.4944: real time    9.5094

 eigenvalue-minimisations  :   326
 total energy-change (2. order) :-0.7198114E-01  (-0.2729869E-03)
 number of electron     100.0000046 magnetization       8.1184469
 augmentation part       54.4273165 magnetization       6.2247722

 Broyden mixing:
  rms(total) = 0.34622E-01    rms(broyden)= 0.34591E-01
  rms(prec ) = 0.36745E-01
  weight for this iteration     100.00

 eigenvalues of (default mixing * dielectric matrix)
  average eigenvalue GAMMA=   0.7161
  2.4131  2.1110  1.2913  1.2913  0.9999  0.9999  0.6869  0.6869  0.7453  0.7453
  0.5866  0.4274  0.4274  0.4709  0.4412  0.2329  0.1112  0.1112  0.1162  0.0803
  0.0625

 Free energy of the ion-electron system (eV)
  ---------------------------------------------------
  alpha Z        PSCENC =         5.05286118
  Ewald energy   TEWEN  =     12818.48236133
  -Hartree energ DENC   =    -21861.97326973
  -exchange      EXHF   =         0.00000000
  -V(xc)+E(xc)   XCENC  =        60.60750477
  PAW double counting   =     10146.37496983   -10311.09769286
  entropy T*S    EENTRO =        -0.03244188
  eigenvalues    EBANDS =      -600.00339421
  atomic energy  EATOM  =      9704.95859309
  Solvation  Ediel_sol  =         0.00000000
  ---------------------------------------------------
  free energy    TOTEN  =       -37.63050848 eV

  energy without entropy =      -37.59806660  energy(sigma->0) =      -37.61969452


--------------------------------------------------------------------------------------------------------




--------------------------------------- Iteration      1(  27)  ---------------------------------------


    POTLOK:  cpu time    2.2536: real time    2.2588
    SETDIJ:  cpu time    0.0227: real time    0.0249
     EDDAV:  cpu time    5.6380: real time    5.6433
       DOS:  cpu time    0.0040: real time    0.0040
    CHARGE:  cpu time    0.5856: real time    0.5884
    MIXING:  cpu time    0.1950: real time    0.1952
    --------------------------------------------
      LOOP:  cpu time    8.6988: real time    8.7145

 eigenvalue-minimisations  :   274
 total energy-change (2. order) :-0.7346699E-01  (-0.2042183E-03)
 number of electron     100.0000046 magnetization       8.0736126
 augmentation part       54.4250222 magnetization       6.1871468

 Broyden mixing:
  rms(total) = 0.24079E-01    rms(broyden)= 0.24050E-01
  rms(prec ) = 0.25638E-01
  weight for this iteration     100.00

 eigenvalues of (default mixing * dielectric matrix)
  average eigenvalue GAMMA=   0.7383
  2.4109  2.4109  1.2899  1.2899  0.9201  0.9201  0.9141  0.8311  0.8311  0.6812
  0.6812  0.5822  0.4276  0.4276  0.4742  0.4374  0.2329  0.1112  0.1112  0.1162
  0.0803  0.0625

 Free energy of the ion-electron system (eV)
  ---------------------------------------------------
  alpha Z        PSCENC =         5.05286118
  Ewald energy   TEWEN  =     12818.48236133
  -Hartree energ DENC   =    -21863.11775146
  -exchange      EXHF   =         0.00000000
  -V(xc)+E(xc)   XCENC  =        60.54710676
  PAW double counting   =     10143.99276420   -10308.69433998
  entropy T*S    EENTRO =        -0.03089456
  eigenvalues    EBANDS =      -598.89467604
  atomic energy  EATOM  =      9704.95859309
  Solvation  Ediel_sol  =         0.00000000
  ---------------------------------------------------
  free energy    TOTEN  =       -37.70397547 eV

  energy without entropy =      -37.67308091  energy(sigma->0) =      -37.69367728


--------------------------------------------------------------------------------------------------------




--------------------------------------- Iteration      1(  28)  ---------------------------------------


    POTLOK:  cpu time    2.2416: real time    2.2466
    SETDIJ:  cpu time    0.0259: real time    0.0259
     EDDAV:  cpu time    5.6441: real time    5.6520
       DOS:  cpu time    0.0025: real time    0.0025
    CHARGE:  cpu time    0.6088: real time    0.6094
    MIXING:  cpu time    0.2035: real time    0.2060
    --------------------------------------------
      LOOP:  cpu time    8.7264: real time    8.7423

 eigenvalue-minimisations  :   266
 total energy-change (2. order) :-0.5323111E-01  (-0.1077810E-03)
 number of electron     100.0000046 magnetization       8.0197499
 augmentation part       54.4215888 magnetization       6.1390125

 Broyden mixing:
  rms(total) = 0.11226E-01    rms(broyden)= 0.11202E-01
  rms(prec ) = 0.12283E-01
  weight for this iteration     100.00

 eigenvalues of (default mixing * dielectric matrix)
  average eigenvalue GAMMA=   0.7783
[...]
 total energy-change (2. order) :-0.3685407E-04  (-0.1382621E-04)
 number of electron     100.0000059 magnetization       7.8001618
 augmentation part       54.4246325 magnetization       5.9599252

 Free energy of the ion-electron system (eV)
  ---------------------------------------------------
  alpha Z        PSCENC =         5.05286118
  Ewald energy   TEWEN  =     12825.71876687
  -Hartree energ DENC   =    -21874.82454289
  -exchange      EXHF   =         0.00000000
  -V(xc)+E(xc)   XCENC  =        60.38852385
  PAW double counting   =     10142.06576806   -10306.78296003
  entropy T*S    EENTRO =        -0.02873288
  eigenvalues    EBANDS =      -594.45936554
  atomic energy  EATOM  =      9704.95859309
  Solvation  Ediel_sol  =         0.00000000
  ---------------------------------------------------
  free energy    TOTEN  =       -37.91108828 eV

  energy without entropy =      -37.88235540  energy(sigma->0) =      -37.90151065


--------------------------------------------------------------------------------------------------------




 average (electrostatic) potential at core
  the test charge radii are     0.9791  1.1199
  (the norm of the test charge is              1.0000)
       1 -95.2521       2 -95.5203       3 -95.1974       4 -95.1571       5 -95.0380
       6 -95.5021       7 -83.6644       8 -83.6954       9 -83.6372      10 -83.6036
 
 
 
 E-fermi :  -4.0717     XC(G=0):  -0.3497     alpha+bet : -0.1836


 spin component 1

 k-point     1 :       0.0000    0.0000    0.0000
  band No.  band energies     occupation 
      1      -9.8291      1.00000
      2      -8.4629      1.00000
      3      -8.2919      1.00000
      4      -7.9091      1.00000
      5      -7.8260      1.00000
      6      -7.7517      1.00000
      7      -7.5652      1.00000
      8      -7.4946      1.00000
      9      -7.4693      1.00000
     10      -7.3718      1.00000
     11      -7.3568      1.00000
     12      -7.2093      1.00000
     13      -7.0199      1.00000
     14      -6.9776      1.00000
     15      -6.7672      1.00000
     16      -6.6999      1.00000
     17      -6.6021      1.00000
     18      -6.5567      1.00000
     19      -6.4598      1.00000
     20      -6.4258      1.00000
     21      -6.3668      1.00000
     22      -6.3370      1.00000
     23      -6.2354      1.00000
     24      -6.2063      1.00000
     25      -6.1257      1.00000
     26      -5.9914      1.00000
     27      -5.9112      1.00000
     28      -5.8675      1.00000
     29      -5.7119      1.00000
     30      -5.6385      1.00000
     31      -5.5699      1.00000
     32      -5.4991      1.00000
     33      -5.4225      1.00000
     34      -5.3854      1.00000
     35      -5.3492      1.00000
     36      -5.3352      1.00000
     37      -5.2984      1.00000
     38      -5.2591      1.00000
     39      -5.2061      1.00000
     40      -5.1349      1.00000
     41      -5.1134      1.00000
     42      -5.0838      1.00000
     43      -5.0733      1.00000
     44      -5.0540      1.00000
     45      -5.0110      1.00000
     46      -4.9522      1.00000
     47      -4.8937      1.00000
     48      -4.8856      1.00000
     49      -4.8497      1.00000
     50      -4.8427      1.00000
     51      -4.7919      1.00000
     52      -4.6243      1.00033
     53      -4.5972      1.00064
     54      -4.1843      0.90260
     55      -3.0039     -0.00000
     56      -2.9005     -0.00000
     57      -2.6887     -0.00000
     58      -2.6260     -0.00000
     59      -1.9870     -0.00000
     60      -1.6216     -0.00000
     61      -1.0240     -0.00000
     62      -0.8931     -0.00000
     63      -0.6621     -0.00000
     64      -0.5616     -0.00000
     65      -0.3506     -0.00000
     66      -0.2594     -0.00000

 spin component 2

 k-point     1 :       0.0000    0.0000    0.0000
  band No.  band energies     occupation 
      1      -9.7646      1.00000
      2      -8.2128      1.00000
      3      -7.9785      1.00000
      4      -7.4209      1.00000
      5      -7.3410      1.00000
      6      -7.1350      1.00000
      7      -6.9633      1.00000
      8      -6.9068      1.00000
      9      -6.7711      1.00000
     10      -6.7346      1.00000
     11      -6.6387      1.00000
     12      -6.5165      1.00000
     13      -6.4594      1.00000
     14      -6.3288      1.00000
     15      -6.1938      1.00000
     16      -6.1057      1.00000
     17      -6.0700      1.00000
     18      -5.9801      1.00000
     19      -5.9646      1.00000
     20      -5.9122      1.00000
     21      -5.8278      1.00000
     22      -5.8054      1.00000
     23      -5.7091      1.00000
     24      -5.5961      1.00000
     25      -5.4967      1.00000
     26      -5.4090      1.00000
     27      -5.3443      1.00000
     28      -5.2775      1.00000
     29      -5.1955      1.00000
     30      -5.0079      1.00000
     31      -4.9902      1.00000
     32      -4.8887      1.00000
     33      -4.8428      1.00000
     34      -4.7919      1.00000
     35      -4.7568      1.00001
     36      -4.6816      1.00007
     37      -4.5917      1.00073
     38      -4.5279      1.00291
     39      -4.5082      1.00424
     40      -4.4240      1.01595
     41      -4.4191      1.01697
     42      -4.3755      1.02679
     43      -4.2996      1.03420
     44      -4.2285      0.98587
     45      -4.1381      0.76437
     46      -4.0870      0.56455
     47      -4.0556      0.43198
     48      -3.9918      0.18995
     49      -3.9781      0.14787
     50      -3.8902     -0.01265
     51      -3.8677     -0.02708
     52      -3.7706     -0.02740
     53      -3.7141     -0.01490
     54      -3.6718     -0.00801
     55      -2.7678     -0.00000
     56      -2.6721     -0.00000
     57      -2.3979     -0.00000
     58      -2.3174     -0.00000
     59      -1.7557     -0.00000
     60      -1.3228     -0.00000
     61      -0.9175     -0.00000
     62      -0.7509     -0.00000
     63      -0.5373     -0.00000
     64      -0.4134     -0.00000
     65      -0.1651     -0.00000
     66      -0.1045     -0.00000


--------------------------------------------------------------------------------------------------------


 soft charge-density along one line, spin component            1
         0         1         2         3         4         5         6         7         8         9
 total charge-density along one line
 
 soft charge-density along one line, spin component            2
         0         1         2         3         4         5         6         7         8         9
 total charge-density along one line
 
 pseudopotential strength for first ion, spin component:            1
-10.243  -0.066   0.106  -0.032  -0.060 -10.515  -0.063   0.101
 -0.066  -9.986   0.047   0.007  -0.012  -0.063 -10.269   0.045
  0.106   0.047 -10.265  -0.101  -0.037   0.101   0.045 -10.536
 -0.032   0.007  -0.101 -10.290   0.048  -0.030   0.007  -0.097
 -0.060  -0.012  -0.037   0.048 -10.072  -0.057  -0.011  -0.035
-10.515  -0.063   0.101  -0.030  -0.057 -10.733  -0.060   0.097
 -0.063 -10.269   0.045   0.007  -0.011  -0.060 -10.496   0.043
  0.101   0.045 -10.536  -0.097  -0.035   0.097   0.043 -10.752
 -0.030   0.007  -0.097 -10.560   0.046  -0.029   0.007  -0.093
 -0.057  -0.011  -0.035   0.046 -10.352  -0.055  -0.011  -0.034
  0.017  -0.002   0.008   0.012   0.012   0.016  -0.002   0.008
  0.030  -0.003   0.015   0.022   0.020   0.029  -0.003   0.015
  0.000   0.007  -0.008   0.000  -0.014   0.000   0.006  -0.007
  0.000   0.016   0.006  -0.001  -0.003   0.000   0.014   0.006
  0.015   0.000   0.002   0.001  -0.004   0.014   0.000   0.001
  0.003   0.007  -0.008  -0.000  -0.015   0.003   0.006  -0.007
 -0.000   0.017   0.006   0.002  -0.004  -0.000   0.016   0.006
  0.016  -0.000   0.000  -0.000  -0.002   0.015  -0.000   0.000
 pseudopotential strength for first ion, spin component:            2
 -9.273  -0.002   0.009   0.012   0.032  -9.590  -0.001   0.008
 -0.002  -9.366  -0.022  -0.054   0.008  -0.001  -9.679  -0.022
  0.009  -0.022  -9.301   0.028   0.066   0.008  -0.022  -9.616
  0.012  -0.054   0.028  -9.321  -0.049   0.012  -0.051   0.028
  0.032   0.008   0.066  -0.049  -9.346   0.031   0.008   0.063
 -9.590  -0.001   0.008   0.012   0.031  -9.850  -0.001   0.007
 -0.001  -9.679  -0.022  -0.051   0.008  -0.001  -9.936  -0.021
  0.008  -0.022  -9.616   0.028   0.063   0.007  -0.021  -9.875
  0.012  -0.051   0.028  -9.636  -0.047   0.011  -0.049   0.027
  0.031   0.008   0.063  -0.047  -9.660   0.029   0.007   0.061
  0.008   0.001   0.003   0.005   0.005   0.008   0.001   0.003
  0.014   0.001   0.005   0.009   0.008   0.014   0.001   0.005
 -0.008   0.007  -0.010   0.000  -0.018  -0.007   0.006  -0.010
  0.000   0.017   0.008  -0.009   0.000   0.000   0.016   0.007
  0.017   0.000   0.004   0.007  -0.008   0.016   0.000   0.004
 -0.009   0.007  -0.012   0.000  -0.020  -0.008   0.006  -0.011
  0.000   0.019   0.009  -0.009   0.001   0.000   0.018   0.008
  0.019   0.000   0.004   0.008  -0.008   0.018   0.000   0.004
 total augmentation occupancy for first ion, spin component:            1
  2.718  -0.071   0.355  -0.018  -0.100  -1.156  -0.062  -0.144  -0.064   0.008  -0.200  -0.036  -0.111   0.023   0.116  -0.001
 -0.071   3.574   0.216   0.063  -0.094  -0.067  -1.388  -0.116  -0.015   0.094  -0.185   0.038   0.089   0.164   0.049  -0.004
  0.355   0.216   2.804  -0.306  -0.341  -0.141  -0.108  -1.239   0.066   0.158  -0.100  -0.021  -0.078   0.136   0.096  -0.001
 -0.018   0.063  -0.306   2.993   0.283  -0.075  -0.001   0.064  -1.371  -0.145  -0.305  -0.009   0.010  -0.185   0.017  -0.001
 -0.100  -0.094  -0.341   0.283   3.397   0.001   0.091   0.163  -0.147  -1.393  -0.166   0.030  -0.197  -0.048  -0.226   0.004
 -1.156  -0.067  -0.141  -0.075   0.001   1.263   0.147   0.010   0.124   0.035   0.212   0.013   0.173  -0.024  -0.129  -0.016
 -0.062  -1.388  -0.108  -0.001   0.091   0.147   1.126   0.058  -0.013  -0.102   0.165  -0.036  -0.083  -0.170  -0.037   0.010
 -0.144  -0.116  -1.239   0.064   0.163   0.010   0.058   1.341   0.072  -0.059   0.093   0.009   0.099  -0.141  -0.116  -0.008
 -0.064  -0.015   0.066  -1.371  -0.147   0.124  -0.013   0.072   1.419   0.076   0.300  -0.012  -0.015   0.237  -0.062   0.002
  0.008   0.094   0.158  -0.145  -1.393   0.035  -0.102  -0.059   0.076   1.242   0.151  -0.027   0.216   0.018   0.252  -0.019
 -0.200  -0.185  -0.100  -0.305  -0.166   0.212   0.165   0.093   0.300   0.151   2.007  -0.217  -0.168  -0.095   0.237   0.031
 -0.036   0.038  -0.021  -0.009   0.030   0.013  -0.036   0.009  -0.012  -0.027  -0.217   0.031   0.029   0.016  -0.040  -0.004
 -0.111   0.089  -0.078   0.010  -0.197   0.173  -0.083   0.099  -0.015   0.216  -0.168   0.029   0.185   0.011   0.034  -0.019
  0.023   0.164   0.136  -0.185  -0.048  -0.024  -0.170  -0.141   0.237   0.018  -0.095   0.016   0.011   0.226   0.041  -0.003
  0.116   0.049   0.096   0.017  -0.226  -0.129  -0.037  -0.116  -0.062   0.252   0.237  -0.040   0.034   0.041   0.207  -0.000
 -0.001  -0.004  -0.001  -0.001   0.004  -0.016   0.010  -0.008   0.002  -0.019   0.031  -0.004  -0.019  -0.003  -0.000   0.002
 -0.001  -0.004  -0.005   0.002   0.004   0.001   0.017   0.013  -0.021  -0.003   0.017  -0.002  -0.003  -0.020  -0.002   0.000
  0.001  -0.001  -0.002   0.005   0.008   0.012   0.002   0.011   0.004  -0.025  -0.040   0.006  -0.000  -0.002  -0.022  -0.000
 total augmentation occupancy for first ion, spin component:            2
  1.402   0.238  -0.361   0.107   0.260  -0.654  -0.130   0.193  -0.048  -0.127  -0.021  -0.013  -0.032   0.012   0.002  -0.006
  0.238   0.465  -0.189  -0.119   0.045  -0.125  -0.234   0.093   0.055  -0.020   0.010  -0.003  -0.013   0.004  -0.003   0.001
 -0.361  -0.189   1.486   0.339   0.284   0.191   0.084  -0.726  -0.152  -0.136  -0.021  -0.010  -0.023   0.006   0.003  -0.004
  0.107  -0.119   0.339   1.418  -0.214  -0.038   0.036  -0.152  -0.671   0.083  -0.029  -0.019   0.011  -0.037   0.038  -0.001
  0.260   0.045   0.284  -0.214   0.731  -0.124  -0.018  -0.136   0.086  -0.346   0.019   0.005  -0.019   0.025   0.002  -0.005
 -0.654  -0.125   0.191  -0.038  -0.124   0.203   0.062  -0.089   0.011   0.057   0.005   0.010   0.003  -0.006   0.001   0.003
 -0.130  -0.234   0.084   0.036  -0.018   0.062   0.049  -0.037  -0.016   0.008  -0.006   0.003   0.007  -0.000  -0.001  -0.001
  0.193   0.093  -0.726  -0.152  -0.136  -0.089  -0.037   0.256   0.054   0.059   0.014   0.007   0.009  -0.003   0.004   0.002
 -0.048   0.055  -0.152  -0.671   0.086   0.011  -0.016   0.054   0.221  -0.026   0.014   0.014  -0.006   0.008  -0.011   0.000
 -0.127  -0.020  -0.136   0.083  -0.346   0.057   0.008   0.059  -0.026   0.085  -0.014   0.001   0.006  -0.008  -0.009   0.004
 -0.021   0.010  -0.021  -0.029   0.019   0.005  -0.006   0.014   0.014  -0.014  -0.149   0.051   0.009   0.006  -0.023  -0.002
 -0.013  -0.003  -0.010  -0.019   0.005   0.010   0.003   0.007   0.014   0.001   0.051  -0.008  -0.004  -0.002   0.004   0.001
 -0.032  -0.013  -0.023   0.011  -0.019   0.003   0.007   0.009  -0.006   0.006   0.009  -0.004  -0.002  -0.008  -0.002   0.002
  0.012   0.004   0.006  -0.037   0.025  -0.006  -0.000  -0.003   0.008  -0.008   0.006  -0.002  -0.008  -0.005  -0.005   0.000
  0.002  -0.003   0.003   0.038   0.002   0.001  -0.001   0.004  -0.011  -0.009  -0.023   0.004  -0.002  -0.005  -0.010   0.000
 -0.006   0.001  -0.004  -0.001  -0.005   0.003  -0.001   0.002   0.000   0.004  -0.002   0.001   0.002   0.000   0.000  -0.000
 -0.000   0.003   0.002  -0.007   0.001  -0.000  -0.003  -0.002   0.005  -0.000  -0.001   0.000   0.000   0.003   0.001  -0.000
  0.005   0.001   0.002   0.005  -0.005  -0.003  -0.001  -0.002  -0.002   0.004   0.003  -0.001   0.000   0.001   0.002  -0.000


------------------------ aborting loop because EDIFF is reached ----------------------------------------


    CHARGE:  cpu time    0.5647: real time    0.5653
    FORLOC:  cpu time    0.0762: real time    0.0763
    FORNL :  cpu time    2.5552: real time    2.5577
    FORCOR:  cpu time    2.1415: real time    2.1461
    FORHAR:  cpu time    0.2930: real time    0.2933
    MIXING:  cpu time    0.0568: real time    0.0569
    OFIELD:  cpu time    0.0000: real time    0.0000

 VOLUME and BASIS-vectors are now :
 -----------------------------------------------------------------------------
  energy-cutoff  :      400.00
  volume of cell :    11215.37
      direct lattice vectors                 reciprocal lattice vectors
    22.147836523  0.000000000  0.000000000     0.045151137  0.000000000  0.000000000
     0.000000000 22.068644800  0.000000000     0.000000000  0.045313159  0.000000000
     0.000000000  0.000000000 22.945990380     0.000000000  0.000000000  0.043580599

  length of vectors
    22.147836523 22.068644800 22.945990380     0.045151137  0.045313159  0.043580599


 FORCES acting on ions
    electron-ion (+dipol)            ewald-force                    non-local-force                 convergence-correction
 -----------------------------------------------------------------------------------------------
   0.734E+03 -.540E+03 -.319E+03   -.732E+03 0.538E+03 0.318E+03   -.205E+01 0.204E+01 0.104E+01   0.736E-01 0.213E-01 0.389E-01
   -.381E+03 -.528E+03 0.670E+03   0.380E+03 0.528E+03 -.669E+03   0.759E+00 0.714E+00 -.100E+01   0.339E-01 -.748E-01 -.203E-01
   0.187E+03 0.674E+03 0.779E+03   -.187E+03 -.671E+03 -.775E+03   -.611E+00 -.338E+01 -.390E+01   0.157E+00 0.187E-01 0.286E-01
   -.294E+03 -.983E+03 -.225E+03   0.293E+03 0.975E+03 0.224E+03   0.166E+01 0.773E+01 0.239E+00   -.197E-01 0.452E-02 -.354E-01
   -.782E+03 0.598E+03 0.414E+03   0.776E+03 -.594E+03 -.411E+03   0.565E+01 -.426E+01 -.277E+01   0.332E-01 0.733E-02 -.439E-01
   -.175E+02 0.747E+03 -.535E+03   0.174E+02 -.745E+03 0.534E+03   0.504E-01 -.147E+01 0.373E+00   0.850E-01 0.253E-01 -.782E-01
   0.605E+03 -.393E+03 0.708E+03   -.601E+03 0.389E+03 -.703E+03   -.420E+01 0.373E+01 -.547E+01   0.679E-01 -.718E-03 0.171E-01
   -.952E+03 -.200E+02 -.352E+03   0.946E+03 0.201E+02 0.349E+03   0.630E+01 -.453E-01 0.283E+01   -.590E-01 -.561E-01 -.906E-01
   0.863E+03 0.501E+03 -.135E+03   -.857E+03 -.497E+03 0.133E+03   -.637E+01 -.392E+01 0.202E+01   0.233E-01 0.105E-01 -.330E-01
   0.375E+02 -.551E+02 -.101E+04   -.370E+02 0.558E+02 0.998E+03   -.564E+00 -.732E+00 0.771E+01   0.180E-01 0.414E-01 -.590E-01
 -----------------------------------------------------------------------------------------------
   -.106E+01 -.396E+00 -.778E+00   -.185E-12 0.199E-12 0.000E+00   0.642E+00 0.407E+00 0.106E+01   0.413E+00 -.263E-02 -.276E+00
 
 
 POSITION                                       TOTAL-FORCE (eV/Angst)
 -----------------------------------------------------------------------------------
      9.99603     11.71189     11.94172        -0.012294     -0.017704     -0.013517
     11.78710     11.39698     10.45456         0.002410      0.008326      0.000945
     10.79399      9.39521      9.75008         0.009260      0.000019      0.014560
     11.97934     12.90134     12.25785         0.005061      0.019036     -0.017388
     12.99144      9.34839     10.35274         0.010031      0.009414     -0.004266
     11.31361      9.72992     12.00420        -0.015898     -0.020390     -0.001434
      9.44266     11.47126      9.54307        -0.000804      0.008365      0.002319
     13.48679     10.93501     12.27215        -0.007420     -0.013584     -0.006055
      8.89427      9.55992     11.35493        -0.007275     -0.002994     -0.007767
     11.32368     11.28644     13.96979         0.016929      0.009512      0.032603
 -----------------------------------------------------------------------------------
    total drift:                               -0.005784      0.008193      0.010047


--------------------------------------------------------------------------------------------------------



  FREE ENERGIE OF THE ION-ELECTRON SYSTEM (eV)
  ---------------------------------------------------
  free  energy   TOTEN  =       -37.91108828 eV

  energy  without entropy=      -37.88235540  energy(sigma->0) =      -37.90151065
 
 d Force = 0.1667340E-03[ 0.156E-04, 0.318E-03]  d Energy = 0.1321598E-03 0.346E-04
 d Force =-0.3885085E+01[-0.389E+01,-0.388E+01]  d Ewald  =-0.3885084E+01-0.377E-06


--------------------------------------------------------------------------------------------------------


    POTLOK:  cpu time    2.2465: real time    2.2526


--------------------------------------------------------------------------------------------------------




--------------------------------------------------------------------------------------------------------


  
 reached required accuracy - stopping structural energy minimisation
     LOOP+:  cpu time   66.0980: real time   66.5244
    4ORBIT:  cpu time    0.0000: real time    0.0000

 total amount of memory used by VASP MPI-rank0   143695. kBytes
=======================================================================

   base      :      30000. kBytes
   nonl-proj :       5700. kBytes
   fftplans  :      26336. kBytes
   grid      :      68173. kBytes
   one-center:         31. kBytes
   wavefun   :      13455. kBytes
 
  
  
 General timing and accounting informations for this job:
 ========================================================
  
                  Total CPU time used (sec):      550.104
                            User time (sec):      544.676
                          System time (sec):        5.428
                         Elapsed time (sec):      554.610
  
                   Maximum memory used (kb):      306696.
                   Average memory used (kb):           0.
  
                          Minor page faults:      1535102
                          Major page faults:        21324
                 Voluntary context switches:         3860
