<?xml version="1.0" encoding="ISO-8859-1"?>
<modeling>
 <generator>
  <i name="program" type="string">vasp </i>
  <i name="version" type="string">6.1.2  </i>
  <i name="subversion" type="string">22Jul20 (build Aug  2 2021 21:04:21) gamma-only                       parallel </i>
  <i name="platform" type="string">LinuxPGI </i>
  <i name="date" type="string">2021 12 22 </i>
  <i name="time" type="string">21:12:51 </i>
 </generator>
 <incar>
  <i type="int" name="ISPIN">     2</i>
  <i type="int" name="IBRION">     2</i>
  <i type="int" name="NSW">  1000</i>
  <i type="int" name="ISIF">     0</i>
  <i type="int" name="ISYM">     0</i>
  <i name="ENCUT">    400.00000000</i>
  <i type="logical" name="LREAL"> F  </i>
  <i type="int" name="ISMEAR">     1</i>
  <i name="SIGMA">      0.20000000</i>
  <i type="logical" name="LWAVE"> F  </i>
  <i type="logical" name="LCHARG"> F  </i>
  <i type="int" name="KPAR">     1</i>
  <i type="int" name="NCORE">     8</i>
  <i type="string" name="GGA"> PE</i>
  <i type="int" name="ISPIN">     2</i>
 </incar>
 <structure name="primitive_cell" >
  <crystal>
   <varray name="basis" >
    <v>      22.14783652       0.00000000       0.00000000 </v>
    <v>       0.00000000      22.06864480       0.00000000 </v>
    <v>       0.00000000       0.00000000      22.94599038 </v>
   </varray>
   <i name="volume">  11215.37452836 </i>
   <varray name="rec_basis" >
    <v>       0.04515114       0.00000000       0.00000000 </v>
    <v>       0.00000000       0.04531316       0.00000000 </v>
    <v>       0.00000000       0.00000000       0.04358060 </v>
   </varray>
  </crystal>
  <varray name="positions" >
   <v>       0.45122491       0.53078241       0.52026172 </v>
   <v>       0.53228380       0.51649876       0.45569722 </v>
   <v>       0.48736348       0.42561587       0.42480719 </v>
   <v>       0.54090893       0.58451922       0.53417674 </v>
   <v>       0.58644257       0.42355020       0.45118496 </v>
   <v>       0.51084488       0.44086011       0.52306449 </v>
   <v>       0.42629337       0.51980551       0.41593177 </v>
   <v>       0.60910493       0.49564405       0.53484471 </v>
   <v>       0.40165248       0.43324705       0.49492740 </v>
   <v>       0.51120977       0.51135117       0.60898097 </v>
  </varray>
 </structure>
 <varray name="primitive_index" >
  <v type="int" >        1 </v>
  <v type="int" >        2 </v>
  <v type="int" >        3 </v>
  <v type="int" >        4 </v>
  <v type="int" >        5 </v>
  <v type="int" >        6 </v>
  <v type="int" >        7 </v>
  <v type="int" >        8 </v>
  <v type="int" >        9 </v>
  <v type="int" >       10 </v>
 </varray>
 <kpoints>
  <generation param="Gamma">
   <v type="int" name="divisions">       1        1        1 </v>
   <v name="usershift">      0.00000000       0.00000000       0.00000000 </v>
   <v name="genvec1">      1.00000000       0.00000000       0.00000000 </v>
   <v name="genvec2">      0.00000000       1.00000000       0.00000000 </v>
   <v name="genvec3">      0.00000000       0.00000000       1.00000000 </v>
   <v name="shift">      0.00000000       0.00000000       0.00000000 </v>
  </generation>
  <varray name="kpointlist" >
   <v>       0.00000000       0.00000000       0.00000000 </v>
  </varray>
  <varray name="weights" >
   <v>       1.00000000 </v>
  </varray>
 </kpoints>
 <parameters>
  <separator name="general" >
   <i type="string" name="SYSTEM">unknown system</i>
   <i type="logical" name="LCOMPAT"> F  </i>
  </separator>
  <separator name="electronic" >
   <i type="string" name="PREC">normal</i>
   <i name="ENMAX">    400.00000000</i>
   <i name="ENAUG">    544.56500000</i>
   <i name="EDIFF">      0.00010000</i>
   <i type="int" name="IALGO">    38</i>
   <i type="int" name="IWAVPR">    11</i>
   <i type="int" name="NBANDS">    66</i>
   <i type="int" name="NBANDSLOW">    -1</i>
   <i type="int" name="NBANDSHIGH">    -1</i>
   <i name="NELECT">    100.00000000</i>
   <i type="int" name="TURBO">     0</i>
   <i type="int" name="IRESTART">     0</i>
   <i type="int" name="NREBOOT">     0</i>
   <i type="int" name="NMIN">     0</i>
   <i name="EREF">      0.00000000</i>
   <separator name="electronic smearing" >
    <i type="int" name="ISMEAR">     1</i>
    <i name="SIGMA">      0.20000000</i>
    <i name="KSPACING">      0.50000000</i>
    <i type="logical" name="KGAMMA"> T  </i>
    <i type="logical" name="KBLOWUP"> T  </i>
   </separator>
   <separator name="electronic projectors" >
    <i type="logical" name="LREAL"> F  </i>
    <v name="ROPT">      0.00000000      0.00000000</v>
    <i type="int" name="LMAXPAW">  -100</i>
    <i type="int" name="LMAXMIX">     2</i>
    <i type="logical" name="NLSPLINE"> F  </i>
   </separator>
   <separator name="electronic startup" >
    <i type="int" name="ISTART">     0</i>
    <i type="int" name="ICHARG">     2</i>
    <i type="int" name="INIWAV">     1</i>
   </separator>
   <separator name="electronic spin" >
    <i type="int" name="ISPIN">     2</i>
    <i type="logical" name="LNONCOLLINEAR"> F  </i>
    <v name="MAGMOM">      1.00000000      1.00000000      1.00000000      1.00000000      1.00000000      1.00000000      1.00000000      1.00000000      1.00000000      1.00000000</v>
    <i name="NUPDOWN">     -1.00000000</i>
    <i type="logical" name="LSORBIT"> F  </i>
    <v name="SAXIS">      0.00000000      0.00000000      1.00000000</v>
    <i type="logical" name="LSPIRAL"> F  </i>
    <v name="QSPIRAL">      0.00000000      0.00000000      0.00000000</v>
    <i type="logical" name="LZEROZ"> F  </i>
   </separator>
   <separator name="electronic exchange-correlation" >
    <i type="logical" name="LASPH"> F  </i>
    <i type="logical" name="LMETAGGA"> F  </i>
   </separator>
   <separator name="electronic convergence" >
    <i type="int" name="NELM">    60</i>
    <i type="int" name="NELMDL">     0</i>
    <i type="int" name="NELMIN">     2</i>
    <i name="ENINI">    400.00000000</i>
    <separator name="electronic convergence detail" >
     <i type="logical" name="LDIAG"> T  </i>
     <i type="logical" name="LSUBROT"> F  </i>
     <i name="WEIMIN">      0.00100000</i>
     <i name="EBREAK">      0.00000038</i>
     <i name="DEPER">      0.30000000</i>
     <i type="int" name="NRMM">     4</i>
     <i name="TIME">      0.40000000</i>
    </separator>
   </separator>
   <separator name="electronic mixer" >
    <i name="AMIX">      0.40000000</i>
    <i name="BMIX">      1.00000000</i>
    <i name="AMIN">      0.10000000</i>
    <i name="AMIX_MAG">      1.60000000</i>
    <i name="BMIX_MAG">      1.00000000</i>
    <separator name="electronic mixer details" >
     <i type="int" name="IMIX">     4</i>
     <i type="logical" name="MIXFIRST"> F  </i>
     <i type="int" name="MAXMIX">   -45</i>
     <i name="WC">    100.00000000</i>
     <i type="int" name="INIMIX">     1</i>
     <i type="int" name="MIXPRE">     1</i>
     <i type="int" name="MREMOVE">     5</i>
    </separator>
   </separator>
   <separator name="electronic dipolcorrection" >
    <i type="logical" name="LDIPOL"> F  </i>
    <i type="logical" name="LMONO"> F  </i>
    <i type="int" name="IDIPOL">     0</i>
    <i name="EPSILON">      1.00000000</i>
    <v name="DIPOL">   -100.00000000   -100.00000000   -100.00000000</v>
    <i name="EFIELD">      0.00000000</i>
   </separator>
  </separator>
  <separator name="grids" >
   <i type="int" name="NGX">   108</i>
   <i type="int" name="NGY">   108</i>
   <i type="int" name="NGZ">   112</i>
   <i type="int" name="NGXF">   216</i>
   <i type="int" name="NGYF">   216</i>
   <i type="int" name="NGZF">   224</i>
   <i type="logical" name="ADDGRID"> F  </i>
  </separator>
  <separator name="ionic" >
   <i type="int" name="NSW">  1000</i>
   <i type="int" name="IBRION">     2</i>
   <i type="int" name="MDALGO">     0</i>
   <i type="int" name="ISIF">     0</i>
   <i name="PSTRESS">      0.00000000</i>
   <i name="EDIFFG">      0.00100000</i>
   <i type="int" name="NFREE">     1</i>
   <i name="POTIM">      0.50000000</i>
   <i name="SMASS">     -3.00000000</i>
   <i name="SCALEE">      1.00000000</i>
  </separator>
  <separator name="ionic md" >
   <i name="TEBEG">      0.00010000</i>
   <i name="TEEND">      0.00010000</i>
   <i type="int" name="NBLOCK">     1</i>
   <i type="int" name="KBLOCK">  1000</i>
   <i type="int" name="NPACO">   256</i>
   <i name="APACO">     16.00000000</i>
  </separator>
  <separator name="symmetry" >
   <i type="int" name="ISYM">     0</i>
   <i name="SYMPREC">      0.00001000</i>
  </separator>
  <separator name="dos" >
   <i type="int" name="LORBIT">     0</i>
   <v name="RWIGS">     -1.00000000     -1.00000000</v>
   <i type="int" name="NEDOS">   301</i>
   <i name="EMIN">     10.00000000</i>
   <i name="EMAX">    -10.00000000</i>
   <i name="EFERMI">      0.00000000</i>
  </separator>
  <separator name="writing" >
   <i type="int" name="NWRITE">     2</i>
   <i type="logical" name="LWAVE"> F  </i>
   <i type="logical" name="LDOWNSAMPLE"> F  </i>
   <i type="logical" name="LCHARG"> F  </i>
   <i type="logical" name="LPARD"> F  </i>
   <i type="logical" name="LVTOT"> F  </i>
   <i type="logical" name="LVHAR"> F  </i>
   <i type="logical" name="LELF"> F  </i>
   <i type="logical" name="LOPTICS"> F  </i>
   <v name="STM">      0.00000000      0.00000000      0.00000000      0.00000000      0.00000000      0.00000000      0.00000000</v>
  </separator>
  <separator name="performance" >
   <i type="int" name="NPAR">     2</i>
   <i type="int" name="NSIM">     4</i>
   <i type="int" name="NBLK">    -1</i>
   <i type="logical" name="LPLANE"> T  </i>
   <i type="logical" name="LSCALAPACK"> T  </i>
   <i type="logical" name="LSCAAWARE"> F  </i>
   <i type="logical" name="LSCALU"> F  </i>
   <i type="logical" name="LASYNC"> F  </i>
   <i type="logical" name="LORBITALREAL"> F  </i>
  </separator>
  <separator name="miscellaneous" >
   <i type="int" name="IDIOT">     3</i>
   <i type="int" name="PHON_NSTRUCT">    -1</i>
   <i type="logical" name="LMUSIC"> F  </i>
   <v name="POMASS">     58.69000000    106.42000000</v>
   <v name="DARWINR">      0.00000000      0.00000000</v>
   <v name="DARWINV">      1.00000000      1.00000000</v>
   <i type="logical" name="LCORR"> T  </i>
  </separator>
  <i type="logical" name="GGA_COMPAT"> T  </i>
  <i type="logical" name="LBERRY"> F  </i>
  <i type="int" name="ICORELEVEL">     0</i>
  <i type="logical" name="LDAU"> F  </i>
  <i type="int" name="I_CONSTRAINED_M">     0</i>
  <separator name="electronic exchange-correlation" >
   <i type="string" name="GGA">PE</i>
   <i type="int" name="VOSKOWN">     0</i>
   <i type="logical" name="LHFCALC"> F  </i>
   <i type="string" name="PRECFOCK"></i>
   <i type="logical" name="LSYMGRAD"> F  </i>
   <i type="logical" name="LHFONE"> F  </i>
   <i type="logical" name="LRHFCALC"> F  </i>
   <i type="logical" name="LTHOMAS"> F  </i>
   <i type="logical" name="LMODELHF"> F  </i>
   <i type="logical" name="LFOCKACE"> F  </i>
   <i name="ENCUT4O">     -1.00000000</i>
   <i type="int" name="EXXOEP">     0</i>
   <i type="int" name="FOURORBIT">     0</i>
   <i name="AEXX">      0.00000000</i>
   <i name="HFALPHA">      0.00000000</i>
   <i name="MCALPHA">      0.00000000</i>
   <i name="ALDAX">      1.00000000</i>
   <i name="AGGAX">      1.00000000</i>
   <i name="ALDAC">      1.00000000</i>
   <i name="AGGAC">      1.00000000</i>
   <i type="int" name="NKREDX">     1</i>
   <i type="int" name="NKREDY">     1</i>
   <i type="int" name="NKREDZ">     1</i>
   <i type="logical" name="SHIFTRED"> F  </i>
   <i type="logical" name="ODDONLY"> F  </i>
   <i type="logical" name="EVENONLY"> F  </i>
   <i type="int" name="LMAXFOCK">     0</i>
   <i type="int" name="NMAXFOCKAE">     0</i>
   <i type="logical" name="LFOCKAEDFT"> F  </i>
   <i name="HFSCREEN">      0.00000000</i>
   <i name="HFSCREENC">      0.00000000</i>
   <i type="int" name="NBANDSGWLOW">     0</i>
  </separator>
  <separator name="vdW DFT" >
   <i type="logical" name="LUSE_VDW"> F  </i>
   <i name="Zab_VDW">     -0.84910000</i>
   <i name="PARAM1">      0.12340000</i>
   <i name="PARAM2">      1.00000000</i>
   <i name="PARAM3">      0.00000000</i>
  </separator>
  <separator name="model GW" >
   <i type="int" name="MODEL_GW">     0</i>
   <i name="MODEL_EPS0">    672.92247170</i>
   <i name="MODEL_ALPHA">      1.00000000</i>
  </separator>
  <separator name="linear response parameters" >
   <i type="logical" name="LEPSILON"> F  </i>
   <i type="logical" name="LRPA"> F  </i>
   <i type="logical" name="LNABLA"> F  </i>
   <i type="logical" name="LVEL"> F  </i>
   <i type="int" name="KINTER">     0</i>
   <i name="CSHIFT">      0.10000000</i>
   <i name="OMEGAMAX">     -1.00000000</i>
   <i name="DEG_THRESHOLD">      0.00200000</i>
   <i name="RTIME">     -0.10000000</i>
   <i name="WPLASMAI">      0.00000000</i>
   <v name="DFIELD">      0.00000000      0.00000000      0.00000000</v>
   <v name="WPLASMA">      0.00000000      0.00000000      0.00000000      0.00000000      0.00000000      0.00000000      0.00000000      0.00000000      0.00000000</v>
  </separator>
  <separator name="orbital magnetization" >
   <i type="logical" name="NUCIND"> F  </i>
   <v name="MAGPOS">      0.00000000      0.00000000      0.00000000</v>
   <i type="logical" name="LNICSALL"> T  </i>
   <i type="logical" name="ORBITALMAG"> F  </i>
   <i type="logical" name="LMAGBLOCH"> F  </i>
   <i type="logical" name="LCHIMAG"> F  </i>
   <i type="logical" name="LGAUGE"> T  </i>
   <i type="int" name="MAGATOM">     0</i>
   <v name="MAGDIPOL">      0.00000000      0.00000000      0.00000000</v>
   <v name="AVECCONST">      0.00000000      0.00000000      0.00000000</v>
  </separator>
  <separator name="response functions" >
   <i type="logical" name="LFINITE_TEMPERATURE"> F  </i>
   <i type="logical" name="LADDER"> F  </i>
   <i type="logical" name="LRPAFORCE"> F  </i>
   <i type="logical" name="LFXC"> F  </i>
   <i type="logical" name="LHARTREE"> T  </i>
   <i type="int" name="IBSE">     0</i>
   <v type="int" name="KPOINT">    -1     0     0     0</v>
   <i type="logical" name="LTCTC"> F  </i>
   <i type="logical" name="LTCTE"> F  </i>
   <i type="logical" name="LTETE"> F  </i>
   <i type="logical" name="LTRIPLET"> F  </i>
   <i type="logical" name="LFXCEPS"> F  </i>
   <i type="logical" name="LFXHEG"> F  </i>
   <i type="int" name="NATURALO">     2</i>
   <i type="logical" name="LHOLEGF"> F  </i>
   <i type="logical" name="L2ORDER"> F  </i>
   <i type="logical" name="LDMP1"> F  </i>
   <i type="logical" name="LMP2LT"> F  </i>
   <i type="logical" name="LSMP2LT"> F  </i>
   <i type="logical" name="LGWLF"> F  </i>
   <i name="ENCUTGW">     -2.00000000</i>
   <i name="ENCUTGWSOFT">     -2.00000000</i>
   <i name="ENCUTLF">     -1.00000000</i>
   <i type="logical" name="LESF_SPLINES"> F  </i>
   <i type="int" name="LMAXMP2">    -1</i>
   <i name="SCISSOR">      0.00000000</i>
   <i type="int" name="NOMEGA">     0</i>
   <i type="int" name="NOMEGAR">     0</i>
   <i type="int" name="NBANDSGW">    -1</i>
   <i type="int" name="NBANDSO">    -1</i>
   <i type="int" name="NBANDSV">    -1</i>
   <i type="int" name="NELM">     1</i>
   <i type="int" name="NELMHF">     1</i>
   <i type="int" name="DIM">     3</i>
   <i type="int" name="IESPILON">     4</i>
   <i type="int" name="ANTIRES">     0</i>
   <i name="OMEGAMAX">    -30.00000000</i>
   <i name="OMEGAMIN">    -30.00000000</i>
   <i name="OMEGATL">   -200.00000000</i>
   <i type="int" name="OMEGAGRID">     0</i>
   <i name="CSHIFT">     -0.10000000</i>
   <i type="logical" name="LSELFENERGY"> F  </i>
   <i type="logical" name="LSPECTRAL"> F  </i>
   <i type="logical" name="LSPECTRALGW"> F  </i>
   <i type="logical" name="LSINGLES"> F  </i>
   <i type="logical" name="LFERMIGW"> F  </i>
   <i type="logical" name="ODDONLYGW"> F  </i>
   <i type="logical" name="EVENONLYGW"> F  </i>
   <i type="int" name="NKREDLFX">     1</i>
   <i type="int" name="NKREDLFY">     1</i>
   <i type="int" name="NKREDLFZ">     1</i>
   <i type="int" name="MAXMEM">  2800</i>
   <i type="int" name="TELESCOPE">     0</i>
   <i type="int" name="NTAUPAR">    -1</i>
   <i type="int" name="NOMEGAPAR">    -1</i>
   <i name="LAMBDA">      1.00000000</i>
  </separator>
  <separator name="External order field" >
   <i name="OFIELD_KAPPA">      0.00000000</i>
   <v name="OFIELD_K">      0.00000000      0.00000000      0.00000000</v>
   <i name="OFIELD_Q6_NEAR">      0.00000000</i>
   <i name="OFIELD_Q6_FAR">      0.00000000</i>
   <i name="OFIELD_A">      0.00000000</i>
  </separator>
 </parameters>
 <atominfo>
  <atoms>      10 </atoms>
  <types>       2 </types>
  <array name="atoms" >
   <dimension dim="1">ion</dimension>
   <field type="string">element</field>
   <field type="int">atomtype</field>
   <set>
    <rc><c>Ni</c><c>   1</c></rc>
    <rc><c>Ni</c><c>   1</c></rc>
    <rc><c>Ni</c><c>   1</c></rc>
    <rc><c>Ni</c><c>   1</c></rc>
    <rc><c>Ni</c><c>   1</c></rc>
    <rc><c>Ni</c><c>   1</c></rc>
    <rc><c>Pd</c><c>   2</c></rc>
    <rc><c>Pd</c><c>   2</c></rc>
    <rc><c>Pd</c><c>   2</c></rc>
    <rc><c>Pd</c><c>   2</c></rc>
   </set>
  </array>
  <array name="atomtypes" >
   <dimension dim="1">type</dimension>
   <field type="int">atomspertype</field>
   <field type="string">element</field>
   <field>mass</field>
   <field>valence</field>
   <field type="string">pseudopotential</field>
   <set>
    <rc><c>   6</c><c>Ni</c><c>     58.69000000</c><c>     10.00000000</c><c>  PAW_PBE Ni 02Aug2007                  </c></rc>
    <rc><c>   4</c><c>Pd</c><c>    106.42000000</c><c>     10.00000000</c><c>  PAW_PBE Pd 04Jan2005                  </c></rc>
   </set>
  </array>
 </atominfo>
 <structure name="initialpos" >
  <crystal>
   <varray name="basis" >
    <v>      22.14783652       0.00000000       0.00000000 </v>
    <v>       0.00000000      22.06864480       0.00000000 </v>
    <v>       0.00000000       0.00000000      22.94599038 </v>
   </varray>
   <i name="volume">  11215.37452836 </i>
   <varray name="rec_basis" >
    <v>       0.04515114       0.00000000       0.00000000 </v>
    <v>       0.00000000       0.04531316       0.00000000 </v>
    <v>       0.00000000       0.00000000       0.04358060 </v>
   </varray>
  </crystal>
  <varray name="positions" >
   <v>       0.45122491       0.53078241       0.52026172 </v>
   <v>       0.53228380       0.51649876       0.45569722 </v>
   <v>       0.48736348       0.42561587       0.42480719 </v>
   <v>       0.54090893       0.58451922       0.53417674 </v>
   <v>       0.58644257       0.42355020       0.45118496 </v>
   <v>       0.51084488       0.44086011       0.52306449 </v>
   <v>       0.42629337       0.51980551       0.41593177 </v>
   <v>       0.60910493       0.49564405       0.53484471 </v>
   <v>       0.40165248       0.43324705       0.49492740 </v>
   <v>       0.51120977       0.51135117       0.60898097 </v>
  </varray>
 </structure>
 <calculation>
  <scstep>
   <time name="dav">    5.67    5.68</time>
   <time name="total">    7.93    7.95</time>
   <energy>
    <i name="alphaZ">      5.05286118 </i>
    <i name="ewald">  12818.48236133 </i>
    <i name="hartreedc"> -21791.12653765 </i>
    <i name="XCdc">     63.21907003 </i>
    <i name="pawpsdc">   9003.59075477 </i>
    <i name="pawaedc">  -9155.75339974 </i>
    <i name="eentropy">     -0.02773217 </i>
    <i name="bandstr">     82.24629317 </i>
    <i name="atom">   9704.95859309 </i>
    <i name="e_fr_energy">    730.64226402 </i>
    <i name="e_wo_entrp">    730.66999619 </i>
    <i name="e_0_energy">    730.65150808 </i>
   </energy>
  </scstep>
  <scstep>
   <time name="dav">    8.56    8.57</time>
   <time name="total">    8.56    8.57</time>
   <energy>
    <i name="e_fr_energy">    248.79473945 </i>
    <i name="e_wo_entrp">    248.76951658 </i>
    <i name="e_0_energy">    248.78633183 </i>
   </energy>
  </scstep>
  <scstep>
   <time name="dav">    7.58    7.59</time>
   <time name="total">    7.58    7.59</time>
   <energy>
    <i name="e_fr_energy">     17.87880415 </i>
    <i name="e_wo_entrp">     17.86726348 </i>
    <i name="e_0_energy">     17.87495726 </i>
   </energy>
  </scstep>
  <scstep>
   <time name="dav">    7.61    7.62</time>
   <time name="total">    7.61    7.62</time>
   <energy>
    <i name="e_fr_energy">    -37.61740001 </i>
    <i name="e_wo_entrp">    -37.57428019 </i>
    <i name="e_0_energy">    -37.60302674 </i>
   </energy>
  </scstep>
  <scstep>
   <time name="dav">    6.62    6.62</time>
   <time name="total">    7.23    7.24</time>
   <energy>
    <i name="e_fr_energy">    -44.04087254 </i>
    <i name="e_wo_entrp">    -44.02325048 </i>
    <i name="e_0_energy">    -44.03499852 </i>
   </energy>
  </scstep>
  <scstep>
   <time name="dav">    6.03    6.04</time>
   <time name="total">    8.95    8.96</time>
   <energy>
    <i name="e_fr_energy">    -56.58832386 </i>
    <i name="e_wo_entrp">    -56.56342512 </i>
    <i name="e_0_energy">    -56.58002428 </i>
   </energy>
  </scstep>
  <scstep>
   <time name="dav">    6.69    6.70</time>
   <time name="total">    9.58    9.60</time>
   <energy>
    <i name="e_fr_energy">    -39.37184506 </i>
    <i name="e_wo_entrp">    -39.32412282 </i>
    <i name="e_0_energy">    -39.35593765 </i>
   </energy>
  </scstep>
  <scstep>
   <time name="dav">    6.79    6.80</time>
   <time name="total">    9.67    9.69</time>
   <energy>
    <i name="e_fr_energy">    -38.77973073 </i>
    <i name="e_wo_entrp">    -38.73694583 </i>
    <i name="e_0_energy">    -38.76546910 </i>
   </energy>
  </scstep>
  <scstep>
   <time name="dav">    6.98    6.99</time>
   <time name="total">    9.88    9.90</time>
   <energy>
    <i name="e_fr_energy">    -40.97353514 </i>
    <i name="e_wo_entrp">    -40.94289634 </i>
    <i name="e_0_energy">    -40.96332221 </i>
   </energy>
  </scstep>
  <scstep>
   <time name="dav">    7.21    7.22</time>
   <time name="total">   10.14   10.15</time>
   <energy>
    <i name="e_fr_energy">    -37.21125566 </i>
    <i name="e_wo_entrp">    -37.17036294 </i>
    <i name="e_0_energy">    -37.19762475 </i>
   </energy>
  </scstep>
  <scstep>
   <time name="dav">    6.95    6.96</time>
   <time name="total">    9.85    9.87</time>
   <energy>
    <i name="e_fr_energy">    -36.36741493 </i>
    <i name="e_wo_entrp">    -36.28467275 </i>
    <i name="e_0_energy">    -36.33983420 </i>
   </energy>
  </scstep>
  <scstep>
   <time name="dav">    6.93    6.94</time>
   <time name="total">    9.89    9.91</time>
   <energy>
    <i name="e_fr_energy">    -35.77979339 </i>
    <i name="e_wo_entrp">    -35.75031706 </i>
    <i name="e_0_energy">    -35.76996794 </i>
   </energy>
  </scstep>
  <scstep>
   <time name="dav">    6.03    6.04</time>
   <time name="total">    8.96    8.97</time>
   <energy>
    <i name="e_fr_energy">    -35.46544803 </i>
    <i name="e_wo_entrp">    -35.43933164 </i>
    <i name="e_0_energy">    -35.45674257 </i>
   </energy>
  </scstep>
  <scstep>
   <time name="dav">    6.26    6.27</time>
   <time name="total">    9.17    9.18</time>
   <energy>
    <i name="e_fr_energy">    -35.67983734 </i>
    <i name="e_wo_entrp">    -35.67081339 </i>
    <i name="e_0_energy">    -35.67682936 </i>
   </energy>
  </scstep>
  <scstep>
   <time name="dav">    6.34    6.35</time>
   <time name="total">    9.27    9.27</time>
   <energy>
    <i name="e_fr_energy">    -35.34696731 </i>
    <i name="e_wo_entrp">    -35.32366003 </i>
    <i name="e_0_energy">    -35.33919822 </i>
   </energy>
  </scstep>
  <scstep>
   <time name="dav">    7.39    7.41</time>
   <time name="total">   10.34   10.35</time>
   <energy>
    <i name="e_fr_energy">    -35.31715582 </i>
    <i name="e_wo_entrp">    -35.29113871 </i>
    <i name="e_0_energy">    -35.30848345 </i>
   </energy>
  </scstep>
  <scstep>
   <time name="dav">    6.03    6.04</time>
   <time name="total">    8.99    9.00</time>
   <energy>
    <i name="e_fr_energy">    -35.59994009 </i>
    <i name="e_wo_entrp">    -35.56728045 </i>
    <i name="e_0_energy">    -35.58905355 </i>
   </energy>
  </scstep>
  <scstep>
   <time name="dav">    6.86    6.87</time>
   <time name="total">    9.79    9.81</time>
   <energy>
    <i name="e_fr_energy">    -36.19010277 </i>
    <i name="e_wo_entrp">    -36.15815575 </i>
    <i name="e_0_energy">    -36.17945376 </i>
   </energy>
  </scstep>
  <scstep>
   <time name="dav">    7.05    7.06</time>
   <time name="total">    9.99   10.01</time>
   <energy>
    <i name="e_fr_energy">    -36.60493629 </i>
    <i name="e_wo_entrp">    -36.56549331 </i>
    <i name="e_0_energy">    -36.59178863 </i>
   </energy>
  </scstep>
  <scstep>
   <time name="dav">    5.85    5.86</time>
   <time name="total">    8.83    8.85</time>
   <energy>
    <i name="e_fr_energy">    -36.78776785 </i>
    <i name="e_wo_entrp">    -36.74947573 </i>
    <i name="e_0_energy">    -36.77500381 </i>
   </energy>
  </scstep>
  <scstep>
   <time name="dav">    7.25    7.26</time>
   <time name="total">   10.25   10.27</time>
   <energy>
    <i name="e_fr_energy">    -37.03088831 </i>
    <i name="e_wo_entrp">    -37.00204763 </i>
    <i name="e_0_energy">    -37.02127475 </i>
   </energy>
  </scstep>
  <scstep>
   <time name="dav">    6.95    6.96</time>
   <time name="total">    9.92    9.93</time>
   <energy>
    <i name="e_fr_energy">    -37.22839770 </i>
    <i name="e_wo_entrp">    -37.19874097 </i>
    <i name="e_0_energy">    -37.21851213 </i>
   </energy>
  </scstep>
  <scstep>
   <time name="dav">    6.64    6.65</time>
   <time name="total">    9.61    9.62</time>
   <energy>
    <i name="e_fr_energy">    -37.37737338 </i>
    <i name="e_wo_entrp">    -37.34439135 </i>
    <i name="e_0_energy">    -37.36637937 </i>
   </energy>
  </scstep>
  <scstep>
   <time name="dav">    6.46    6.47</time>
   <time name="total">    9.44    9.45</time>
   <energy>
    <i name="e_fr_energy">    -37.49717738 </i>
    <i name="e_wo_entrp">    -37.46582812 </i>
    <i name="e_0_energy">    -37.48672763 </i>
   </energy>
  </scstep>
  <scstep>
   <time name="dav">    6.89    6.90</time>
   <time name="total">    9.90    9.91</time>
   <energy>
    <i name="e_fr_energy">    -37.55852734 </i>
    <i name="e_wo_entrp">    -37.52620605 </i>
    <i name="e_0_energy">    -37.54775358 </i>
   </energy>
  </scstep>
  <scstep>
   <time name="dav">    6.48    6.49</time>
   <time name="total">    9.49    9.51</time>
   <energy>
    <i name="e_fr_energy">    -37.63050848 </i>
    <i name="e_wo_entrp">    -37.59806660 </i>
    <i name="e_0_energy">    -37.61969452 </i>
   </energy>
  </scstep>
  <scstep>
   <time name="dav">    5.64    5.64</time>
   <time name="total">    8.70    8.71</time>
   <energy>
    <i name="e_fr_energy">    -37.70397547 </i>
    <i name="e_wo_entrp">    -37.67308091 </i>
    <i name="e_0_energy">    -37.69367728 </i>
   </energy>
  </scstep>
  <scstep>
   <time name="dav">    5.64    5.65</time>
   <time name="total">    8.73    8.74</time>
   <energy>
    <i name="e_fr_energy">    -37.75720658 </i>
    <i name="e_wo_entrp">    -37.72785382 </i>
    <i name="e_0_energy">    -37.74742233 </i>
   </energy>
  </scstep>
  <scstep>
   <time name="dav">    5.75    5.76</time>
   <time name="total">    8.78    8.80</time>
   <energy>
    <i name="e_fr_energy">    -37.80699669 </i>
    <i name="e_wo_entrp">    -37.77784304 </i>
    <i name="e_0_energy">    -37.79727880 </i>
   </energy>
  </scstep>
  <scstep>
   <time name="dav">    5.29    5.30</time>
   <time name="total">    8.32    8.33</time>
   <energy>
    <i name="e_fr_energy">    -37.84692374 </i>
    <i name="e_wo_entrp">    -37.81876265 </i>
    <i name="e_0_energy">    -37.83753671 </i>
   </energy>
  </scstep>
  <scstep>
   <time name="dav">    4.87    4.87</time>
   <time name="total">    7.98    7.98</time>
   <energy>
    <i name="e_fr_energy">    -37.86106195 </i>
    <i name="e_wo_entrp">    -37.83266347 </i>
    <i name="e_0_energy">    -37.85159579 </i>
   </energy>
  </scstep>
  <scstep>
   <time name="dav">    4.88    4.88</time>
   <time name="total">    7.97    7.98</time>
   <energy>
    <i name="e_fr_energy">    -37.87471792 </i>
    <i name="e_wo_entrp">    -37.84649273 </i>
    <i name="e_0_energy">    -37.86530953 </i>
   </energy>
  </scstep>
  <scstep>
   <time name="dav">    4.67    4.67</time>
   <time name="total">    7.78    7.80</time>
   <energy>
    <i name="e_fr_energy">    -37.88548891 </i>
    <i name="e_wo_entrp">    -37.85705178 </i>
    <i name="e_0_energy">    -37.87600987 </i>
   </energy>
  </scstep>
  <scstep>
   <time name="dav">    4.74    4.74</time>
   <time name="total">    7.87    7.88</time>
   <energy>
    <i name="e_fr_energy">    -37.89362593 </i>
    <i name="e_wo_entrp">    -37.86490612 </i>
    <i name="e_0_energy">    -37.88405266 </i>
   </energy>
  </scstep>
  <scstep>
   <time name="dav">    4.62    4.62</time>
   <time name="total">    7.75    7.76</time>
   <energy>
    <i name="e_fr_energy">    -37.90104997 </i>
    <i name="e_wo_entrp">    -37.87222366 </i>
    <i name="e_0_energy">    -37.89144120 </i>
   </energy>
  </scstep>
  <scstep>
   <time name="dav">    4.42    4.43</time>
   <time name="total">    7.57    7.58</time>
   <energy>
    <i name="e_fr_energy">    -37.90428852 </i>
    <i name="e_wo_entrp">    -37.87539489 </i>
    <i name="e_0_energy">    -37.89465731 </i>
   </energy>
  </scstep>
  <scstep>
   <time name="dav">    4.46    4.47</time>
   <time name="total">    7.62    7.63</time>
   <energy>
    <i name="e_fr_energy">    -37.90719368 </i>
    <i name="e_wo_entrp">    -37.87825469 </i>
    <i name="e_0_energy">    -37.89754735 </i>
   </energy>
  </scstep>
  <scstep>
   <time name="dav">    4.48    4.49</time>
   <time name="total">    7.64    7.65</time>
   <energy>
    <i name="e_fr_energy">    -37.90823384 </i>
    <i name="e_wo_entrp">    -37.87927495 </i>
    <i name="e_0_energy">    -37.89858087 </i>
   </energy>
  </scstep>
  <scstep>
   <time name="dav">    4.28    4.29</time>
   <time name="total">    7.46    7.48</time>
   <energy>
    <i name="e_fr_energy">    -37.90902523 </i>
    <i name="e_wo_entrp">    -37.88001306 </i>
    <i name="e_0_energy">    -37.89935451 </i>
   </energy>
  </scstep>
  <scstep>
   <time name="dav">    4.39    4.39</time>
   <time name="total">    7.60    7.61</time>
   <energy>
    <i name="e_fr_energy">    -37.90935898 </i>
    <i name="e_wo_entrp">    -37.88034075 </i>
    <i name="e_0_energy">    -37.89968624 </i>
   </energy>
  </scstep>
  <scstep>
   <time name="dav">    4.17    4.18</time>
   <time name="total">    7.39    7.40</time>
   <energy>
    <i name="e_fr_energy">    -37.90975500 </i>
    <i name="e_wo_entrp">    -37.88070931 </i>
    <i name="e_0_energy">    -37.90007310 </i>
   </energy>
  </scstep>
  <scstep>
   <time name="dav">    4.20    4.20</time>
   <time name="total">    7.44    7.45</time>
   <energy>
    <i name="e_fr_energy">    -37.91000828 </i>
    <i name="e_wo_entrp">    -37.88097346 </i>
    <i name="e_0_energy">    -37.90033001 </i>
   </energy>
  </scstep>
  <scstep>
   <time name="dav">    4.28    4.29</time>
   <time name="total">    7.58    7.59</time>
   <energy>
    <i name="e_fr_energy">    -37.91016766 </i>
    <i name="e_wo_entrp">    -37.88111222 </i>
    <i name="e_0_energy">    -37.90048251 </i>
   </energy>
  </scstep>
  <scstep>
   <time name="dav">    4.17    4.18</time>
   <time name="total">    7.46    7.47</time>
   <energy>
    <i name="e_fr_energy">    -37.91031760 </i>
    <i name="e_wo_entrp">    -37.88123913 </i>
    <i name="e_0_energy">    -37.90062478 </i>
   </energy>
  </scstep>
  <scstep>
   <time name="dav">    4.33    4.34</time>
   <time name="total">    7.62    7.63</time>
   <energy>
    <i name="e_fr_energy">    -37.91044129 </i>
    <i name="e_wo_entrp">    -37.88136856 </i>
    <i name="e_0_energy">    -37.90075038 </i>
   </energy>
  </scstep>
  <scstep>
   <time name="dav">    4.15    4.15</time>
   <time name="total">    7.46    7.48</time>
   <energy>
    <i name="e_fr_energy">    -37.91054641 </i>
    <i name="e_wo_entrp">    -37.88146351 </i>
    <i name="e_0_energy">    -37.90085211 </i>
   </energy>
  </scstep>
  <scstep>
   <time name="dav">    4.28    4.29</time>
   <time name="total">    6.54    6.55</time>
   <energy>
    <i name="alphaZ">      5.05286118 </i>
    <i name="ewald">  12818.48236133 </i>
    <i name="hartreedc"> -21867.77653724 </i>
    <i name="XCdc">     60.37138977 </i>
    <i name="pawpsdc">  10139.50760124 </i>
    <i name="pawaedc"> -10304.17133914 </i>
    <i name="eentropy">     -0.02907535 </i>
    <i name="bandstr">   -594.30644916 </i>
    <i name="atom">   9704.95859309 </i>
    <i name="e_fr_energy">    -37.91059428 </i>
    <i name="e_wo_entrp">    -37.88151893 </i>
    <i name="e_0_energy">    -37.90090249 </i>
   </energy>
  </scstep>
  <structure>
   <crystal>
    <varray name="basis" >
     <v>      22.14783652       0.00000000       0.00000000 </v>
     <v>       0.00000000      22.06864480       0.00000000 </v>
     <v>       0.00000000       0.00000000      22.94599038 </v>
    </varray>
    <i name="volume">  11215.37452836 </i>
    <varray name="rec_basis" >
     <v>       0.04515114       0.00000000       0.00000000 </v>
     <v>       0.00000000       0.04531316       0.00000000 </v>
     <v>       0.00000000       0.00000000       0.04358060 </v>
    </varray>
   </crystal>
   <varray name="positions" >
    <v>       0.45122491       0.53078241       0.52026172 </v>
    <v>       0.53228380       0.51649876       0.45569722 </v>
    <v>       0.48736348       0.42561587       0.42480719 </v>
    <v>       0.54090893       0.58451922       0.53417674 </v>
    <v>       0.58644257       0.42355020       0.45118496 </v>
    <v>       0.51084488       0.44086011       0.52306449 </v>
    <v>       0.42629337       0.51980551       0.41593177 </v>
    <v>       0.60910493       0.49564405       0.53484471 </v>
    <v>       0.40165248       0.43324705       0.49492740 </v>
    <v>       0.51120977       0.51135117       0.60898097 </v>
   </varray>
  </structure>
  <varray name="forces" >
   <v>       0.02279689      -0.01687588       0.03650910 </v>
   <v>      -0.01765933      -0.01388888      -0.01787013 </v>
   <v>      -0.00056082       0.02346680       0.02356608 </v>
   <v>      -0.00601943       0.01718992       0.00607818 </v>
   <v>       0.02884805       0.01159749      -0.00138382 </v>
   <v>      -0.00476885       0.00704323       0.01887888 </v>
   <v>       0.01138342      -0.00138567      -0.00863875 </v>
   <v>      -0.03429577      -0.03061051      -0.00379689 </v>
   <v>      -0.01402993      -0.01207369      -0.01607329 </v>
   <v>       0.01430578       0.01553720      -0.03726936 </v>
  </varray>
  <energy>
   <i name="e_fr_energy">    -37.91059428 </i>
   <i name="e_wo_entrp">    -37.88151893 </i>
   <i name="e_0_energy">    -37.90090249 </i>
  </energy>
  <time name="totalsc">  413.21  413.84</time>
 </calculation>
 <calculation>
  <scstep>
   <time name="dav">    5.62    5.62</time>
   <time name="total">    8.49    8.50</time>
   <energy>
    <i name="alphaZ">      5.05286118 </i>
    <i name="ewald">  12821.83368238 </i>
    <i name="hartreedc"> -21871.05636377 </i>
    <i name="XCdc">     60.38053167 </i>
    <i name="pawpsdc">  10139.51313503 </i>
    <i name="pawaedc"> -10304.17685578 </i>
    <i name="eentropy">     -0.02951461 </i>
    <i name="bandstr">   -594.38686797 </i>
    <i name="atom">   9704.95859309 </i>
    <i name="e_fr_energy">    -37.91079877 </i>
    <i name="e_wo_entrp">    -37.88128416 </i>
    <i name="e_0_energy">    -37.90096057 </i>
   </energy>
  </scstep>
  <scstep>
   <time name="dav">    7.47    7.48</time>
   <time name="total">   10.29   10.30</time>
   <energy>
    <i name="e_fr_energy">    -37.91134541 </i>
    <i name="e_wo_entrp">    -37.88379067 </i>
    <i name="e_0_energy">    -37.90216050 </i>
   </energy>
  </scstep>
  <scstep>
   <time name="dav">    6.09    6.10</time>
   <time name="total">    8.97    8.98</time>
   <energy>
    <i name="e_fr_energy">    -37.91039987 </i>
    <i name="e_wo_entrp">    -37.88163569 </i>
    <i name="e_0_energy">    -37.90081181 </i>
   </energy>
  </scstep>
  <scstep>
   <time name="dav">    5.07    5.07</time>
   <time name="total">    7.91    7.92</time>
   <energy>
    <i name="e_fr_energy">    -37.91101089 </i>
    <i name="e_wo_entrp">    -37.88179207 </i>
    <i name="e_0_energy">    -37.90127128 </i>
   </energy>
  </scstep>
  <scstep>
   <time name="dav">    4.53    4.54</time>
   <time name="total">    7.37    7.38</time>
   <energy>
    <i name="e_fr_energy">    -37.91079631 </i>
    <i name="e_wo_entrp">    -37.88080417 </i>
    <i name="e_0_energy">    -37.90079893 </i>
   </energy>
  </scstep>
  <scstep>
   <time name="dav">    4.02    4.02</time>
   <time name="total">    6.87    6.88</time>
   <energy>
    <i name="e_fr_energy">    -37.91093969 </i>
    <i name="e_wo_entrp">    -37.88189657 </i>
    <i name="e_0_energy">    -37.90125865 </i>
   </energy>
  </scstep>
  <scstep>
   <time name="dav">    3.99    4.00</time>
   <time name="total">    6.26    6.26</time>
   <energy>
    <i name="alphaZ">      5.05286118 </i>
    <i name="ewald">  12821.83368238 </i>
    <i name="hartreedc"> -21871.04257813 </i>
    <i name="XCdc">     60.37940976 </i>
    <i name="pawpsdc">  10140.49077217 </i>
    <i name="pawaedc"> -10305.17933238 </i>
    <i name="eentropy">     -0.02883355 </i>
    <i name="bandstr">   -594.37553064 </i>
    <i name="atom">   9704.95859309 </i>
    <i name="e_fr_energy">    -37.91095612 </i>
    <i name="e_wo_entrp">    -37.88212257 </i>
    <i name="e_0_energy">    -37.90134494 </i>
   </energy>
  </scstep>
  <structure>
   <crystal>
    <varray name="basis" >
     <v>      22.14783652       0.00000000       0.00000000 </v>
     <v>       0.00000000      22.06864480       0.00000000 </v>
     <v>       0.00000000       0.00000000      22.94599038 </v>
    </varray>
    <i name="volume">  11215.37452836 </i>
    <varray name="rec_basis" >
     <v>       0.04515114       0.00000000       0.00000000 </v>
     <v>       0.00000000       0.04531316       0.00000000 </v>
     <v>       0.00000000       0.00000000       0.04358060 </v>
    </varray>
   </crystal>
   <varray name="positions" >
    <v>       0.45127457       0.53074552       0.52033848 </v>
    <v>       0.53224534       0.51646840       0.45565965 </v>
    <v>       0.48736225       0.42566717       0.42485674 </v>
    <v>       0.54089582       0.58455680       0.53418952 </v>
    <v>       0.58650541       0.42357555       0.45118205 </v>
    <v>       0.51083449       0.44087551       0.52310418 </v>
    <v>       0.42631817       0.51980248       0.41591360 </v>
    <v>       0.60903022       0.49557713       0.53483673 </v>
    <v>       0.40162192       0.43322066       0.49489361 </v>
    <v>       0.51124093       0.51138514       0.60890262 </v>
   </varray>
  </structure>
  <varray name="forces" >
   <v>       0.00565203      -0.01723822       0.01317635 </v>
   <v>      -0.00877139      -0.00345199      -0.00991095 </v>
   <v>       0.00492553       0.01508781       0.02150971 </v>
   <v>      -0.00142708       0.01509433      -0.00606516 </v>
   <v>       0.01984053       0.01059655      -0.00397282 </v>
   <v>      -0.00992871      -0.00712875       0.01045914 </v>
   <v>       0.00545649       0.00331344      -0.00381435 </v>
   <v>      -0.02017274      -0.02118089      -0.00558617 </v>
   <v>      -0.01039348      -0.00722024      -0.01177334 </v>
   <v>       0.01481882       0.01212795      -0.00402242 </v>
  </varray>
  <energy>
   <i name="e_fr_energy">    -37.91095612 </i>
   <i name="e_wo_entrp">    -37.88212257 </i>
   <i name="e_0_energy">    -37.90134494 </i>
  </energy>
  <time name="totalsc">   64.75   64.85</time>
 </calculation>
 <calculation>
  <scstep>
   <time name="dav">    5.49    5.50</time>
   <time name="total">    8.32    8.33</time>
   <energy>
    <i name="alphaZ">      5.05286118 </i>
    <i name="ewald">  12825.71876687 </i>
    <i name="hartreedc"> -21874.82019098 </i>
    <i name="XCdc">     60.38955629 </i>
    <i name="pawpsdc">  10140.59344084 </i>
    <i name="pawaedc"> -10305.27470357 </i>
    <i name="eentropy">     -0.02982642 </i>
    <i name="bandstr">   -594.49935377 </i>
    <i name="atom">   9704.95859309 </i>
    <i name="e_fr_energy">    -37.91085648 </i>
    <i name="e_wo_entrp">    -37.88103005 </i>
    <i name="e_0_energy">    -37.90091434 </i>
   </energy>
  </scstep>
  <scstep>
   <time name="dav">    7.48    7.49</time>
   <time name="total">   10.33   10.35</time>
   <energy>
    <i name="e_fr_energy">    -37.91176773 </i>
    <i name="e_wo_entrp">    -37.88601092 </i>
    <i name="e_0_energy">    -37.90318213 </i>
   </energy>
  </scstep>
  <scstep>
   <time name="dav">    6.52    6.53</time>
   <time name="total">    9.36    9.38</time>
   <energy>
    <i name="e_fr_energy">    -37.91024623 </i>
    <i name="e_wo_entrp">    -37.88136017 </i>
    <i name="e_0_energy">    -37.90061754 </i>
   </energy>
  </scstep>
  <scstep>
   <time name="dav">    5.91    5.91</time>
   <time name="total">    8.75    8.76</time>
   <energy>
    <i name="e_fr_energy">    -37.91118832 </i>
    <i name="e_wo_entrp">    -37.88175738 </i>
    <i name="e_0_energy">    -37.90137801 </i>
   </energy>
  </scstep>
  <scstep>
   <time name="dav">    5.26    5.27</time>
   <time name="total">    8.13    8.14</time>
   <energy>
    <i name="e_fr_energy">    -37.91086287 </i>
    <i name="e_wo_entrp">    -37.88058651 </i>
    <i name="e_0_energy">    -37.90077075 </i>
   </energy>
  </scstep>
  <scstep>
   <time name="dav">    4.02    4.03</time>
   <time name="total">    6.90    6.91</time>
   <energy>
    <i name="e_fr_energy">    -37.91105143 </i>
    <i name="e_wo_entrp">    -37.88180350 </i>
    <i name="e_0_energy">    -37.90130212 </i>
   </energy>
  </scstep>
  <scstep>
   <time name="dav">    4.11    4.12</time>
   <time name="total">    6.37    6.38</time>
   <energy>
    <i name="alphaZ">      5.05286118 </i>
    <i name="ewald">  12825.71876687 </i>
    <i name="hartreedc"> -21874.82454289 </i>
    <i name="XCdc">     60.38852385 </i>
    <i name="pawpsdc">  10142.06576806 </i>
    <i name="pawaedc"> -10306.78296003 </i>
    <i name="eentropy">     -0.02873288 </i>
    <i name="bandstr">   -594.45936554 </i>
    <i name="atom">   9704.95859309 </i>
    <i name="e_fr_energy">    -37.91108828 </i>
    <i name="e_wo_entrp">    -37.88235540 </i>
    <i name="e_0_energy">    -37.90151065 </i>
   </energy>
  </scstep>
  <structure>
   <crystal>
    <varray name="basis" >
     <v>      22.14783652       0.00000000       0.00000000 </v>
     <v>       0.00000000      22.06864480       0.00000000 </v>
     <v>       0.00000000       0.00000000      22.94599038 </v>
    </varray>
    <i name="volume">  11215.37452836 </i>
    <varray name="rec_basis" >
     <v>       0.04515114       0.00000000       0.00000000 </v>
     <v>       0.00000000       0.04531316       0.00000000 </v>
     <v>       0.00000000       0.00000000       0.04358060 </v>
    </varray>
   </crystal>
   <varray name="positions" >
    <v>       0.45133207       0.53070280       0.52042736 </v>
    <v>       0.53220079       0.51643324       0.45561615 </v>
    <v>       0.48736084       0.42572658       0.42491411 </v>
    <v>       0.54088064       0.58460031       0.53420432 </v>
    <v>       0.58657817       0.42360491       0.45117868 </v>
    <v>       0.51082246       0.44089334       0.52315015 </v>
    <v>       0.42634688       0.51979897       0.41589257 </v>
    <v>       0.60894372       0.49549965       0.53482749 </v>
    <v>       0.40158654       0.43319009       0.49485448 </v>
    <v>       0.51127702       0.51142447       0.60881188 </v>
   </varray>
  </structure>
  <varray name="forces" >
   <v>      -0.01229416      -0.01770384      -0.01351743 </v>
   <v>       0.00240986       0.00832617       0.00094546 </v>
   <v>       0.00926030       0.00001860       0.01455966 </v>
   <v>       0.00506142       0.01903590      -0.01738751 </v>
   <v>       0.01003143       0.00941448      -0.00426612 </v>
   <v>      -0.01589847      -0.02039007      -0.00143361 </v>
   <v>      -0.00080370       0.00836471       0.00231852 </v>
   <v>      -0.00741986      -0.01358385      -0.00605523 </v>
   <v>      -0.00727537      -0.00299408      -0.00776704 </v>
   <v>       0.01692854       0.00951199       0.03260330 </v>
  </varray>
  <energy>
   <i name="e_fr_energy">    -37.91108828 </i>
   <i name="e_wo_entrp">    -37.88235540 </i>
   <i name="e_0_energy">    -37.90151065 </i>
  </energy>
  <time name="totalsc">   66.10   66.52</time>
  <eigenvalues>
   <array>
    <dimension dim="1">band</dimension>
    <dimension dim="2">kpoint</dimension>
    <dimension dim="3">spin</dimension>
    <field>eigene</field>
    <field>occ</field>
    <set>
     <set comment="spin 1">
      <set comment="kpoint 1">
       <r>   -9.8291    1.0000 </r>
       <r>   -8.4629    1.0000 </r>
       <r>   -8.2919    1.0000 </r>
       <r>   -7.9091    1.0000 </r>
       <r>   -7.8260    1.0000 </r>
       <r>   -7.7517    1.0000 </r>
       <r>   -7.5652    1.0000 </r>
       <r>   -7.4946    1.0000 </r>
       <r>   -7.4693    1.0000 </r>
       <r>   -7.3718    1.0000 </r>
       <r>   -7.3568    1.0000 </r>
       <r>   -7.2093    1.0000 </r>
       <r>   -7.0199    1.0000 </r>
       <r>   -6.9776    1.0000 </r>
       <r>   -6.7672    1.0000 </r>
       <r>   -6.6999    1.0000 </r>
       <r>   -6.6021    1.0000 </r>
       <r>   -6.5567    1.0000 </r>
       <r>   -6.4598    1.0000 </r>
       <r>   -6.4258    1.0000 </r>
       <r>   -6.3668    1.0000 </r>
       <r>   -6.3370    1.0000 </r>
       <r>   -6.2354    1.0000 </r>
       <r>   -6.2063    1.0000 </r>
       <r>   -6.1257    1.0000 </r>
       <r>   -5.9914    1.0000 </r>
       <r>   -5.9112    1.0000 </r>
       <r>   -5.8675    1.0000 </r>
       <r>   -5.7119    1.0000 </r>
       <r>   -5.6385    1.0000 </r>
       <r>   -5.5699    1.0000 </r>
       <r>   -5.4991    1.0000 </r>
       <r>   -5.4225    1.0000 </r>
       <r>   -5.3854    1.0000 </r>
       <r>   -5.3492    1.0000 </r>
       <r>   -5.3352    1.0000 </r>
       <r>   -5.2984    1.0000 </r>
       <r>   -5.2591    1.0000 </r>
       <r>   -5.2061    1.0000 </r>
       <r>   -5.1349    1.0000 </r>
       <r>   -5.1134    1.0000 </r>
       <r>   -5.0838    1.0000 </r>
       <r>   -5.0733    1.0000 </r>
       <r>   -5.0540    1.0000 </r>
       <r>   -5.0110    1.0000 </r>
       <r>   -4.9522    1.0000 </r>
       <r>   -4.8937    1.0000 </r>
       <r>   -4.8856    1.0000 </r>
       <r>   -4.8497    1.0000 </r>
       <r>   -4.8427    1.0000 </r>
       <r>   -4.7919    1.0000 </r>
       <r>   -4.6243    1.0003 </r>
       <r>   -4.5972    1.0006 </r>
       <r>   -4.1843    0.9026 </r>
       <r>   -3.0039   -0.0000 </r>
       <r>   -2.9005   -0.0000 </r>
       <r>   -2.6887   -0.0000 </r>
       <r>   -2.6260   -0.0000 </r>
       <r>   -1.9870   -0.0000 </r>
       <r>   -1.6216   -0.0000 </r>
       <r>   -1.0240   -0.0000 </r>
       <r>   -0.8931   -0.0000 </r>
       <r>   -0.6621   -0.0000 </r>
       <r>   -0.5616   -0.0000 </r>
       <r>   -0.3506   -0.0000 </r>
       <r>   -0.2594   -0.0000 </r>
      </set>
     </set>
     <set comment="spin 2">
      <set comment="kpoint 1">
       <r>   -9.7646    1.0000 </r>
       <r>   -8.2128    1.0000 </r>
       <r>   -7.9785    1.0000 </r>
       <r>   -7.4209    1.0000 </r>
       <r>   -7.3410    1.0000 </r>
       <r>   -7.1350    1.0000 </r>
       <r>   -6.9633    1.0000 </r>
       <r>   -6.9068    1.0000 </r>
       <r>   -6.7711    1.0000 </r>
       <r>   -6.7346    1.0000 </r>
       <r>   -6.6387    1.0000 </r>
       <r>   -6.5165    1.0000 </r>
       <r>   -6.4594    1.0000 </r>
       <r>   -6.3288    1.0000 </r>
       <r>   -6.1938    1.0000 </r>
       <r>   -6.1057    1.0000 </r>
       <r>   -6.0700    1.0000 </r>
       <r>   -5.9801    1.0000 </r>
       <r>   -5.9646    1.0000 </r>
       <r>   -5.9122    1.0000 </r>
       <r>   -5.8278    1.0000 </r>
       <r>   -5.8054    1.0000 </r>
       <r>   -5.7091    1.0000 </r>
       <r>   -5.5961    1.0000 </r>
       <r>   -5.4967    1.0000 </r>
       <r>   -5.4090    1.0000 </r>
       <r>   -5.3443    1.0000 </r>
       <r>   -5.2775    1.0000 </r>
       <r>   -5.1955    1.0000 </r>
       <r>   -5.0079    1.0000 </r>
       <r>   -4.9902    1.0000 </r>
       <r>   -4.8887    1.0000 </r>
       <r>   -4.8428    1.0000 </r>
       <r>   -4.7919    1.0000 </r>
       <r>   -4.7568    1.0000 </r>
       <r>   -4.6816    1.0001 </r>
       <r>   -4.5917    1.0007 </r>
       <r>   -4.5279    1.0029 </r>
       <r>   -4.5082    1.0042 </r>
       <r>   -4.4240    1.0160 </r>
       <r>   -4.4191    1.0170 </r>
       <r>   -4.3755    1.0268 </r>
       <r>   -4.2996    1.0342 </r>
       <r>   -4.2285    0.9859 </r>
       <r>   -4.1381    0.7644 </r>
       <r>   -4.0870    0.5646 </r>
       <r>   -4.0556    0.4320 </r>
       <r>   -3.9918    0.1900 </r>
       <r>   -3.9781    0.1479 </r>
       <r>   -3.8902   -0.0127 </r>
       <r>   -3.8677   -0.0271 </r>
       <r>   -3.7706   -0.0274 </r>
       <r>   -3.7141   -0.0149 </r>
       <r>   -3.6718   -0.0080 </r>
       <r>   -2.7678   -0.0000 </r>
       <r>   -2.6721   -0.0000 </r>
       <r>   -2.3979   -0.0000 </r>
       <r>   -2.3174   -0.0000 </r>
       <r>   -1.7557   -0.0000 </r>
       <r>   -1.3228   -0.0000 </r>
       <r>   -0.9175   -0.0000 </r>
       <r>   -0.7509   -0.0000 </r>
       <r>   -0.5373   -0.0000 </r>
       <r>   -0.4134   -0.0000 </r>
       <r>   -0.1651   -0.0000 </r>
       <r>   -0.1045   -0.0000 </r>
      </set>
     </set>
    </set>
   </array>
  </eigenvalues>
  <separator name="orbital magnetization" >
   <v name="MAGDIPOLOUT">      0.00000000      0.00000000      0.00000000</v>
  </separator>
  <dos>
   <i name="efermi">     -4.07170523 </i>
   <total>
    <array>
     <dimension dim="1">gridpoints</dimension>
     <dimension dim="2">spin</dimension>
     <field>energy</field>
     <field>total</field>
     <field>integrated</field>
     <set>
      <set comment="spin 1">
       <r>   -11.8291     0.0000     0.0000 </r>
       <r>   -11.7834     0.0000     0.0000 </r>
       <r>   -11.7376     0.0000     0.0000 </r>
       <r>   -11.6919     0.0000     0.0000 </r>
       <r>   -11.6461     0.0000     0.0000 </r>
       <r>   -11.6004     0.0000     0.0000 </r>
       <r>   -11.5546     0.0000     0.0000 </r>
       <r>   -11.5089     0.0000     0.0000 </r>
       <r>   -11.4631    -0.0000    -0.0000 </r>
       <r>   -11.4174    -0.0000    -0.0000 </r>
       <r>   -11.3716    -0.0000    -0.0000 </r>
       <r>   -11.3259    -0.0000    -0.0000 </r>
       <r>   -11.2801    -0.0000    -0.0000 </r>
       <r>   -11.2344    -0.0000    -0.0000 </r>
       <r>   -11.1886    -0.0000    -0.0000 </r>
       <r>   -11.1429    -0.0000    -0.0000 </r>
       <r>   -11.0971    -0.0000    -0.0000 </r>
       <r>   -11.0514    -0.0000    -0.0000 </r>
       <r>   -11.0057    -0.0000    -0.0000 </r>
       <r>   -10.9599    -0.0000    -0.0000 </r>
       <r>   -10.9142    -0.0000    -0.0000 </r>
       <r>   -10.8684    -0.0000    -0.0000 </r>
       <r>   -10.8227    -0.0000    -0.0000 </r>
       <r>   -10.7769    -0.0000    -0.0000 </r>
       <r>   -10.7312    -0.0000    -0.0000 </r>
       <r>   -10.6854    -0.0000    -0.0000 </r>
       <r>   -10.6397    -0.0000    -0.0000 </r>
       <r>   -10.5939    -0.0000    -0.0000 </r>
       <r>   -10.5482    -0.0000    -0.0000 </r>
       <r>   -10.5024    -0.0002    -0.0000 </r>
       <r>   -10.4567    -0.0007    -0.0000 </r>
       <r>   -10.4109    -0.0024    -0.0002 </r>
       <r>   -10.3652    -0.0075    -0.0005 </r>
       <r>   -10.3194    -0.0205    -0.0014 </r>
       <r>   -10.2737    -0.0484    -0.0036 </r>
       <r>   -10.2279    -0.0984    -0.0082 </r>
       <r>   -10.1822    -0.1672    -0.0158 </r>
       <r>   -10.1364    -0.2229    -0.0260 </r>
       <r>   -10.0907    -0.1861    -0.0345 </r>
       <r>   -10.0449     0.0658    -0.0315 </r>
       <r>    -9.9992     0.6489    -0.0018 </r>
       <r>    -9.9534     1.5820     0.0706 </r>
       <r>    -9.9077     2.7052     0.1943 </r>
       <r>    -9.8619     3.6920     0.3632 </r>
       <r>    -9.8162     4.1838     0.5546 </r>
       <r>    -9.7704     3.9837     0.7369 </r>
       <r>    -9.7247     3.1731     0.8820 </r>
       <r>    -9.6789     2.0628     0.9764 </r>
       <r>    -9.6332     1.0160     1.0229 </r>
       <r>    -9.5874     0.2739     1.0354 </r>
       <r>    -9.5417    -0.1110     1.0303 </r>
       <r>    -9.4959    -0.2248     1.0201 </r>
       <r>    -9.4502    -0.1965     1.0111 </r>
       <r>    -9.4044    -0.1270     1.0053 </r>
       <r>    -9.3587    -0.0672     1.0022 </r>
       <r>    -9.3130    -0.0303     1.0008 </r>
       <r>    -9.2672    -0.0118     1.0003 </r>
       <r>    -9.2215    -0.0041     1.0001 </r>
       <r>    -9.1757    -0.0013     1.0000 </r>
       <r>    -9.1300    -0.0005     1.0000 </r>
       <r>    -9.0842    -0.0009     0.9999 </r>
       <r>    -9.0385    -0.0029     0.9998 </r>
       <r>    -8.9927    -0.0088     0.9994 </r>
       <r>    -8.9470    -0.0235     0.9983 </r>
       <r>    -8.9012    -0.0550     0.9958 </r>
       <r>    -8.8555    -0.1109     0.9908 </r>
       <r>    -8.8097    -0.1882     0.9821 </r>
       <r>    -8.7640    -0.2550     0.9705 </r>
       <r>    -8.7182    -0.2330     0.9598 </r>
       <r>    -8.6725    -0.0008     0.9598 </r>
       <r>    -8.6267     0.5625     0.9855 </r>
       <r>    -8.5810     1.5038     1.0543 </r>
       <r>    -8.5352     2.7364     1.1795 </r>
       <r>    -8.4895     4.0466     1.3646 </r>
       <r>    -8.4437     5.1736     1.6013 </r>
       <r>    -8.3980     5.9026     1.8713 </r>
       <r>    -8.3522     6.1077     2.1508 </r>
       <r>    -8.3065     5.7436     2.4135 </r>
       <r>    -8.2607     4.8424     2.6351 </r>
       <r>    -8.2150     3.5501     2.7975 </r>
       <r>    -8.1692     2.1639     2.8965 </r>
       <r>    -8.1235     1.1020     2.9469 </r>
       <r>    -8.0777     0.7848     2.9828 </r>
       <r>    -8.0320     1.4745     3.0502 </r>
       <r>    -7.9862     3.1432     3.1940 </r>
       <r>    -7.9405     5.4314     3.4425 </r>
       <r>    -7.8947     7.7306     3.7962 </r>
       <r>    -7.8490     9.3915     4.2258 </r>
       <r>    -7.8032    10.0013     4.6834 </r>
       <r>    -7.7575     9.6060     5.1228 </r>
       <r>    -7.7118     8.7395     5.5227 </r>
       <r>    -7.6660     8.1948     5.8976 </r>
       <r>    -7.6203     8.6240     6.2921 </r>
       <r>    -7.5745    10.1852     6.7580 </r>
       <r>    -7.5288    12.4473     7.3275 </r>
       <r>    -7.4830    14.6092     7.9958 </r>
       <r>    -7.4373    15.8862     8.7226 </r>
       <r>    -7.3915    15.8417     9.4474 </r>
       <r>    -7.3458    14.5139    10.1113 </r>
       <r>    -7.3000    12.3358    10.6757 </r>
       <r>    -7.2543     9.9403    11.1304 </r>
       <r>    -7.2085     7.9481    11.4941 </r>
       <r>    -7.1628     6.7871    11.8046 </r>
       <r>    -7.1170     6.5614    12.1047 </r>
       <r>    -7.0713     7.0086    12.4254 </r>
       <r>    -7.0255     7.6115    12.7736 </r>
       <r>    -6.9798     7.8753    13.1339 </r>
       <r>    -6.9340     7.6344    13.4831 </r>
       <r>    -6.8883     7.1621    13.8108 </r>
       <r>    -6.8425     6.9717    14.1297 </r>
       <r>    -6.7968     7.4497    14.4706 </r>
       <r>    -6.7510     8.6125    14.8646 </r>
       <r>    -6.7053    10.1561    15.3292 </r>
       <r>    -6.6595    11.7150    15.8651 </r>
       <r>    -6.6138    13.0945    16.4642 </r>
       <r>    -6.5680    14.3152    17.1191 </r>
       <r>    -6.5223    15.4828    17.8274 </r>
       <r>    -6.4765    16.6213    18.5878 </r>
       <r>    -6.4308    17.6009    19.3930 </r>
       <r>    -6.3850    18.2022    20.2258 </r>
       <r>    -6.3393    18.2462    21.0605 </r>
       <r>    -6.2935    17.6800    21.8693 </r>
       <r>    -6.2478    16.5737    22.6276 </r>
       <r>    -6.2020    15.0811    23.3175 </r>
       <r>    -6.1563    13.4331    23.9320 </r>
       <r>    -6.1105    11.9437    24.4785 </r>
       <r>    -6.0648    10.9376    24.9788 </r>
       <r>    -6.0191    10.5795    25.4628 </r>
       <r>    -5.9733    10.7292    25.9537 </r>
       <r>    -5.9276    10.9914    26.4565 </r>
       <r>    -5.8818    10.9764    26.9587 </r>
       <r>    -5.8361    10.5821    27.4428 </r>
       <r>    -5.7903    10.0604    27.9030 </r>
       <r>    -5.7446     9.8116    28.3519 </r>
       <r>    -5.6988    10.0945    28.8137 </r>
       <r>    -5.6531    10.9048    29.3126 </r>
       <r>    -5.6073    12.0997    29.8661 </r>
       <r>    -5.5616    13.6113    30.4888 </r>
       <r>    -5.5158    15.5142    31.1986 </r>
       <r>    -5.4701    17.8688    32.0161 </r>
       <r>    -5.4243    20.4969    32.9538 </r>
       <r>    -5.3786    22.9429    34.0034 </r>
       <r>    -5.3328    24.7214    35.1343 </r>
       <r>    -5.2871    25.6744    36.3089 </r>
       <r>    -5.2413    26.1130    37.5035 </r>
       <r>    -5.1956    26.5793    38.7195 </r>
       <r>    -5.1498    27.4148    39.9737 </r>
       <r>    -5.1041    28.5182    41.2784 </r>
       <r>    -5.0583    29.4885    42.6274 </r>
       <r>    -5.0126    29.9599    43.9980 </r>
       <r>    -4.9668    29.7692    45.3599 </r>
       <r>    -4.9211    28.8413    46.6794 </r>
       <r>    -4.8753    27.0372    47.9163 </r>
       <r>    -4.8296    24.2446    49.0255 </r>
       <r>    -4.7838    20.6465    49.9700 </r>
       <r>    -4.7381    16.8179    50.7394 </r>
       <r>    -4.6923    13.4438    51.3544 </r>
       <r>    -4.6466    10.8698    51.8517 </r>
       <r>    -4.6008     8.9110    52.2594 </r>
       <r>    -4.5551     7.0998    52.5842 </r>
       <r>    -4.5093     5.1327    52.8190 </r>
       <r>    -4.4636     3.1248    52.9620 </r>
       <r>    -4.4178     1.5056    53.0308 </r>
       <r>    -4.3721     0.7017    53.0629 </r>
       <r>    -4.3264     0.8618    53.1024 </r>
       <r>    -4.2806     1.7672    53.1832 </r>
       <r>    -4.2349     2.9287    53.3172 </r>
       <r>    -4.1891     3.7981    53.4910 </r>
       <r>    -4.1434     3.9998    53.6739 </r>
       <r>    -4.0976     3.4781    53.8331 </r>
       <r>    -4.0519     2.4794    53.9465 </r>
       <r>    -4.0061     1.3868    54.0099 </r>
       <r>    -3.9604     0.5160    54.0335 </r>
       <r>    -3.9146    -0.0010    54.0335 </r>
       <r>    -3.8689    -0.2046    54.0241 </r>
       <r>    -3.8231    -0.2169    54.0142 </r>
       <r>    -3.7774    -0.1546    54.0071 </r>
       <r>    -3.7316    -0.0879    54.0031 </r>
       <r>    -3.6859    -0.0421    54.0012 </r>
       <r>    -3.6401    -0.0179    54.0004 </r>
       <r>    -3.5944    -0.0083    54.0000 </r>
       <r>    -3.5486    -0.0085    53.9996 </r>
       <r>    -3.5029    -0.0191    53.9987 </r>
       <r>    -3.4571    -0.0464    53.9966 </r>
       <r>    -3.4114    -0.1005    53.9920 </r>
       <r>    -3.3656    -0.1874    53.9834 </r>
       <r>    -3.3199    -0.2901    53.9702 </r>
       <r>    -3.2741    -0.3432    53.9545 </r>
       <r>    -3.2284    -0.2161    53.9446 </r>
       <r>    -3.1826     0.2657    53.9567 </r>
       <r>    -3.1369     1.2424    54.0136 </r>
       <r>    -3.0911     2.7066    54.1374 </r>
       <r>    -3.0454     4.4247    54.3398 </r>
       <r>    -2.9996     5.9815    54.6135 </r>
       <r>    -2.9539     6.9667    54.9322 </r>
       <r>    -2.9081     7.2167    55.2623 </r>
       <r>    -2.8624     6.9443    55.5800 </r>
       <r>    -2.8166     6.6288    55.8833 </r>
       <r>    -2.7709     6.6988    56.1898 </r>
       <r>    -2.7252     7.2160    56.5199 </r>
       <r>    -2.6794     7.8011    56.8768 </r>
       <r>    -2.6337     7.8798    57.2373 </r>
       <r>    -2.5879     7.0742    57.5609 </r>
       <r>    -2.5422     5.4506    57.8102 </r>
       <r>    -2.4964     3.4583    57.9685 </r>
       <r>    -2.4507     1.6400    58.0435 </r>
       <r>    -2.4049     0.3476    58.0594 </r>
       <r>    -2.3592    -0.3581    58.0430 </r>
       <r>    -2.3134    -0.6123    58.0150 </r>
       <r>    -2.2677    -0.5742    57.9887 </r>
       <r>    -2.2219    -0.3062    57.9747 </r>
       <r>    -2.1762     0.2321    57.9853 </r>
       <r>    -2.1304     1.0854    58.0350 </r>
       <r>    -2.0847     2.1746    58.1345 </r>
       <r>    -2.0389     3.2385    58.2826 </r>
       <r>    -1.9932     3.9165    58.4618 </r>
       <r>    -1.9474     3.9460    58.6423 </r>
       <r>    -1.9017     3.3492    58.7956 </r>
       <r>    -1.8559     2.4670    58.9084 </r>
       <r>    -1.8102     1.7936    58.9905 </r>
       <r>    -1.7644     1.7070    59.0686 </r>
       <r>    -1.7187     2.2558    59.1718 </r>
       <r>    -1.6729     3.1317    59.3150 </r>
       <r>    -1.6272     3.8435    59.4909 </r>
       <r>    -1.5814     3.9880    59.6733 </r>
       <r>    -1.5357     3.4549    59.8314 </r>
       <r>    -1.4899     2.4458    59.9433 </r>
       <r>    -1.4442     1.3169    60.0035 </r>
       <r>    -1.3984     0.3747    60.0206 </r>
       <r>    -1.3527    -0.2363    60.0098 </r>
       <r>    -1.3069    -0.5053    59.9867 </r>
       <r>    -1.2612    -0.4504    59.9661 </r>
       <r>    -1.2154    -0.0412    59.9642 </r>
       <r>    -1.1697     0.7871    60.0002 </r>
       <r>    -1.1239     2.0421    60.0937 </r>
       <r>    -1.0782     3.5814    60.2575 </r>
       <r>    -1.0325     5.0991    60.4908 </r>
       <r>    -0.9867     6.2213    60.7754 </r>
       <r>    -0.9410     6.6721    61.0806 </r>
       <r>    -0.8952     6.4244    61.3745 </r>
       <r>    -0.8495     5.7469    61.6375 </r>
       <r>    -0.8037     5.1002    61.8708 </r>
       <r>    -0.7580     4.9062    62.0952 </r>
       <r>    -0.7122     5.3083    62.3381 </r>
       <r>    -0.6665     6.0790    62.6162 </r>
       <r>    -0.6207     6.7641    62.9256 </r>
       <r>    -0.5750     6.9904    63.2454 </r>
       <r>    -0.5292     6.7264    63.5532 </r>
       <r>    -0.4835     6.2997    63.8414 </r>
       <r>    -0.4377     6.1474    64.1226 </r>
       <r>    -0.3920     6.4750    64.4188 </r>
       <r>    -0.3462     7.0790    64.7427 </r>
       <r>    -0.3005     7.4632    65.0841 </r>
       <r>    -0.2547     7.1623    65.4118 </r>
       <r>    -0.2090     6.0355    65.6879 </r>
       <r>    -0.1632     4.3352    65.8862 </r>
       <r>    -0.1175     2.5357    66.0022 </r>
       <r>    -0.0717     1.0678    66.0511 </r>
       <r>    -0.0260     0.1394    66.0574 </r>
       <r>     0.0198    -0.2808    66.0446 </r>
       <r>     0.0655    -0.3611    66.0281 </r>
       <r>     0.1113    -0.2843    66.0151 </r>
       <r>     0.1570    -0.1753    66.0071 </r>
       <r>     0.2028    -0.0906    66.0029 </r>
       <r>     0.2485    -0.0403    66.0011 </r>
       <r>     0.2943    -0.0157    66.0003 </r>
       <r>     0.3400    -0.0054    66.0001 </r>
       <r>     0.3858    -0.0016    66.0000 </r>
       <r>     0.4315    -0.0004    66.0000 </r>
       <r>     0.4773    -0.0001    66.0000 </r>
       <r>     0.5230    -0.0000    66.0000 </r>
       <r>     0.5687    -0.0000    66.0000 </r>
       <r>     0.6145    -0.0000    66.0000 </r>
       <r>     0.6602    -0.0000    66.0000 </r>
       <r>     0.7060    -0.0000    66.0000 </r>
       <r>     0.7517    -0.0000    66.0000 </r>
       <r>     0.7975    -0.0000    66.0000 </r>
       <r>     0.8432    -0.0000    66.0000 </r>
       <r>     0.8890    -0.0000    66.0000 </r>
       <r>     0.9347    -0.0000    66.0000 </r>
       <r>     0.9805    -0.0000    66.0000 </r>
       <r>     1.0262     0.0000    66.0000 </r>
       <r>     1.0720     0.0000    66.0000 </r>
       <r>     1.1177     0.0000    66.0000 </r>
       <r>     1.1635     0.0000    66.0000 </r>
       <r>     1.2092     0.0000    66.0000 </r>
       <r>     1.2550     0.0000    66.0000 </r>
       <r>     1.3007     0.0000    66.0000 </r>
       <r>     1.3465     0.0000    66.0000 </r>
       <r>     1.3922     0.0000    66.0000 </r>
       <r>     1.4380     0.0000    66.0000 </r>
       <r>     1.4837     0.0000    66.0000 </r>
       <r>     1.5295     0.0000    66.0000 </r>
       <r>     1.5752     0.0000    66.0000 </r>
       <r>     1.6210     0.0000    66.0000 </r>
       <r>     1.6667     0.0000    66.0000 </r>
       <r>     1.7125     0.0000    66.0000 </r>
       <r>     1.7582     0.0000    66.0000 </r>
       <r>     1.8040     0.0000    66.0000 </r>
       <r>     1.8497     0.0000    66.0000 </r>
       <r>     1.8955     0.0000    66.0000 </r>
      </set>
      <set comment="spin 2">
       <r>   -11.8291     0.0000     0.0000 </r>
       <r>   -11.7834     0.0000     0.0000 </r>
       <r>   -11.7376     0.0000     0.0000 </r>
       <r>   -11.6919     0.0000     0.0000 </r>
       <r>   -11.6461     0.0000     0.0000 </r>
       <r>   -11.6004     0.0000     0.0000 </r>
       <r>   -11.5546     0.0000     0.0000 </r>
       <r>   -11.5089     0.0000     0.0000 </r>
       <r>   -11.4631     0.0000     0.0000 </r>
       <r>   -11.4174     0.0000     0.0000 </r>
       <r>   -11.3716    -0.0000    -0.0000 </r>
       <r>   -11.3259    -0.0000    -0.0000 </r>
       <r>   -11.2801    -0.0000    -0.0000 </r>
       <r>   -11.2344    -0.0000    -0.0000 </r>
       <r>   -11.1886    -0.0000    -0.0000 </r>
       <r>   -11.1429    -0.0000    -0.0000 </r>
       <r>   -11.0971    -0.0000    -0.0000 </r>
       <r>   -11.0514    -0.0000    -0.0000 </r>
       <r>   -11.0057    -0.0000    -0.0000 </r>
       <r>   -10.9599    -0.0000    -0.0000 </r>
       <r>   -10.9142    -0.0000    -0.0000 </r>
       <r>   -10.8684    -0.0000    -0.0000 </r>
       <r>   -10.8227    -0.0000    -0.0000 </r>
       <r>   -10.7769    -0.0000    -0.0000 </r>
       <r>   -10.7312    -0.0000    -0.0000 </r>
       <r>   -10.6854    -0.0000    -0.0000 </r>
       <r>   -10.6397    -0.0000    -0.0000 </r>
       <r>   -10.5939    -0.0000    -0.0000 </r>
       <r>   -10.5482    -0.0000    -0.0000 </r>
       <r>   -10.5024    -0.0000    -0.0000 </r>
       <r>   -10.4567    -0.0001    -0.0000 </r>
       <r>   -10.4109    -0.0004    -0.0000 </r>
       <r>   -10.3652    -0.0015    -0.0001 </r>
       <r>   -10.3194    -0.0048    -0.0003 </r>
       <r>   -10.2737    -0.0138    -0.0009 </r>
       <r>   -10.2279    -0.0346    -0.0025 </r>
       <r>   -10.1822    -0.0750    -0.0060 </r>
       <r>   -10.1364    -0.1378    -0.0123 </r>
       <r>   -10.0907    -0.2055    -0.0217 </r>
       <r>   -10.0449    -0.2196    -0.0317 </r>
       <r>    -9.9992    -0.0724    -0.0350 </r>
       <r>    -9.9534     0.3644    -0.0183 </r>
       <r>    -9.9077     1.1617     0.0348 </r>
       <r>    -9.8619     2.2385     0.1372 </r>
       <r>    -9.8162     3.3273     0.2894 </r>
       <r>    -9.7704     4.0598     0.4752 </r>
       <r>    -9.7247     4.1511     0.6651 </r>
       <r>    -9.6789     3.5639     0.8281 </r>
       <r>    -9.6332     2.5311     0.9439 </r>
       <r>    -9.5874     1.4191     1.0088 </r>
       <r>    -9.5417     0.5347     1.0333 </r>
       <r>    -9.4959     0.0075     1.0336 </r>
       <r>    -9.4502    -0.2024     1.0244 </r>
       <r>    -9.4044    -0.2177     1.0144 </r>
       <r>    -9.3587    -0.1562     1.0073 </r>
       <r>    -9.3130    -0.0892     1.0032 </r>
       <r>    -9.2672    -0.0428     1.0012 </r>
       <r>    -9.2215    -0.0177     1.0004 </r>
       <r>    -9.1757    -0.0064     1.0001 </r>
       <r>    -9.1300    -0.0020     1.0000 </r>
       <r>    -9.0842    -0.0006     1.0000 </r>
       <r>    -9.0385    -0.0001     1.0000 </r>
       <r>    -8.9927    -0.0000     1.0000 </r>
       <r>    -8.9470    -0.0000     1.0000 </r>
       <r>    -8.9012    -0.0001     1.0000 </r>
       <r>    -8.8555    -0.0005     1.0000 </r>
       <r>    -8.8097    -0.0016     0.9999 </r>
       <r>    -8.7640    -0.0053     0.9997 </r>
       <r>    -8.7182    -0.0149     0.9990 </r>
       <r>    -8.6725    -0.0371     0.9973 </r>
       <r>    -8.6267    -0.0797     0.9936 </r>
       <r>    -8.5810    -0.1450     0.9870 </r>
       <r>    -8.5352    -0.2144     0.9772 </r>
       <r>    -8.4895    -0.2286     0.9667 </r>
       <r>    -8.4437    -0.0827     0.9629 </r>
       <r>    -8.3980     0.3428     0.9786 </r>
       <r>    -8.3522     1.1062     1.0292 </r>
       <r>    -8.3065     2.1280     1.1266 </r>
       <r>    -8.2607     3.1837     1.2722 </r>
       <r>    -8.2150     4.0102     1.4557 </r>
       <r>    -8.1692     4.4665     1.6600 </r>
       <r>    -8.1235     4.6140     1.8711 </r>
       <r>    -8.0777     4.6300     2.0829 </r>
       <r>    -8.0320     4.6215     2.2944 </r>
       <r>    -7.9862     4.5150     2.5009 </r>
       <r>    -7.9405     4.1290     2.6898 </r>
       <r>    -7.8947     3.3567     2.8434 </r>
       <r>    -7.8490     2.2857     2.9480 </r>
       <r>    -7.8032     1.1543     3.0008 </r>
       <r>    -7.7575     0.2110     3.0104 </r>
       <r>    -7.7118    -0.3861     2.9927 </r>
       <r>    -7.6660    -0.5574     2.9672 </r>
       <r>    -7.6203    -0.2329     2.9566 </r>
       <r>    -7.5745     0.6682     2.9872 </r>
       <r>    -7.5288     2.1567     3.0858 </r>
       <r>    -7.4830     4.0487     3.2710 </r>
       <r>    -7.4373     5.9272     3.5422 </r>
       <r>    -7.3915     7.2785     3.8752 </r>
       <r>    -7.3458     7.7502     4.2298 </r>
       <r>    -7.3000     7.3559     4.5663 </r>
       <r>    -7.2543     6.4670     4.8621 </r>
       <r>    -7.2085     5.5972     5.1182 </r>
       <r>    -7.1628     5.1460     5.3536 </r>
       <r>    -7.1170     5.2735     5.5949 </r>
       <r>    -7.0713     5.9335     5.8663 </r>
       <r>    -7.0255     6.9671     6.1851 </r>
       <r>    -6.9798     8.1750     6.5590 </r>
       <r>    -6.9340     9.3661     6.9875 </r>
       <r>    -6.8883    10.4027     7.4634 </r>
       <r>    -6.8425    11.2196     7.9767 </r>
       <r>    -6.7968    11.7886     8.5160 </r>
       <r>    -6.7510    12.0743     9.0684 </r>
       <r>    -6.7053    12.0487     9.6196 </r>
       <r>    -6.6595    11.7581    10.1575 </r>
       <r>    -6.6138    11.3425    10.6765 </r>
       <r>    -6.5680    10.9487    11.1773 </r>
       <r>    -6.5223    10.6079    11.6626 </r>
       <r>    -6.4765    10.2145    12.1299 </r>
       <r>    -6.4308     9.6442    12.5711 </r>
       <r>    -6.3850     8.9129    12.9789 </r>
       <r>    -6.3393     8.2378    13.3558 </r>
       <r>    -6.2935     7.9545    13.7197 </r>
       <r>    -6.2478     8.3554    14.1019 </r>
       <r>    -6.2020     9.5512    14.5389 </r>
       <r>    -6.1563    11.4218    15.0614 </r>
       <r>    -6.1105    13.6612    15.6864 </r>
       <r>    -6.0648    15.8797    16.4129 </r>
       <r>    -6.0191    17.7098    17.2231 </r>
       <r>    -5.9733    18.8789    18.0867 </r>
       <r>    -5.9276    19.2391    18.9669 </r>
       <r>    -5.8818    18.7681    19.8255 </r>
       <r>    -5.8361    17.5597    20.6289 </r>
       <r>    -5.7903    15.8156    21.3524 </r>
       <r>    -5.7446    13.8303    21.9851 </r>
       <r>    -5.6988    11.9526    22.5319 </r>
       <r>    -5.6531    10.5120    23.0128 </r>
       <r>    -5.6073     9.7329    23.4581 </r>
       <r>    -5.5616     9.6798    23.9009 </r>
       <r>    -5.5158    10.2566    24.3702 </r>
       <r>    -5.4701    11.2413    24.8844 </r>
       <r>    -5.4243    12.3280    25.4484 </r>
       <r>    -5.3786    13.1678    26.0508 </r>
       <r>    -5.3328    13.4343    26.6654 </r>
       <r>    -5.2871    12.9320    27.2571 </r>
       <r>    -5.2413    11.7179    27.7931 </r>
       <r>    -5.1956    10.1581    28.2579 </r>
       <r>    -5.1498     8.8395    28.6622 </r>
       <r>    -5.1041     8.3380    29.0437 </r>
       <r>    -5.0583     8.9552    29.4534 </r>
       <r>    -5.0126    10.5876    29.9378 </r>
       <r>    -4.9668    12.8021    30.5234 </r>
       <r>    -4.9211    15.0399    31.2115 </r>
       <r>    -4.8753    16.8053    31.9803 </r>
       <r>    -4.8296    17.7727    32.7934 </r>
       <r>    -4.7838    17.8515    33.6101 </r>
       <r>    -4.7381    17.2403    34.3988 </r>
       <r>    -4.6923    16.4137    35.1497 </r>
       <r>    -4.6466    15.9613    35.8799 </r>
       <r>    -4.6008    16.3075    36.6259 </r>
       <r>    -4.5551    17.4679    37.4251 </r>
       <r>    -4.5093    19.0081    38.2947 </r>
       <r>    -4.4636    20.2459    39.2209 </r>
       <r>    -4.4178    20.5881    40.1628 </r>
       <r>    -4.3721    19.8251    41.0697 </r>
       <r>    -4.3264    18.2402    41.9042 </r>
       <r>    -4.2806    16.4891    42.6586 </r>
       <r>    -4.2349    15.3062    43.3588 </r>
       <r>    -4.1891    15.1776    44.0531 </r>
       <r>    -4.1434    16.1315    44.7911 </r>
       <r>    -4.0976    17.7437    45.6029 </r>
       <r>    -4.0519    19.3527    46.4883 </r>
       <r>    -4.0061    20.3709    47.4202 </r>
       <r>    -3.9604    20.5295    48.3594 </r>
       <r>    -3.9146    19.9361    49.2714 </r>
       <r>    -3.8689    18.9250    50.1372 </r>
       <r>    -3.8231    17.7970    50.9514 </r>
       <r>    -3.7774    16.6084    51.7112 </r>
       <r>    -3.7316    15.1462    52.4041 </r>
       <r>    -3.6859    13.1155    53.0042 </r>
       <r>    -3.6401    10.4138    53.4806 </r>
       <r>    -3.5944     7.2885    53.8140 </r>
       <r>    -3.5486     4.2514    54.0085 </r>
       <r>    -3.5029     1.8167    54.0916 </r>
       <r>    -3.4571     0.2550    54.1033 </r>
       <r>    -3.4114    -0.4788    54.0814 </r>
       <r>    -3.3656    -0.6392    54.0521 </r>
       <r>    -3.3199    -0.5214    54.0283 </r>
       <r>    -3.2741    -0.3427    54.0126 </r>
       <r>    -3.2284    -0.2142    54.0028 </r>
       <r>    -3.1826    -0.1706    53.9950 </r>
       <r>    -3.1369    -0.2074    53.9855 </r>
       <r>    -3.0911    -0.2933    53.9721 </r>
       <r>    -3.0454    -0.3561    53.9558 </r>
       <r>    -2.9996    -0.2616    53.9438 </r>
       <r>    -2.9539     0.1761    53.9519 </r>
       <r>    -2.9081     1.1249    54.0034 </r>
       <r>    -2.8624     2.6137    54.1229 </r>
       <r>    -2.8166     4.4272    54.3255 </r>
       <r>    -2.7709     6.1116    54.6051 </r>
       <r>    -2.7252     7.1401    54.9317 </r>
       <r>    -2.6794     7.1825    55.2603 </r>
       <r>    -2.6337     6.3262    55.5497 </r>
       <r>    -2.5879     5.0906    55.7826 </r>
       <r>    -2.5422     4.1897    55.9743 </r>
       <r>    -2.4964     4.1541    56.1643 </r>
       <r>    -2.4507     5.0287    56.3944 </r>
       <r>    -2.4049     6.3352    56.6842 </r>
       <r>    -2.3592     7.3313    57.0196 </r>
       <r>    -2.3134     7.4145    57.3588 </r>
       <r>    -2.2677     6.4240    57.6527 </r>
       <r>    -2.2219     4.6715    57.8664 </r>
       <r>    -2.1762     2.7168    57.9907 </r>
       <r>    -2.1304     1.0652    58.0394 </r>
       <r>    -2.0847    -0.0186    58.0386 </r>
       <r>    -2.0389    -0.5037    58.0155 </r>
       <r>    -1.9932    -0.4651    57.9943 </r>
       <r>    -1.9474     0.0275    57.9955 </r>
       <r>    -1.9017     0.9147    58.0374 </r>
       <r>    -1.8559     2.0639    58.1318 </r>
       <r>    -1.8102     3.2018    58.2783 </r>
       <r>    -1.7644     3.9635    58.4596 </r>
       <r>    -1.7187     4.0583    58.6453 </r>
       <r>    -1.6729     3.4436    58.8028 </r>
       <r>    -1.6272     2.3770    58.9115 </r>
       <r>    -1.5814     1.3061    58.9713 </r>
       <r>    -1.5357     0.6710    59.0020 </r>
       <r>    -1.4899     0.7255    59.0352 </r>
       <r>    -1.4442     1.4446    59.1013 </r>
       <r>    -1.3984     2.5310    59.2171 </r>
       <r>    -1.3527     3.5225    59.3782 </r>
       <r>    -1.3069     3.9834    59.5604 </r>
       <r>    -1.2612     3.7080    59.7301 </r>
       <r>    -1.2154     2.8283    59.8595 </r>
       <r>    -1.1697     1.7531    59.9397 </r>
       <r>    -1.1239     0.9727    59.9842 </r>
       <r>    -1.0782     0.8402    60.0226 </r>
       <r>    -1.0325     1.4386    60.0884 </r>
       <r>    -0.9867     2.5770    60.2063 </r>
       <r>    -0.9410     3.8977    60.3846 </r>
       <r>    -0.8952     5.0320    60.6148 </r>
       <r>    -0.8495     5.7310    60.8770 </r>
       <r>    -0.8037     5.9248    61.1481 </r>
       <r>    -0.7580     5.7139    61.4095 </r>
       <r>    -0.7122     5.3251    61.6531 </r>
       <r>    -0.6665     5.0405    61.8837 </r>
       <r>    -0.6207     5.0862    62.1164 </r>
       <r>    -0.5750     5.5053    62.3682 </r>
       <r>    -0.5292     6.0981    62.6472 </r>
       <r>    -0.4835     6.5097    62.9450 </r>
       <r>    -0.4377     6.4464    63.2399 </r>
       <r>    -0.3920     5.8946    63.5096 </r>
       <r>    -0.3462     5.1849    63.7468 </r>
       <r>    -0.3005     4.8249    63.9675 </r>
       <r>    -0.2547     5.1736    64.2042 </r>
       <r>    -0.2090     6.1614    64.4861 </r>
       <r>    -0.1632     7.2659    64.8185 </r>
       <r>    -0.1175     7.7943    65.1751 </r>
       <r>    -0.0717     7.2946    65.5088 </r>
       <r>    -0.0260     5.8119    65.7747 </r>
       <r>     0.0198     3.8245    65.9497 </r>
       <r>     0.0655     1.9381    66.0383 </r>
       <r>     0.1113     0.5743    66.0646 </r>
       <r>     0.1570    -0.1595    66.0573 </r>
       <r>     0.2028    -0.3995    66.0390 </r>
       <r>     0.2485    -0.3679    66.0222 </r>
       <r>     0.2943    -0.2471    66.0109 </r>
       <r>     0.3400    -0.1357    66.0047 </r>
       <r>     0.3858    -0.0634    66.0018 </r>
       <r>     0.4315    -0.0258    66.0006 </r>
       <r>     0.4773    -0.0092    66.0002 </r>
       <r>     0.5230    -0.0029    66.0000 </r>
       <r>     0.5687    -0.0008    66.0000 </r>
       <r>     0.6145    -0.0002    66.0000 </r>
       <r>     0.6602    -0.0000    66.0000 </r>
       <r>     0.7060    -0.0000    66.0000 </r>
       <r>     0.7517    -0.0000    66.0000 </r>
       <r>     0.7975    -0.0000    66.0000 </r>
       <r>     0.8432    -0.0000    66.0000 </r>
       <r>     0.8890    -0.0000    66.0000 </r>
       <r>     0.9347    -0.0000    66.0000 </r>
       <r>     0.9805    -0.0000    66.0000 </r>
       <r>     1.0262    -0.0000    66.0000 </r>
       <r>     1.0720    -0.0000    66.0000 </r>
       <r>     1.1177    -0.0000    66.0000 </r>
       <r>     1.1635     0.0000    66.0000 </r>
       <r>     1.2092     0.0000    66.0000 </r>
       <r>     1.2550     0.0000    66.0000 </r>
       <r>     1.3007     0.0000    66.0000 </r>
       <r>     1.3465     0.0000    66.0000 </r>
       <r>     1.3922     0.0000    66.0000 </r>
       <r>     1.4380     0.0000    66.0000 </r>
       <r>     1.4837     0.0000    66.0000 </r>
       <r>     1.5295     0.0000    66.0000 </r>
       <r>     1.5752     0.0000    66.0000 </r>
       <r>     1.6210     0.0000    66.0000 </r>
       <r>     1.6667     0.0000    66.0000 </r>
       <r>     1.7125     0.0000    66.0000 </r>
       <r>     1.7582     0.0000    66.0000 </r>
       <r>     1.8040     0.0000    66.0000 </r>
       <r>     1.8497     0.0000    66.0000 </r>
       <r>     1.8955     0.0000    66.0000 </r>
      </set>
     </set>
    </array>
   </total>
  </dos>
 </calculation>
 <structure name="finalpos" >
  <crystal>
   <varray name="basis" >
    <v>      22.14783652       0.00000000       0.00000000 </v>
    <v>       0.00000000      22.06864480       0.00000000 </v>
    <v>       0.00000000       0.00000000      22.94599038 </v>
   </varray>
   <i name="volume">  11215.37452836 </i>
   <varray name="rec_basis" >
    <v>       0.04515114       0.00000000       0.00000000 </v>
    <v>       0.00000000       0.04531316       0.00000000 </v>
    <v>       0.00000000       0.00000000       0.04358060 </v>
   </varray>
  </crystal>
  <varray name="positions" >
   <v>       0.45133207       0.53070280       0.52042736 </v>
   <v>       0.53220079       0.51643324       0.45561615 </v>
   <v>       0.48736084       0.42572658       0.42491411 </v>
   <v>       0.54088064       0.58460031       0.53420432 </v>
   <v>       0.58657817       0.42360491       0.45117868 </v>
   <v>       0.51082246       0.44089334       0.52315015 </v>
   <v>       0.42634688       0.51979897       0.41589257 </v>
   <v>       0.60894372       0.49549965       0.53482749 </v>
   <v>       0.40158654       0.43319009       0.49485448 </v>
   <v>       0.51127702       0.51142447       0.60881188 </v>
  </varray>
 </structure>
</modeling>
