unknown system                          
            1
    22.147837    0.000000    0.000000
     0.000000   22.068645    0.000000
     0.000000    0.000000   22.945990
   Ni   Pd
     6     4
Direct configuration=     1
   0.45122491  0.53078241  0.52026172
   0.53228380  0.51649876  0.45569722
   0.48736348  0.42561587  0.42480719
   0.54090893  0.58451922  0.53417674
   0.58644257  0.42355020  0.45118496
   0.51084488  0.44086011  0.52306449
   0.42629337  0.51980551  0.41593177
   0.60910493  0.49564405  0.53484471
   0.40165248  0.43324705  0.49492740
   0.51120977  0.51135117  0.60898097
Direct configuration=     2
   0.45127457  0.53074552  0.52033848
   0.53224534  0.51646840  0.45565965
   0.48736225  0.42566717  0.42485674
   0.54089582  0.58455680  0.53418952
   0.58650541  0.42357555  0.45118205
   0.51083449  0.44087551  0.52310418
   0.42631817  0.51980248  0.41591360
   0.60903022  0.49557713  0.53483673
   0.40162192  0.43322066  0.49489361
   0.51124093  0.51138514  0.60890262
Direct configuration=     3
   0.45133207  0.53070280  0.52042736
   0.53220079  0.51643324  0.45561615
   0.48736084  0.42572658  0.42491411
   0.54088064  0.58460031  0.53420432
   0.58657817  0.42360491  0.45117868
   0.51082246  0.44089334  0.52315015
   0.42634688  0.51979897  0.41589257
   0.60894372  0.49549965  0.53482749
   0.40158654  0.43319009  0.49485448
   0.51127702  0.51142447  0.60881188
