  10  10   0   0
  0.1190727E+04  0.2108006E-08  0.2229418E-08  0.2533663E-08  0.5000000E-15
   1.0000000000000000E-004
  CAR 
 unknown system                          
      1.93252216    -11.72518846  301     -4.07612803      1.00000000
    -11.725  0.0000E+00  0.0000E+00  0.0000E+00  0.0000E+00
    -11.680  0.0000E+00  0.0000E+00  0.0000E+00  0.0000E+00
    -11.634  0.0000E+00  0.0000E+00  0.0000E+00  0.0000E+00
    -11.589  0.0000E+00  0.0000E+00  0.0000E+00  0.0000E+00
    -11.543  0.0000E+00  0.0000E+00  0.0000E+00  0.0000E+00
    -11.498  0.0000E+00  0.0000E+00  0.0000E+00  0.0000E+00
    -11.452  0.0000E+00  0.0000E+00  0.0000E+00  0.0000E+00
    -11.407  0.0000E+00  0.0000E+00  0.0000E+00  0.0000E+00
    -11.361 -0.4492E-30  0.0000E+00 -0.2045E-31  0.0000E+00
    -11.315 -0.1672E-28  0.0000E+00 -0.7817E-30  0.0000E+00
    -11.270 -0.5741E-27 -0.4613E-30 -0.2692E-28 -0.2100E-31
    -11.224 -0.1775E-25 -0.1716E-28 -0.8349E-27 -0.8022E-30
    -11.179 -0.4940E-24 -0.5887E-27 -0.2333E-25 -0.2760E-28
    -11.133 -0.1238E-22 -0.1819E-25 -0.5870E-24 -0.8555E-27
    -11.088 -0.2793E-21 -0.5058E-24 -0.1330E-22 -0.2388E-25
    -11.042 -0.5671E-20 -0.1267E-22 -0.2715E-21 -0.6005E-24
    -10.997 -0.1036E-18 -0.2855E-21 -0.4989E-20 -0.1360E-22
    -10.951 -0.1704E-17 -0.5793E-20 -0.8256E-19 -0.2773E-21
    -10.906 -0.2398E-16 -0.1058E-18 -0.1174E-17 -0.5093E-20
    -10.860 -0.3256E-15 -0.1738E-17 -0.1600E-16 -0.8421E-19
    -10.815 -0.3877E-14 -0.2447E-16 -0.1925E-15 -0.1198E-17
    -10.769 -0.4158E-13 -0.3317E-15 -0.2085E-14 -0.1630E-16
    -10.724 -0.4005E-12 -0.3946E-14 -0.2032E-13 -0.1959E-15
    -10.678 -0.3463E-11 -0.4228E-13 -0.1780E-12 -0.2121E-14
    -10.633 -0.2688E-10 -0.4069E-12 -0.1402E-11 -0.2064E-13
    -10.587 -0.1871E-09 -0.3516E-11 -0.9921E-11 -0.1807E-12
    -10.542 -0.1167E-08 -0.2727E-10 -0.6307E-10 -0.1422E-11
    -10.496 -0.6520E-08 -0.1897E-09 -0.3599E-09 -0.1006E-10
    -10.450 -0.3257E-07 -0.1182E-08 -0.1843E-08 -0.6389E-10
    -10.405 -0.1453E-06 -0.6599E-08 -0.8456E-08 -0.3643E-09
    -10.359 -0.5774E-06 -0.3293E-07 -0.3474E-07 -0.1864E-08
    -10.314 -0.2040E-05 -0.1468E-06 -0.1276E-06 -0.8546E-08
    -10.268 -0.6386E-05 -0.5829E-06 -0.4184E-06 -0.3508E-07
    -10.223 -0.1761E-04 -0.2058E-05 -0.1220E-05 -0.1288E-06
    -10.177 -0.4246E-04 -0.6436E-05 -0.3153E-05 -0.4218E-06
    -10.132 -0.8835E-04 -0.1773E-04 -0.7175E-05 -0.1229E-05
    -10.086 -0.1549E-03 -0.4271E-04 -0.1423E-04 -0.3173E-05
    -10.041 -0.2168E-03 -0.8877E-04 -0.2410E-04 -0.7215E-05
     -9.995 -0.2050E-03 -0.1554E-03 -0.3343E-04 -0.1429E-04
     -9.950 -0.4087E-05 -0.2171E-03 -0.3361E-04 -0.2417E-04
     -9.904  0.5078E-03 -0.2044E-03 -0.1050E-04 -0.3348E-04
     -9.859  0.1375E-02 -0.1638E-05  0.5209E-04 -0.3355E-04
     -9.813  0.2477E-02  0.5128E-03  0.1649E-03 -0.1021E-04
     -9.768  0.3518E-02  0.1382E-02  0.3250E-03  0.5272E-04
     -9.722  0.4135E-02  0.2485E-02  0.5132E-03  0.1659E-03
     -9.677  0.4086E-02  0.3524E-02  0.6993E-03  0.3263E-03
     -9.631  0.3392E-02  0.4137E-02  0.8537E-03  0.5146E-03
     -9.585  0.2321E-02  0.4084E-02  0.9594E-03  0.7005E-03
     -9.540  0.1237E-02  0.3385E-02  0.1016E-02  0.8547E-03
     -9.494  0.4159E-03  0.2313E-02  0.1035E-02  0.9599E-03
     -9.449 -0.4779E-04  0.1230E-02  0.1032E-02  0.1016E-02
     -9.403 -0.2149E-03  0.4113E-03  0.1023E-02  0.1035E-02
     -9.358 -0.2106E-03 -0.4991E-04  0.1013E-02  0.1032E-02
     -9.312 -0.1450E-03 -0.2153E-03  0.1006E-02  0.1023E-02
     -9.267 -0.8064E-04 -0.2102E-03  0.1003E-02  0.1013E-02
     -9.221 -0.3795E-04 -0.1445E-03  0.1001E-02  0.1006E-02
     -9.176 -0.1551E-04 -0.8025E-04  0.1000E-02  0.1003E-02
     -9.130 -0.5808E-05 -0.3771E-04  0.1000E-02  0.1001E-02
     -9.085 -0.2882E-05 -0.1533E-04  0.1000E-02  0.1000E-02
     -9.039 -0.4307E-05 -0.5458E-05  0.9998E-03  0.1000E-02
     -8.994 -0.1131E-04 -0.1726E-05  0.9992E-03  0.1000E-02
     -8.948 -0.2879E-04 -0.5408E-06  0.9979E-03  0.1000E-02
     -8.903 -0.6420E-04 -0.3911E-06  0.9950E-03  0.1000E-02
     -8.857 -0.1223E-03 -0.1057E-05  0.9894E-03  0.9999E-03
     -8.812 -0.1920E-03 -0.3457E-05  0.9807E-03  0.9998E-03
     -8.766 -0.2262E-03 -0.1022E-04  0.9704E-03  0.9993E-03
     -8.720 -0.1294E-03 -0.2657E-04  0.9645E-03  0.9981E-03
     -8.675  0.2250E-03 -0.6009E-04  0.9748E-03  0.9954E-03
     -8.629  0.9276E-03 -0.1163E-03  0.1017E-02  0.9901E-03
     -8.584  0.1939E-02 -0.1861E-03  0.1105E-02  0.9816E-03
     -8.538  0.3031E-02 -0.2266E-03  0.1243E-02  0.9713E-03
     -8.493  0.3844E-02 -0.1463E-03  0.1418E-02  0.9646E-03
     -8.447  0.4053E-02  0.1810E-03  0.1603E-02  0.9729E-03
     -8.402  0.3562E-02  0.8546E-03  0.1765E-02  0.1012E-02
     -8.356  0.2591E-02  0.1853E-02  0.1883E-02  0.1096E-02
     -8.311  0.1579E-02  0.2972E-02  0.1955E-02  0.1231E-02
     -8.265  0.9764E-03  0.3864E-02  0.1999E-02  0.1407E-02
     -8.220  0.1029E-02  0.4195E-02  0.2046E-02  0.1598E-02
     -8.174  0.1685E-02  0.3827E-02  0.2123E-02  0.1773E-02
     -8.129  0.2663E-02  0.2897E-02  0.2244E-02  0.1904E-02
     -8.083  0.3643E-02  0.1731E-02  0.2410E-02  0.1983E-02
     -8.038  0.4470E-02  0.6748E-03  0.2613E-02  0.2014E-02
     -7.992  0.5237E-02 -0.5250E-04  0.2852E-02  0.2012E-02
     -7.947  0.6177E-02 -0.3707E-03  0.3133E-02  0.1995E-02
     -7.901  0.7431E-02 -0.2738E-03  0.3471E-02  0.1982E-02
     -7.856  0.8883E-02  0.2255E-03  0.3876E-02  0.1992E-02
     -7.810  0.1019E-01  0.1075E-02  0.4340E-02  0.2041E-02
     -7.764  0.1099E-01  0.2117E-02  0.4840E-02  0.2138E-02
     -7.719  0.1113E-01  0.3076E-02  0.5347E-02  0.2278E-02
     -7.673  0.1076E-01  0.3677E-02  0.5837E-02  0.2445E-02
     -7.628  0.1019E-01  0.3833E-02  0.6301E-02  0.2620E-02
     -7.582  0.9766E-02  0.3763E-02  0.6745E-02  0.2791E-02
     -7.537  0.9672E-02  0.3915E-02  0.7186E-02  0.2969E-02
     -7.491  0.9919E-02  0.4686E-02  0.7637E-02  0.3183E-02
     -7.446  0.1038E-01  0.6147E-02  0.8110E-02  0.3462E-02
     -7.400  0.1085E-01  0.7943E-02  0.8603E-02  0.3824E-02
     -7.355  0.1116E-01  0.9465E-02  0.9111E-02  0.4255E-02
     -7.309  0.1121E-01  0.1016E-01  0.9622E-02  0.4718E-02
     -7.264  0.1103E-01  0.9824E-02  0.1012E-01  0.5165E-02
     -7.218  0.1073E-01  0.8676E-02  0.1061E-01  0.5560E-02
     -7.173  0.1047E-01  0.7234E-02  0.1109E-01  0.5889E-02
     -7.127  0.1034E-01  0.6041E-02  0.1156E-01  0.6164E-02
     -7.082  0.1038E-01  0.5453E-02  0.1203E-01  0.6412E-02
     -7.036  0.1053E-01  0.5554E-02  0.1251E-01  0.6665E-02
     -6.991  0.1066E-01  0.6205E-02  0.1300E-01  0.6948E-02
     -6.945  0.1066E-01  0.7142E-02  0.1348E-01  0.7273E-02
     -6.899  0.1055E-01  0.8085E-02  0.1396E-01  0.7641E-02
     -6.854  0.1047E-01  0.8869E-02  0.1444E-01  0.8045E-02
     -6.808  0.1061E-01  0.9526E-02  0.1492E-01  0.8478E-02
     -6.763  0.1101E-01  0.1022E-01  0.1542E-01  0.8944E-02
     -6.717  0.1146E-01  0.1104E-01  0.1594E-01  0.9446E-02
     -6.672  0.1165E-01  0.1180E-01  0.1648E-01  0.9984E-02
     -6.626  0.1139E-01  0.1212E-01  0.1699E-01  0.1054E-01
     -6.581  0.1080E-01  0.1171E-01  0.1749E-01  0.1107E-01
     -6.535  0.1028E-01  0.1071E-01  0.1795E-01  0.1156E-01
     -6.490  0.1030E-01  0.9662E-02  0.1842E-01  0.1200E-01
     -6.444  0.1110E-01  0.9172E-02  0.1893E-01  0.1241E-01
     -6.399  0.1256E-01  0.9535E-02  0.1950E-01  0.1285E-01
     -6.353  0.1425E-01  0.1063E-01  0.2015E-01  0.1333E-01
     -6.308  0.1567E-01  0.1205E-01  0.2086E-01  0.1388E-01
     -6.262  0.1645E-01  0.1340E-01  0.2161E-01  0.1449E-01
     -6.217  0.1639E-01  0.1438E-01  0.2236E-01  0.1514E-01
     -6.171  0.1544E-01  0.1484E-01  0.2306E-01  0.1582E-01
     -6.126  0.1377E-01  0.1469E-01  0.2369E-01  0.1649E-01
     -6.080  0.1171E-01  0.1387E-01  0.2422E-01  0.1712E-01
     -6.034  0.9818E-02  0.1242E-01  0.2467E-01  0.1769E-01
     -5.989  0.8700E-02  0.1052E-01  0.2506E-01  0.1816E-01
     -5.943  0.8711E-02  0.8579E-02  0.2546E-01  0.1856E-01
     -5.898  0.9750E-02  0.7149E-02  0.2590E-01  0.1888E-01
     -5.852  0.1127E-01  0.6693E-02  0.2642E-01  0.1919E-01
     -5.807  0.1258E-01  0.7313E-02  0.2699E-01  0.1952E-01
     -5.761  0.1318E-01  0.8646E-02  0.2759E-01  0.1991E-01
     -5.716  0.1298E-01  0.1002E-01  0.2818E-01  0.2037E-01
     -5.670  0.1227E-01  0.1084E-01  0.2874E-01  0.2086E-01
     -5.625  0.1154E-01  0.1086E-01  0.2926E-01  0.2136E-01
     -5.579  0.1124E-01  0.1035E-01  0.2978E-01  0.2183E-01
     -5.534  0.1171E-01  0.9876E-02  0.3031E-01  0.2228E-01
     -5.488  0.1311E-01  0.9981E-02  0.3091E-01  0.2273E-01
     -5.443  0.1545E-01  0.1090E-01  0.3161E-01  0.2323E-01
     -5.397  0.1851E-01  0.1245E-01  0.3245E-01  0.2380E-01
     -5.352  0.2177E-01  0.1409E-01  0.3344E-01  0.2444E-01
     -5.306  0.2457E-01  0.1532E-01  0.3456E-01  0.2513E-01
     -5.261  0.2635E-01  0.1588E-01  0.3576E-01  0.2586E-01
     -5.215  0.2691E-01  0.1588E-01  0.3699E-01  0.2658E-01
     -5.169  0.2654E-01  0.1563E-01  0.3819E-01  0.2729E-01
     -5.124  0.2588E-01  0.1537E-01  0.3937E-01  0.2799E-01
     -5.078  0.2548E-01  0.1513E-01  0.4053E-01  0.2868E-01
     -5.033  0.2562E-01  0.1472E-01  0.4170E-01  0.2935E-01
     -4.987  0.2618E-01  0.1395E-01  0.4289E-01  0.2999E-01
     -4.942  0.2683E-01  0.1280E-01  0.4411E-01  0.3057E-01
     -4.896  0.2717E-01  0.1154E-01  0.4535E-01  0.3109E-01
     -4.851  0.2690E-01  0.1066E-01  0.4657E-01  0.3158E-01
     -4.805  0.2585E-01  0.1066E-01  0.4775E-01  0.3206E-01
     -4.760  0.2397E-01  0.1175E-01  0.4884E-01  0.3260E-01
     -4.714  0.2136E-01  0.1374E-01  0.4981E-01  0.3322E-01
     -4.669  0.1826E-01  0.1609E-01  0.5065E-01  0.3396E-01
     -4.623  0.1499E-01  0.1822E-01  0.5133E-01  0.3479E-01
     -4.578  0.1187E-01  0.1979E-01  0.5187E-01  0.3569E-01
     -4.532  0.9120E-02  0.2079E-01  0.5228E-01  0.3663E-01
     -4.487  0.6846E-02  0.2147E-01  0.5260E-01  0.3761E-01
     -4.441  0.5137E-02  0.2202E-01  0.5283E-01  0.3861E-01
     -4.396  0.4073E-02  0.2247E-01  0.5302E-01  0.3964E-01
     -4.350  0.3655E-02  0.2268E-01  0.5318E-01  0.4067E-01
     -4.304  0.3707E-02  0.2245E-01  0.5335E-01  0.4169E-01
     -4.259  0.3874E-02  0.2166E-01  0.5353E-01  0.4268E-01
     -4.213  0.3781E-02  0.2037E-01  0.5370E-01  0.4360E-01
     -4.168  0.3236E-02  0.1878E-01  0.5385E-01  0.4446E-01
     -4.122  0.2325E-02  0.1721E-01  0.5395E-01  0.4524E-01
     -4.077  0.1321E-02  0.1608E-01  0.5401E-01  0.4598E-01
     -4.031  0.4994E-03  0.1577E-01  0.5404E-01  0.4669E-01
     -3.986 -0.4601E-05  0.1645E-01  0.5403E-01  0.4744E-01
     -3.940 -0.2130E-03  0.1789E-01  0.5403E-01  0.4826E-01
     -3.895 -0.2367E-03  0.1944E-01  0.5401E-01  0.4914E-01
     -3.849 -0.1933E-03  0.2032E-01  0.5401E-01  0.5007E-01
     -3.804 -0.1611E-03  0.2001E-01  0.5400E-01  0.5098E-01
     -3.758 -0.1720E-03  0.1844E-01  0.5399E-01  0.5182E-01
     -3.713 -0.2149E-03  0.1592E-01  0.5398E-01  0.5254E-01
     -3.667 -0.2338E-03  0.1284E-01  0.5397E-01  0.5313E-01
     -3.622 -0.1247E-03  0.9568E-02  0.5396E-01  0.5356E-01
     -3.576  0.2408E-03  0.6387E-02  0.5398E-01  0.5385E-01
     -3.531  0.9467E-03  0.3589E-02  0.5402E-01  0.5402E-01
     -3.485  0.1941E-02  0.1427E-02  0.5411E-01  0.5408E-01
     -3.440  0.2991E-02  0.2252E-04  0.5424E-01  0.5408E-01
     -3.394  0.3753E-02 -0.6693E-03  0.5441E-01  0.5405E-01
     -3.348  0.3968E-02 -0.7927E-03  0.5459E-01  0.5402E-01
     -3.303  0.3640E-02 -0.4777E-03  0.5476E-01  0.5399E-01
     -3.257  0.3073E-02  0.2107E-03  0.5490E-01  0.5400E-01
     -3.212  0.2694E-02  0.1215E-02  0.5502E-01  0.5406E-01
     -3.166  0.2772E-02  0.2381E-02  0.5515E-01  0.5417E-01
     -3.121  0.3226E-02  0.3411E-02  0.5530E-01  0.5432E-01
     -3.075  0.3688E-02  0.3964E-02  0.5546E-01  0.5450E-01
     -3.030  0.3758E-02  0.3849E-02  0.5563E-01  0.5468E-01
     -2.984  0.3287E-02  0.3177E-02  0.5578E-01  0.5482E-01
     -2.939  0.2487E-02  0.2346E-02  0.5590E-01  0.5493E-01
     -2.893  0.1800E-02  0.1831E-02  0.5598E-01  0.5501E-01
     -2.848  0.1620E-02  0.1920E-02  0.5605E-01  0.5510E-01
     -2.802  0.2049E-02  0.2541E-02  0.5615E-01  0.5522E-01
     -2.757  0.2838E-02  0.3308E-02  0.5628E-01  0.5537E-01
     -2.711  0.3543E-02  0.3759E-02  0.5644E-01  0.5554E-01
     -2.666  0.3810E-02  0.3642E-02  0.5661E-01  0.5570E-01
     -2.620  0.3594E-02  0.3069E-02  0.5677E-01  0.5584E-01
     -2.575  0.3178E-02  0.2440E-02  0.5692E-01  0.5595E-01
     -2.529  0.2954E-02  0.2178E-02  0.5705E-01  0.5605E-01
     -2.483  0.3133E-02  0.2445E-02  0.5720E-01  0.5616E-01
     -2.438  0.3585E-02  0.3055E-02  0.5736E-01  0.5630E-01
     -2.392  0.3934E-02  0.3619E-02  0.5754E-01  0.5647E-01
     -2.347  0.3818E-02  0.3832E-02  0.5771E-01  0.5664E-01
     -2.301  0.3131E-02  0.3687E-02  0.5785E-01  0.5681E-01
     -2.256  0.2061E-02  0.3448E-02  0.5795E-01  0.5697E-01
     -2.210  0.9651E-03  0.3415E-02  0.5799E-01  0.5712E-01
     -2.165  0.1838E-03  0.3660E-02  0.5800E-01  0.5729E-01
     -2.119 -0.7012E-04  0.3963E-02  0.5800E-01  0.5747E-01
     -2.074  0.2630E-03  0.3976E-02  0.5801E-01  0.5765E-01
     -2.028  0.1095E-02  0.3483E-02  0.5806E-01  0.5781E-01
     -1.983  0.2198E-02  0.2543E-02  0.5816E-01  0.5793E-01
     -1.937  0.3245E-02  0.1428E-02  0.5831E-01  0.5799E-01
     -1.892  0.3942E-02  0.4528E-03  0.5849E-01  0.5801E-01
     -1.846  0.4177E-02 -0.1693E-03  0.5868E-01  0.5800E-01
     -1.801  0.4089E-02 -0.3471E-03  0.5886E-01  0.5799E-01
     -1.755  0.3948E-02 -0.6477E-04  0.5904E-01  0.5798E-01
     -1.710  0.3931E-02  0.6477E-03  0.5922E-01  0.5801E-01
     -1.664  0.3987E-02  0.1691E-02  0.5940E-01  0.5809E-01
     -1.618  0.3919E-02  0.2871E-02  0.5958E-01  0.5822E-01
     -1.573  0.3608E-02  0.3940E-02  0.5975E-01  0.5840E-01
     -1.527  0.3174E-02  0.4704E-02  0.5989E-01  0.5862E-01
     -1.482  0.2906E-02  0.5115E-02  0.6002E-01  0.5885E-01
     -1.436  0.3021E-02  0.5258E-02  0.6016E-01  0.5909E-01
     -1.391  0.3456E-02  0.5272E-02  0.6032E-01  0.5933E-01
     -1.345  0.3881E-02  0.5259E-02  0.6049E-01  0.5957E-01
     -1.300  0.3914E-02  0.5259E-02  0.6067E-01  0.5981E-01
     -1.254  0.3374E-02  0.5260E-02  0.6083E-01  0.6005E-01
     -1.209  0.2375E-02  0.5187E-02  0.6093E-01  0.6028E-01
     -1.163  0.1225E-02  0.4910E-02  0.6099E-01  0.6051E-01
     -1.118  0.2421E-03  0.4301E-02  0.6100E-01  0.6070E-01
     -1.072 -0.3571E-03  0.3337E-02  0.6098E-01  0.6085E-01
     -1.027 -0.4488E-03  0.2154E-02  0.6096E-01  0.6095E-01
     -0.981  0.5305E-04  0.1004E-02  0.6097E-01  0.6100E-01
     -0.936  0.1195E-02  0.1430E-03  0.6102E-01  0.6100E-01
     -0.890  0.2894E-02 -0.2479E-03  0.6115E-01  0.6099E-01
     -0.845  0.4843E-02 -0.8784E-04  0.6137E-01  0.6099E-01
     -0.799  0.6541E-02  0.6155E-03  0.6167E-01  0.6102E-01
     -0.753  0.7493E-02  0.1762E-02  0.6201E-01  0.6110E-01
     -0.708  0.7487E-02  0.3149E-02  0.6235E-01  0.6124E-01
     -0.662  0.6740E-02  0.4500E-02  0.6266E-01  0.6144E-01
     -0.617  0.5806E-02  0.5537E-02  0.6292E-01  0.6170E-01
     -0.571  0.5275E-02  0.6082E-02  0.6316E-01  0.6197E-01
     -0.526  0.5487E-02  0.6103E-02  0.6341E-01  0.6225E-01
     -0.480  0.6400E-02  0.5722E-02  0.6371E-01  0.6251E-01
     -0.435  0.7662E-02  0.5168E-02  0.6405E-01  0.6275E-01
     -0.389  0.8763E-02  0.4709E-02  0.6445E-01  0.6296E-01
     -0.344  0.9221E-02  0.4572E-02  0.6487E-01  0.6317E-01
     -0.298  0.8739E-02  0.4890E-02  0.6527E-01  0.6339E-01
     -0.253  0.7325E-02  0.5674E-02  0.6560E-01  0.6365E-01
     -0.207  0.5305E-02  0.6806E-02  0.6585E-01  0.6396E-01
     -0.162  0.3182E-02  0.8010E-02  0.6599E-01  0.6433E-01
     -0.116  0.1421E-02  0.8868E-02  0.6606E-01  0.6473E-01
     -0.071  0.2694E-03  0.8940E-02  0.6607E-01  0.6514E-01
     -0.025 -0.2861E-03  0.7991E-02  0.6605E-01  0.6550E-01
      0.020 -0.4223E-03  0.6168E-02  0.6604E-01  0.6578E-01
      0.066 -0.3500E-03  0.3958E-02  0.6602E-01  0.6596E-01
      0.111 -0.2237E-03  0.1943E-02  0.6601E-01  0.6605E-01
      0.157 -0.1192E-03  0.5191E-03  0.6600E-01  0.6607E-01
      0.203 -0.5459E-04 -0.2280E-03  0.6600E-01  0.6606E-01
      0.248 -0.2183E-04 -0.4559E-03  0.6600E-01  0.6604E-01
      0.294 -0.7695E-05 -0.4042E-03  0.6600E-01  0.6602E-01
      0.339 -0.2404E-05 -0.2664E-03  0.6600E-01  0.6601E-01
      0.385 -0.6680E-06 -0.1442E-03  0.6600E-01  0.6600E-01
      0.430 -0.1656E-06 -0.6655E-04  0.6600E-01  0.6600E-01
      0.476 -0.3668E-07 -0.2669E-04  0.6600E-01  0.6600E-01
      0.521 -0.7272E-08 -0.9400E-05  0.6600E-01  0.6600E-01
      0.567 -0.1292E-08 -0.2926E-05  0.6600E-01  0.6600E-01
      0.612 -0.2057E-09 -0.8087E-06  0.6600E-01  0.6600E-01
      0.658 -0.2941E-10 -0.1991E-06  0.6600E-01  0.6600E-01
      0.703 -0.3774E-11 -0.4374E-07  0.6600E-01  0.6600E-01
      0.749 -0.4351E-12 -0.8594E-08  0.6600E-01  0.6600E-01
      0.794 -0.4507E-13 -0.1512E-08  0.6600E-01  0.6600E-01
      0.840 -0.4199E-14 -0.2384E-09  0.6600E-01  0.6600E-01
      0.885 -0.3512E-15 -0.3373E-10  0.6600E-01  0.6600E-01
      0.931 -0.2926E-16 -0.4283E-11  0.6600E-01  0.6600E-01
      0.976  0.0000E+00 -0.4886E-12  0.6600E-01  0.6600E-01
      1.022  0.0000E+00 -0.5009E-13  0.6600E-01  0.6600E-01
      1.068  0.0000E+00 -0.4619E-14  0.6600E-01  0.6600E-01
      1.113  0.0000E+00 -0.3804E-15  0.6600E-01  0.6600E-01
      1.159  0.0000E+00 -0.3414E-16  0.6600E-01  0.6600E-01
      1.204  0.0000E+00  0.0000E+00  0.6600E-01  0.6600E-01
      1.250  0.0000E+00  0.0000E+00  0.6600E-01  0.6600E-01
      1.295  0.0000E+00  0.0000E+00  0.6600E-01  0.6600E-01
      1.341  0.0000E+00  0.0000E+00  0.6600E-01  0.6600E-01
      1.386  0.0000E+00  0.0000E+00  0.6600E-01  0.6600E-01
      1.432  0.0000E+00  0.0000E+00  0.6600E-01  0.6600E-01
      1.477  0.0000E+00  0.0000E+00  0.6600E-01  0.6600E-01
      1.523  0.0000E+00  0.0000E+00  0.6600E-01  0.6600E-01
      1.568  0.0000E+00  0.0000E+00  0.6600E-01  0.6600E-01
      1.614  0.0000E+00  0.0000E+00  0.6600E-01  0.6600E-01
      1.659  0.0000E+00  0.0000E+00  0.6600E-01  0.6600E-01
      1.705  0.0000E+00  0.0000E+00  0.6600E-01  0.6600E-01
      1.750  0.0000E+00  0.0000E+00  0.6600E-01  0.6600E-01
      1.796  0.0000E+00  0.0000E+00  0.6600E-01  0.6600E-01
      1.841  0.0000E+00  0.0000E+00  0.6600E-01  0.6600E-01
      1.887  0.0000E+00  0.0000E+00  0.6600E-01  0.6600E-01
      1.933  0.0000E+00  0.0000E+00  0.6600E-01  0.6600E-01
