   10   10 1000    2
  0.1190727E+04  0.2108006E-08  0.2229418E-08  0.2533663E-08  0.5000000E-15
   1.0000000000000000E-004
  CAR 
 unknown system                          
    100      1     66
 
  0.1262379E-14  0.1262379E-14  0.1262379E-14  0.1000000E+01
    1       -9.725188     -9.634465   1.000000   1.000000
    2       -8.474939     -8.243215   1.000000   1.000000
    3       -8.077045     -7.674179   1.000000   1.000000
    4       -7.878934     -7.415384   1.000000   1.000000
    5       -7.789461     -7.328059   1.000000   1.000000
    6       -7.727425     -7.255480   1.000000   1.000000
    7       -7.604015     -7.062092   1.000000   1.000000
    8       -7.505589     -6.889640   1.000000   1.000000
    9       -7.393475     -6.841134   1.000000   1.000000
   10       -7.337019     -6.662829   1.000000   1.000000
   11       -7.223118     -6.641208   1.000000   1.000000
   12       -7.140672     -6.585776   1.000000   1.000000
   13       -7.022818     -6.406234   1.000000   1.000000
   14       -6.952937     -6.346532   1.000000   1.000000
   15       -6.856898     -6.242240   1.000000   1.000000
   16       -6.727391     -6.201855   1.000000   1.000000
   17       -6.682040     -6.126196   1.000000   1.000000
   18       -6.602026     -6.048190   1.000000   1.000000
   19       -6.473444     -5.980457   1.000000   1.000000
   20       -6.368377     -5.774085   1.000000   1.000000
   21       -6.343077     -5.702962   1.000000   1.000000
   22       -6.265473     -5.635889   1.000000   1.000000
   23       -6.214362     -5.516482   1.000000   1.000000
   24       -6.131740     -5.385615   1.000000   1.000000
   25       -6.092451     -5.347244   1.000000   1.000000
   26       -5.904807     -5.295417   1.000000   1.000000
   27       -5.836197     -5.236562   1.000000   1.000000
   28       -5.781020     -5.133437   1.000000   1.000000
   29       -5.704799     -5.098703   1.000000   1.000000
   30       -5.607128     -5.023335   1.000000   1.000000
   31       -5.519826     -4.952314   1.000000   1.000000
   32       -5.435667     -4.884420   1.000000   1.000000
   33       -5.397316     -4.735757   1.000000   1.000016
   34       -5.317847     -4.684560   1.000000   1.000074
   35       -5.286746     -4.642829   1.000000   1.000230
   36       -5.273830     -4.593870   1.000000   1.000772
   37       -5.264688     -4.548254   1.000000   1.002110
   38       -5.222058     -4.472737   1.000000   1.008442
   39       -5.155422     -4.457749   1.000000   1.010636
   40       -5.100538     -4.393220   1.000000   1.023739
   41       -5.092797     -4.362020   1.000000   1.030647
   42       -5.039359     -4.301415   1.000000   1.033762
   43       -4.994101     -4.265475   1.000000   1.018680
   44       -4.955707     -4.252685   1.000000   1.008302
   45       -4.922398     -4.145075   1.000000   0.773411
   46       -4.889731     -4.115071   1.000000   0.661369
   47       -4.870528     -4.070976   1.000000   0.478209
   48       -4.801976     -3.945105   1.000002   0.056784
   49       -4.762377     -3.893257   1.000007  -0.013805
   50       -4.749527     -3.871441   1.000010  -0.027391
   51       -4.693451     -3.860836   1.000057  -0.031350
   52       -4.610429     -3.793837   1.000520  -0.031346
   53       -4.500217     -3.694503   1.005314  -0.010635
   54       -4.251367     -3.655150   1.007055  -0.005614
   55       -3.378412     -3.079637  -0.000005  -0.000000
   56       -3.063009     -2.722219  -0.000000  -0.000000
   57       -2.698106     -2.387163  -0.000000  -0.000000
   58       -2.395540     -2.104247  -0.000000  -0.000000
   59       -1.896633     -1.558291  -0.000000  -0.000000
   60       -1.637726     -1.358159  -0.000000  -0.000000
   61       -1.337062     -1.157474  -0.000000  -0.000000
   62       -0.800351     -0.651945  -0.000000  -0.000000
   63       -0.721566     -0.492683  -0.000000  -0.000000
   64       -0.499081     -0.277986  -0.000000  -0.000000
   65       -0.362400     -0.098133  -0.000000  -0.000000
   66       -0.294048     -0.067478  -0.000000  -0.000000
