       N       E                     dE             d eps       ncg     rms          rms(c)
DAV:   1     0.698525756276E+03    0.69853E+03   -0.16192E+04   280   0.691E+02
DAV:   2     0.244045707503E+03   -0.45448E+03   -0.41919E+03   488   0.121E+02
DAV:   3     0.170569208268E+02   -0.22699E+03   -0.21085E+03   408   0.121E+02
DAV:   4    -0.368602075764E+02   -0.53917E+02   -0.45406E+02   384   0.596E+01
DAV:   5    -0.431607194075E+02   -0.63005E+01   -0.47330E+01   326   0.223E+01    0.288E+01
DAV:   6    -0.671852412155E+02   -0.24025E+02   -0.13244E+02   300   0.197E+02    0.601E+01
DAV:   7    -0.419178886979E+02    0.25267E+02   -0.62116E+01   356   0.744E+01    0.390E+01
DAV:   8    -0.381158189855E+02    0.38021E+01   -0.28007E+01   352   0.701E+01    0.390E+01
DAV:   9    -0.383860283443E+02   -0.27021E+00   -0.21552E+01   312   0.645E+01    0.284E+01
DAV:  10    -0.353297644028E+02    0.30563E+01   -0.13149E+01   344   0.574E+01    0.288E+01
DAV:  11    -0.353056685550E+02    0.24096E-01   -0.13834E+01   350   0.493E+01    0.253E+01
DAV:  12    -0.361946001027E+02   -0.88893E+00   -0.72778E+00   382   0.406E+01    0.337E+01
DAV:  13    -0.344614525594E+02    0.17331E+01   -0.34713E+00   330   0.298E+01    0.190E+01
DAV:  14    -0.345314560906E+02   -0.70004E-01   -0.28932E+00   370   0.136E+01    0.838E+00
DAV:  15    -0.348340244125E+02   -0.30257E+00   -0.30726E-01   366   0.588E+00    0.864E+00
DAV:  16    -0.348822123535E+02   -0.48188E-01   -0.35294E-01   308   0.654E+00    0.876E+00
DAV:  17    -0.350826389528E+02   -0.20043E+00   -0.59040E-01   370   0.919E+00    0.659E+00
DAV:  18    -0.354256418333E+02   -0.34300E+00   -0.23762E-01   378   0.625E+00    0.352E+00
DAV:  19    -0.356116324902E+02   -0.18599E+00   -0.72063E-02   348   0.288E+00    0.219E+00
DAV:  20    -0.358432708586E+02   -0.23164E+00   -0.45153E-02   364   0.219E+00    0.242E+00
DAV:  21    -0.360325337859E+02   -0.18926E+00   -0.42286E-02   382   0.243E+00    0.144E+00
DAV:  22    -0.361997224346E+02   -0.16719E+00   -0.26872E-02   346   0.161E+00    0.751E-01
DAV:  23    -0.362875168835E+02   -0.87794E-01   -0.90671E-03   376   0.914E-01    0.392E-01
DAV:  24    -0.363625976572E+02   -0.75081E-01   -0.34397E-03   340   0.665E-01    0.334E-01
DAV:  25    -0.364325144121E+02   -0.69917E-01   -0.18567E-03   320   0.397E-01    0.215E-01
DAV:  26    -0.364926589401E+02   -0.60145E-01   -0.15910E-03   264   0.352E-01    0.271E-01
DAV:  27    -0.365570341282E+02   -0.64375E-01   -0.10053E-03   284   0.335E-01    0.149E-01
DAV:  28    -0.366246639766E+02   -0.67630E-01   -0.15427E-03   288   0.207E-01    0.133E-01
DAV:  29    -0.366748425807E+02   -0.50179E-01   -0.10551E-03   278   0.279E-01    0.123E-01
DAV:  30    -0.367273239605E+02   -0.52481E-01   -0.10125E-03   264   0.191E-01    0.748E-02
DAV:  31    -0.367600296310E+02   -0.32706E-01   -0.63192E-04   260   0.154E-01    0.962E-02
DAV:  32    -0.367849317687E+02   -0.24902E-01   -0.49067E-04   250   0.139E-01    0.520E-02
DAV:  33    -0.368003128128E+02   -0.15381E-01   -0.26243E-04   212   0.723E-02    0.325E-02
DAV:  34    -0.368093237004E+02   -0.90109E-02   -0.14115E-04   198   0.532E-02    0.451E-02
DAV:  35    -0.368157791577E+02   -0.64555E-02   -0.15024E-04   196   0.721E-02    0.213E-02
DAV:  36    -0.368193727206E+02   -0.35936E-02   -0.73154E-05   192   0.442E-02    0.205E-02
DAV:  37    -0.368216023373E+02   -0.22296E-02   -0.56879E-05   184   0.367E-02    0.133E-02
DAV:  38    -0.368234086895E+02   -0.18064E-02   -0.39998E-05   180   0.288E-02    0.127E-02
DAV:  39    -0.368249142811E+02   -0.15056E-02   -0.36206E-05   184   0.272E-02    0.107E-02
DAV:  40    -0.368259268997E+02   -0.10126E-02   -0.25850E-05   184   0.211E-02    0.716E-03
DAV:  41    -0.368267346419E+02   -0.80774E-03   -0.20684E-05   176   0.199E-02    0.116E-02
DAV:  42    -0.368273361753E+02   -0.60153E-03   -0.15825E-05   184   0.177E-02    0.606E-03
DAV:  43    -0.368276776825E+02   -0.34151E-03   -0.98595E-06   164   0.115E-02    0.524E-03
DAV:  44    -0.368280306011E+02   -0.35292E-03   -0.70929E-06   184   0.999E-03    0.401E-03
DAV:  45    -0.368282363718E+02   -0.20577E-03   -0.45298E-06   172   0.947E-03    0.227E-03
DAV:  46    -0.368284235661E+02   -0.18719E-03   -0.41460E-06   184   0.614E-03    0.175E-03
DAV:  47    -0.368285148967E+02   -0.91331E-04   -0.20650E-06   164   0.520E-03
   1 F= -.36828515E+02 E0= -.36832796E+02  d E =-.368285E+02  mag=     8.0474
       N       E                     dE             d eps       ncg     rms          rms(c)
DAV:   1    -0.369281344101E+02   -0.99711E-01   -0.95703E+01   264   0.352E+01    0.335E+00
DAV:   2    -0.377031549039E+02   -0.77502E+00   -0.36054E+00   398   0.234E+01    0.162E+01
DAV:   3    -0.370039133086E+02    0.69924E+00   -0.29353E+00   364   0.242E+01    0.566E+00
DAV:   4    -0.371323144403E+02   -0.12840E+00   -0.61799E-01   388   0.131E+01    0.691E+00
DAV:   5    -0.371152510204E+02    0.17063E-01   -0.76454E-01   340   0.950E+00    0.542E+00
DAV:   6    -0.370614074736E+02    0.53844E-01   -0.21860E-01   350   0.691E+00    0.148E+00
DAV:   7    -0.370854053499E+02   -0.23998E-01   -0.76196E-02   390   0.464E+00    0.246E+00
DAV:   8    -0.370828971687E+02    0.25082E-02   -0.10547E-01   380   0.424E+00    0.252E+00
DAV:   9    -0.370759563652E+02    0.69408E-02   -0.59516E-02   342   0.358E+00    0.150E+00
DAV:  10    -0.370802371715E+02   -0.42808E-02   -0.25469E-02   374   0.231E+00    0.124E+00
DAV:  11    -0.370782921444E+02    0.19450E-02   -0.17288E-02   328   0.258E+00    0.858E-01
DAV:  12    -0.370793377526E+02   -0.10456E-02   -0.70332E-03   382   0.140E+00    0.358E-01
DAV:  13    -0.370801427159E+02   -0.80496E-03   -0.13638E-03   342   0.489E-01    0.216E-01
DAV:  14    -0.370806825792E+02   -0.53986E-03   -0.41763E-04   180   0.293E-01    0.976E-02
DAV:  15    -0.370812998897E+02   -0.61731E-03   -0.19479E-04   186   0.147E-01    0.690E-02
DAV:  16    -0.370817401090E+02   -0.44022E-03   -0.94581E-05   182   0.778E-02    0.350E-02
DAV:  17    -0.370821291185E+02   -0.38901E-03   -0.49288E-05   182   0.466E-02    0.204E-02
DAV:  18    -0.370824942263E+02   -0.36511E-03   -0.25533E-05   176   0.382E-02    0.163E-02
DAV:  19    -0.370827785760E+02   -0.28435E-03   -0.14287E-05   176   0.375E-02    0.137E-02
DAV:  20    -0.370830647533E+02   -0.28618E-03   -0.11878E-05   176   0.235E-02    0.750E-03
DAV:  21    -0.370832480040E+02   -0.18325E-03   -0.72802E-06   176   0.134E-02    0.520E-03
DAV:  22    -0.370834224166E+02   -0.17441E-03   -0.44109E-06   176   0.113E-02    0.612E-03
DAV:  23    -0.370835813073E+02   -0.15889E-03   -0.32143E-06   176   0.889E-03    0.330E-03
DAV:  24    -0.370837924646E+02   -0.21116E-03   -0.39549E-06   176   0.734E-03    0.299E-03
DAV:  25    -0.370839395261E+02   -0.14706E-03   -0.26789E-06   176   0.728E-03    0.221E-03
DAV:  26    -0.370840504196E+02   -0.11089E-03   -0.18985E-06   176   0.514E-03    0.183E-03
DAV:  27    -0.370841929064E+02   -0.14249E-03   -0.22155E-06   176   0.462E-03    0.161E-03
DAV:  28    -0.370842836494E+02   -0.90743E-04   -0.14470E-06   176   0.454E-03
   2 F= -.37084284E+02 E0= -.37090927E+02  d E =-.255769E+00  mag=     8.0270
       N       E                     dE             d eps       ncg     rms          rms(c)
DAV:   1    -0.370722574924E+02    0.11935E-01   -0.29993E+01   264   0.195E+01    0.174E+00
DAV:   2    -0.372470113599E+02   -0.17475E+00   -0.95280E-01   396   0.115E+01    0.769E+00
DAV:   3    -0.370932565483E+02    0.15375E+00   -0.67876E-01   340   0.127E+01    0.312E+00
DAV:   4    -0.371274701469E+02   -0.34214E-01   -0.16510E-01   380   0.654E+00    0.265E+00
DAV:   5    -0.371318541473E+02   -0.43840E-02   -0.15891E-01   356   0.502E+00    0.284E+00
DAV:   6    -0.371146249803E+02    0.17229E-01   -0.64356E-02   348   0.368E+00    0.613E-01
DAV:   7    -0.371236557953E+02   -0.90308E-02   -0.17521E-02   398   0.228E+00    0.137E+00
DAV:   8    -0.371196248604E+02    0.40309E-02   -0.17160E-02   364   0.240E+00    0.897E-01
DAV:   9    -0.371233610295E+02   -0.37362E-02   -0.19200E-02   382   0.189E+00    0.155E+00
DAV:  10    -0.371177990739E+02    0.55620E-02   -0.20332E-02   356   0.196E+00    0.623E-01
DAV:  11    -0.371204683538E+02   -0.26693E-02   -0.40111E-03   316   0.120E+00    0.453E-01
DAV:  12    -0.371206840836E+02   -0.21573E-03   -0.21236E-03   318   0.795E-01    0.252E-01
DAV:  13    -0.371208794660E+02   -0.19538E-03   -0.45871E-04   190   0.304E-01    0.805E-02
DAV:  14    -0.371211840127E+02   -0.30455E-03   -0.13471E-04   182   0.141E-01    0.372E-02
DAV:  15    -0.371213512873E+02   -0.16727E-03   -0.62122E-05   176   0.581E-02    0.253E-02
DAV:  16    -0.371214930201E+02   -0.14173E-03   -0.26929E-05   176   0.369E-02    0.139E-02
DAV:  17    -0.371216015468E+02   -0.10853E-03   -0.10920E-05   176   0.210E-02    0.140E-02
DAV:  18    -0.371217136897E+02   -0.11214E-03   -0.62636E-06   176   0.243E-02    0.672E-03
DAV:  19    -0.371218283417E+02   -0.11465E-03   -0.48755E-06   176   0.158E-02    0.643E-03
DAV:  20    -0.371219183557E+02   -0.90014E-04   -0.33966E-06   176   0.945E-03
   3 F= -.37121918E+02 E0= -.37129988E+02  d E =-.293403E+00  mag=     8.0206
       N       E                     dE             d eps       ncg     rms          rms(c)
DAV:   1    -0.371358740758E+02   -0.14046E-01   -0.20418E+01   264   0.162E+01    0.177E+00
DAV:   2    -0.375099465073E+02   -0.37407E+00   -0.15607E+00   364   0.163E+01    0.127E+01
DAV:   3    -0.370956495645E+02    0.41430E+00   -0.10504E+00   348   0.163E+01    0.224E+00
DAV:   4    -0.371777122609E+02   -0.82063E-01   -0.19862E-01   390   0.642E+00    0.327E+00
DAV:   5    -0.371679552240E+02    0.97570E-02   -0.12758E-01   366   0.501E+00    0.199E+00
DAV:   6    -0.371695857414E+02   -0.16305E-02   -0.54739E-02   366   0.312E+00    0.130E+00
DAV:   7    -0.371677368103E+02    0.18489E-02   -0.20121E-02   366   0.201E+00    0.489E-01
DAV:   8    -0.371694251637E+02   -0.16884E-02   -0.65983E-03   400   0.109E+00    0.616E-01
DAV:   9    -0.371695630341E+02   -0.13787E-03   -0.46200E-03   344   0.128E+00    0.612E-01
DAV:  10    -0.371689889892E+02    0.57404E-03   -0.29526E-03   366   0.990E-01    0.329E-01
DAV:  11    -0.371709564181E+02   -0.19674E-02   -0.52264E-03   360   0.129E+00    0.696E-01
DAV:  12    -0.371697015341E+02    0.12549E-02   -0.28710E-03   300   0.104E+00    0.301E-01
DAV:  13    -0.371702018508E+02   -0.50032E-03   -0.90252E-04   228   0.379E-01    0.121E-01
DAV:  14    -0.371704774571E+02   -0.27561E-03   -0.16806E-04   190   0.161E-01    0.568E-02
DAV:  15    -0.371706465501E+02   -0.16909E-03   -0.51191E-05   174   0.843E-02    0.568E-02
DAV:  16    -0.371707592851E+02   -0.11274E-03   -0.59831E-05   174   0.859E-02    0.172E-02
DAV:  17    -0.371708378883E+02   -0.78603E-04   -0.17591E-05   182   0.333E-02
   4 F= -.37170838E+02 E0= -.37179893E+02  d E =-.489195E-01  mag=     8.0219
       N       E                     dE             d eps       ncg     rms          rms(c)
DAV:   1    -0.371506497707E+02    0.20110E-01   -0.19378E+01   264   0.158E+01    0.169E+00
DAV:   2    -0.374687333702E+02   -0.31808E+00   -0.13437E+00   372   0.153E+01    0.120E+01
DAV:   3    -0.371130943164E+02    0.35564E+00   -0.10822E+00   348   0.152E+01    0.204E+00
DAV:   4    -0.371923141776E+02   -0.79220E-01   -0.16819E-01   398   0.621E+00    0.311E+00
DAV:   5    -0.371798126269E+02    0.12502E-01   -0.10132E-01   350   0.475E+00    0.167E+00
DAV:   6    -0.371828419694E+02   -0.30293E-02   -0.44939E-02   364   0.281E+00    0.128E+00
DAV:   7    -0.371809223198E+02    0.19196E-02   -0.19719E-02   372   0.192E+00    0.512E-01
DAV:   8    -0.371826068828E+02   -0.16846E-02   -0.72357E-03   380   0.120E+00    0.659E-01
DAV:   9    -0.371823183287E+02    0.28855E-03   -0.48965E-03   334   0.130E+00    0.576E-01
DAV:  10    -0.371819073554E+02    0.41097E-03   -0.30277E-03   366   0.951E-01    0.354E-01
DAV:  11    -0.371836024461E+02   -0.16951E-02   -0.54899E-03   360   0.129E+00    0.673E-01
DAV:  12    -0.371825503605E+02    0.10521E-02   -0.25710E-03   316   0.981E-01    0.287E-01
DAV:  13    -0.371830559164E+02   -0.50556E-03   -0.81401E-04   210   0.384E-01    0.120E-01
DAV:  14    -0.371833658171E+02   -0.30990E-03   -0.16744E-04   190   0.161E-01    0.442E-02
DAV:  15    -0.371836024353E+02   -0.23662E-03   -0.48700E-05   174   0.613E-02    0.396E-02
DAV:  16    -0.371837902547E+02   -0.18782E-03   -0.36408E-05   174   0.613E-02    0.141E-02
DAV:  17    -0.371839054976E+02   -0.11524E-03   -0.13847E-05   184   0.284E-02    0.166E-02
DAV:  18    -0.371840570524E+02   -0.15155E-03   -0.95873E-06   174   0.335E-02    0.117E-02
DAV:  19    -0.371842117595E+02   -0.15471E-03   -0.78701E-06   176   0.161E-02    0.675E-03
DAV:  20    -0.371843140023E+02   -0.10224E-03   -0.41239E-06   176   0.138E-02    0.393E-03
DAV:  21    -0.371843811469E+02   -0.67145E-04   -0.22266E-06   176   0.890E-03
   5 F= -.37184381E+02 E0= -.37194280E+02  d E =-.624628E-01  mag=     8.0271
       N       E                     dE             d eps       ncg     rms          rms(c)
DAV:   1    -0.371817819685E+02    0.25320E-02   -0.13503E+01   264   0.132E+01    0.135E+00
DAV:   2    -0.373491420248E+02   -0.16736E+00   -0.74614E-01   356   0.122E+01    0.826E+00
DAV:   3    -0.371726533811E+02    0.17649E+00   -0.59501E-01   332   0.116E+01    0.166E+00
DAV:   4    -0.372122509314E+02   -0.39598E-01   -0.11487E-01   396   0.506E+00    0.247E+00
DAV:   5    -0.372027862107E+02    0.94647E-02   -0.64734E-02   324   0.385E+00    0.120E+00
DAV:   6    -0.372044779049E+02   -0.16917E-02   -0.19489E-02   374   0.226E+00    0.886E-01
DAV:   7    -0.372038853594E+02    0.59255E-03   -0.94443E-03   340   0.152E+00    0.544E-01
DAV:   8    -0.372053614803E+02   -0.14761E-02   -0.63738E-03   372   0.132E+00    0.693E-01
DAV:   9    -0.372049427245E+02    0.41876E-03   -0.57160E-03   382   0.115E+00    0.446E-01
DAV:  10    -0.372052296176E+02   -0.28689E-03   -0.23942E-03   358   0.703E-01    0.397E-01
DAV:  11    -0.372051658760E+02    0.63742E-04   -0.25987E-03   326   0.812E-01    0.252E-01
DAV:  12    -0.372055233130E+02   -0.35744E-03   -0.52009E-04   222   0.395E-01    0.171E-01
DAV:  13    -0.372055642694E+02   -0.40956E-04   -0.26492E-04   192   0.258E-01
   6 F= -.37205564E+02 E0= -.37217157E+02  d E =-.211831E-01  mag=     8.0370
       N       E                     dE             d eps       ncg     rms          rms(c)
DAV:   1    -0.371589109466E+02    0.46612E-01   -0.31196E+01   264   0.201E+01    0.210E+00
DAV:   2    -0.375665579351E+02   -0.40765E+00   -0.17734E+00   340   0.194E+01    0.123E+01
DAV:   3    -0.371689194689E+02    0.39764E+00   -0.14948E+00   316   0.178E+01    0.284E+00
DAV:   4    -0.372285790695E+02   -0.59660E-01   -0.25889E-01   380   0.821E+00    0.377E+00
DAV:   5    -0.372137519259E+02    0.14827E-01   -0.17492E-01   348   0.582E+00    0.226E+00
DAV:   6    -0.372141568868E+02   -0.40496E-03   -0.65562E-02   332   0.393E+00    0.151E+00
DAV:   7    -0.372126214181E+02    0.15355E-02   -0.24307E-02   348   0.245E+00    0.651E-01
DAV:   8    -0.372169546398E+02   -0.43332E-02   -0.13874E-02   356   0.194E+00    0.111E+00
DAV:   9    -0.372148815449E+02    0.20731E-02   -0.13251E-02   356   0.169E+00    0.596E-01
DAV:  10    -0.372164315048E+02   -0.15500E-02   -0.60444E-03   390   0.121E+00    0.733E-01
DAV:  11    -0.372155631567E+02    0.86835E-03   -0.58021E-03   374   0.135E+00    0.329E-01
DAV:  12    -0.372165257022E+02   -0.96255E-03   -0.10540E-03   300   0.523E-01    0.266E-01
DAV:  13    -0.372165932766E+02   -0.67574E-04   -0.66131E-04   240   0.426E-01
   7 F= -.37216593E+02 E0= -.37230621E+02  d E =-.322121E-01  mag=     8.0504
       N       E                     dE             d eps       ncg     rms          rms(c)
DAV:   1    -0.372075819080E+02    0.89438E-02   -0.14997E+01   264   0.143E+01    0.161E+00
DAV:   2    -0.374517293594E+02   -0.24415E+00   -0.94633E-01   342   0.147E+01    0.106E+01
DAV:   3    -0.371830973545E+02    0.26863E+00   -0.95764E-01   308   0.135E+01    0.148E+00
DAV:   4    -0.372360702817E+02   -0.52973E-01   -0.12185E-01   386   0.526E+00    0.193E+00
DAV:   5    -0.372366576122E+02   -0.58733E-03   -0.75963E-02   352   0.425E+00    0.179E+00
DAV:   6    -0.372304864079E+02    0.61712E-02   -0.26070E-02   324   0.256E+00    0.753E-01
DAV:   7    -0.372328816247E+02   -0.23952E-02   -0.10558E-02   372   0.154E+00    0.670E-01
DAV:   8    -0.372348529493E+02   -0.19713E-02   -0.66031E-03   390   0.132E+00    0.668E-01
DAV:   9    -0.372355050677E+02   -0.65212E-03   -0.64742E-03   360   0.133E+00    0.867E-01
DAV:  10    -0.372339654905E+02    0.15396E-02   -0.49626E-03   366   0.107E+00    0.400E-01
DAV:  11    -0.372348829070E+02   -0.91742E-03   -0.16746E-03   332   0.821E-01    0.306E-01
DAV:  12    -0.372352159396E+02   -0.33303E-03   -0.77296E-04   254   0.465E-01    0.156E-01
DAV:  13    -0.372354303982E+02   -0.21446E-03   -0.23693E-04   182   0.249E-01    0.530E-02
DAV:  14    -0.372355930743E+02   -0.16268E-03   -0.70877E-05   174   0.957E-02    0.341E-02
DAV:  15    -0.372357264227E+02   -0.13335E-03   -0.31852E-05   176   0.508E-02    0.202E-02
DAV:  16    -0.372358162111E+02   -0.89788E-04   -0.14850E-05   176   0.375E-02
   8 F= -.37235816E+02 E0= -.37252101E+02  d E =-.192229E-01  mag=     8.0576
       N       E                     dE             d eps       ncg     rms          rms(c)
DAV:   1    -0.372356497837E+02    0.76639E-04   -0.15329E+00   264   0.457E+00    0.500E-01
DAV:   2    -0.372566807345E+02   -0.21031E-01   -0.83895E-02   364   0.444E+00    0.317E+00
DAV:   3    -0.372297348323E+02    0.26946E-01   -0.74045E-02   324   0.421E+00    0.524E-01
DAV:   4    -0.372392630391E+02   -0.95282E-02   -0.15457E-02   394   0.188E+00    0.101E+00
DAV:   5    -0.372372348503E+02    0.20282E-02   -0.78648E-03   330   0.158E+00    0.375E-01
DAV:   6    -0.372378787846E+02   -0.64393E-03   -0.15301E-03   298   0.702E-01    0.194E-01
DAV:   7    -0.372380621720E+02   -0.18339E-03   -0.70665E-04   278   0.480E-01    0.188E-01
DAV:   8    -0.372384302001E+02   -0.36803E-03   -0.78620E-04   212   0.421E-01    0.266E-01
DAV:   9    -0.372383913396E+02    0.38860E-04   -0.68177E-04   180   0.390E-01
   9 F= -.37238391E+02 E0= -.37254837E+02  d E =-.217981E-01  mag=     8.0591
       N       E                     dE             d eps       ncg     rms          rms(c)
DAV:   1    -0.372316818153E+02    0.67484E-02   -0.93925E+00   264   0.110E+01    0.104E+00
DAV:   2    -0.373117540217E+02   -0.80072E-01   -0.39423E-01   398   0.810E+00    0.570E+00
DAV:   3    -0.372297250728E+02    0.82029E-01   -0.25532E-01   332   0.827E+00    0.128E+00
DAV:   4    -0.372566190853E+02   -0.26894E-01   -0.75763E-02   388   0.402E+00    0.238E+00
DAV:   5    -0.372426705449E+02    0.13949E-01   -0.45902E-02   348   0.323E+00    0.502E-01
DAV:   6    -0.372474379046E+02   -0.47674E-02   -0.68576E-03   350   0.135E+00    0.524E-01
DAV:   7    -0.372475336323E+02   -0.95728E-04   -0.54044E-03   352   0.122E+00    0.527E-01
DAV:   8    -0.372479911145E+02   -0.45748E-03   -0.46146E-03   350   0.104E+00    0.520E-01
DAV:   9    -0.372481202147E+02   -0.12910E-03   -0.42556E-03   344   0.102E+00    0.527E-01
DAV:  10    -0.372476945939E+02    0.42562E-03   -0.23379E-03   308   0.771E-01    0.249E-01
DAV:  11    -0.372483389966E+02   -0.64440E-03   -0.11640E-03   294   0.639E-01    0.287E-01
DAV:  12    -0.372482771996E+02    0.61797E-04   -0.62690E-04   236   0.460E-01
  10 F= -.37248277E+02 E0= -.37264231E+02  d E =-.988586E-02  mag=     8.0540
       N       E                     dE             d eps       ncg     rms          rms(c)
DAV:   1    -0.372443580626E+02    0.39809E-02   -0.28910E+00   264   0.607E+00    0.585E-01
DAV:   2    -0.372707678426E+02   -0.26410E-01   -0.12818E-01   396   0.471E+00    0.341E+00
DAV:   3    -0.372405417102E+02    0.30226E-01   -0.85942E-02   340   0.468E+00    0.685E-01
DAV:   4    -0.372518805103E+02   -0.11339E-01   -0.23195E-02   378   0.232E+00    0.139E+00
DAV:   5    -0.372468798330E+02    0.50007E-02   -0.13517E-02   354   0.187E+00    0.278E-01
DAV:   6    -0.372488579384E+02   -0.19781E-02   -0.21250E-03   364   0.768E-01    0.302E-01
DAV:   7    -0.372487912261E+02    0.66712E-04   -0.16434E-03   300   0.689E-01    0.267E-01
DAV:   8    -0.372490862563E+02   -0.29503E-03   -0.12751E-03   276   0.556E-01    0.238E-01
DAV:   9    -0.372492664387E+02   -0.18018E-03   -0.13216E-03   244   0.543E-01    0.342E-01
DAV:  10    -0.372490245792E+02    0.24186E-03   -0.91403E-04   212   0.456E-01    0.159E-01
DAV:  11    -0.372493148599E+02   -0.29028E-03   -0.40622E-04   172   0.365E-01    0.179E-01
DAV:  12    -0.372493690133E+02   -0.54153E-04   -0.22765E-04   182   0.275E-01
  11 F= -.37249369E+02 E0= -.37264786E+02  d E =-.109777E-01  mag=     8.0475
       N       E                     dE             d eps       ncg     rms          rms(c)
DAV:   1    -0.372338698101E+02    0.15445E-01   -0.11037E+01   264   0.117E+01    0.116E+00
DAV:   2    -0.373562752690E+02   -0.12241E+00   -0.63144E-01   396   0.104E+01    0.676E+00
DAV:   3    -0.372289290979E+02    0.12735E+00   -0.36159E-01   332   0.968E+00    0.136E+00
DAV:   4    -0.372566446697E+02   -0.27716E-01   -0.70777E-02   396   0.421E+00    0.202E+00
DAV:   5    -0.372499061969E+02    0.67385E-02   -0.36434E-02   340   0.340E+00    0.102E+00
DAV:   6    -0.372510278293E+02   -0.11216E-02   -0.10975E-02   348   0.185E+00    0.480E-01
DAV:   7    -0.372516015733E+02   -0.57374E-03   -0.62943E-03   350   0.119E+00    0.514E-01
DAV:   8    -0.372521244669E+02   -0.52289E-03   -0.46273E-03   396   0.972E-01    0.394E-01
DAV:   9    -0.372528463478E+02   -0.72188E-03   -0.38200E-03   308   0.995E-01    0.649E-01
DAV:  10    -0.372518277096E+02    0.10186E-02   -0.32078E-03   300   0.852E-01    0.305E-01
DAV:  11    -0.372526018087E+02   -0.77410E-03   -0.12314E-03   284   0.637E-01    0.253E-01
DAV:  12    -0.372528211090E+02   -0.21930E-03   -0.61812E-04   204   0.403E-01    0.133E-01
DAV:  13    -0.372530602524E+02   -0.23914E-03   -0.16226E-04   174   0.202E-01    0.404E-02
DAV:  14    -0.372532658106E+02   -0.20556E-03   -0.54125E-05   176   0.714E-02    0.186E-02
DAV:  15    -0.372533800400E+02   -0.11423E-03   -0.22085E-05   160   0.372E-02    0.127E-02
DAV:  16    -0.372535080533E+02   -0.12801E-03   -0.97890E-06   164   0.285E-02    0.125E-02
DAV:  17    -0.372536545311E+02   -0.14648E-03   -0.73207E-06   184   0.229E-02    0.778E-03
DAV:  18    -0.372537805579E+02   -0.12603E-03   -0.57062E-06   166   0.183E-02    0.579E-03
DAV:  19    -0.372538520082E+02   -0.71450E-04   -0.34258E-06   166   0.124E-02
  12 F= -.37253852E+02 E0= -.37268314E+02  d E =-.448299E-02  mag=     8.0329
       N       E                     dE             d eps       ncg     rms          rms(c)
DAV:   1    -0.372538643160E+02   -0.83758E-04   -0.30857E-02   264   0.620E-01    0.589E-02
DAV:   2    -0.372541346462E+02   -0.27033E-03   -0.12711E-03   374   0.499E-01    0.359E-01
DAV:   3    -0.372536206275E+02    0.51402E-03   -0.81653E-04   234   0.479E-01    0.852E-02
DAV:   4    -0.372539498341E+02   -0.32921E-03   -0.18510E-04   162   0.246E-01    0.124E-01
DAV:   5    -0.372539052604E+02    0.44574E-04   -0.11729E-04   154   0.195E-01
  13 F= -.37253905E+02 E0= -.37268368E+02  d E =-.453625E-02  mag=     8.0319
       N       E                     dE             d eps       ncg     rms          rms(c)
DAV:   1    -0.372508153677E+02    0.31345E-02   -0.35548E+00   264   0.679E+00    0.631E-01
DAV:   2    -0.372752104886E+02   -0.24395E-01   -0.13590E-01   390   0.484E+00    0.310E+00
DAV:   3    -0.372506905924E+02    0.24520E-01   -0.98249E-02   308   0.489E+00    0.992E-01
DAV:   4    -0.372585197742E+02   -0.78292E-02   -0.27196E-02   348   0.243E+00    0.124E+00
DAV:   5    -0.372559537974E+02    0.25660E-02   -0.10510E-02   316   0.195E+00    0.597E-01
DAV:   6    -0.372562326996E+02   -0.27890E-03   -0.25698E-03   332   0.106E+00    0.199E-01
DAV:   7    -0.372571638232E+02   -0.93112E-03   -0.28960E-03   344   0.734E-01    0.533E-01
DAV:   8    -0.372567144683E+02    0.44935E-03   -0.23498E-03   340   0.704E-01    0.286E-01
DAV:   9    -0.372572133082E+02   -0.49884E-03   -0.10279E-03   286   0.594E-01    0.352E-01
DAV:  10    -0.372569825499E+02    0.23076E-03   -0.77611E-04   244   0.491E-01    0.125E-01
DAV:  11    -0.372572913701E+02   -0.30882E-03   -0.37065E-04   182   0.344E-01    0.147E-01
DAV:  12    -0.372573031107E+02   -0.11741E-04   -0.16778E-04   180   0.231E-01
  14 F= -.37257303E+02 E0= -.37272010E+02  d E =-.339785E-02  mag=     8.0309
       N       E                     dE             d eps       ncg     rms          rms(c)
DAV:   1    -0.372558215507E+02    0.14698E-02   -0.10345E+00   264   0.366E+00    0.345E-01
DAV:   2    -0.372631976321E+02   -0.73761E-02   -0.41231E-02   388   0.272E+00    0.178E+00
DAV:   3    -0.372544448383E+02    0.87528E-02   -0.30472E-02   308   0.272E+00    0.505E-01
DAV:   4    -0.372580697979E+02   -0.36250E-02   -0.82323E-03   364   0.134E+00    0.729E-01
DAV:   5    -0.372569925469E+02    0.10773E-02   -0.31987E-03   300   0.108E+00    0.304E-01
DAV:   6    -0.372573485285E+02   -0.35598E-03   -0.83798E-04   282   0.567E-01    0.140E-01
DAV:   7    -0.372575098777E+02   -0.16135E-03   -0.71778E-04   206   0.361E-01    0.235E-01
DAV:   8    -0.372575736563E+02   -0.63779E-04   -0.52293E-04   180   0.335E-01
  15 F= -.37257574E+02 E0= -.37272224E+02  d E =-.366840E-02  mag=     8.0311
       N       E                     dE             d eps       ncg     rms          rms(c)
DAV:   1    -0.372510424362E+02    0.64674E-02   -0.42834E+00   264   0.748E+00    0.678E-01
DAV:   2    -0.372812227929E+02   -0.30180E-01   -0.17600E-01   396   0.487E+00    0.375E+00
DAV:   3    -0.372464914353E+02    0.34731E-01   -0.13676E-01   324   0.514E+00    0.913E-01
DAV:   4    -0.372605832006E+02   -0.14092E-01   -0.20563E-02   356   0.252E+00    0.121E+00
DAV:   5    -0.372570548896E+02    0.35283E-02   -0.10535E-02   316   0.201E+00    0.540E-01
DAV:   6    -0.372583098456E+02   -0.12550E-02   -0.50479E-03   366   0.113E+00    0.558E-01
DAV:   7    -0.372578687466E+02    0.44110E-03   -0.34898E-03   334   0.882E-01    0.284E-01
DAV:   8    -0.372586310501E+02   -0.76230E-03   -0.21618E-03   320   0.710E-01    0.388E-01
DAV:   9    -0.372584583398E+02    0.17271E-03   -0.14290E-03   312   0.758E-01    0.333E-01
DAV:  10    -0.372584088652E+02    0.49475E-04   -0.61899E-04   212   0.424E-01
  16 F= -.37258409E+02 E0= -.37273130E+02  d E =-.835209E-03  mag=     8.0305
       N       E                     dE             d eps       ncg     rms          rms(c)
DAV:   1    -0.372584817068E+02   -0.23367E-04   -0.17591E-01   266   0.158E+00    0.292E-01
DAV:   2    -0.372715547469E+02   -0.13073E-01   -0.33372E-02   388   0.325E+00    0.250E+00
DAV:   3    -0.372535061428E+02    0.18049E-01   -0.34843E-02   332   0.309E+00    0.359E-01
DAV:   4    -0.372586313757E+02   -0.51252E-02   -0.34198E-03   370   0.874E-01    0.344E-01
DAV:   5    -0.372588676188E+02   -0.23624E-03   -0.10077E-03   290   0.532E-01    0.168E-01
DAV:   6    -0.372589803929E+02   -0.11277E-03   -0.39022E-04   172   0.335E-01    0.126E-01
DAV:   7    -0.372589991133E+02   -0.18720E-04   -0.16149E-04   162   0.195E-01
  17 F= -.37258999E+02 E0= -.37273824E+02  d E =-.142546E-02  mag=     8.0305
       N       E                     dE             d eps       ncg     rms          rms(c)
DAV:   1    -0.372580297050E+02    0.95069E-03   -0.90201E-01   264   0.333E+00    0.278E-01
DAV:   2    -0.372615481921E+02   -0.35185E-02   -0.24193E-02   396   0.186E+00    0.117E+00
DAV:   3    -0.372583162776E+02    0.32319E-02   -0.15113E-02   316   0.205E+00    0.577E-01
DAV:   4    -0.372597697479E+02   -0.14535E-02   -0.56893E-03   340   0.117E+00    0.511E-01
DAV:   5    -0.372592792899E+02    0.49046E-03   -0.20475E-03   308   0.867E-01    0.248E-01
DAV:   6    -0.372595189707E+02   -0.23968E-03   -0.70034E-04   252   0.502E-01    0.173E-01
DAV:   7    -0.372595335651E+02   -0.14594E-04   -0.46260E-04   172   0.347E-01
  18 F= -.37259534E+02 E0= -.37274015E+02  d E =-.534452E-03  mag=     8.0293
       N       E                     dE             d eps       ncg     rms          rms(c)
DAV:   1    -0.372596610586E+02   -0.14209E-03   -0.46784E-03   374   0.364E-01    0.155E-01
DAV:   2    -0.372636080721E+02   -0.39470E-02   -0.13189E-02   358   0.178E+00    0.139E+00
DAV:   3    -0.372574247584E+02    0.61833E-02   -0.11554E-02   346   0.164E+00    0.216E-01
DAV:   4    -0.372595045538E+02   -0.20798E-02   -0.65078E-04   250   0.425E-01    0.110E-01
DAV:   5    -0.372597529140E+02   -0.24836E-03   -0.18597E-04   170   0.226E-01    0.765E-02
DAV:   6    -0.372597772726E+02   -0.24359E-04   -0.13101E-04   160   0.170E-01
  19 F= -.37259777E+02 E0= -.37274312E+02  d E =-.778159E-03  mag=     8.0288
