 vasp.6.1.2 22Jul20 (build Aug  2 2021 21:04:21) gamma-only                      
 executed on             LinuxPGI date 2021.12.22  13:53:03
 running on   16 total cores
 distrk:  each k-point on   16 cores,    1 groups
 distr:  one band on NCORE=   8 cores,    2 groups


--------------------------------------------------------------------------------------------------------


 INCAR:
 POTCAR:    PAW_PBE Ni 02Aug2007                  
 POTCAR:    PAW_PBE Pd 04Jan2005                  
 -----------------------------------------------------------------------------
|                                                                             |
|           W    W    AA    RRRRR   N    N  II  N    N   GGGG   !!!           |
|           W    W   A  A   R    R  NN   N  II  NN   N  G    G  !!!           |
|           W    W  A    A  R    R  N N  N  II  N N  N  G       !!!           |
|           W WW W  AAAAAA  RRRRR   N  N N  II  N  N N  G  GGG   !            |
|           WW  WW  A    A  R   R   N   NN  II  N   NN  G    G                |
|           W    W  A    A  R    R  N    N  II  N    N   GGGG   !!!           |
|                                                                             |
|     You use a magnetic or noncollinear calculation, but did not specify     |
|     the initial magnetic moment with the MAGMOM tag. Note that a            |
|     default of 1 will be used for all atoms. This ferromagnetic setup       |
|     may break the symmetry of the crystal, in particular it may rule        |
|     out finding an antiferromagnetic solution. Thence, we recommend         |
|     setting the initial magnetic moment manually or verifying carefully     |
|     that this magnetic setup is desired.                                    |
|                                                                             |
 -----------------------------------------------------------------------------

 POTCAR:    PAW_PBE Ni 02Aug2007                  
   SHA256 =  0534bc51ca8003dfef23f56753fef9fdd3e22eac8d719fccacb59f3e6b7a69c7 Ni/POTCAR             
   COPYR  = (c) Copyright 02Aug2007 Georg Kresse                                                    
   COPYR  = This file is part of the software VASP. Any use, copying, and all other rights are regul
   COPYR  = If you do not have a valid VASP license, you may not use, copy or distribute this file. 
   VRHFIN =Ni:                                                                                      
   LEXCH  = PE                                                                                      
   EATOM  =  1077.6739 eV,   79.2068 Ry                                                             
                                                                                                    
   TITEL  = PAW_PBE Ni 02Aug2007                                                                    
   LULTRA =        F    use ultrasoft PP ?                                                          
   IUNSCR =        1    unscreen: 0-lin 1-nonlin 2-no                                               
   RPACOR =    2.000    partial core radius                                                         
   POMASS =   58.690; ZVAL   =   10.000    mass and valenz                                          
   RCORE  =    2.300    outmost cutoff radius                                                       
   RWIGS  =    2.430; RWIGS  =    1.286    wigner-seitz radius (au A)                               
   ENMAX  =  269.532; ENMIN  =  202.149 eV                                                          
   RCLOC  =    1.201    cutoff for local pot                                                        
   LCOR   =        T    correct aug charges                                                         
   LPAW   =        T    paw PP                                                                      
   EAUG   =  544.565                                                                                
   DEXC   =    0.000                                                                                
   RMAX   =    2.357    core radius for proj-oper                                                   
   RAUG   =    1.300    factor for augmentation sphere                                              
   RDEP   =    2.390    radius for radial grids                                                     
   RDEPT  =    1.838    core radius for aug-charge                                                  
                                                                                                    
   Atomic configuration                                                                             
    9 entries                                                                                       
     n  l   j            E        occ.                                                              
     1  0  0.50     -8206.4253   2.0000                                                             
     2  0  0.50      -976.1748   2.0000                                                             
     2  1  1.50      -839.0571   6.0000                                                             
     3  0  0.50      -105.9991   2.0000                                                             
     3  1  1.50       -66.4603   6.0000                                                             
     3  2  2.50        -4.6458   9.0000                                                             
     4  0  0.50        -4.4926   1.0000                                                             
     4  1  1.50        -4.0817   0.0000                                                             
     4  3  2.50        -1.3606   0.0000                                                             
   Description                                                                                      
     l       E           TYP  RCUT    TYP  RCUT                                                     
     2     -4.6457903     23  2.300                                                                 
     2     -6.0063729     23  2.300                                                                 
     0     -4.4925590     23  2.300                                                                 
     0      5.0102601     23  2.300                                                                 
     1     -2.7211652     23  2.300                                                                 
     1     16.5183231     23  2.300                                                                 
  local pseudopotential read in
  partial core-charges read in
  partial kinetic energy density read in
  atomic valenz-charges read in
  non local Contribution for L=            2  read in
    real space projection operators read in
  non local Contribution for L=            2  read in
    real space projection operators read in
  non local Contribution for L=            0  read in
    real space projection operators read in
  non local Contribution for L=            0  read in
    real space projection operators read in
  non local Contribution for L=            1  read in
    real space projection operators read in
  non local Contribution for L=            1  read in
    real space projection operators read in
    PAW grid and wavefunctions read in
 
   number of l-projection  operators is LMAX  =            6
   number of lm-projection operators is LMMAX =           18
 
 POTCAR:    PAW_PBE Pd 04Jan2005                  
   SHA256 =  dd6f6f02930356371984e2b707ff5e456046761dc76b07c1eba30abd15eb3c39 Pd/POTCAR             
   COPYR  = (c) Copyright 04Jan2005 Georg Kresse                                                    
   COPYR  = This file is part of the software VASP. Any use, copying, and all other rights are regul
   COPYR  = If you do not have a valid VASP license, you may not use, copy or distribute this file. 
   VRHFIN =Pd : s1 d9                                                                               
   LEXCH  = PE                                                                                      
   EATOM  =   809.7530 eV,   59.5152 Ry                                                             
                                                                                                    
   TITEL  = PAW_PBE Pd 04Jan2005                                                                    
   LULTRA =        F    use ultrasoft PP ?                                                          
   IUNSCR =        1    unscreen: 0-lin 1-nonlin 2-no                                               
   RPACOR =    2.000    partial core radius                                                         
   POMASS =  106.420; ZVAL   =   10.000    mass and valenz                                          
   RCORE  =    2.600    outmost cutoff radius                                                       
   RWIGS  =    2.710; RWIGS  =    1.434    wigner-seitz radius (au A)                               
   ENMAX  =  250.925; ENMIN  =  188.194 eV                                                          
   ICORE  =        3    local potential                                                             
   LCOR   =        T    correct aug charges                                                         
   LPAW   =        T    paw PP                                                                      
   EAUG   =  416.230                                                                                
   DEXC   =    0.000                                                                                
   RMAX   =    2.653    core radius for proj-oper                                                   
   RAUG   =    1.300    factor for augmentation sphere                                              
   RDEP   =    2.734    radius for radial grids                                                     
   RDEPT  =    2.103    core radius for aug-charge                                                  
                                                                                                    
   Atomic configuration                                                                             
   12 entries                                                                                       
     n  l   j            E        occ.                                                              
     1  0  0.50    -24164.6631   2.0000                                                             
     2  0  0.50     -3530.9218   2.0000                                                             
     2  1  1.50     -3165.6822   6.0000                                                             
     3  0  0.50      -639.4577   2.0000                                                             
     3  1  1.50      -519.4532   6.0000                                                             
     3  2  2.50      -328.9757  10.0000                                                             
     4  0  0.50       -88.7014   2.0000                                                             
     4  1  1.50       -54.4540   6.0000                                                             
     4  2  2.50        -6.6878   9.0000                                                             
     5  0  0.50        -4.3543   1.0000                                                             
     5  1  0.50        -1.3606   0.0000                                                             
     4  3  2.50        -1.3606   0.0000                                                             
   Description                                                                                      
     l       E           TYP  RCUT    TYP  RCUT                                                     
     2     -6.6878251     23  2.400                                                                 
     2     -8.0484077     23  2.400                                                                 
     0     -4.3542939     23  2.400                                                                 
     0      4.3406793     23  2.400                                                                 
     1     -4.0817478     23  2.600                                                                 
     1     15.8380318     23  2.600                                                                 
     3     -4.0817478     23  2.400                                                                 
  local pseudopotential read in
  partial core-charges read in
  partial kinetic energy density read in
  atomic valenz-charges read in
  non local Contribution for L=            2  read in
    real space projection operators read in
  non local Contribution for L=            2  read in
    real space projection operators read in
  non local Contribution for L=            0  read in
    real space projection operators read in
  non local Contribution for L=            0  read in
    real space projection operators read in
  non local Contribution for L=            1  read in
    real space projection operators read in
  non local Contribution for L=            1  read in
    real space projection operators read in
    PAW grid and wavefunctions read in
 
   number of l-projection  operators is LMAX  =            6
   number of lm-projection operators is LMMAX =           18
 
  PAW_PBE Ni 02Aug2007                  :
 energy of atom  1       EATOM=-1077.6739
 kinetic energy error for atom=    0.0101 (will be added to EATOM!!)
  PAW_PBE Pd 04Jan2005                  :
 energy of atom  2       EATOM= -809.7530
 kinetic energy error for atom=    0.0091 (will be added to EATOM!!)
 
 
 POSCAR: Ni Pd
  positions in cartesian coordinates
  No initial velocities read in
 exchange correlation table for  LEXCH =        8
   RHO(1)=    0.500       N(1)  =     2000
   RHO(2)=  100.500       N(2)  =     4000
 


--------------------------------------------------------------------------------------------------------


 ion  position               nearest neighbor table
   1  0.582  0.540  0.482-   3 2.40   2 2.40   8 2.47   7 2.50  10 2.53   5 2.86
   2  0.551  0.504  0.396-   4 2.37   1 2.40   3 2.45  10 2.53
   3  0.485  0.576  0.444-   1 2.40   5 2.40   2 2.45   4 2.48   7 2.64
   4  0.447  0.474  0.420-   2 2.37   5 2.39   3 2.48  10 2.52
   5  0.457  0.504  0.511-   4 2.39   3 2.40   6 2.41   7 2.45   9 2.46  10 2.48   8 2.68   1 2.86

   6  0.478  0.414  0.561-   5 2.41   8 2.47   9 2.56  10 2.57
   7  0.511  0.593  0.545-   5 2.45   1 2.50   9 2.63   3 2.64   8 2.64
   8  0.564  0.489  0.566-   1 2.47   6 2.47   9 2.54   7 2.64  10 2.67   5 2.68
   9  0.458  0.514  0.608-   5 2.46   8 2.54   6 2.56   7 2.63
  10  0.538  0.435  0.475-   5 2.48   4 2.52   1 2.53   2 2.53   6 2.57   8 2.67
 

IMPORTANT INFORMATION: All symmetrisations will be switched off!
NOSYMM: (Re-)initialisation of all symmetry stuff for point group C_1.


----------------------------------------------------------------------------------------

                                     Primitive cell                                     

  volume of cell :   11907.2696

  direct lattice vectors                    reciprocal lattice vectors
    21.080059166  0.000000000  0.000000000     0.047438197  0.000000000  0.000000000
     0.000000000 22.294181948  0.000000000     0.000000000  0.044854752  0.000000000
     0.000000000  0.000000000 25.336628331     0.000000000  0.000000000  0.039468551

  length of vectors
    21.080059166 22.294181948 25.336628331     0.047438197  0.044854752  0.039468551

  position of ions in fractional coordinates (direct lattice)
     0.582243506  0.540445456  0.481596818
     0.550941024  0.504221563  0.396184826
     0.484861398  0.576229899  0.444350385
     0.447267577  0.474235756  0.420350449
     0.456983899  0.504187794  0.510754423
     0.477783613  0.414209933  0.560528721
     0.510796017  0.593440835  0.545031065
     0.563986242  0.488971932  0.566382339
     0.457601238  0.513847740  0.607608693
     0.538473151  0.435263733  0.474645599

  ion indices of the primitive-cell ions
   primitive index   ion index
                 1           1
                 2           2
                 3           3
                 4           4
                 5           5
                 6           6
                 7           7
                 8           8
                 9           9
                10          10

----------------------------------------------------------------------------------------

 
 
 KPOINTS: KPOINTS created by Atomic Simulation Env

Automatic generation of k-mesh.
Space group operators:
 irot       det(A)        alpha          n_x          n_y          n_z        tau_x        tau_y        tau_z
    1     1.000000     0.000000     1.000000     0.000000     0.000000     0.000000     0.000000     0.000000
 
 Subroutine IBZKPT returns following result:
 ===========================================
 
 Found      1 irreducible k-points:
 
 Following reciprocal coordinates:
            Coordinates               Weight
  0.000000  0.000000  0.000000      1.000000
 
 Following cartesian coordinates:
            Coordinates               Weight
  0.000000  0.000000  0.000000      1.000000
 


--------------------------------------------------------------------------------------------------------




 Dimension of arrays:
   k-points           NKPTS =      1   k-points in BZ     NKDIM =      1   number of bands    NBANDS=     66
   number of dos      NEDOS =    301   number of ions     NIONS =     10
   non local maximal  LDIM  =      6   non local SUM 2l+1 LMDIM =     18
   total plane-waves  NPLWV = ******
   max r-space proj   IRMAX =      1   max aug-charges    IRDMAX=   6408
   dimension x,y,z NGX =   108 NGY =  112 NGZ =  126
   dimension x,y,z NGXF=   216 NGYF=  224 NGZF=  252
   support grid    NGXF=   216 NGYF=  224 NGZF=  252
   ions per type =               6   4
   NGX,Y,Z   is equivalent  to a cutoff of   8.52,  8.35,  8.27 a.u.
   NGXF,Y,Z  is equivalent  to a cutoff of  17.03, 16.70, 16.53 a.u.

 SYSTEM =  unknown system                          
 POSCAR =  Ni Pd                                   

 Startparameter for this run:
   NWRITE =      2    write-flag & timer
   PREC   = normal    normal or accurate (medium, high low for compatibility)
   ISTART =      0    job   : 0-new  1-cont  2-samecut
   ICHARG =      2    charge: 1-file 2-atom 10-const
   ISPIN  =      2    spin polarized calculation?
   LNONCOLLINEAR =      F non collinear calculations
   LSORBIT =      F    spin-orbit coupling
   INIWAV =      1    electr: 0-lowe 1-rand  2-diag
   LASPH  =      F    aspherical Exc in radial PAW
   METAGGA=      F    non-selfconsistent MetaGGA calc.

 Electronic Relaxation 1
   ENCUT  =  400.0 eV  29.40 Ry    5.42 a.u.  34.38 36.36 41.32*2*pi/ulx,y,z
   ENINI  =  400.0     initial cutoff
   ENAUG  =  544.6 eV  augmentation charge cutoff
   NELM   =     60;   NELMIN=  2; NELMDL=  0     # of ELM steps 
   EDIFF  = 0.1E-03   stopping-criterion for ELM
   LREAL  =      F    real-space projection
   NLSPLINE    = F    spline interpolate recip. space projectors
   LCOMPAT=      F    compatible to vasp.4.4
   GGA_COMPAT  = T    GGA compatible to vasp.4.4-vasp.4.6
   LMAXPAW     = -100 max onsite density
   LMAXMIX     =    2 max onsite mixed and CHGCAR
   VOSKOWN=      0    Vosko Wilk Nusair interpolation
   ROPT   =    0.00000   0.00000
 Ionic relaxation
   EDIFFG = 0.1E-02   stopping-criterion for IOM
   NSW    =   1000    number of steps for IOM
   NBLOCK =      1;   KBLOCK =   1000    inner block; outer block 
   IBRION =      2    ionic relax: 0-MD 1-quasi-New 2-CG
   NFREE  =      1    steps in history (QN), initial steepest desc. (CG)
   ISIF   =      0    stress and relaxation
   IWAVPR =     11    prediction:  0-non 1-charg 2-wave 3-comb
   ISYM   =      0    0-nonsym 1-usesym 2-fastsym
   LCORR  =      T    Harris-Foulkes like correction to forces

   POTIM  = 0.5000    time-step for ionic-motion
   TEIN   =    0.0    initial temperature
   TEBEG  =    0.0;   TEEND  =   0.0 temperature during run
   SMASS  =  -3.00    Nose mass-parameter (am)
   estimated Nose-frequenzy (Omega)   =  0.10E-29 period in steps = 0.13E+47 mass=  -0.102E-25a.u.
   SCALEE = 1.0000    scale energy and forces
   NPACO  =    256;   APACO  = 16.0  distance and # of slots for P.C.
   PSTRESS=    0.0 pullay stress

  Mass of Ions in am
   POMASS =  58.69106.42
  Ionic Valenz
   ZVAL   =  10.00 10.00
  Atomic Wigner-Seitz radii
   RWIGS  =  -1.00 -1.00
  virtual crystal weights 
   VCA    =   1.00  1.00
   NELECT =     100.0000    total number of electrons
   NUPDOWN=      -1.0000    fix difference up-down

 DOS related values:
   EMIN   =  10.00;   EMAX   =-10.00  energy-range for DOS
   EFERMI =   0.00
   ISMEAR =     1;   SIGMA  =   0.20  broadening in eV -4-tet -1-fermi 0-gaus

 Electronic relaxation 2 (details)
   IALGO  =     38    algorithm
   LDIAG  =      T    sub-space diagonalisation (order eigenvalues)
   LSUBROT=      F    optimize rotation matrix (better conditioning)
   TURBO    =      0    0=normal 1=particle mesh
   IRESTART =      0    0=no restart 2=restart with 2 vectors
   NREBOOT  =      0    no. of reboots
   NMIN     =      0    reboot dimension
   EREF     =   0.00    reference energy to select bands
   IMIX   =      4    mixing-type and parameters
     AMIX     =   0.40;   BMIX     =  1.00
     AMIX_MAG =   1.60;   BMIX_MAG =  1.00
     AMIN     =   0.10
     WC   =   100.;   INIMIX=   1;  MIXPRE=   1;  MAXMIX= -45

 Intra band minimization:
   WEIMIN = 0.0010     energy-eigenvalue tresh-hold
   EBREAK =  0.38E-06  absolut break condition
   DEPER  =   0.30     relativ break condition  

   TIME   =   0.40     timestep for ELM

  volume/ion in A,a.u.               =    1190.73      8035.42
  Fermi-wavevector in a.u.,A,eV,Ry     =   0.332765  0.628834  1.506606  0.110732
  Thomas-Fermi vector in A             =   1.230050
 
 Write flags
   LWAVE        =      F    write WAVECAR
   LDOWNSAMPLE  =      F    k-point downsampling of WAVECAR
   LCHARG       =      F    write CHGCAR
   LVTOT        =      F    write LOCPOT, total local potential
   LVHAR        =      F    write LOCPOT, Hartree potential only
   LELF         =      F    write electronic localiz. function (ELF)
   LORBIT       =      0    0 simple, 1 ext, 2 COOP (PROOUT), +10 PAW based schemes


 Dipole corrections
   LMONO  =      F    monopole corrections only (constant potential shift)
   LDIPOL =      F    correct potential (dipole corrections)
   IDIPOL =      0    1-x, 2-y, 3-z, 4-all directions 
   EPSILON=  1.0000000 bulk dielectric constant

 Exchange correlation treatment:
   GGA     =    PE    GGA type
   LEXCH   =     8    internal setting for exchange type
   VOSKOWN=      0    Vosko Wilk Nusair interpolation
   LHFCALC =     F    Hartree Fock is set to
   LHFONE  =     F    Hartree Fock one center treatment
   AEXX    =    0.0000 exact exchange contribution

 Linear response parameters
   LEPSILON=     F    determine dielectric tensor
   LRPA    =     F    only Hartree local field effects (RPA)
   LNABLA  =     F    use nabla operator in PAW spheres
   LVEL    =     F    velocity operator in full k-point grid
   LINTERFAST=   F  fast interpolation
   KINTER  =     0    interpolate to denser k-point grid
   CSHIFT  =0.1000    complex shift for real part using Kramers Kronig
   OMEGAMAX=  -1.0    maximum frequency
   DEG_THRESHOLD= 0.2000000E-02 threshold for treating states as degnerate
   RTIME   =   -0.100 relaxation time in fs
  (WPLASMAI=    0.000 imaginary part of plasma frequency in eV, 0.658/RTIME)
   DFIELD  = 0.0000000 0.0000000 0.0000000 field for delta impulse in time
 
 Orbital magnetization related:
   ORBITALMAG=     F  switch on orbital magnetization
   LCHIMAG   =     F  perturbation theory with respect to B field
   DQ        =  0.001000  dq finite difference perturbation B field
   LLRAUG    =     F  two centre corrections for induced B field



--------------------------------------------------------------------------------------------------------


 conjugate gradient relaxation of ions
 charge density and potential will be updated during run
 spin polarized calculation
 Variant of blocked Davidson
 Davidson routine will perform the subspace rotation
 perform sub-space diagonalisation
    after iterative eigenvector-optimisation
 modified Broyden-mixing scheme, WC =      100.0
 initial mixing is a Kerker type mixing with AMIX =  0.4000 and BMIX =      1.0000
 Hartree-type preconditioning will be used
 using additional bands            16
 reciprocal scheme for non local part
 use partial core corrections
 calculate Harris-corrections to forces 
   (improved forces if not selfconsistent)
 use gradient corrections 
 use of overlap-Matrix (Vanderbilt PP)
 Methfessel and Paxton  Order N= 1 SIGMA  =   0.20


--------------------------------------------------------------------------------------------------------


  energy-cutoff  :      400.00
  volume of cell :    11907.27
      direct lattice vectors                 reciprocal lattice vectors
    21.080059166  0.000000000  0.000000000     0.047438197  0.000000000  0.000000000
     0.000000000 22.294181948  0.000000000     0.000000000  0.044854752  0.000000000
     0.000000000  0.000000000 25.336628331     0.000000000  0.000000000  0.039468551

  length of vectors
    21.080059166 22.294181948 25.336628331     0.047438197  0.044854752  0.039468551


 
 k-points in units of 2pi/SCALE and weight: KPOINTS created by Atomic Simulation Env
   0.00000000  0.00000000  0.00000000       1.000
 
 k-points in reciprocal lattice and weights: KPOINTS created by Atomic Simulation Env
   0.00000000  0.00000000  0.00000000       1.000
 
 position of ions in fractional coordinates (direct lattice) 
   0.58224351  0.54044546  0.48159682
   0.55094102  0.50422156  0.39618483
   0.48486140  0.57622990  0.44435039
   0.44726758  0.47423576  0.42035045
   0.45698390  0.50418779  0.51075442
   0.47778361  0.41420993  0.56052872
   0.51079602  0.59344084  0.54503106
   0.56398624  0.48897193  0.56638234
   0.45760124  0.51384774  0.60760869
   0.53847315  0.43526373  0.47464560
 
 position of ions in cartesian coordinates  (Angst):
  12.27372755 12.04878933 12.20203957
  11.61386938 11.24120726 10.03798767
  10.22090696 12.84657422 11.25834056
   9.42842699 10.57269823 10.65026310
   9.63324763 11.24045442 12.94079497
  10.07170683  9.23447162 14.20190786
  10.76761025 13.23027796 13.80924951
  11.88886336 10.90122922 14.35021882
   9.64626116 11.45581501 15.39475563
  11.35104587  9.70384887 12.02591912
 


--------------------------------------------------------------------------------------------------------


 use parallel FFT for orbitals z direction half grid
 k-point   1 :   0.0000 0.0000 0.0000  plane waves:  108168

 maximum and minimum number of plane-waves per node :     13525    13518

 maximum number of plane-waves:    108168
 maximum index in each direction: 
   IXMAX=   34   IYMAX=   36   IZMAX=   41
   IXMIN=  -34   IYMIN=  -36   IZMIN=    0


 parallel 3D FFT for wavefunctions:
    minimum data exchange during FFTs selected (reduces bandwidth)
 parallel 3D FFT for charge:
    minimum data exchange during FFTs selected (reduces bandwidth)


 total amount of memory used by VASP MPI-rank0   160554. kBytes
=======================================================================

   base      :      30000. kBytes
   nonl-proj :       6056. kBytes
   fftplans  :      30693. kBytes
   grid      :      79478. kBytes
   one-center:         31. kBytes
   wavefun   :      14296. kBytes
 
     INWAV:  cpu time    0.0000: real time    0.0000
 Broyden mixing: mesh for mixing (old mesh)
   NGX = 69   NGY = 73   NGZ = 83
  (NGX  =216   NGY  =224   NGZ  =252)
  gives a total of 418071 points

 initial charge density was supplied:
 charge density of overlapping atoms calculated
 number of electron     100.0000000 magnetization      10.0000000
 keeping initial charge density in first step


--------------------------------------------------------------------------------------------------------


 Maximum index for augmentation-charges           385 (set IRDMAX)


--------------------------------------------------------------------------------------------------------


 First call to EWALD:  gamma=   0.078
 Maximum number of real-space cells 3x 3x 3
 Maximum number of reciprocal cells 3x 3x 3

    FEWALD:  cpu time    0.0012: real time    0.0012


--------------------------------------- Iteration      1(   1)  ---------------------------------------


    POTLOK:  cpu time    2.4588: real time    2.4673
    SETDIJ:  cpu time    0.0215: real time    0.0215
     EDDAV:  cpu time    6.2659: real time    6.2744
       DOS:  cpu time    0.0056: real time    0.0056
    --------------------------------------------
      LOOP:  cpu time    8.7517: real time    8.7688

 eigenvalue-minimisations  :   280
 total energy-change (2. order) : 0.6985258E+03  (-0.1619161E+04)
 number of electron     100.0000000 magnetization      10.0000000
 augmentation part      100.0000000 magnetization      10.0000000

 Free energy of the ion-electron system (eV)
  ---------------------------------------------------
  alpha Z        PSCENC =         4.75925485
  Ewald energy   TEWEN  =     12664.72451038
  -Hartree energ DENC   =    -21646.24050718
  -exchange      EXHF   =         0.00000000
  -V(xc)+E(xc)   XCENC  =        62.75049838
  PAW double counting   =      9003.59075477    -9155.75339974
  entropy T*S    EENTRO =        -0.02604808
  eigenvalues    EBANDS =        59.76209981
  atomic energy  EATOM  =      9704.95859309
  Solvation  Ediel_sol  =         0.00000000
  ---------------------------------------------------
  free energy    TOTEN  =       698.52575628 eV

  energy without entropy =      698.55180436  energy(sigma->0) =      698.53443897


--------------------------------------------------------------------------------------------------------




--------------------------------------- Iteration      1(   2)  ---------------------------------------


     EDDAV:  cpu time    9.4995: real time    9.5089
       DOS:  cpu time    0.0057: real time    0.0057
    --------------------------------------------
      LOOP:  cpu time    9.5052: real time    9.5146

 eigenvalue-minimisations  :   488
 total energy-change (2. order) :-0.4544800E+03  (-0.4191877E+03)
 number of electron     100.0000000 magnetization      10.0000000
 augmentation part      100.0000000 magnetization      10.0000000

 Free energy of the ion-electron system (eV)
  ---------------------------------------------------
  alpha Z        PSCENC =         4.75925485
  Ewald energy   TEWEN  =     12664.72451038
  -Hartree energ DENC   =    -21646.24050718
  -exchange      EXHF   =         0.00000000
  -V(xc)+E(xc)   XCENC  =        62.75049838
  PAW double counting   =      9003.59075477    -9155.75339974
  entropy T*S    EENTRO =        -0.01560432
  eigenvalues    EBANDS =      -394.72839273
  atomic energy  EATOM  =      9704.95859309
  Solvation  Ediel_sol  =         0.00000000
  ---------------------------------------------------
  free energy    TOTEN  =       244.04570750 eV

  energy without entropy =      244.06131182  energy(sigma->0) =      244.05090894


--------------------------------------------------------------------------------------------------------




--------------------------------------- Iteration      1(   3)  ---------------------------------------


     EDDAV:  cpu time    8.2248: real time    8.2351
       DOS:  cpu time    0.0057: real time    0.0057
    --------------------------------------------
      LOOP:  cpu time    8.2304: real time    8.2408

 eigenvalue-minimisations  :   408
 total energy-change (2. order) :-0.2269888E+03  (-0.2108523E+03)
 number of electron     100.0000000 magnetization      10.0000000
 augmentation part      100.0000000 magnetization      10.0000000

 Free energy of the ion-electron system (eV)
  ---------------------------------------------------
  alpha Z        PSCENC =         4.75925485
  Ewald energy   TEWEN  =     12664.72451038
  -Hartree energ DENC   =    -21646.24050718
  -exchange      EXHF   =         0.00000000
  -V(xc)+E(xc)   XCENC  =        62.75049838
  PAW double counting   =      9003.59075477    -9155.75339974
  entropy T*S    EENTRO =         0.01964723
  eigenvalues    EBANDS =      -621.75243095
  atomic energy  EATOM  =      9704.95859309
  Solvation  Ediel_sol  =         0.00000000
  ---------------------------------------------------
  free energy    TOTEN  =        17.05692083 eV

  energy without entropy =       17.03727359  energy(sigma->0) =       17.05037175


--------------------------------------------------------------------------------------------------------




--------------------------------------- Iteration      1(   4)  ---------------------------------------


     EDDAV:  cpu time    7.8391: real time    7.8470
       DOS:  cpu time    0.0056: real time    0.0056
    --------------------------------------------
      LOOP:  cpu time    7.8447: real time    7.8526

 eigenvalue-minimisations  :   384
 total energy-change (2. order) :-0.5391713E+02  (-0.4540559E+02)
 number of electron     100.0000000 magnetization      10.0000000
 augmentation part      100.0000000 magnetization      10.0000000

 Free energy of the ion-electron system (eV)
  ---------------------------------------------------
  alpha Z        PSCENC =         4.75925485
  Ewald energy   TEWEN  =     12664.72451038
  -Hartree energ DENC   =    -21646.24050718
  -exchange      EXHF   =         0.00000000
  -V(xc)+E(xc)   XCENC  =        62.75049838
  PAW double counting   =      9003.59075477    -9155.75339974
  entropy T*S    EENTRO =         0.01320998
  eigenvalues    EBANDS =      -675.66312210
  atomic energy  EATOM  =      9704.95859309
  Solvation  Ediel_sol  =         0.00000000
  ---------------------------------------------------
  free energy    TOTEN  =       -36.86020758 eV

  energy without entropy =      -36.87341756  energy(sigma->0) =      -36.86461090


--------------------------------------------------------------------------------------------------------




--------------------------------------- Iteration      1(   5)  ---------------------------------------


     EDDAV:  cpu time    6.9220: real time    6.9312
       DOS:  cpu time    0.0048: real time    0.0048
    CHARGE:  cpu time    0.6625: real time    0.6653
    MIXING:  cpu time    0.0389: real time    0.0390
    --------------------------------------------
      LOOP:  cpu time    7.6283: real time    7.6403

 eigenvalue-minimisations  :   326
 total energy-change (2. order) :-0.6300512E+01  (-0.4732971E+01)
 number of electron      99.9999725 magnetization       9.8132857
 augmentation part       52.0631659 magnetization       7.9757514

 Broyden mixing:
  rms(total) = 0.28792E+01    rms(broyden)= 0.28786E+01
  rms(prec ) = 0.30292E+01
  weight for this iteration     100.00

 Free energy of the ion-electron system (eV)
  ---------------------------------------------------
  alpha Z        PSCENC =         4.75925485
  Ewald energy   TEWEN  =     12664.72451038
  -Hartree energ DENC   =    -21646.24050718
  -exchange      EXHF   =         0.00000000
  -V(xc)+E(xc)   XCENC  =        62.75049838
  PAW double counting   =      9003.59075477    -9155.75339974
  entropy T*S    EENTRO =        -0.00612707
  eigenvalues    EBANDS =      -681.94429688
  atomic energy  EATOM  =      9704.95859309
  Solvation  Ediel_sol  =         0.00000000
  ---------------------------------------------------
  free energy    TOTEN  =       -43.16071941 eV

  energy without entropy =      -43.15459233  energy(sigma->0) =      -43.15867705


--------------------------------------------------------------------------------------------------------




--------------------------------------- Iteration      1(   6)  ---------------------------------------


    POTLOK:  cpu time    2.4694: real time    2.4756
    SETDIJ:  cpu time    0.0222: real time    0.0222
     EDDAV:  cpu time    6.5124: real time    6.5213
       DOS:  cpu time    0.0029: real time    0.0029
    CHARGE:  cpu time    0.6767: real time    0.6773
    MIXING:  cpu time    0.0441: real time    0.0442
    --------------------------------------------
      LOOP:  cpu time    9.7278: real time    9.7435

 eigenvalue-minimisations  :   300
 total energy-change (2. order) :-0.2402452E+02  (-0.1324448E+02)
 number of electron      99.9999655 magnetization       9.6198029
 augmentation part       55.5414384 magnetization       8.7910710

 Broyden mixing:
  rms(total) = 0.60113E+01    rms(broyden)= 0.60110E+01
  rms(prec ) = 0.64129E+01
  weight for this iteration     100.00

 eigenvalues of (default mixing * dielectric matrix)
  average eigenvalue GAMMA=   0.2914
  0.2914

 Free energy of the ion-electron system (eV)
  ---------------------------------------------------
  alpha Z        PSCENC =         4.75925485
  Ewald energy   TEWEN  =     12664.72451038
  -Hartree energ DENC   =    -21568.14543944
  -exchange      EXHF   =         0.00000000
  -V(xc)+E(xc)   XCENC  =        59.92263465
  PAW double counting   =      9428.21941075    -9553.29542129
  entropy T*S    EENTRO =        -0.00599601
  eigenvalues    EBANDS =      -808.32278819
  atomic energy  EATOM  =      9704.95859309
  Solvation  Ediel_sol  =         0.00000000
  ---------------------------------------------------
  free energy    TOTEN  =       -67.18524122 eV

  energy without entropy =      -67.17924520  energy(sigma->0) =      -67.18324254


--------------------------------------------------------------------------------------------------------




--------------------------------------- Iteration      1(   7)  ---------------------------------------


    POTLOK:  cpu time    2.4900: real time    2.4949
    SETDIJ:  cpu time    0.0225: real time    0.0225
     EDDAV:  cpu time    7.3857: real time    7.3975
       DOS:  cpu time    0.0026: real time    0.0026
    CHARGE:  cpu time    0.6841: real time    0.6848
    MIXING:  cpu time    0.0531: real time    0.0553
    --------------------------------------------
      LOOP:  cpu time   10.6379: real time   10.6577

 eigenvalue-minimisations  :   356
 total energy-change (2. order) : 0.2526735E+02  (-0.6211592E+01)
 number of electron      99.9999684 magnetization       9.5580195
 augmentation part       55.2868862 magnetization       8.0218099

 Broyden mixing:
  rms(total) = 0.38987E+01    rms(broyden)= 0.38981E+01
  rms(prec ) = 0.41236E+01
  weight for this iteration     100.00

 eigenvalues of (default mixing * dielectric matrix)
  average eigenvalue GAMMA=   0.2219
  0.2219  0.2219

 Free energy of the ion-electron system (eV)
  ---------------------------------------------------
  alpha Z        PSCENC =         4.75925485
  Ewald energy   TEWEN  =     12664.72451038
  -Hartree energ DENC   =    -21602.45135691
  -exchange      EXHF   =         0.00000000
  -V(xc)+E(xc)   XCENC  =        60.47495254
  PAW double counting   =      9560.89971480    -9709.47982841
  entropy T*S    EENTRO =        -0.00333032
  eigenvalues    EBANDS =      -725.80039873
  atomic energy  EATOM  =      9704.95859309
  Solvation  Ediel_sol  =         0.00000000
  ---------------------------------------------------
  free energy    TOTEN  =       -41.91788870 eV

  energy without entropy =      -41.91455838  energy(sigma->0) =      -41.91677859


--------------------------------------------------------------------------------------------------------




--------------------------------------- Iteration      1(   8)  ---------------------------------------


    POTLOK:  cpu time    2.4751: real time    2.4786
    SETDIJ:  cpu time    0.0249: real time    0.0249
     EDDAV:  cpu time    7.3632: real time    7.3709
       DOS:  cpu time    0.0056: real time    0.0056
    CHARGE:  cpu time    0.6527: real time    0.6556
    MIXING:  cpu time    0.0477: real time    0.0478
    --------------------------------------------
      LOOP:  cpu time   10.5692: real time   10.5833

 eigenvalue-minimisations  :   352
 total energy-change (2. order) : 0.3802070E+01  (-0.2800685E+01)
 number of electron      99.9999682 magnetization       9.5070768
 augmentation part       56.2175927 magnetization       7.3346566

 Broyden mixing:
  rms(total) = 0.38973E+01    rms(broyden)= 0.38968E+01
  rms(prec ) = 0.41136E+01
  weight for this iteration     100.00

 eigenvalues of (default mixing * dielectric matrix)
  average eigenvalue GAMMA=   0.2091
  0.2509  0.2509  0.1254

 Free energy of the ion-electron system (eV)
  ---------------------------------------------------
  alpha Z        PSCENC =         4.75925485
  Ewald energy   TEWEN  =     12664.72451038
  -Hartree energ DENC   =    -21607.10175945
  -exchange      EXHF   =         0.00000000
  -V(xc)+E(xc)   XCENC  =        60.85116932
  PAW double counting   =      9609.75780653    -9758.08784761
  entropy T*S    EENTRO =         0.02105976
  eigenvalues    EBANDS =      -717.99860586
  atomic energy  EATOM  =      9704.95859309
  Solvation  Ediel_sol  =         0.00000000
  ---------------------------------------------------
  free energy    TOTEN  =       -38.11581899 eV

  energy without entropy =      -38.13687875  energy(sigma->0) =      -38.12283891


--------------------------------------------------------------------------------------------------------




--------------------------------------- Iteration      1(   9)  ---------------------------------------


    POTLOK:  cpu time    2.4619: real time    2.4672
    SETDIJ:  cpu time    0.0229: real time    0.0229
     EDDAV:  cpu time    6.7063: real time    6.7134
       DOS:  cpu time    0.0050: real time    0.0050
    CHARGE:  cpu time    0.6544: real time    0.6550
    MIXING:  cpu time    0.0515: real time    0.0538
    --------------------------------------------
      LOOP:  cpu time    9.9020: real time    9.9173

 eigenvalue-minimisations  :   312
 total energy-change (2. order) :-0.2702094E+00  (-0.2155162E+01)
 number of electron      99.9999720 magnetization       9.3458066
 augmentation part       55.4100066 magnetization       7.0420414

 Broyden mixing:
  rms(total) = 0.28380E+01    rms(broyden)= 0.28374E+01
  rms(prec ) = 0.29769E+01
  weight for this iteration     100.00

 eigenvalues of (default mixing * dielectric matrix)
  average eigenvalue GAMMA=   0.2995
  0.6464  0.2532  0.1493  0.1493

 Free energy of the ion-electron system (eV)
  ---------------------------------------------------
  alpha Z        PSCENC =         4.75925485
  Ewald energy   TEWEN  =     12664.72451038
  -Hartree energ DENC   =    -21627.08795591
  -exchange      EXHF   =         0.00000000
  -V(xc)+E(xc)   XCENC  =        61.13604003
  PAW double counting   =      9670.27521135    -9821.22513013
  entropy T*S    EENTRO =        -0.03209868
  eigenvalues    EBANDS =      -695.89445332
  atomic energy  EATOM  =      9704.95859309
  Solvation  Ediel_sol  =         0.00000000
  ---------------------------------------------------
  free energy    TOTEN  =       -38.38602834 eV

  energy without entropy =      -38.35392967  energy(sigma->0) =      -38.37532879


--------------------------------------------------------------------------------------------------------




--------------------------------------- Iteration      1(  10)  ---------------------------------------


    POTLOK:  cpu time    2.4724: real time    2.4744
    SETDIJ:  cpu time    0.0232: real time    0.0232
     EDDAV:  cpu time    7.2183: real time    7.2275
       DOS:  cpu time    0.0026: real time    0.0027
    CHARGE:  cpu time    0.6499: real time    0.6505
    MIXING:  cpu time    0.0559: real time    0.0559
    --------------------------------------------
      LOOP:  cpu time   10.4223: real time   10.4342

 eigenvalue-minimisations  :   344
 total energy-change (2. order) : 0.3056264E+01  (-0.1314914E+01)
 number of electron      99.9999687 magnetization       9.2968924
 augmentation part       54.8072985 magnetization       6.4522682

 Broyden mixing:
  rms(total) = 0.28819E+01    rms(broyden)= 0.28815E+01
  rms(prec ) = 0.30327E+01
  weight for this iteration     100.00

 eigenvalues of (default mixing * dielectric matrix)
  average eigenvalue GAMMA=   0.2908
  0.7552  0.2787  0.1506  0.1506  0.1189

 Free energy of the ion-electron system (eV)
  ---------------------------------------------------
  alpha Z        PSCENC =         4.75925485
  Ewald energy   TEWEN  =     12664.72451038
  -Hartree energ DENC   =    -21668.60069662
  -exchange      EXHF   =         0.00000000
  -V(xc)+E(xc)   XCENC  =        62.62435077
  PAW double counting   =      9840.66930835   -10000.41446567
  entropy T*S    EENTRO =         0.02981220
  eigenvalues    EBANDS =      -644.08043175
  atomic energy  EATOM  =      9704.95859309
  Solvation  Ediel_sol  =         0.00000000
  ---------------------------------------------------
  free energy    TOTEN  =       -35.32976440 eV

  energy without entropy =      -35.35957661  energy(sigma->0) =      -35.33970180


--------------------------------------------------------------------------------------------------------




--------------------------------------- Iteration      1(  11)  ---------------------------------------


    POTLOK:  cpu time    2.4821: real time    2.4866
    SETDIJ:  cpu time    0.0239: real time    0.0239
     EDDAV:  cpu time    7.3390: real time    7.3462
       DOS:  cpu time    0.0022: real time    0.0022
    CHARGE:  cpu time    0.6487: real time    0.6493
    MIXING:  cpu time    0.0613: real time    0.0614
    --------------------------------------------
      LOOP:  cpu time   10.5571: real time   10.5696

 eigenvalue-minimisations  :   350
 total energy-change (2. order) : 0.2409585E-01  (-0.1383430E+01)
 number of electron      99.9999712 magnetization       9.2229001
 augmentation part       54.2265395 magnetization       6.4653091

 Broyden mixing:
  rms(total) = 0.25332E+01    rms(broyden)= 0.25328E+01
  rms(prec ) = 0.26663E+01
  weight for this iteration     100.00

 eigenvalues of (default mixing * dielectric matrix)
  average eigenvalue GAMMA=   0.3011
  0.8041  0.3833  0.1946  0.1946  0.1365  0.0937

 Free energy of the ion-electron system (eV)
  ---------------------------------------------------
  alpha Z        PSCENC =         4.75925485
  Ewald energy   TEWEN  =     12664.72451038
  -Hartree energ DENC   =    -21680.35478485
  -exchange      EXHF   =         0.00000000
  -V(xc)+E(xc)   XCENC  =        62.75454792
  PAW double counting   =      9890.29731565   -10052.36839285
  entropy T*S    EENTRO =        -0.00382258
  eigenvalues    EBANDS =      -630.07289015
  atomic energy  EATOM  =      9704.95859309
  Solvation  Ediel_sol  =         0.00000000
  ---------------------------------------------------
  free energy    TOTEN  =       -35.30566856 eV

  energy without entropy =      -35.30184597  energy(sigma->0) =      -35.30439436


--------------------------------------------------------------------------------------------------------




--------------------------------------- Iteration      1(  12)  ---------------------------------------


    POTLOK:  cpu time    2.4738: real time    2.4791
    SETDIJ:  cpu time    0.0224: real time    0.0224
     EDDAV:  cpu time    7.8810: real time    7.8913
       DOS:  cpu time    0.0017: real time    0.0017
    CHARGE:  cpu time    0.6465: real time    0.6472
    MIXING:  cpu time    0.0740: real time    0.0763
    --------------------------------------------
      LOOP:  cpu time   11.0995: real time   11.1179

 eigenvalue-minimisations  :   382
 total energy-change (2. order) :-0.8889315E+00  (-0.7277839E+00)
 number of electron      99.9999734 magnetization       9.1769865
 augmentation part       54.2904772 magnetization       6.3774692

 Broyden mixing:
  rms(total) = 0.33730E+01    rms(broyden)= 0.33726E+01
  rms(prec ) = 0.35462E+01
  weight for this iteration     100.00

 eigenvalues of (default mixing * dielectric matrix)
  average eigenvalue GAMMA=   0.3021
  0.8687  0.5139  0.1998  0.1998  0.1458  0.0934  0.0934

 Free energy of the ion-electron system (eV)
  ---------------------------------------------------
  alpha Z        PSCENC =         4.75925485
  Ewald energy   TEWEN  =     12664.72451038
  -Hartree energ DENC   =    -21685.85795724
  -exchange      EXHF   =         0.00000000
  -V(xc)+E(xc)   XCENC  =        62.53838915
  PAW double counting   =      9952.76075026   -10115.90198599
  entropy T*S    EENTRO =         0.03588633
  eigenvalues    EBANDS =      -624.21204094
  atomic energy  EATOM  =      9704.95859309
  Solvation  Ediel_sol  =         0.00000000
  ---------------------------------------------------
  free energy    TOTEN  =       -36.19460010 eV

  energy without entropy =      -36.23048644  energy(sigma->0) =      -36.20656221


--------------------------------------------------------------------------------------------------------




--------------------------------------- Iteration      1(  13)  ---------------------------------------


    POTLOK:  cpu time    2.4635: real time    2.4709
    SETDIJ:  cpu time    0.0222: real time    0.0222
     EDDAV:  cpu time    7.0217: real time    7.0309
       DOS:  cpu time    0.0030: real time    0.0030
    CHARGE:  cpu time    0.6493: real time    0.6500
    MIXING:  cpu time    0.0743: real time    0.0744
    --------------------------------------------
      LOOP:  cpu time   10.2340: real time   10.2513

 eigenvalue-minimisations  :   330
 total energy-change (2. order) : 0.1733148E+01  (-0.3471335E+00)
 number of electron      99.9999691 magnetization       9.1125711
 augmentation part       54.3080205 magnetization       6.5448725

 Broyden mixing:
  rms(total) = 0.18957E+01    rms(broyden)= 0.18952E+01
  rms(prec ) = 0.20032E+01
  weight for this iteration     100.00

 eigenvalues of (default mixing * dielectric matrix)
  average eigenvalue GAMMA=   0.3385
  1.0417  0.4767  0.4767  0.1888  0.1888  0.1635  0.0858  0.0858

 Free energy of the ion-electron system (eV)
  ---------------------------------------------------
  alpha Z        PSCENC =         4.75925485
  Ewald energy   TEWEN  =     12664.72451038
  -Hartree energ DENC   =    -21688.53078844
  -exchange      EXHF   =         0.00000000
  -V(xc)+E(xc)   XCENC  =        62.38853867
  PAW double counting   =      9989.14436652   -10152.91452763
  entropy T*S    EENTRO =        -0.02590864
  eigenvalues    EBANDS =      -618.96549135
  atomic energy  EATOM  =      9704.95859309
  Solvation  Ediel_sol  =         0.00000000
  ---------------------------------------------------
  free energy    TOTEN  =       -34.46145256 eV

  energy without entropy =      -34.43554392  energy(sigma->0) =      -34.45281635


--------------------------------------------------------------------------------------------------------




--------------------------------------- Iteration      1(  14)  ---------------------------------------


    POTLOK:  cpu time    2.4646: real time    2.4670
    SETDIJ:  cpu time    0.0225: real time    0.0225
     EDDAV:  cpu time    7.6644: real time    7.6746
       DOS:  cpu time    0.0012: real time    0.0012
    CHARGE:  cpu time    0.6480: real time    0.6489
    MIXING:  cpu time    0.0815: real time    0.0816
    --------------------------------------------
      LOOP:  cpu time   10.8822: real time   10.8958

 eigenvalue-minimisations  :   370
 total energy-change (2. order) :-0.7000353E-01  (-0.2893196E+00)
 number of electron      99.9999689 magnetization       9.0884601
 augmentation part       54.4351195 magnetization       6.5761188

 Broyden mixing:
  rms(total) = 0.83759E+00    rms(broyden)= 0.83668E+00
  rms(prec ) = 0.86910E+00
  weight for this iteration     100.00

 eigenvalues of (default mixing * dielectric matrix)
  average eigenvalue GAMMA=   0.3323
  0.9930  0.4971  0.4971  0.2366  0.2366  0.1789  0.1789  0.0863  0.0863

 Free energy of the ion-electron system (eV)
  ---------------------------------------------------
  alpha Z        PSCENC =         4.75925485
  Ewald energy   TEWEN  =     12664.72451038
  -Hartree energ DENC   =    -21687.39225667
  -exchange      EXHF   =         0.00000000
  -V(xc)+E(xc)   XCENC  =        61.96425604
  PAW double counting   =     10021.17284534   -10185.09233557
  entropy T*S    EENTRO =        -0.02625598
  eigenvalues    EBANDS =      -619.60006756
  atomic energy  EATOM  =      9704.95859309
  Solvation  Ediel_sol  =         0.00000000
  ---------------------------------------------------
  free energy    TOTEN  =       -34.53145609 eV

  energy without entropy =      -34.50520011  energy(sigma->0) =      -34.52270410


--------------------------------------------------------------------------------------------------------




--------------------------------------- Iteration      1(  15)  ---------------------------------------


    POTLOK:  cpu time    2.4912: real time    2.4965
    SETDIJ:  cpu time    0.0226: real time    0.0226
     EDDAV:  cpu time    7.6059: real time    7.6186
       DOS:  cpu time    0.0019: real time    0.0019
    CHARGE:  cpu time    0.6710: real time    0.6717
    MIXING:  cpu time    0.0863: real time    0.0864
    --------------------------------------------
      LOOP:  cpu time   10.8789: real time   10.8977

 eigenvalue-minimisations  :   366
 total energy-change (2. order) :-0.3025683E+00  (-0.3072606E-01)
 number of electron      99.9999690 magnetization       9.0773011
 augmentation part       54.4008987 magnetization       6.6431482

 Broyden mixing:
  rms(total) = 0.86414E+00    rms(broyden)= 0.86388E+00
  rms(prec ) = 0.90288E+00
  weight for this iteration     100.00

 eigenvalues of (default mixing * dielectric matrix)
  average eigenvalue GAMMA=   0.3010
  0.9871  0.4987  0.4987  0.2387  0.2387  0.1759  0.1759  0.0863  0.0863  0.0239

 Free energy of the ion-electron system (eV)
  ---------------------------------------------------
  alpha Z        PSCENC =         4.75925485
  Ewald energy   TEWEN  =     12664.72451038
  -Hartree energ DENC   =    -21689.76922405
  -exchange      EXHF   =         0.00000000
  -V(xc)+E(xc)   XCENC  =        61.82283151
  PAW double counting   =     10026.62174468   -10190.55425635
  entropy T*S    EENTRO =        -0.01432030
  eigenvalues    EBANDS =      -617.38315822
  atomic energy  EATOM  =      9704.95859309
  Solvation  Ediel_sol  =         0.00000000
  ---------------------------------------------------
  free energy    TOTEN  =       -34.83402441 eV

  energy without entropy =      -34.81970412  energy(sigma->0) =      -34.82925098


--------------------------------------------------------------------------------------------------------




--------------------------------------- Iteration      1(  16)  ---------------------------------------


    POTLOK:  cpu time    2.4760: real time    2.4806
    SETDIJ:  cpu time    0.0246: real time    0.0246
     EDDAV:  cpu time    6.6623: real time    6.6712
       DOS:  cpu time    0.0044: real time    0.0044
    CHARGE:  cpu time    0.6837: real time    0.6843
    MIXING:  cpu time    0.0939: real time    0.0940
    --------------------------------------------
      LOOP:  cpu time    9.9449: real time    9.9591

 eigenvalue-minimisations  :   308
 total energy-change (2. order) :-0.4818794E-01  (-0.3529393E-01)
 number of electron      99.9999689 magnetization       9.0004500
 augmentation part       54.4559774 magnetization       6.5658046

 Broyden mixing:
  rms(total) = 0.87648E+00    rms(broyden)= 0.87639E+00
  rms(prec ) = 0.91891E+00
  weight for this iteration     100.00

 eigenvalues of (default mixing * dielectric matrix)
  average eigenvalue GAMMA=   0.4016
  1.2420  0.7160  0.7160  0.4735  0.4735  0.1840  0.1840  0.1781  0.0864  0.0864
  0.0781

 Free energy of the ion-electron system (eV)
  ---------------------------------------------------
  alpha Z        PSCENC =         4.75925485
  Ewald energy   TEWEN  =     12664.72451038
  -Hartree energ DENC   =    -21689.57502820
  -exchange      EXHF   =         0.00000000
  -V(xc)+E(xc)   XCENC  =        61.76685394
  PAW double counting   =     10028.65748014   -10192.41716803
  entropy T*S    EENTRO =        -0.00805863
  eigenvalues    EBANDS =      -617.74864990
  atomic energy  EATOM  =      9704.95859309
  Solvation  Ediel_sol  =         0.00000000
  ---------------------------------------------------
  free energy    TOTEN  =       -34.88221235 eV

  energy without entropy =      -34.87415373  energy(sigma->0) =      -34.87952614


--------------------------------------------------------------------------------------------------------




--------------------------------------- Iteration      1(  17)  ---------------------------------------


    POTLOK:  cpu time    2.4764: real time    2.4794
    SETDIJ:  cpu time    0.0226: real time    0.0226
     EDDAV:  cpu time    7.6974: real time    7.7058
       DOS:  cpu time    0.0059: real time    0.0059
    CHARGE:  cpu time    0.6657: real time    0.6665
    MIXING:  cpu time    0.0984: real time    0.1007
    --------------------------------------------
      LOOP:  cpu time   10.9664: real time   10.9809

 eigenvalue-minimisations  :   370
 total energy-change (2. order) :-0.2004266E+00  (-0.5904002E-01)
 number of electron      99.9999690 magnetization       8.9148592
 augmentation part       54.4732296 magnetization       6.5233864

 Broyden mixing:
  rms(total) = 0.65895E+00    rms(broyden)= 0.65850E+00
  rms(prec ) = 0.69372E+00
  weight for this iteration     100.00

 eigenvalues of (default mixing * dielectric matrix)
  average eigenvalue GAMMA=   0.4364
  1.4243  0.8477  0.8477  0.4378  0.4378  0.4454  0.1846  0.1846  0.1789  0.0864
  0.0864  0.0757

 Free energy of the ion-electron system (eV)
  ---------------------------------------------------
  alpha Z        PSCENC =         4.75925485
  Ewald energy   TEWEN  =     12664.72451038
  -Hartree energ DENC   =    -21693.80557158
  -exchange      EXHF   =         0.00000000
  -V(xc)+E(xc)   XCENC  =        61.59872965
  PAW double counting   =     10051.29382245   -10215.61578874
  entropy T*S    EENTRO =        -0.00606152
  eigenvalues    EBANDS =      -612.99012752
  atomic energy  EATOM  =      9704.95859309
  Solvation  Ediel_sol  =         0.00000000
  ---------------------------------------------------
  free energy    TOTEN  =       -35.08263895 eV

  energy without entropy =      -35.07657743  energy(sigma->0) =      -35.08061845


--------------------------------------------------------------------------------------------------------




--------------------------------------- Iteration      1(  18)  ---------------------------------------


    POTLOK:  cpu time    2.4560: real time    2.4627
    SETDIJ:  cpu time    0.0223: real time    0.0223
     EDDAV:  cpu time    7.7753: real time    7.7895
       DOS:  cpu time    0.0008: real time    0.0008
    CHARGE:  cpu time    0.6623: real time    0.6629
    MIXING:  cpu time    0.1044: real time    0.1045
    --------------------------------------------
      LOOP:  cpu time   11.0211: real time   11.0428

 eigenvalue-minimisations  :   378
 total energy-change (2. order) :-0.3430029E+00  (-0.2376219E-01)
 number of electron      99.9999691 magnetization       8.8658351
 augmentation part       54.5100701 magnetization       6.5194061

 Broyden mixing:
  rms(total) = 0.35206E+00    rms(broyden)= 0.35161E+00
  rms(prec ) = 0.36807E+00
  weight for this iteration     100.00

 eigenvalues of (default mixing * dielectric matrix)
  average eigenvalue GAMMA=   0.4530
  1.3827  0.8533  0.8533  0.5001  0.5001  0.5016  0.5016  0.1845  0.1845  0.1790
  0.0864  0.0864  0.0758

 Free energy of the ion-electron system (eV)
  ---------------------------------------------------
  alpha Z        PSCENC =         4.75925485
  Ewald energy   TEWEN  =     12664.72451038
  -Hartree energ DENC   =    -21698.37520248
  -exchange      EXHF   =         0.00000000
  -V(xc)+E(xc)   XCENC  =        61.34036862
  PAW double counting   =     10061.86036006   -10226.08198013
  entropy T*S    EENTRO =         0.01881329
  eigenvalues    EBANDS =      -608.63035950
  atomic energy  EATOM  =      9704.95859309
  Solvation  Ediel_sol  =         0.00000000
  ---------------------------------------------------
  free energy    TOTEN  =       -35.42564183 eV

  energy without entropy =      -35.44445512  energy(sigma->0) =      -35.43191293


--------------------------------------------------------------------------------------------------------




--------------------------------------- Iteration      1(  19)  ---------------------------------------


    POTLOK:  cpu time    2.4808: real time    2.4851
    SETDIJ:  cpu time    0.0250: real time    0.0250
     EDDAV:  cpu time    7.2912: real time    7.3030
       DOS:  cpu time    0.0008: real time    0.0008
    CHARGE:  cpu time    0.6430: real time    0.6437
    MIXING:  cpu time    0.1280: real time    0.1281
    --------------------------------------------
      LOOP:  cpu time   10.5689: real time   10.5857

 eigenvalue-minimisations  :   348
 total energy-change (2. order) :-0.1859907E+00  (-0.7206269E-02)
 number of electron      99.9999690 magnetization       8.7817308
 augmentation part       54.5425442 magnetization       6.4299881

 Broyden mixing:
  rms(total) = 0.21864E+00    rms(broyden)= 0.21837E+00
  rms(prec ) = 0.22846E+00
  weight for this iteration     100.00

 eigenvalues of (default mixing * dielectric matrix)
  average eigenvalue GAMMA=   0.4978
  1.5242  0.8965  0.8965  0.7480  0.7480  0.4612  0.4612  0.4373  0.1845  0.1845
  0.1790  0.0864  0.0864  0.0758

 Free energy of the ion-electron system (eV)
  ---------------------------------------------------
  alpha Z        PSCENC =         4.75925485
  Ewald energy   TEWEN  =     12664.72451038
  -Hartree energ DENC   =    -21699.97332599
  -exchange      EXHF   =         0.00000000
  -V(xc)+E(xc)   XCENC  =        61.14183636
  PAW double counting   =     10061.02983989   -10225.10876259
  entropy T*S    EENTRO =         0.01140219
  eigenvalues    EBANDS =      -607.15498067
  atomic energy  EATOM  =      9704.95859309
  Solvation  Ediel_sol  =         0.00000000
  ---------------------------------------------------
  free energy    TOTEN  =       -35.61163249 eV

  energy without entropy =      -35.62303468  energy(sigma->0) =      -35.61543322


--------------------------------------------------------------------------------------------------------




--------------------------------------- Iteration      1(  20)  ---------------------------------------


    POTLOK:  cpu time    2.4650: real time    2.4784
    SETDIJ:  cpu time    0.0229: real time    0.0229
     EDDAV:  cpu time    7.5567: real time    7.5643
       DOS:  cpu time    0.0008: real time    0.0008
    CHARGE:  cpu time    0.6872: real time    0.6879
    MIXING:  cpu time    0.1276: real time    0.1277
    --------------------------------------------
      LOOP:  cpu time   10.8602: real time   10.8820

 eigenvalue-minimisations  :   364
 total energy-change (2. order) :-0.2316384E+00  (-0.4515349E-02)
 number of electron      99.9999689 magnetization       8.7008876
 augmentation part       54.5394370 magnetization       6.3741746

 Broyden mixing:
  rms(total) = 0.24154E+00    rms(broyden)= 0.24148E+00
  rms(prec ) = 0.25429E+00
  weight for this iteration     100.00

 eigenvalues of (default mixing * dielectric matrix)
  average eigenvalue GAMMA=   0.5390
  1.7383  1.0177  1.0177  0.8182  0.8182  0.4734  0.4734  0.4659  0.4659  0.1845
  0.1845  0.1790  0.0864  0.0864  0.0758

 Free energy of the ion-electron system (eV)
  ---------------------------------------------------
  alpha Z        PSCENC =         4.75925485
  Ewald energy   TEWEN  =     12664.72451038
  -Hartree energ DENC   =    -21704.54964215
  -exchange      EXHF   =         0.00000000
  -V(xc)+E(xc)   XCENC  =        60.99062287
  PAW double counting   =     10063.35201849   -10227.46974855
  entropy T*S    EENTRO =         0.00989399
  eigenvalues    EBANDS =      -602.61877383
  atomic energy  EATOM  =      9704.95859309
  Solvation  Ediel_sol  =         0.00000000
  ---------------------------------------------------
  free energy    TOTEN  =       -35.84327086 eV

  energy without entropy =      -35.85316485  energy(sigma->0) =      -35.84656885


--------------------------------------------------------------------------------------------------------




--------------------------------------- Iteration      1(  21)  ---------------------------------------


    POTLOK:  cpu time    2.4667: real time    2.4702
    SETDIJ:  cpu time    0.0218: real time    0.0218
     EDDAV:  cpu time    7.8164: real time    7.8268
       DOS:  cpu time    0.0091: real time    0.0091
    CHARGE:  cpu time    0.6435: real time    0.6441
    MIXING:  cpu time    0.1351: real time    0.1352
    --------------------------------------------
      LOOP:  cpu time   11.0926: real time   11.1072

 eigenvalue-minimisations  :   382
 total energy-change (2. order) :-0.1892629E+00  (-0.4228556E-02)
 number of electron      99.9999688 magnetization       8.6350901
 augmentation part       54.5513157 magnetization       6.3195210

 Broyden mixing:
  rms(total) = 0.14450E+00    rms(broyden)= 0.14435E+00
  rms(prec ) = 0.15186E+00
  weight for this iteration     100.00

 eigenvalues of (default mixing * dielectric matrix)
  average eigenvalue GAMMA=   0.5903
  1.8934  1.8934  0.8755  0.8755  0.6923  0.6923  0.4552  0.4552  0.4081  0.4081
  0.1845  0.1845  0.1790  0.0864  0.0864  0.0758

 Free energy of the ion-electron system (eV)
  ---------------------------------------------------
  alpha Z        PSCENC =         4.75925485
  Ewald energy   TEWEN  =     12664.72451038
  -Hartree energ DENC   =    -21708.12245947
  -exchange      EXHF   =         0.00000000
  -V(xc)+E(xc)   XCENC  =        60.85717474
  PAW double counting   =     10063.01063810   -10227.08001114
  entropy T*S    EENTRO =         0.00452508
  eigenvalues    EBANDS =      -599.14475942
  atomic energy  EATOM  =      9704.95859309
  Solvation  Ediel_sol  =         0.00000000
  ---------------------------------------------------
  free energy    TOTEN  =       -36.03253379 eV

  energy without entropy =      -36.03705887  energy(sigma->0) =      -36.03404215


--------------------------------------------------------------------------------------------------------




--------------------------------------- Iteration      1(  22)  ---------------------------------------


    POTLOK:  cpu time    2.4521: real time    2.4559
    SETDIJ:  cpu time    0.0222: real time    0.0222
     EDDAV:  cpu time    7.2435: real time    7.2571
       DOS:  cpu time    0.0091: real time    0.0092
    CHARGE:  cpu time    0.6609: real time    0.6616
    MIXING:  cpu time    0.1501: real time    0.1525
    --------------------------------------------
      LOOP:  cpu time   10.5379: real time   10.5584

 eigenvalue-minimisations  :   346
 total energy-change (2. order) :-0.1671886E+00  (-0.2687215E-02)
 number of electron      99.9999689 magnetization       8.5924150
 augmentation part       54.5442790 magnetization       6.3056335

 Broyden mixing:
  rms(total) = 0.75112E-01    rms(broyden)= 0.74921E-01
  rms(prec ) = 0.79470E-01
  weight for this iteration     100.00

 eigenvalues of (default mixing * dielectric matrix)
  average eigenvalue GAMMA=   0.6154
  2.0033  2.0033  0.9062  0.9062  0.7653  0.7653  0.4650  0.4650  0.4987  0.4987
  0.3885  0.1845  0.1845  0.1790  0.0864  0.0864  0.0758

 Free energy of the ion-electron system (eV)
  ---------------------------------------------------
  alpha Z        PSCENC =         4.75925485
  Ewald energy   TEWEN  =     12664.72451038
  -Hartree energ DENC   =    -21710.97740586
  -exchange      EXHF   =         0.00000000
  -V(xc)+E(xc)   XCENC  =        60.74293810
  PAW double counting   =     10058.24204690   -10222.23106634
  entropy T*S    EENTRO =         0.00879570
  eigenvalues    EBANDS =      -596.42738925
  atomic energy  EATOM  =      9704.95859309
  Solvation  Ediel_sol  =         0.00000000
  ---------------------------------------------------
  free energy    TOTEN  =       -36.19972243 eV

  energy without entropy =      -36.20851814  energy(sigma->0) =      -36.20265434


--------------------------------------------------------------------------------------------------------




--------------------------------------- Iteration      1(  23)  ---------------------------------------


    POTLOK:  cpu time    2.4530: real time    2.4578
    SETDIJ:  cpu time    0.0226: real time    0.0226
     EDDAV:  cpu time    7.7078: real time    7.7177
       DOS:  cpu time    0.0093: real time    0.0093
    CHARGE:  cpu time    0.6485: real time    0.6492
    MIXING:  cpu time    0.1521: real time    0.1545
    --------------------------------------------
      LOOP:  cpu time   10.9932: real time   11.0110

 eigenvalue-minimisations  :   376
 total energy-change (2. order) :-0.8779445E-01  (-0.9067085E-03)
 number of electron      99.9999689 magnetization       8.5480087
 augmentation part       54.5285743 magnetization       6.2718796

 Broyden mixing:
  rms(total) = 0.39150E-01    rms(broyden)= 0.39065E-01
  rms(prec ) = 0.42236E-01
  weight for this iteration     100.00

 eigenvalues of (default mixing * dielectric matrix)
  average eigenvalue GAMMA=   0.6263
  2.0279  2.0279  0.8629  0.8629  0.9612  0.7501  0.7501  0.4657  0.4657  0.4603
  0.4603  0.3815  0.1845  0.1845  0.1790  0.0864  0.0864  0.0758

 Free energy of the ion-electron system (eV)
  ---------------------------------------------------
  alpha Z        PSCENC =         4.75925485
  Ewald energy   TEWEN  =     12664.72451038
  -Hartree energ DENC   =    -21712.60952479
  -exchange      EXHF   =         0.00000000
  -V(xc)+E(xc)   XCENC  =        60.68177680
  PAW double counting   =     10056.53307044   -10220.56579954
  entropy T*S    EENTRO =         0.01268374
  eigenvalues    EBANDS =      -594.78208184
  atomic energy  EATOM  =      9704.95859309
  Solvation  Ediel_sol  =         0.00000000
  ---------------------------------------------------
  free energy    TOTEN  =       -36.28751688 eV

  energy without entropy =      -36.30020062  energy(sigma->0) =      -36.29174480


--------------------------------------------------------------------------------------------------------




--------------------------------------- Iteration      1(  24)  ---------------------------------------


    POTLOK:  cpu time    2.4604: real time    2.4627
    SETDIJ:  cpu time    0.0231: real time    0.0231
     EDDAV:  cpu time    7.1237: real time    7.1306
       DOS:  cpu time    0.0093: real time    0.0093
    CHARGE:  cpu time    0.6669: real time    0.6676
    MIXING:  cpu time    0.1692: real time    0.1694
    --------------------------------------------
      LOOP:  cpu time   10.4526: real time   10.4627

 eigenvalue-minimisations  :   340
 total energy-change (2. order) :-0.7508077E-01  (-0.3439695E-03)
 number of electron      99.9999689 magnetization       8.5045674
 augmentation part       54.5278689 magnetization       6.2288241

 Broyden mixing:
  rms(total) = 0.33369E-01    rms(broyden)= 0.33322E-01
  rms(prec ) = 0.35623E-01
  weight for this iteration     100.00

 eigenvalues of (default mixing * dielectric matrix)
  average eigenvalue GAMMA=   0.6382
  2.3354  1.9198  0.8512  0.8512  0.7945  0.7945  0.7922  0.7922  0.4656  0.4656
  0.4537  0.4068  0.4068  0.1845  0.1845  0.1790  0.0864  0.0864  0.0758

 Free energy of the ion-electron system (eV)
  ---------------------------------------------------
  alpha Z        PSCENC =         4.75925485
  Ewald energy   TEWEN  =     12664.72451038
  -Hartree energ DENC   =    -21714.06132761
  -exchange      EXHF   =         0.00000000
  -V(xc)+E(xc)   XCENC  =        60.61567669
  PAW double counting   =     10055.70278647   -10219.77209114
  entropy T*S    EENTRO =         0.01181864
  eigenvalues    EBANDS =      -593.30181902
  atomic energy  EATOM  =      9704.95859309
  Solvation  Ediel_sol  =         0.00000000
  ---------------------------------------------------
  free energy    TOTEN  =       -36.36259766 eV

  energy without entropy =      -36.37441630  energy(sigma->0) =      -36.36653721


--------------------------------------------------------------------------------------------------------




--------------------------------------- Iteration      1(  25)  ---------------------------------------


    POTLOK:  cpu time    2.4423: real time    2.4499
    SETDIJ:  cpu time    0.0233: real time    0.0234
     EDDAV:  cpu time    6.8739: real time    6.8807
       DOS:  cpu time    0.0090: real time    0.0090
    CHARGE:  cpu time    0.6428: real time    0.6435
    MIXING:  cpu time    0.1785: real time    0.1787
    --------------------------------------------
      LOOP:  cpu time   10.1699: real time   10.1852

 eigenvalue-minimisations  :   320
 total energy-change (2. order) :-0.6991675E-01  (-0.1856716E-03)
 number of electron      99.9999688 magnetization       8.4653318
 augmentation part       54.5313610 magnetization       6.1913616

 Broyden mixing:
  rms(total) = 0.21464E-01    rms(broyden)= 0.21422E-01
  rms(prec ) = 0.23244E-01
  weight for this iteration     100.00

 eigenvalues of (default mixing * dielectric matrix)
  average eigenvalue GAMMA=   0.6688
  2.5531  1.9418  1.0938  1.0938  0.8536  0.8536  0.7111  0.7111  0.4664  0.4664
  0.5107  0.5107  0.4328  0.3804  0.1845  0.1845  0.1790  0.0864  0.0864  0.0758

 Free energy of the ion-electron system (eV)
  ---------------------------------------------------
  alpha Z        PSCENC =         4.75925485
  Ewald energy   TEWEN  =     12664.72451038
  -Hartree energ DENC   =    -21715.27900784
  -exchange      EXHF   =         0.00000000
  -V(xc)+E(xc)   XCENC  =        60.55636334
  PAW double counting   =     10054.09170293   -10218.14890598
  entropy T*S    EENTRO =         0.01189229
  eigenvalues    EBANDS =      -592.10691747
  atomic energy  EATOM  =      9704.95859309
  Solvation  Ediel_sol  =         0.00000000
  ---------------------------------------------------
  free energy    TOTEN  =       -36.43251441 eV

  energy without entropy =      -36.44440670  energy(sigma->0) =      -36.43647851


--------------------------------------------------------------------------------------------------------




--------------------------------------- Iteration      1(  26)  ---------------------------------------


    POTLOK:  cpu time    2.4608: real time    2.4636
    SETDIJ:  cpu time    0.0216: real time    0.0216
     EDDAV:  cpu time    5.9215: real time    5.9296
       DOS:  cpu time    0.0051: real time    0.0051
    CHARGE:  cpu time    0.6488: real time    0.6495
    MIXING:  cpu time    0.1877: real time    0.1901
    --------------------------------------------
      LOOP:  cpu time    9.2455: real time    9.2595

 eigenvalue-minimisations  :   264
 total energy-change (2. order) :-0.6014453E-01  (-0.1591007E-03)
 number of electron      99.9999689 magnetization       8.4163941
 augmentation part       54.5206514 magnetization       6.1521276

 Broyden mixing:
  rms(total) = 0.27095E-01    rms(broyden)= 0.27059E-01
  rms(prec ) = 0.28925E-01
  weight for this iteration     100.00

 eigenvalues of (default mixing * dielectric matrix)
  average eigenvalue GAMMA=   0.6781
  2.4117  1.7526  1.6142  0.8924  0.8924  0.8510  0.8510  0.7107  0.7107  0.4675
  0.4675  0.5055  0.5055  0.4292  0.3825  0.1845  0.1845  0.1790  0.0864  0.0864
  0.0758

 Free energy of the ion-electron system (eV)
  ---------------------------------------------------
  alpha Z        PSCENC =         4.75925485
  Ewald energy   TEWEN  =     12664.72451038
  -Hartree energ DENC   =    -21716.40048814
  -exchange      EXHF   =         0.00000000
  -V(xc)+E(xc)   XCENC  =        60.51015749
  PAW double counting   =     10052.59750280   -10216.67625745
  entropy T*S    EENTRO =         0.01349287
  eigenvalues    EBANDS =      -590.97942481
  atomic energy  EATOM  =      9704.95859309
  Solvation  Ediel_sol  =         0.00000000
  ---------------------------------------------------
  free energy    TOTEN  =       -36.49265894 eV

  energy without entropy =      -36.50615181  energy(sigma->0) =      -36.49715656


--------------------------------------------------------------------------------------------------------




--------------------------------------- Iteration      1(  27)  ---------------------------------------


    POTLOK:  cpu time    2.4558: real time    2.4612
    SETDIJ:  cpu time    0.0220: real time    0.0220
     EDDAV:  cpu time    6.2422: real time    6.2508
       DOS:  cpu time    0.0050: real time    0.0050
    CHARGE:  cpu time    0.6456: real time    0.6462
    MIXING:  cpu time    0.2145: real time    0.2147
    --------------------------------------------
      LOOP:  cpu time    9.5850: real time    9.6000

 eigenvalue-minimisations  :   284
 total energy-change (2. order) :-0.6437519E-01  (-0.1005261E-03)
 number of electron      99.9999689 magnetization       8.3580866
 augmentation part       54.5221198 magnetization       6.0945384

 Broyden mixing:
  rms(total) = 0.14871E-01    rms(broyden)= 0.14851E-01
  rms(prec ) = 0.16235E-01
  weight for this iteration     100.00

 eigenvalues of (default mixing * dielectric matrix)
  average eigenvalue GAMMA=   0.6986
  2.7517  1.6906  1.6906  0.8968  0.8968  0.8692  0.8692  0.7349  0.7349  0.5887
  0.5887  0.4680  0.4680  0.5016  0.4399  0.3824  0.1845  0.1845  0.1790  0.0864
  0.0864  0.0758

 Free energy of the ion-electron system (eV)
  ---------------------------------------------------
  alpha Z        PSCENC =         4.75925485
  Ewald energy   TEWEN  =     12664.72451038
  -Hartree energ DENC   =    -21717.39504946
  -exchange      EXHF   =         0.00000000
  -V(xc)+E(xc)   XCENC  =        60.44568637
  PAW double counting   =     10051.54050269   -10215.62589721
  entropy T*S    EENTRO =         0.01282265
  eigenvalues    EBANDS =      -589.97745748
  atomic energy  EATOM  =      9704.95859309
  Solvation  Ediel_sol  =         0.00000000
  ---------------------------------------------------
  free energy    TOTEN  =       -36.55703413 eV

  energy without entropy =      -36.56985677  energy(sigma->0) =      -36.56130834


--------------------------------------------------------------------------------------------------------




--------------------------------------- Iteration      1(  28)  ---------------------------------------


    POTLOK:  cpu time    2.4654: real time    2.4694
    SETDIJ:  cpu time    0.0222: real time    0.0222
     EDDAV:  cpu time    6.2420: real time    6.2497
       DOS:  cpu time    0.0071: real time    0.0071
    CHARGE:  cpu time    0.6215: real time    0.6222
    MIXING:  cpu time    0.2095: real time    0.2098
    --------------------------------------------
      LOOP:  cpu time    9.5677: real time    9.5803

 eigenvalue-minimisations  :   288
 total energy-change (2. order) :-0.6762985E-01  (-0.1542673E-03)
 number of electron      99.9999689 magnetization       8.3092126
 augmentation part       54.5233579 magnetization       6.0510199

 Broyden mixing:
  rms(total) = 0.13350E-01    rms(broyden)= 0.13323E-01
  rms(prec ) = 0.14344E-01
  weight for this iteration     100.00

 eigenvalues of (default mixing * dielectric matrix)
[...]
 total energy-change (2. order) :-0.2435862E-04  (-0.1310117E-04)
 number of electron     100.0000145 magnetization       8.0288887
 augmentation part       54.4765380 magnetization       5.8079358

 Free energy of the ion-electron system (eV)
  ---------------------------------------------------
  alpha Z        PSCENC =         4.75925485
  Ewald energy   TEWEN  =     12905.45445107
  -Hartree energ DENC   =    -21958.38955141
  -exchange      EXHF   =         0.00000000
  -V(xc)+E(xc)   XCENC  =        60.43242827
  PAW double counting   =     10121.79962227   -10286.19091754
  entropy T*S    EENTRO =         0.04360472
  eigenvalues    EBANDS =      -590.12726259
  atomic energy  EATOM  =      9704.95859309
  Solvation  Ediel_sol  =         0.00000000
  ---------------------------------------------------
  free energy    TOTEN  =       -37.25977727 eV

  energy without entropy =      -37.30338199  energy(sigma->0) =      -37.27431218


--------------------------------------------------------------------------------------------------------




 average (electrostatic) potential at core
  the test charge radii are     0.9791  1.1199
  (the norm of the test charge is              1.0000)
       1 -95.3897       2 -95.0902       3 -95.2329       4 -95.1547       5 -95.4222
       6 -95.0972       7 -83.4914       8 -83.6782       9 -83.3698      10 -83.9410
 
 
 
 E-fermi :  -4.0761     XC(G=0):  -0.3203     alpha+bet : -0.1730


 spin component 1

 k-point     1 :       0.0000    0.0000    0.0000
  band No.  band energies     occupation 
      1      -9.7252      1.00000
      2      -8.4749      1.00000
      3      -8.0770      1.00000
      4      -7.8789      1.00000
      5      -7.7895      1.00000
      6      -7.7274      1.00000
      7      -7.6040      1.00000
      8      -7.5056      1.00000
      9      -7.3935      1.00000
     10      -7.3370      1.00000
     11      -7.2231      1.00000
     12      -7.1407      1.00000
     13      -7.0228      1.00000
     14      -6.9529      1.00000
     15      -6.8569      1.00000
     16      -6.7274      1.00000
     17      -6.6820      1.00000
     18      -6.6020      1.00000
     19      -6.4734      1.00000
     20      -6.3684      1.00000
     21      -6.3431      1.00000
     22      -6.2655      1.00000
     23      -6.2144      1.00000
     24      -6.1317      1.00000
     25      -6.0925      1.00000
     26      -5.9048      1.00000
     27      -5.8362      1.00000
     28      -5.7810      1.00000
     29      -5.7048      1.00000
     30      -5.6071      1.00000
     31      -5.5198      1.00000
     32      -5.4357      1.00000
     33      -5.3973      1.00000
     34      -5.3178      1.00000
     35      -5.2867      1.00000
     36      -5.2738      1.00000
     37      -5.2647      1.00000
     38      -5.2221      1.00000
     39      -5.1554      1.00000
     40      -5.1005      1.00000
     41      -5.0928      1.00000
     42      -5.0394      1.00000
     43      -4.9941      1.00000
     44      -4.9557      1.00000
     45      -4.9224      1.00000
     46      -4.8897      1.00000
     47      -4.8705      1.00000
     48      -4.8020      1.00000
     49      -4.7624      1.00001
     50      -4.7495      1.00001
     51      -4.6935      1.00006
     52      -4.6104      1.00052
     53      -4.5002      1.00531
     54      -4.2514      1.00706
     55      -3.3784     -0.00000
     56      -3.0630     -0.00000
     57      -2.6981     -0.00000
     58      -2.3955     -0.00000
     59      -1.8966     -0.00000
     60      -1.6377     -0.00000
     61      -1.3371     -0.00000
     62      -0.8004     -0.00000
     63      -0.7216     -0.00000
     64      -0.4991     -0.00000
     65      -0.3624     -0.00000
     66      -0.2940     -0.00000

 spin component 2

 k-point     1 :       0.0000    0.0000    0.0000
  band No.  band energies     occupation 
      1      -9.6345      1.00000
      2      -8.2432      1.00000
      3      -7.6742      1.00000
      4      -7.4154      1.00000
      5      -7.3281      1.00000
      6      -7.2555      1.00000
      7      -7.0621      1.00000
      8      -6.8896      1.00000
      9      -6.8411      1.00000
     10      -6.6628      1.00000
     11      -6.6412      1.00000
     12      -6.5858      1.00000
     13      -6.4062      1.00000
     14      -6.3465      1.00000
     15      -6.2422      1.00000
     16      -6.2019      1.00000
     17      -6.1262      1.00000
     18      -6.0482      1.00000
     19      -5.9805      1.00000
     20      -5.7741      1.00000
     21      -5.7030      1.00000
     22      -5.6359      1.00000
     23      -5.5165      1.00000
     24      -5.3856      1.00000
     25      -5.3472      1.00000
     26      -5.2954      1.00000
     27      -5.2366      1.00000
     28      -5.1334      1.00000
     29      -5.0987      1.00000
     30      -5.0233      1.00000
     31      -4.9523      1.00000
     32      -4.8844      1.00000
     33      -4.7358      1.00002
     34      -4.6846      1.00007
     35      -4.6428      1.00023
     36      -4.5939      1.00077
     37      -4.5483      1.00211
     38      -4.4727      1.00844
     39      -4.4577      1.01064
     40      -4.3932      1.02374
     41      -4.3620      1.03065
     42      -4.3014      1.03376
     43      -4.2655      1.01868
     44      -4.2527      1.00830
     45      -4.1451      0.77341
     46      -4.1151      0.66137
     47      -4.0710      0.47821
     48      -3.9451      0.05678
     49      -3.8933     -0.01380
     50      -3.8714     -0.02739
     51      -3.8608     -0.03135
     52      -3.7938     -0.03135
     53      -3.6945     -0.01063
     54      -3.6552     -0.00561
     55      -3.0796     -0.00000
     56      -2.7222     -0.00000
     57      -2.3872     -0.00000
     58      -2.1042     -0.00000
     59      -1.5583     -0.00000
     60      -1.3582     -0.00000
     61      -1.1575     -0.00000
     62      -0.6519     -0.00000
     63      -0.4927     -0.00000
     64      -0.2780     -0.00000
     65      -0.0981     -0.00000
     66      -0.0675     -0.00000


--------------------------------------------------------------------------------------------------------


 soft charge-density along one line, spin component            1
         0         1         2         3         4         5         6         7         8         9
 total charge-density along one line
 
 soft charge-density along one line, spin component            2
         0         1         2         3         4         5         6         7         8         9
 total charge-density along one line
 
 pseudopotential strength for first ion, spin component:            1
-10.288  -0.016   0.043   0.082   0.089 -10.558  -0.015   0.041
 -0.016 -10.326  -0.043   0.102   0.082  -0.015 -10.593  -0.041
  0.043  -0.043 -10.448  -0.032  -0.047   0.041  -0.041 -10.710
  0.082   0.102  -0.032 -10.191  -0.087   0.079   0.097  -0.030
  0.089   0.082  -0.047  -0.087 -10.200   0.085   0.078  -0.045
-10.558  -0.015   0.041   0.079   0.085 -10.773  -0.015   0.040
 -0.015 -10.593  -0.041   0.097   0.078  -0.015 -10.806  -0.040
  0.041  -0.041 -10.710  -0.030  -0.045   0.040  -0.040 -10.918
  0.079   0.097  -0.030 -10.464  -0.083   0.076   0.093  -0.029
  0.085   0.078  -0.045  -0.083 -10.473   0.081   0.075  -0.043
 -0.009   0.004   0.018   0.013  -0.017  -0.009   0.004   0.017
 -0.016   0.007   0.032   0.023  -0.031  -0.015   0.007   0.030
  0.005  -0.012  -0.004   0.002  -0.005   0.005  -0.011  -0.004
  0.002   0.008  -0.018   0.011  -0.001   0.001   0.007  -0.017
  0.010   0.002  -0.002  -0.014   0.009   0.009   0.001  -0.002
  0.002  -0.014  -0.004   0.002  -0.005   0.002  -0.013  -0.004
  0.002   0.009  -0.022   0.010  -0.001   0.002   0.008  -0.021
  0.011   0.002   0.000  -0.017   0.007   0.010   0.002   0.000
 pseudopotential strength for first ion, spin component:            2
 -9.330  -0.049  -0.052  -0.049  -0.047  -9.644  -0.047  -0.050
 -0.049  -9.474   0.020  -0.018  -0.028  -0.047  -9.782   0.019
 -0.052   0.020  -9.405  -0.015  -0.029  -0.050   0.019  -9.715
 -0.049  -0.018  -0.015  -9.441  -0.011  -0.047  -0.018  -0.015
 -0.047  -0.028  -0.029  -0.011  -9.383  -0.046  -0.027  -0.028
 -9.644  -0.047  -0.050  -0.047  -0.046  -9.902  -0.045  -0.049
 -0.047  -9.782   0.019  -0.018  -0.027  -0.045 -10.034   0.019
 -0.050   0.019  -9.715  -0.015  -0.028  -0.049   0.019  -9.969
 -0.047  -0.018  -0.015  -9.751  -0.011  -0.045  -0.018  -0.014
 -0.046  -0.027  -0.028  -0.011  -9.695  -0.044  -0.027  -0.026
 -0.004   0.001   0.008   0.006  -0.006  -0.004   0.001   0.008
 -0.007   0.002   0.014   0.010  -0.010  -0.007   0.002   0.014
  0.017  -0.013  -0.006  -0.000  -0.010   0.015  -0.012  -0.006
 -0.000   0.009  -0.014   0.016   0.000  -0.000   0.008  -0.014
  0.009  -0.000  -0.010  -0.012   0.016   0.009  -0.000  -0.009
  0.019  -0.016  -0.007  -0.001  -0.012   0.017  -0.015  -0.007
 -0.001   0.010  -0.017   0.017   0.001  -0.001   0.009  -0.016
  0.010  -0.001  -0.011  -0.014   0.018   0.010  -0.001  -0.010
 total augmentation occupancy for first ion, spin component:            1
  3.262  -0.028   0.147   0.392   0.103  -1.425   0.030  -0.059  -0.205   0.046   0.132   0.034   0.262   0.057   0.016  -0.003
 -0.028   3.163  -0.146   0.441   0.302   0.028  -1.363   0.076  -0.186  -0.105  -0.063   0.002  -0.041   0.140   0.037  -0.001
  0.147  -0.146   2.717   0.072  -0.041  -0.043   0.081  -1.239  -0.095   0.039  -0.259  -0.025  -0.022  -0.056  -0.091  -0.003
  0.392   0.441   0.072   3.474  -0.145  -0.201  -0.194  -0.099  -1.502   0.036  -0.105   0.011   0.044   0.330  -0.017  -0.003
  0.103   0.302  -0.041  -0.145   3.349   0.050  -0.116   0.032   0.040  -1.414   0.073   0.045  -0.142   0.008   0.211   0.005
 -1.425   0.028  -0.043  -0.201   0.050   1.307  -0.012   0.019   0.105  -0.112  -0.172  -0.015  -0.333  -0.038  -0.004   0.026
  0.030  -1.363   0.081  -0.194  -0.116  -0.012   1.326  -0.050   0.038  -0.001   0.074  -0.007   0.044  -0.143  -0.028  -0.002
 -0.059   0.076  -1.239  -0.099   0.032   0.019  -0.050   1.385   0.114  -0.046   0.305   0.002   0.024   0.017   0.137  -0.001
 -0.205  -0.186  -0.095  -1.502   0.040   0.105   0.038   0.114   1.382   0.015   0.119  -0.012  -0.033  -0.344   0.003   0.003
  0.046  -0.105   0.039   0.036  -1.414  -0.112  -0.001  -0.046   0.015   1.289  -0.065  -0.031   0.171  -0.015  -0.249  -0.013
  0.132  -0.063  -0.259  -0.105   0.073  -0.172   0.074   0.305   0.119  -0.065   2.002  -0.201  -0.091   0.003  -0.292   0.017
  0.034   0.002  -0.025   0.011   0.045  -0.015  -0.007   0.002  -0.012  -0.031  -0.201   0.031   0.017  -0.001   0.054  -0.002
  0.262  -0.041  -0.022   0.044  -0.142  -0.333   0.044   0.024  -0.033   0.171  -0.091   0.017   0.203   0.014  -0.021  -0.018
  0.057   0.140  -0.056   0.330   0.008  -0.038  -0.143   0.017  -0.344  -0.015   0.003  -0.001   0.014   0.250   0.008  -0.001
  0.016   0.037  -0.091  -0.017   0.211  -0.004  -0.028   0.137   0.003  -0.249  -0.292   0.054  -0.021   0.008   0.172  -0.000
 -0.003  -0.001  -0.003  -0.003   0.005   0.026  -0.002  -0.001   0.003  -0.013   0.017  -0.002  -0.018  -0.001  -0.000   0.002
 -0.003  -0.006   0.002  -0.012  -0.001   0.003   0.013  -0.003   0.031   0.001  -0.004   0.000  -0.001  -0.021  -0.000   0.000
  0.004  -0.003  -0.003  -0.003  -0.004   0.001   0.003  -0.011   0.000   0.024   0.052  -0.007  -0.000  -0.000  -0.020   0.000
 total augmentation occupancy for first ion, spin component:            2
  1.212  -0.021  -0.181  -0.369  -0.364  -0.563  -0.008   0.075   0.179   0.173   0.049   0.021   0.067  -0.023  -0.009   0.010
 -0.021   1.175   0.215  -0.382  -0.348  -0.002  -0.601  -0.114   0.187   0.165  -0.011  -0.006  -0.026  -0.005  -0.013  -0.002
 -0.181   0.215   1.682   0.038   0.087   0.054  -0.115  -0.831  -0.013  -0.056  -0.077  -0.029  -0.007   0.017  -0.049  -0.003
 -0.369  -0.382   0.038   0.782   0.220   0.173   0.194  -0.012  -0.387  -0.102   0.005   0.003  -0.015  -0.003   0.007  -0.000
 -0.364  -0.348   0.087   0.220   0.933   0.170   0.181  -0.051  -0.109  -0.451   0.030   0.011  -0.042   0.004   0.033  -0.004
 -0.563  -0.002   0.054   0.173   0.170   0.188   0.007  -0.018  -0.076  -0.076  -0.016  -0.010  -0.018   0.009   0.003  -0.006
 -0.008  -0.601  -0.115   0.194   0.181   0.007   0.223   0.059  -0.081  -0.075   0.003   0.004   0.014   0.004   0.005   0.001
  0.075  -0.114  -0.831  -0.012  -0.051  -0.018   0.059   0.306  -0.001   0.034   0.031   0.017   0.002  -0.001   0.020   0.002
  0.179   0.187  -0.013  -0.387  -0.109  -0.076  -0.081  -0.001   0.112   0.044  -0.011   0.000   0.005   0.011  -0.001  -0.000
  0.173   0.165  -0.056  -0.102  -0.451  -0.076  -0.075   0.034   0.044   0.143  -0.020  -0.007   0.017   0.000  -0.007   0.002
  0.049  -0.011  -0.077   0.005   0.030  -0.016   0.003   0.031  -0.011  -0.020  -0.082   0.058   0.009  -0.002   0.050  -0.001
  0.021  -0.006  -0.029   0.003   0.011  -0.010   0.004   0.017   0.000  -0.007   0.058  -0.006  -0.002   0.000  -0.003   0.001
  0.067  -0.026  -0.007  -0.015  -0.042  -0.018   0.014   0.002   0.005   0.017   0.009  -0.002   0.002  -0.001  -0.003   0.002
 -0.023  -0.005   0.017  -0.003   0.004   0.009   0.004  -0.001   0.011   0.000  -0.002   0.000  -0.001  -0.013  -0.003   0.000
 -0.009  -0.013  -0.049   0.007   0.033   0.003   0.005   0.020  -0.001  -0.007   0.050  -0.003  -0.003  -0.003   0.004   0.000
  0.010  -0.002  -0.003  -0.000  -0.004  -0.006   0.001   0.002  -0.000   0.002  -0.001   0.001   0.002   0.000   0.000  -0.000
 -0.000   0.002  -0.001   0.007   0.001  -0.000  -0.001   0.001  -0.005  -0.000   0.000  -0.000   0.000   0.002   0.000  -0.000
  0.002  -0.001  -0.007  -0.001   0.006  -0.001  -0.000   0.003   0.001  -0.004  -0.004   0.001   0.000   0.000   0.002  -0.000


------------------------ aborting loop because EDIFF is reached ----------------------------------------


    CHARGE:  cpu time    0.6422: real time    0.6437
    FORLOC:  cpu time    0.0915: real time    0.0916
    FORNL :  cpu time    2.7129: real time    2.7206
    FORCOR:  cpu time    2.4008: real time    2.4073
    FORHAR:  cpu time    0.3309: real time    0.3313
    MIXING:  cpu time    0.0568: real time    0.0569
    OFIELD:  cpu time    0.0000: real time    0.0000

 VOLUME and BASIS-vectors are now :
 -----------------------------------------------------------------------------
  energy-cutoff  :      400.00
  volume of cell :    11907.27
      direct lattice vectors                 reciprocal lattice vectors
    21.080059166  0.000000000  0.000000000     0.047438197  0.000000000  0.000000000
     0.000000000 22.294181948  0.000000000     0.000000000  0.044854752  0.000000000
     0.000000000  0.000000000 25.336628331     0.000000000  0.000000000  0.039468551

  length of vectors
    21.080059166 22.294181948 25.336628331     0.047438197  0.044854752  0.039468551


 FORCES acting on ions
    electron-ion (+dipol)            ewald-force                    non-local-force                 convergence-correction
 -----------------------------------------------------------------------------------------------
   -.906E+03 -.337E+03 0.726E+02   0.903E+03 0.336E+03 -.719E+02   0.233E+01 0.905E+00 -.761E+00   0.931E-01 -.698E-01 0.470E-01
   -.474E+03 0.154E+02 0.963E+03   0.471E+03 -.153E+02 -.956E+03   0.345E+01 -.437E-01 -.687E+01   0.113E+00 -.450E-01 -.168E-01
   0.340E+03 -.873E+03 0.525E+03   -.339E+03 0.868E+03 -.522E+03   -.176E+01 0.431E+01 -.268E+01   0.700E-01 0.330E-01 -.174E-02
   0.729E+03 0.361E+03 0.696E+03   -.723E+03 -.358E+03 -.692E+03   -.540E+01 -.330E+01 -.361E+01   0.358E-01 -.928E-01 -.201E-01
   0.713E+03 -.665E+01 -.144E+03   -.713E+03 0.717E+01 0.145E+03   -.598E+00 -.430E+00 -.100E+01   0.549E-01 -.112E+00 0.146E+00
   0.264E+03 0.864E+03 -.449E+03   -.262E+03 -.857E+03 0.447E+03   -.295E+01 -.704E+01 0.192E+01   0.590E-01 -.550E-01 0.465E-01
   -.250E+02 -.902E+03 -.428E+03   0.246E+02 0.896E+03 0.424E+03   0.404E+00 0.622E+01 0.385E+01   0.487E-01 0.216E-02 0.810E-01
   -.711E+03 0.132E+03 -.669E+03   0.705E+03 -.131E+03 0.666E+03   0.537E+01 -.303E+00 0.356E+01   -.891E-02 -.677E-01 0.161E-01
   0.447E+03 -.140E+03 -.831E+03   -.443E+03 0.139E+03 0.824E+03   -.409E+01 0.187E+01 0.638E+01   0.296E-01 -.637E-01 0.427E-01
   -.378E+03 0.890E+03 0.264E+03   0.376E+03 -.885E+03 -.263E+03   0.243E+01 -.506E+01 -.111E+01   0.672E-01 -.746E-01 0.753E-01
 -----------------------------------------------------------------------------------------------
   0.224E+00 0.341E+01 -.842E-01   -.227E-12 0.341E-12 0.455E-12   -.800E+00 -.287E+01 -.322E+00   0.562E+00 -.545E+00 0.416E+00
 
 
 POSITION                                       TOTAL-FORCE (eV/Angst)
 -----------------------------------------------------------------------------------
     12.06305     11.89809     12.25798         0.002748     -0.032441      0.013414
     11.57480     11.29618     10.09146        -0.008710      0.014045     -0.005624
     10.20513     12.81885     11.27751        -0.004111      0.030896     -0.027887
      9.45436     10.67456     10.70041         0.005103     -0.016149     -0.002325
      9.75674     11.24978     12.90675        -0.012416     -0.014502      0.004293
     10.15113      9.34504     14.13652         0.021319      0.000705     -0.002511
     10.74281     13.37204     13.71615         0.010831      0.013702      0.009427
     12.02515     10.84475     14.48070        -0.012426      0.004390      0.009795
      9.56133     11.41931     15.35763         0.007613     -0.001631      0.000915
     11.36115      9.55676     11.94637        -0.009951      0.000986      0.000504
 -----------------------------------------------------------------------------------
    total drift:                               -0.013836     -0.007056      0.009726


--------------------------------------------------------------------------------------------------------



  FREE ENERGIE OF THE ION-ELECTRON SYSTEM (eV)
  ---------------------------------------------------
  free  energy   TOTEN  =       -37.25977727 eV

  energy  without entropy=      -37.30338199  energy(sigma->0) =      -37.27431218
 
 d Force = 0.2177478E-05[-0.229E-05, 0.664E-05]  d Energy = 0.2437075E-03-0.242E-03
 d Force = 0.5226890E-02[ 0.517E-02, 0.528E-02]  d Ewald  = 0.5226886E-02 0.353E-08


--------------------------------------------------------------------------------------------------------


    POTLOK:  cpu time    2.4962: real time    2.5016


--------------------------------------------------------------------------------------------------------




--------------------------------------------------------------------------------------------------------


  
 reached required accuracy - stopping structural energy minimisation
     LOOP+:  cpu time   63.8831: real time   64.0836
    4ORBIT:  cpu time    0.0000: real time    0.0000

 total amount of memory used by VASP MPI-rank0   160554. kBytes
=======================================================================

   base      :      30000. kBytes
   nonl-proj :       6056. kBytes
   fftplans  :      30693. kBytes
   grid      :      79478. kBytes
   one-center:         31. kBytes
   wavefun   :      14296. kBytes
 
  
  
 General timing and accounting informations for this job:
 ========================================================
  
                  Total CPU time used (sec):     2861.651
                            User time (sec):     2799.109
                          System time (sec):       62.541
                         Elapsed time (sec):     2873.355
  
                   Maximum memory used (kb):      342088.
                   Average memory used (kb):           0.
  
                          Minor page faults:      7322600
                          Major page faults:       110379
                 Voluntary context switches:         4636
