<?xml version="1.0" encoding="ISO-8859-1"?>
<modeling>
 <generator>
  <i name="program" type="string">vasp </i>
  <i name="version" type="string">6.1.2  </i>
  <i name="subversion" type="string">22Jul20 (build Aug  2 2021 21:04:21) gamma-only                       parallel </i>
  <i name="platform" type="string">LinuxPGI </i>
  <i name="date" type="string">2021 12 22 </i>
  <i name="time" type="string">13:53:03 </i>
 </generator>
 <incar>
  <i type="int" name="ISPIN">     2</i>
  <i type="int" name="IBRION">     2</i>
  <i type="int" name="NSW">  1000</i>
  <i type="int" name="ISIF">     0</i>
  <i type="int" name="ISYM">     0</i>
  <i name="ENCUT">    400.00000000</i>
  <i type="logical" name="LREAL"> F  </i>
  <i type="int" name="ISMEAR">     1</i>
  <i name="SIGMA">      0.20000000</i>
  <i type="logical" name="LWAVE"> F  </i>
  <i type="logical" name="LCHARG"> F  </i>
  <i type="int" name="KPAR">     1</i>
  <i type="int" name="NCORE">     8</i>
  <i type="string" name="GGA"> PE</i>
  <i type="int" name="ISPIN">     2</i>
 </incar>
 <structure name="primitive_cell" >
  <crystal>
   <varray name="basis" >
    <v>      21.08005917       0.00000000       0.00000000 </v>
    <v>       0.00000000      22.29418195       0.00000000 </v>
    <v>       0.00000000       0.00000000      25.33662833 </v>
   </varray>
   <i name="volume">  11907.26961362 </i>
   <varray name="rec_basis" >
    <v>       0.04743820       0.00000000       0.00000000 </v>
    <v>       0.00000000       0.04485475       0.00000000 </v>
    <v>       0.00000000       0.00000000       0.03946855 </v>
   </varray>
  </crystal>
  <varray name="positions" >
   <v>       0.58224351       0.54044546       0.48159682 </v>
   <v>       0.55094102       0.50422156       0.39618483 </v>
   <v>       0.48486140       0.57622990       0.44435039 </v>
   <v>       0.44726758       0.47423576       0.42035045 </v>
   <v>       0.45698390       0.50418779       0.51075442 </v>
   <v>       0.47778361       0.41420993       0.56052872 </v>
   <v>       0.51079602       0.59344084       0.54503106 </v>
   <v>       0.56398624       0.48897193       0.56638234 </v>
   <v>       0.45760124       0.51384774       0.60760869 </v>
   <v>       0.53847315       0.43526373       0.47464560 </v>
  </varray>
 </structure>
 <varray name="primitive_index" >
  <v type="int" >        1 </v>
  <v type="int" >        2 </v>
  <v type="int" >        3 </v>
  <v type="int" >        4 </v>
  <v type="int" >        5 </v>
  <v type="int" >        6 </v>
  <v type="int" >        7 </v>
  <v type="int" >        8 </v>
  <v type="int" >        9 </v>
  <v type="int" >       10 </v>
 </varray>
 <kpoints>
  <generation param="Gamma">
   <v type="int" name="divisions">       1        1        1 </v>
   <v name="usershift">      0.00000000       0.00000000       0.00000000 </v>
   <v name="genvec1">      1.00000000       0.00000000       0.00000000 </v>
   <v name="genvec2">      0.00000000       1.00000000       0.00000000 </v>
   <v name="genvec3">      0.00000000       0.00000000       1.00000000 </v>
   <v name="shift">      0.00000000       0.00000000       0.00000000 </v>
  </generation>
  <varray name="kpointlist" >
   <v>       0.00000000       0.00000000       0.00000000 </v>
  </varray>
  <varray name="weights" >
   <v>       1.00000000 </v>
  </varray>
 </kpoints>
 <parameters>
  <separator name="general" >
   <i type="string" name="SYSTEM">unknown system</i>
   <i type="logical" name="LCOMPAT"> F  </i>
  </separator>
  <separator name="electronic" >
   <i type="string" name="PREC">normal</i>
   <i name="ENMAX">    400.00000000</i>
   <i name="ENAUG">    544.56500000</i>
   <i name="EDIFF">      0.00010000</i>
   <i type="int" name="IALGO">    38</i>
   <i type="int" name="IWAVPR">    11</i>
   <i type="int" name="NBANDS">    66</i>
   <i type="int" name="NBANDSLOW">    -1</i>
   <i type="int" name="NBANDSHIGH">    -1</i>
   <i name="NELECT">    100.00000000</i>
   <i type="int" name="TURBO">     0</i>
   <i type="int" name="IRESTART">     0</i>
   <i type="int" name="NREBOOT">     0</i>
   <i type="int" name="NMIN">     0</i>
   <i name="EREF">      0.00000000</i>
   <separator name="electronic smearing" >
    <i type="int" name="ISMEAR">     1</i>
    <i name="SIGMA">      0.20000000</i>
    <i name="KSPACING">      0.50000000</i>
    <i type="logical" name="KGAMMA"> T  </i>
    <i type="logical" name="KBLOWUP"> T  </i>
   </separator>
   <separator name="electronic projectors" >
    <i type="logical" name="LREAL"> F  </i>
    <v name="ROPT">      0.00000000      0.00000000</v>
    <i type="int" name="LMAXPAW">  -100</i>
    <i type="int" name="LMAXMIX">     2</i>
    <i type="logical" name="NLSPLINE"> F  </i>
   </separator>
   <separator name="electronic startup" >
    <i type="int" name="ISTART">     0</i>
    <i type="int" name="ICHARG">     2</i>
    <i type="int" name="INIWAV">     1</i>
   </separator>
   <separator name="electronic spin" >
    <i type="int" name="ISPIN">     2</i>
    <i type="logical" name="LNONCOLLINEAR"> F  </i>
    <v name="MAGMOM">      1.00000000      1.00000000      1.00000000      1.00000000      1.00000000      1.00000000      1.00000000      1.00000000      1.00000000      1.00000000</v>
    <i name="NUPDOWN">     -1.00000000</i>
    <i type="logical" name="LSORBIT"> F  </i>
    <v name="SAXIS">      0.00000000      0.00000000      1.00000000</v>
    <i type="logical" name="LSPIRAL"> F  </i>
    <v name="QSPIRAL">      0.00000000      0.00000000      0.00000000</v>
    <i type="logical" name="LZEROZ"> F  </i>
   </separator>
   <separator name="electronic exchange-correlation" >
    <i type="logical" name="LASPH"> F  </i>
    <i type="logical" name="LMETAGGA"> F  </i>
   </separator>
   <separator name="electronic convergence" >
    <i type="int" name="NELM">    60</i>
    <i type="int" name="NELMDL">     0</i>
    <i type="int" name="NELMIN">     2</i>
    <i name="ENINI">    400.00000000</i>
    <separator name="electronic convergence detail" >
     <i type="logical" name="LDIAG"> T  </i>
     <i type="logical" name="LSUBROT"> F  </i>
     <i name="WEIMIN">      0.00100000</i>
     <i name="EBREAK">      0.00000038</i>
     <i name="DEPER">      0.30000000</i>
     <i type="int" name="NRMM">     4</i>
     <i name="TIME">      0.40000000</i>
    </separator>
   </separator>
   <separator name="electronic mixer" >
    <i name="AMIX">      0.40000000</i>
    <i name="BMIX">      1.00000000</i>
    <i name="AMIN">      0.10000000</i>
    <i name="AMIX_MAG">      1.60000000</i>
    <i name="BMIX_MAG">      1.00000000</i>
    <separator name="electronic mixer details" >
     <i type="int" name="IMIX">     4</i>
     <i type="logical" name="MIXFIRST"> F  </i>
     <i type="int" name="MAXMIX">   -45</i>
     <i name="WC">    100.00000000</i>
     <i type="int" name="INIMIX">     1</i>
     <i type="int" name="MIXPRE">     1</i>
     <i type="int" name="MREMOVE">     5</i>
    </separator>
   </separator>
   <separator name="electronic dipolcorrection" >
    <i type="logical" name="LDIPOL"> F  </i>
    <i type="logical" name="LMONO"> F  </i>
    <i type="int" name="IDIPOL">     0</i>
    <i name="EPSILON">      1.00000000</i>
    <v name="DIPOL">   -100.00000000   -100.00000000   -100.00000000</v>
    <i name="EFIELD">      0.00000000</i>
   </separator>
  </separator>
  <separator name="grids" >
   <i type="int" name="NGX">   108</i>
   <i type="int" name="NGY">   112</i>
   <i type="int" name="NGZ">   126</i>
   <i type="int" name="NGXF">   216</i>
   <i type="int" name="NGYF">   224</i>
   <i type="int" name="NGZF">   252</i>
   <i type="logical" name="ADDGRID"> F  </i>
  </separator>
  <separator name="ionic" >
   <i type="int" name="NSW">  1000</i>
   <i type="int" name="IBRION">     2</i>
   <i type="int" name="MDALGO">     0</i>
   <i type="int" name="ISIF">     0</i>
   <i name="PSTRESS">      0.00000000</i>
   <i name="EDIFFG">      0.00100000</i>
   <i type="int" name="NFREE">     1</i>
   <i name="POTIM">      0.50000000</i>
   <i name="SMASS">     -3.00000000</i>
   <i name="SCALEE">      1.00000000</i>
  </separator>
  <separator name="ionic md" >
   <i name="TEBEG">      0.00010000</i>
   <i name="TEEND">      0.00010000</i>
   <i type="int" name="NBLOCK">     1</i>
   <i type="int" name="KBLOCK">  1000</i>
   <i type="int" name="NPACO">   256</i>
   <i name="APACO">     16.00000000</i>
  </separator>
  <separator name="symmetry" >
   <i type="int" name="ISYM">     0</i>
   <i name="SYMPREC">      0.00001000</i>
  </separator>
  <separator name="dos" >
   <i type="int" name="LORBIT">     0</i>
   <v name="RWIGS">     -1.00000000     -1.00000000</v>
   <i type="int" name="NEDOS">   301</i>
   <i name="EMIN">     10.00000000</i>
   <i name="EMAX">    -10.00000000</i>
   <i name="EFERMI">      0.00000000</i>
  </separator>
  <separator name="writing" >
   <i type="int" name="NWRITE">     2</i>
   <i type="logical" name="LWAVE"> F  </i>
   <i type="logical" name="LDOWNSAMPLE"> F  </i>
   <i type="logical" name="LCHARG"> F  </i>
   <i type="logical" name="LPARD"> F  </i>
   <i type="logical" name="LVTOT"> F  </i>
   <i type="logical" name="LVHAR"> F  </i>
   <i type="logical" name="LELF"> F  </i>
   <i type="logical" name="LOPTICS"> F  </i>
   <v name="STM">      0.00000000      0.00000000      0.00000000      0.00000000      0.00000000      0.00000000      0.00000000</v>
  </separator>
  <separator name="performance" >
   <i type="int" name="NPAR">     2</i>
   <i type="int" name="NSIM">     4</i>
   <i type="int" name="NBLK">    -1</i>
   <i type="logical" name="LPLANE"> T  </i>
   <i type="logical" name="LSCALAPACK"> T  </i>
   <i type="logical" name="LSCAAWARE"> F  </i>
   <i type="logical" name="LSCALU"> F  </i>
   <i type="logical" name="LASYNC"> F  </i>
   <i type="logical" name="LORBITALREAL"> F  </i>
  </separator>
  <separator name="miscellaneous" >
   <i type="int" name="IDIOT">     3</i>
   <i type="int" name="PHON_NSTRUCT">    -1</i>
   <i type="logical" name="LMUSIC"> F  </i>
   <v name="POMASS">     58.69000000    106.42000000</v>
   <v name="DARWINR">      0.00000000      0.00000000</v>
   <v name="DARWINV">      1.00000000      1.00000000</v>
   <i type="logical" name="LCORR"> T  </i>
  </separator>
  <i type="logical" name="GGA_COMPAT"> T  </i>
  <i type="logical" name="LBERRY"> F  </i>
  <i type="int" name="ICORELEVEL">     0</i>
  <i type="logical" name="LDAU"> F  </i>
  <i type="int" name="I_CONSTRAINED_M">     0</i>
  <separator name="electronic exchange-correlation" >
   <i type="string" name="GGA">PE</i>
   <i type="int" name="VOSKOWN">     0</i>
   <i type="logical" name="LHFCALC"> F  </i>
   <i type="string" name="PRECFOCK"></i>
   <i type="logical" name="LSYMGRAD"> F  </i>
   <i type="logical" name="LHFONE"> F  </i>
   <i type="logical" name="LRHFCALC"> F  </i>
   <i type="logical" name="LTHOMAS"> F  </i>
   <i type="logical" name="LMODELHF"> F  </i>
   <i type="logical" name="LFOCKACE"> F  </i>
   <i name="ENCUT4O">     -1.00000000</i>
   <i type="int" name="EXXOEP">     0</i>
   <i type="int" name="FOURORBIT">     0</i>
   <i name="AEXX">      0.00000000</i>
   <i name="HFALPHA">      0.00000000</i>
   <i name="MCALPHA">      0.00000000</i>
   <i name="ALDAX">      1.00000000</i>
   <i name="AGGAX">      1.00000000</i>
   <i name="ALDAC">      1.00000000</i>
   <i name="AGGAC">      1.00000000</i>
   <i type="int" name="NKREDX">     1</i>
   <i type="int" name="NKREDY">     1</i>
   <i type="int" name="NKREDZ">     1</i>
   <i type="logical" name="SHIFTRED"> F  </i>
   <i type="logical" name="ODDONLY"> F  </i>
   <i type="logical" name="EVENONLY"> F  </i>
   <i type="int" name="LMAXFOCK">     0</i>
   <i type="int" name="NMAXFOCKAE">     0</i>
   <i type="logical" name="LFOCKAEDFT"> F  </i>
   <i name="HFSCREEN">      0.00000000</i>
   <i name="HFSCREENC">      0.00000000</i>
   <i type="int" name="NBANDSGWLOW">     0</i>
  </separator>
  <separator name="vdW DFT" >
   <i type="logical" name="LUSE_VDW"> F  </i>
   <i name="Zab_VDW">     -0.84910000</i>
   <i name="PARAM1">      0.12340000</i>
   <i name="PARAM2">      1.00000000</i>
   <i name="PARAM3">      0.00000000</i>
  </separator>
  <separator name="model GW" >
   <i type="int" name="MODEL_GW">     0</i>
   <i name="MODEL_EPS0">    714.43617682</i>
   <i name="MODEL_ALPHA">      1.00000000</i>
  </separator>
  <separator name="linear response parameters" >
   <i type="logical" name="LEPSILON"> F  </i>
   <i type="logical" name="LRPA"> F  </i>
   <i type="logical" name="LNABLA"> F  </i>
   <i type="logical" name="LVEL"> F  </i>
   <i type="int" name="KINTER">     0</i>
   <i name="CSHIFT">      0.10000000</i>
   <i name="OMEGAMAX">     -1.00000000</i>
   <i name="DEG_THRESHOLD">      0.00200000</i>
   <i name="RTIME">     -0.10000000</i>
   <i name="WPLASMAI">      0.00000000</i>
   <v name="DFIELD">      0.00000000      0.00000000      0.00000000</v>
   <v name="WPLASMA">      0.00000000      0.00000000      0.00000000      0.00000000      0.00000000      0.00000000      0.00000000      0.00000000      0.00000000</v>
  </separator>
  <separator name="orbital magnetization" >
   <i type="logical" name="NUCIND"> F  </i>
   <v name="MAGPOS">      0.00000000      0.00000000      0.00000000</v>
   <i type="logical" name="LNICSALL"> T  </i>
   <i type="logical" name="ORBITALMAG"> F  </i>
   <i type="logical" name="LMAGBLOCH"> F  </i>
   <i type="logical" name="LCHIMAG"> F  </i>
   <i type="logical" name="LGAUGE"> T  </i>
   <i type="int" name="MAGATOM">     0</i>
   <v name="MAGDIPOL">      0.00000000      0.00000000      0.00000000</v>
   <v name="AVECCONST">      0.00000000      0.00000000      0.00000000</v>
  </separator>
  <separator name="response functions" >
   <i type="logical" name="LFINITE_TEMPERATURE"> F  </i>
   <i type="logical" name="LADDER"> F  </i>
   <i type="logical" name="LRPAFORCE"> F  </i>
   <i type="logical" name="LFXC"> F  </i>
   <i type="logical" name="LHARTREE"> T  </i>
   <i type="int" name="IBSE">     0</i>
   <v type="int" name="KPOINT">    -1     0     0     0</v>
   <i type="logical" name="LTCTC"> F  </i>
   <i type="logical" name="LTCTE"> F  </i>
   <i type="logical" name="LTETE"> F  </i>
   <i type="logical" name="LTRIPLET"> F  </i>
   <i type="logical" name="LFXCEPS"> F  </i>
   <i type="logical" name="LFXHEG"> F  </i>
   <i type="int" name="NATURALO">     2</i>
   <i type="logical" name="LHOLEGF"> F  </i>
   <i type="logical" name="L2ORDER"> F  </i>
   <i type="logical" name="LDMP1"> F  </i>
   <i type="logical" name="LMP2LT"> F  </i>
   <i type="logical" name="LSMP2LT"> F  </i>
   <i type="logical" name="LGWLF"> F  </i>
   <i name="ENCUTGW">     -2.00000000</i>
   <i name="ENCUTGWSOFT">     -2.00000000</i>
   <i name="ENCUTLF">     -1.00000000</i>
   <i type="logical" name="LESF_SPLINES"> F  </i>
   <i type="int" name="LMAXMP2">    -1</i>
   <i name="SCISSOR">      0.00000000</i>
   <i type="int" name="NOMEGA">     0</i>
   <i type="int" name="NOMEGAR">     0</i>
   <i type="int" name="NBANDSGW">    -1</i>
   <i type="int" name="NBANDSO">    -1</i>
   <i type="int" name="NBANDSV">    -1</i>
   <i type="int" name="NELM">     1</i>
   <i type="int" name="NELMHF">     1</i>
   <i type="int" name="DIM">     3</i>
   <i type="int" name="IESPILON">     4</i>
   <i type="int" name="ANTIRES">     0</i>
   <i name="OMEGAMAX">    -30.00000000</i>
   <i name="OMEGAMIN">    -30.00000000</i>
   <i name="OMEGATL">   -200.00000000</i>
   <i type="int" name="OMEGAGRID">     0</i>
   <i name="CSHIFT">     -0.10000000</i>
   <i type="logical" name="LSELFENERGY"> F  </i>
   <i type="logical" name="LSPECTRAL"> F  </i>
   <i type="logical" name="LSPECTRALGW"> F  </i>
   <i type="logical" name="LSINGLES"> F  </i>
   <i type="logical" name="LFERMIGW"> F  </i>
   <i type="logical" name="ODDONLYGW"> F  </i>
   <i type="logical" name="EVENONLYGW"> F  </i>
   <i type="int" name="NKREDLFX">     1</i>
   <i type="int" name="NKREDLFY">     1</i>
   <i type="int" name="NKREDLFZ">     1</i>
   <i type="int" name="MAXMEM">  2800</i>
   <i type="int" name="TELESCOPE">     0</i>
   <i type="int" name="NTAUPAR">    -1</i>
   <i type="int" name="NOMEGAPAR">    -1</i>
   <i name="LAMBDA">      1.00000000</i>
  </separator>
  <separator name="External order field" >
   <i name="OFIELD_KAPPA">      0.00000000</i>
   <v name="OFIELD_K">      0.00000000      0.00000000      0.00000000</v>
   <i name="OFIELD_Q6_NEAR">      0.00000000</i>
   <i name="OFIELD_Q6_FAR">      0.00000000</i>
   <i name="OFIELD_A">      0.00000000</i>
  </separator>
 </parameters>
 <atominfo>
  <atoms>      10 </atoms>
  <types>       2 </types>
  <array name="atoms" >
   <dimension dim="1">ion</dimension>
   <field type="string">element</field>
   <field type="int">atomtype</field>
   <set>
    <rc><c>Ni</c><c>   1</c></rc>
    <rc><c>Ni</c><c>   1</c></rc>
    <rc><c>Ni</c><c>   1</c></rc>
    <rc><c>Ni</c><c>   1</c></rc>
    <rc><c>Ni</c><c>   1</c></rc>
    <rc><c>Ni</c><c>   1</c></rc>
    <rc><c>Pd</c><c>   2</c></rc>
    <rc><c>Pd</c><c>   2</c></rc>
    <rc><c>Pd</c><c>   2</c></rc>
    <rc><c>Pd</c><c>   2</c></rc>
   </set>
  </array>
  <array name="atomtypes" >
   <dimension dim="1">type</dimension>
   <field type="int">atomspertype</field>
   <field type="string">element</field>
   <field>mass</field>
   <field>valence</field>
   <field type="string">pseudopotential</field>
   <set>
    <rc><c>   6</c><c>Ni</c><c>     58.69000000</c><c>     10.00000000</c><c>  PAW_PBE Ni 02Aug2007                  </c></rc>
    <rc><c>   4</c><c>Pd</c><c>    106.42000000</c><c>     10.00000000</c><c>  PAW_PBE Pd 04Jan2005                  </c></rc>
   </set>
  </array>
 </atominfo>
 <structure name="initialpos" >
  <crystal>
   <varray name="basis" >
    <v>      21.08005917       0.00000000       0.00000000 </v>
    <v>       0.00000000      22.29418195       0.00000000 </v>
    <v>       0.00000000       0.00000000      25.33662833 </v>
   </varray>
   <i name="volume">  11907.26961362 </i>
   <varray name="rec_basis" >
    <v>       0.04743820       0.00000000       0.00000000 </v>
    <v>       0.00000000       0.04485475       0.00000000 </v>
    <v>       0.00000000       0.00000000       0.03946855 </v>
   </varray>
  </crystal>
  <varray name="positions" >
   <v>       0.58224351       0.54044546       0.48159682 </v>
   <v>       0.55094102       0.50422156       0.39618483 </v>
   <v>       0.48486140       0.57622990       0.44435039 </v>
   <v>       0.44726758       0.47423576       0.42035045 </v>
   <v>       0.45698390       0.50418779       0.51075442 </v>
   <v>       0.47778361       0.41420993       0.56052872 </v>
   <v>       0.51079602       0.59344084       0.54503106 </v>
   <v>       0.56398624       0.48897193       0.56638234 </v>
   <v>       0.45760124       0.51384774       0.60760869 </v>
   <v>       0.53847315       0.43526373       0.47464560 </v>
  </varray>
 </structure>
 <calculation>
  <scstep>
   <time name="dav">    6.27    6.27</time>
   <time name="total">    8.75    8.77</time>
   <energy>
    <i name="alphaZ">      4.75925485 </i>
    <i name="ewald">  12664.72451038 </i>
    <i name="hartreedc"> -21646.24050718 </i>
    <i name="XCdc">     62.75049838 </i>
    <i name="pawpsdc">   9003.59075477 </i>
    <i name="pawaedc">  -9155.75339974 </i>
    <i name="eentropy">     -0.02604808 </i>
    <i name="bandstr">     59.76209981 </i>
    <i name="atom">   9704.95859309 </i>
    <i name="e_fr_energy">    698.52575628 </i>
    <i name="e_wo_entrp">    698.55180436 </i>
    <i name="e_0_energy">    698.53443897 </i>
   </energy>
  </scstep>
  <scstep>
   <time name="dav">    9.50    9.51</time>
   <time name="total">    9.51    9.51</time>
   <energy>
    <i name="e_fr_energy">    244.04570750 </i>
    <i name="e_wo_entrp">    244.06131182 </i>
    <i name="e_0_energy">    244.05090894 </i>
   </energy>
  </scstep>
  <scstep>
   <time name="dav">    8.22    8.24</time>
   <time name="total">    8.23    8.24</time>
   <energy>
    <i name="e_fr_energy">     17.05692083 </i>
    <i name="e_wo_entrp">     17.03727359 </i>
    <i name="e_0_energy">     17.05037175 </i>
   </energy>
  </scstep>
  <scstep>
   <time name="dav">    7.84    7.85</time>
   <time name="total">    7.84    7.85</time>
   <energy>
    <i name="e_fr_energy">    -36.86020758 </i>
    <i name="e_wo_entrp">    -36.87341756 </i>
    <i name="e_0_energy">    -36.86461090 </i>
   </energy>
  </scstep>
  <scstep>
   <time name="dav">    6.92    6.93</time>
   <time name="total">    7.63    7.64</time>
   <energy>
    <i name="e_fr_energy">    -43.16071941 </i>
    <i name="e_wo_entrp">    -43.15459233 </i>
    <i name="e_0_energy">    -43.15867705 </i>
   </energy>
  </scstep>
  <scstep>
   <time name="dav">    6.51    6.52</time>
   <time name="total">    9.73    9.74</time>
   <energy>
    <i name="e_fr_energy">    -67.18524122 </i>
    <i name="e_wo_entrp">    -67.17924520 </i>
    <i name="e_0_energy">    -67.18324254 </i>
   </energy>
  </scstep>
  <scstep>
   <time name="dav">    7.39    7.40</time>
   <time name="total">   10.64   10.66</time>
   <energy>
    <i name="e_fr_energy">    -41.91788870 </i>
    <i name="e_wo_entrp">    -41.91455838 </i>
    <i name="e_0_energy">    -41.91677859 </i>
   </energy>
  </scstep>
  <scstep>
   <time name="dav">    7.36    7.37</time>
   <time name="total">   10.57   10.58</time>
   <energy>
    <i name="e_fr_energy">    -38.11581899 </i>
    <i name="e_wo_entrp">    -38.13687875 </i>
    <i name="e_0_energy">    -38.12283891 </i>
   </energy>
  </scstep>
  <scstep>
   <time name="dav">    6.71    6.71</time>
   <time name="total">    9.90    9.92</time>
   <energy>
    <i name="e_fr_energy">    -38.38602834 </i>
    <i name="e_wo_entrp">    -38.35392967 </i>
    <i name="e_0_energy">    -38.37532879 </i>
   </energy>
  </scstep>
  <scstep>
   <time name="dav">    7.22    7.23</time>
   <time name="total">   10.42   10.43</time>
   <energy>
    <i name="e_fr_energy">    -35.32976440 </i>
    <i name="e_wo_entrp">    -35.35957661 </i>
    <i name="e_0_energy">    -35.33970180 </i>
   </energy>
  </scstep>
  <scstep>
   <time name="dav">    7.34    7.35</time>
   <time name="total">   10.56   10.57</time>
   <energy>
    <i name="e_fr_energy">    -35.30566856 </i>
    <i name="e_wo_entrp">    -35.30184597 </i>
    <i name="e_0_energy">    -35.30439436 </i>
   </energy>
  </scstep>
  <scstep>
   <time name="dav">    7.88    7.89</time>
   <time name="total">   11.10   11.12</time>
   <energy>
    <i name="e_fr_energy">    -36.19460010 </i>
    <i name="e_wo_entrp">    -36.23048644 </i>
    <i name="e_0_energy">    -36.20656221 </i>
   </energy>
  </scstep>
  <scstep>
   <time name="dav">    7.02    7.03</time>
   <time name="total">   10.23   10.25</time>
   <energy>
    <i name="e_fr_energy">    -34.46145256 </i>
    <i name="e_wo_entrp">    -34.43554392 </i>
    <i name="e_0_energy">    -34.45281635 </i>
   </energy>
  </scstep>
  <scstep>
   <time name="dav">    7.66    7.67</time>
   <time name="total">   10.88   10.90</time>
   <energy>
    <i name="e_fr_energy">    -34.53145609 </i>
    <i name="e_wo_entrp">    -34.50520011 </i>
    <i name="e_0_energy">    -34.52270410 </i>
   </energy>
  </scstep>
  <scstep>
   <time name="dav">    7.61    7.62</time>
   <time name="total">   10.88   10.90</time>
   <energy>
    <i name="e_fr_energy">    -34.83402441 </i>
    <i name="e_wo_entrp">    -34.81970412 </i>
    <i name="e_0_energy">    -34.82925098 </i>
   </energy>
  </scstep>
  <scstep>
   <time name="dav">    6.66    6.67</time>
   <time name="total">    9.94    9.96</time>
   <energy>
    <i name="e_fr_energy">    -34.88221235 </i>
    <i name="e_wo_entrp">    -34.87415373 </i>
    <i name="e_0_energy">    -34.87952614 </i>
   </energy>
  </scstep>
  <scstep>
   <time name="dav">    7.70    7.71</time>
   <time name="total">   10.97   10.98</time>
   <energy>
    <i name="e_fr_energy">    -35.08263895 </i>
    <i name="e_wo_entrp">    -35.07657743 </i>
    <i name="e_0_energy">    -35.08061845 </i>
   </energy>
  </scstep>
  <scstep>
   <time name="dav">    7.78    7.79</time>
   <time name="total">   11.02   11.04</time>
   <energy>
    <i name="e_fr_energy">    -35.42564183 </i>
    <i name="e_wo_entrp">    -35.44445512 </i>
    <i name="e_0_energy">    -35.43191293 </i>
   </energy>
  </scstep>
  <scstep>
   <time name="dav">    7.29    7.30</time>
   <time name="total">   10.57   10.59</time>
   <energy>
    <i name="e_fr_energy">    -35.61163249 </i>
    <i name="e_wo_entrp">    -35.62303468 </i>
    <i name="e_0_energy">    -35.61543322 </i>
   </energy>
  </scstep>
  <scstep>
   <time name="dav">    7.56    7.56</time>
   <time name="total">   10.86   10.88</time>
   <energy>
    <i name="e_fr_energy">    -35.84327086 </i>
    <i name="e_wo_entrp">    -35.85316485 </i>
    <i name="e_0_energy">    -35.84656885 </i>
   </energy>
  </scstep>
  <scstep>
   <time name="dav">    7.82    7.83</time>
   <time name="total">   11.09   11.11</time>
   <energy>
    <i name="e_fr_energy">    -36.03253379 </i>
    <i name="e_wo_entrp">    -36.03705887 </i>
    <i name="e_0_energy">    -36.03404215 </i>
   </energy>
  </scstep>
  <scstep>
   <time name="dav">    7.24    7.26</time>
   <time name="total">   10.54   10.56</time>
   <energy>
    <i name="e_fr_energy">    -36.19972243 </i>
    <i name="e_wo_entrp">    -36.20851814 </i>
    <i name="e_0_energy">    -36.20265434 </i>
   </energy>
  </scstep>
  <scstep>
   <time name="dav">    7.71    7.72</time>
   <time name="total">   10.99   11.01</time>
   <energy>
    <i name="e_fr_energy">    -36.28751688 </i>
    <i name="e_wo_entrp">    -36.30020062 </i>
    <i name="e_0_energy">    -36.29174480 </i>
   </energy>
  </scstep>
  <scstep>
   <time name="dav">    7.12    7.13</time>
   <time name="total">   10.45   10.46</time>
   <energy>
    <i name="e_fr_energy">    -36.36259766 </i>
    <i name="e_wo_entrp">    -36.37441630 </i>
    <i name="e_0_energy">    -36.36653721 </i>
   </energy>
  </scstep>
  <scstep>
   <time name="dav">    6.87    6.88</time>
   <time name="total">   10.17   10.19</time>
   <energy>
    <i name="e_fr_energy">    -36.43251441 </i>
    <i name="e_wo_entrp">    -36.44440670 </i>
    <i name="e_0_energy">    -36.43647851 </i>
   </energy>
  </scstep>
  <scstep>
   <time name="dav">    5.92    5.93</time>
   <time name="total">    9.25    9.26</time>
   <energy>
    <i name="e_fr_energy">    -36.49265894 </i>
    <i name="e_wo_entrp">    -36.50615181 </i>
    <i name="e_0_energy">    -36.49715656 </i>
   </energy>
  </scstep>
  <scstep>
   <time name="dav">    6.24    6.25</time>
   <time name="total">    9.59    9.60</time>
   <energy>
    <i name="e_fr_energy">    -36.55703413 </i>
    <i name="e_wo_entrp">    -36.56985677 </i>
    <i name="e_0_energy">    -36.56130834 </i>
   </energy>
  </scstep>
  <scstep>
   <time name="dav">    6.24    6.25</time>
   <time name="total">    9.57    9.58</time>
   <energy>
    <i name="e_fr_energy">    -36.62466398 </i>
    <i name="e_wo_entrp">    -36.63708250 </i>
    <i name="e_0_energy">    -36.62880349 </i>
   </energy>
  </scstep>
  <scstep>
   <time name="dav">    6.09    6.10</time>
   <time name="total">    9.46    9.47</time>
   <energy>
    <i name="e_fr_energy">    -36.67484258 </i>
    <i name="e_wo_entrp">    -36.68800246 </i>
    <i name="e_0_energy">    -36.67922921 </i>
   </energy>
  </scstep>
  <scstep>
   <time name="dav">    5.89    5.90</time>
   <time name="total">    9.26    9.28</time>
   <energy>
    <i name="e_fr_energy">    -36.72732396 </i>
    <i name="e_wo_entrp">    -36.73994308 </i>
    <i name="e_0_energy">    -36.73153033 </i>
   </energy>
  </scstep>
  <scstep>
   <time name="dav">    5.83    5.83</time>
   <time name="total">    9.25    9.27</time>
   <energy>
    <i name="e_fr_energy">    -36.76002963 </i>
    <i name="e_wo_entrp">    -36.77292016 </i>
    <i name="e_0_energy">    -36.76432647 </i>
   </energy>
  </scstep>
  <scstep>
   <time name="dav">    5.66    5.67</time>
   <time name="total">    9.09    9.10</time>
   <energy>
    <i name="e_fr_energy">    -36.78493177 </i>
    <i name="e_wo_entrp">    -36.79764530 </i>
    <i name="e_0_energy">    -36.78916961 </i>
   </energy>
  </scstep>
  <scstep>
   <time name="dav">    5.08    5.09</time>
   <time name="total">    8.52    8.53</time>
   <energy>
    <i name="e_fr_energy">    -36.80031281 </i>
    <i name="e_wo_entrp">    -36.81303671 </i>
    <i name="e_0_energy">    -36.80455411 </i>
   </energy>
  </scstep>
  <scstep>
   <time name="dav">    4.89    4.90</time>
   <time name="total">    8.38    8.39</time>
   <energy>
    <i name="e_fr_energy">    -36.80932370 </i>
    <i name="e_wo_entrp">    -36.82206188 </i>
    <i name="e_0_energy">    -36.81356976 </i>
   </energy>
  </scstep>
  <scstep>
   <time name="dav">    4.85    4.86</time>
   <time name="total">    8.33    8.35</time>
   <energy>
    <i name="e_fr_energy">    -36.81577916 </i>
    <i name="e_wo_entrp">    -36.82856364 </i>
    <i name="e_0_energy">    -36.82004065 </i>
   </energy>
  </scstep>
  <scstep>
   <time name="dav">    4.74    4.75</time>
   <time name="total">    8.21    8.22</time>
   <energy>
    <i name="e_fr_energy">    -36.81937272 </i>
    <i name="e_wo_entrp">    -36.83217906 </i>
    <i name="e_0_energy">    -36.82364150 </i>
   </energy>
  </scstep>
  <scstep>
   <time name="dav">    4.66    4.67</time>
   <time name="total">    8.12    8.14</time>
   <energy>
    <i name="e_fr_energy">    -36.82160234 </i>
    <i name="e_wo_entrp">    -36.83444164 </i>
    <i name="e_0_energy">    -36.82588211 </i>
   </energy>
  </scstep>
  <scstep>
   <time name="dav">    4.61    4.62</time>
   <time name="total">    8.10    8.12</time>
   <energy>
    <i name="e_fr_energy">    -36.82340869 </i>
    <i name="e_wo_entrp">    -36.83625356 </i>
    <i name="e_0_energy">    -36.82769031 </i>
   </energy>
  </scstep>
  <scstep>
   <time name="dav">    4.68    4.69</time>
   <time name="total">    8.18    8.20</time>
   <energy>
    <i name="e_fr_energy">    -36.82491428 </i>
    <i name="e_wo_entrp">    -36.83777690 </i>
    <i name="e_0_energy">    -36.82920182 </i>
   </energy>
  </scstep>
  <scstep>
   <time name="dav">    4.68    4.69</time>
   <time name="total">    8.20    8.22</time>
   <energy>
    <i name="e_fr_energy">    -36.82592690 </i>
    <i name="e_wo_entrp">    -36.83877964 </i>
    <i name="e_0_energy">    -36.83021115 </i>
   </energy>
  </scstep>
  <scstep>
   <time name="dav">    4.49    4.50</time>
   <time name="total">    8.04    8.05</time>
   <energy>
    <i name="e_fr_energy">    -36.82673464 </i>
    <i name="e_wo_entrp">    -36.83959166 </i>
    <i name="e_0_energy">    -36.83102031 </i>
   </energy>
  </scstep>
  <scstep>
   <time name="dav">    4.65    4.66</time>
   <time name="total">    8.23    8.24</time>
   <energy>
    <i name="e_fr_energy">    -36.82733618 </i>
    <i name="e_wo_entrp">    -36.84021097 </i>
    <i name="e_0_energy">    -36.83162777 </i>
   </energy>
  </scstep>
  <scstep>
   <time name="dav">    4.32    4.32</time>
   <time name="total">    7.89    7.90</time>
   <energy>
    <i name="e_fr_energy">    -36.82767768 </i>
    <i name="e_wo_entrp">    -36.84054185 </i>
    <i name="e_0_energy">    -36.83196574 </i>
   </energy>
  </scstep>
  <scstep>
   <time name="dav">    4.66    4.67</time>
   <time name="total">    8.27    8.29</time>
   <energy>
    <i name="e_fr_energy">    -36.82803060 </i>
    <i name="e_wo_entrp">    -36.84089379 </i>
    <i name="e_0_energy">    -36.83231833 </i>
   </energy>
  </scstep>
  <scstep>
   <time name="dav">    4.47    4.48</time>
   <time name="total">    8.11    8.12</time>
   <energy>
    <i name="e_fr_energy">    -36.82823637 </i>
    <i name="e_wo_entrp">    -36.84108772 </i>
    <i name="e_0_energy">    -36.83252015 </i>
   </energy>
  </scstep>
  <scstep>
   <time name="dav">    4.66    4.67</time>
   <time name="total">    8.33    8.35</time>
   <energy>
    <i name="e_fr_energy">    -36.82842357 </i>
    <i name="e_wo_entrp">    -36.84127307 </i>
    <i name="e_0_energy">    -36.83270673 </i>
   </energy>
  </scstep>
  <scstep>
   <time name="dav">    4.36    4.37</time>
   <time name="total">    6.85    6.86</time>
   <energy>
    <i name="alphaZ">      4.75925485 </i>
    <i name="ewald">  12664.72451038 </i>
    <i name="hartreedc"> -21721.81344351 </i>
    <i name="XCdc">     60.19496203 </i>
    <i name="pawpsdc">  10046.43646244 </i>
    <i name="pawaedc"> -10210.53397043 </i>
    <i name="eentropy">      0.01284450 </i>
    <i name="bandstr">   -585.56772824 </i>
    <i name="atom">   9704.95859309 </i>
    <i name="e_fr_energy">    -36.82851490 </i>
    <i name="e_wo_entrp">    -36.84135939 </i>
    <i name="e_0_energy">    -36.83279640 </i>
   </energy>
  </scstep>
  <structure>
   <crystal>
    <varray name="basis" >
     <v>      21.08005917       0.00000000       0.00000000 </v>
     <v>       0.00000000      22.29418195       0.00000000 </v>
     <v>       0.00000000       0.00000000      25.33662833 </v>
    </varray>
    <i name="volume">  11907.26961362 </i>
    <varray name="rec_basis" >
     <v>       0.04743820       0.00000000       0.00000000 </v>
     <v>       0.00000000       0.04485475       0.00000000 </v>
     <v>       0.00000000       0.00000000       0.03946855 </v>
    </varray>
   </crystal>
   <varray name="positions" >
    <v>       0.58224351       0.54044546       0.48159682 </v>
    <v>       0.55094102       0.50422156       0.39618483 </v>
    <v>       0.48486140       0.57622990       0.44435039 </v>
    <v>       0.44726758       0.47423576       0.42035045 </v>
    <v>       0.45698390       0.50418779       0.51075442 </v>
    <v>       0.47778361       0.41420993       0.56052872 </v>
    <v>       0.51079602       0.59344084       0.54503106 </v>
    <v>       0.56398624       0.48897193       0.56638234 </v>
    <v>       0.45760124       0.51384774       0.60760869 </v>
    <v>       0.53847315       0.43526373       0.47464560 </v>
   </varray>
  </structure>
  <varray name="forces" >
   <v>      -0.68276880      -0.05400723      -0.50931706 </v>
   <v>      -0.41314709       0.14069084       0.64497553 </v>
   <v>       0.37006196      -0.96903756       0.36821086 </v>
   <v>       0.52186970       0.58746618       0.37363160 </v>
   <v>       0.05316835      -0.23031579      -0.59800841 </v>
   <v>       0.09718707       0.52115811      -0.28961307 </v>
   <v>       0.02272598       0.91325914      -0.60949324 </v>
   <v>       0.95424594      -0.66235922       0.37555640 </v>
   <v>      -0.76417552      -0.29412691       0.51011188 </v>
   <v>      -0.15916760       0.04727243      -0.26605448 </v>
  </varray>
  <energy>
   <i name="e_fr_energy">    -36.82851490 </i>
   <i name="e_wo_entrp">    -36.84135939 </i>
   <i name="e_0_energy">    -36.83279640 </i>
  </energy>
  <time name="totalsc">  450.59  451.30</time>
 </calculation>
 <calculation>
  <scstep>
   <time name="dav">    5.96    5.97</time>
   <time name="total">    9.15    9.19</time>
   <energy>
    <i name="alphaZ">      4.75925485 </i>
    <i name="ewald">  12748.59569461 </i>
    <i name="hartreedc"> -21805.08913757 </i>
    <i name="XCdc">     60.35774781 </i>
    <i name="pawpsdc">  10046.43873298 </i>
    <i name="pawaedc"> -10210.53631922 </i>
    <i name="eentropy">      0.02965993 </i>
    <i name="bandstr">   -586.44236087 </i>
    <i name="atom">   9704.95859309 </i>
    <i name="e_fr_energy">    -36.92813441 </i>
    <i name="e_wo_entrp">    -36.95779434 </i>
    <i name="e_0_energy">    -36.93802105 </i>
   </energy>
  </scstep>
  <scstep>
   <time name="dav">    8.05    8.07</time>
   <time name="total">   11.20   11.23</time>
   <energy>
    <i name="e_fr_energy">    -37.70315490 </i>
    <i name="e_wo_entrp">    -37.65604581 </i>
    <i name="e_0_energy">    -37.68745187 </i>
   </energy>
  </scstep>
  <scstep>
   <time name="dav">    7.53    7.55</time>
   <time name="total">   10.67   10.71</time>
   <energy>
    <i name="e_fr_energy">    -37.00391331 </i>
    <i name="e_wo_entrp">    -37.01649472 </i>
    <i name="e_0_energy">    -37.00810711 </i>
   </energy>
  </scstep>
  <scstep>
   <time name="dav">    7.90    7.92</time>
   <time name="total">   11.06   11.10</time>
   <energy>
    <i name="e_fr_energy">    -37.13231444 </i>
    <i name="e_wo_entrp">    -37.15630840 </i>
    <i name="e_0_energy">    -37.14031243 </i>
   </energy>
  </scstep>
  <scstep>
   <time name="dav">    7.12    7.14</time>
   <time name="total">   10.29   10.32</time>
   <energy>
    <i name="e_fr_energy">    -37.11525102 </i>
    <i name="e_wo_entrp">    -37.12686081 </i>
    <i name="e_0_energy">    -37.11912095 </i>
   </energy>
  </scstep>
  <scstep>
   <time name="dav">    7.29    7.31</time>
   <time name="total">   10.45   10.49</time>
   <energy>
    <i name="e_fr_energy">    -37.06140747 </i>
    <i name="e_wo_entrp">    -37.08326714 </i>
    <i name="e_0_energy">    -37.06869403 </i>
   </energy>
  </scstep>
  <scstep>
   <time name="dav">    7.86    7.88</time>
   <time name="total">   11.06   11.09</time>
   <energy>
    <i name="e_fr_energy">    -37.08540535 </i>
    <i name="e_wo_entrp">    -37.09608870 </i>
    <i name="e_0_energy">    -37.08896647 </i>
   </energy>
  </scstep>
  <scstep>
   <time name="dav">    7.71    7.73</time>
   <time name="total">   10.89   10.91</time>
   <energy>
    <i name="e_fr_energy">    -37.08289717 </i>
    <i name="e_wo_entrp">    -37.10353701 </i>
    <i name="e_0_energy">    -37.08977712 </i>
   </energy>
  </scstep>
  <scstep>
   <time name="dav">    7.14    7.16</time>
   <time name="total">   10.37   10.40</time>
   <energy>
    <i name="e_fr_energy">    -37.07595637 </i>
    <i name="e_wo_entrp">    -37.09636195 </i>
    <i name="e_0_energy">    -37.08275823 </i>
   </energy>
  </scstep>
  <scstep>
   <time name="dav">    7.65    7.67</time>
   <time name="total">   10.85   10.88</time>
   <energy>
    <i name="e_fr_energy">    -37.08023717 </i>
    <i name="e_wo_entrp">    -37.10167096 </i>
    <i name="e_0_energy">    -37.08738177 </i>
   </energy>
  </scstep>
  <scstep>
   <time name="dav">    6.96    6.98</time>
   <time name="total">   10.21   10.23</time>
   <energy>
    <i name="e_fr_energy">    -37.07829214 </i>
    <i name="e_wo_entrp">    -37.09980900 </i>
    <i name="e_0_energy">    -37.08546443 </i>
   </energy>
  </scstep>
  <scstep>
   <time name="dav">    7.85    7.87</time>
   <time name="total">   11.08   11.11</time>
   <energy>
    <i name="e_fr_energy">    -37.07933775 </i>
    <i name="e_wo_entrp">    -37.09911843 </i>
    <i name="e_0_energy">    -37.08593131 </i>
   </energy>
  </scstep>
  <scstep>
   <time name="dav">    7.19    7.21</time>
   <time name="total">   10.44   10.47</time>
   <energy>
    <i name="e_fr_energy">    -37.08014272 </i>
    <i name="e_wo_entrp">    -37.09883017 </i>
    <i name="e_0_energy">    -37.08637187 </i>
   </energy>
  </scstep>
  <scstep>
   <time name="dav">    4.61    4.63</time>
   <time name="total">    7.87    7.89</time>
   <energy>
    <i name="e_fr_energy">    -37.08068258 </i>
    <i name="e_wo_entrp">    -37.10018850 </i>
    <i name="e_0_energy">    -37.08718455 </i>
   </energy>
  </scstep>
  <scstep>
   <time name="dav">    4.70    4.71</time>
   <time name="total">    7.99    8.01</time>
   <energy>
    <i name="e_fr_energy">    -37.08129989 </i>
    <i name="e_wo_entrp">    -37.10125807 </i>
    <i name="e_0_energy">    -37.08795262 </i>
   </energy>
  </scstep>
  <scstep>
   <time name="dav">    4.62    4.64</time>
   <time name="total">    7.93    7.97</time>
   <energy>
    <i name="e_fr_energy">    -37.08174011 </i>
    <i name="e_wo_entrp">    -37.10164562 </i>
    <i name="e_0_energy">    -37.08837528 </i>
   </energy>
  </scstep>
  <scstep>
   <time name="dav">    4.61    4.63</time>
   <time name="total">    7.91    7.93</time>
   <energy>
    <i name="e_fr_energy">    -37.08212912 </i>
    <i name="e_wo_entrp">    -37.10203941 </i>
    <i name="e_0_energy">    -37.08876588 </i>
   </energy>
  </scstep>
  <scstep>
   <time name="dav">    4.54    4.55</time>
   <time name="total">    7.83    7.86</time>
   <energy>
    <i name="e_fr_energy">    -37.08249423 </i>
    <i name="e_wo_entrp">    -37.10244000 </i>
    <i name="e_0_energy">    -37.08914282 </i>
   </energy>
  </scstep>
  <scstep>
   <time name="dav">    4.54    4.55</time>
   <time name="total">    7.84    7.86</time>
   <energy>
    <i name="e_fr_energy">    -37.08277858 </i>
    <i name="e_wo_entrp">    -37.10273485 </i>
    <i name="e_0_energy">    -37.08943067 </i>
   </energy>
  </scstep>
  <scstep>
   <time name="dav">    4.54    4.55</time>
   <time name="total">    7.88    7.90</time>
   <energy>
    <i name="e_fr_energy">    -37.08306475 </i>
    <i name="e_wo_entrp">    -37.10301308 </i>
    <i name="e_0_energy">    -37.08971420 </i>
   </energy>
  </scstep>
  <scstep>
   <time name="dav">    4.52    4.53</time>
   <time name="total">    7.85    7.88</time>
   <energy>
    <i name="e_fr_energy">    -37.08324800 </i>
    <i name="e_wo_entrp">    -37.10318394 </i>
    <i name="e_0_energy">    -37.08989332 </i>
   </energy>
  </scstep>
  <scstep>
   <time name="dav">    4.53    4.55</time>
   <time name="total">    7.88    7.90</time>
   <energy>
    <i name="e_fr_energy">    -37.08342242 </i>
    <i name="e_wo_entrp">    -37.10334955 </i>
    <i name="e_0_energy">    -37.09006479 </i>
   </energy>
  </scstep>
  <scstep>
   <time name="dav">    4.55    4.56</time>
   <time name="total">    7.90    7.92</time>
   <energy>
    <i name="e_fr_energy">    -37.08358131 </i>
    <i name="e_wo_entrp">    -37.10350506 </i>
    <i name="e_0_energy">    -37.09022256 </i>
   </energy>
  </scstep>
  <scstep>
   <time name="dav">    4.55    4.56</time>
   <time name="total">    7.91    7.93</time>
   <energy>
    <i name="e_fr_energy">    -37.08379246 </i>
    <i name="e_wo_entrp">    -37.10371917 </i>
    <i name="e_0_energy">    -37.09043470 </i>
   </energy>
  </scstep>
  <scstep>
   <time name="dav">    4.53    4.54</time>
   <time name="total">    7.90    7.92</time>
   <energy>
    <i name="e_fr_energy">    -37.08393953 </i>
    <i name="e_wo_entrp">    -37.10387514 </i>
    <i name="e_0_energy">    -37.09058473 </i>
   </energy>
  </scstep>
  <scstep>
   <time name="dav">    4.53    4.54</time>
   <time name="total">    7.91    7.93</time>
   <energy>
    <i name="e_fr_energy">    -37.08405042 </i>
    <i name="e_wo_entrp">    -37.10398012 </i>
    <i name="e_0_energy">    -37.09069365 </i>
   </energy>
  </scstep>
  <scstep>
   <time name="dav">    4.53    4.54</time>
   <time name="total">    7.95    7.97</time>
   <energy>
    <i name="e_fr_energy">    -37.08419291 </i>
    <i name="e_wo_entrp">    -37.10412385 </i>
    <i name="e_0_energy">    -37.09083655 </i>
   </energy>
  </scstep>
  <scstep>
   <time name="dav">    4.50    4.51</time>
   <time name="total">    7.02    7.04</time>
   <energy>
    <i name="alphaZ">      4.75925485 </i>
    <i name="ewald">  12748.59569461 </i>
    <i name="hartreedc"> -21803.77822454 </i>
    <i name="XCdc">     60.26219587 </i>
    <i name="pawpsdc">  10066.17062209 </i>
    <i name="pawaedc"> -10230.35267100 </i>
    <i name="eentropy">      0.01993062 </i>
    <i name="bandstr">   -587.71967925 </i>
    <i name="atom">   9704.95859309 </i>
    <i name="e_fr_energy">    -37.08428365 </i>
    <i name="e_wo_entrp">    -37.10421427 </i>
    <i name="e_0_energy">    -37.09092719 </i>
   </energy>
  </scstep>
  <structure>
   <crystal>
    <varray name="basis" >
     <v>      21.08005917       0.00000000       0.00000000 </v>
     <v>       0.00000000      22.29418195       0.00000000 </v>
     <v>       0.00000000       0.00000000      25.33662833 </v>
    </varray>
    <i name="volume">  11907.26961362 </i>
    <varray name="rec_basis" >
     <v>       0.04743820       0.00000000       0.00000000 </v>
     <v>       0.00000000       0.04485475       0.00000000 </v>
     <v>       0.00000000       0.00000000       0.03946855 </v>
    </varray>
   </crystal>
   <varray name="positions" >
    <v>       0.58068096       0.54032859       0.48062704 </v>
    <v>       0.54999552       0.50452601       0.39741290 </v>
    <v>       0.48570830       0.57413299       0.44505148 </v>
    <v>       0.44846190       0.47550698       0.42106187 </v>
    <v>       0.45710558       0.50368941       0.50961577 </v>
    <v>       0.47800603       0.41533767       0.55997728 </v>
    <v>       0.51084803       0.59541705       0.54387055 </v>
    <v>       0.56617008       0.48753864       0.56709742 </v>
    <v>       0.45585239       0.51321128       0.60857998 </v>
    <v>       0.53810889       0.43536603       0.47413901 </v>
   </varray>
  </structure>
  <varray name="forces" >
   <v>      -0.43822723      -0.10258068      -0.05924077 </v>
   <v>      -0.10950903       0.10235388       0.15478048 </v>
   <v>       0.11913071      -0.39611315       0.22867189 </v>
   <v>       0.08348151       0.32159030       0.08406446 </v>
   <v>       0.16527608      -0.07120872       0.06672960 </v>
   <v>       0.08501274       0.51613387      -0.17788489 </v>
   <v>      -0.03604842       0.25426580      -0.39485713 </v>
   <v>       0.33296800      -0.25137832       0.24700002 </v>
   <v>      -0.21554144      -0.23971221      -0.11962609 </v>
   <v>       0.01345708      -0.13335077      -0.02963759 </v>
  </varray>
  <energy>
   <i name="e_fr_energy">    -37.08428365 </i>
   <i name="e_wo_entrp">    -37.10421427 </i>
   <i name="e_0_energy">    -37.09092719 </i>
  </energy>
  <time name="totalsc">  264.90  265.70</time>
 </calculation>
 <calculation>
  <scstep>
   <time name="dav">    5.90    5.92</time>
   <time name="total">    9.11    9.14</time>
   <energy>
    <i name="alphaZ">      4.75925485 </i>
    <i name="ewald">  12799.49971516 </i>
    <i name="hartreedc"> -21853.75144090 </i>
    <i name="XCdc">     60.37747719 </i>
    <i name="pawpsdc">  10066.17173386 </i>
    <i name="pawaedc"> -10230.35362087 </i>
    <i name="eentropy">      0.02879855 </i>
    <i name="bandstr">   -588.76276841 </i>
    <i name="atom">   9704.95859309 </i>
    <i name="e_fr_energy">    -37.07225749 </i>
    <i name="e_wo_entrp">    -37.10105604 </i>
    <i name="e_0_energy">    -37.08185701 </i>
   </energy>
  </scstep>
  <scstep>
   <time name="dav">    8.07    8.09</time>
   <time name="total">   11.24   11.27</time>
   <energy>
    <i name="e_fr_energy">    -37.24701136 </i>
    <i name="e_wo_entrp">    -37.23217171 </i>
    <i name="e_0_energy">    -37.24206481 </i>
   </energy>
  </scstep>
  <scstep>
   <time name="dav">    7.15    7.17</time>
   <time name="total">   10.31   10.34</time>
   <energy>
    <i name="e_fr_energy">    -37.09325655 </i>
    <i name="e_wo_entrp">    -37.11918857 </i>
    <i name="e_0_energy">    -37.10190056 </i>
   </energy>
  </scstep>
  <scstep>
   <time name="dav">    7.81    7.83</time>
   <time name="total">   11.00   11.03</time>
   <energy>
    <i name="e_fr_energy">    -37.12747015 </i>
    <i name="e_wo_entrp">    -37.15141946 </i>
    <i name="e_0_energy">    -37.13545325 </i>
   </energy>
  </scstep>
  <scstep>
   <time name="dav">    7.38    7.40</time>
   <time name="total">   10.56   10.59</time>
   <energy>
    <i name="e_fr_energy">    -37.13185415 </i>
    <i name="e_wo_entrp">    -37.16047781 </i>
    <i name="e_0_energy">    -37.14139537 </i>
   </energy>
  </scstep>
  <scstep>
   <time name="dav">    7.26    7.27</time>
   <time name="total">   10.44   10.46</time>
   <energy>
    <i name="e_fr_energy">    -37.11462498 </i>
    <i name="e_wo_entrp">    -37.13938417 </i>
    <i name="e_0_energy">    -37.12287804 </i>
   </energy>
  </scstep>
  <scstep>
   <time name="dav">    8.10    8.12</time>
   <time name="total">   11.30   11.34</time>
   <energy>
    <i name="e_fr_energy">    -37.12365580 </i>
    <i name="e_wo_entrp">    -37.14313084 </i>
    <i name="e_0_energy">    -37.13014748 </i>
   </energy>
  </scstep>
  <scstep>
   <time name="dav">    7.52    7.54</time>
   <time name="total">   10.72   10.75</time>
   <energy>
    <i name="e_fr_energy">    -37.11962486 </i>
    <i name="e_wo_entrp">    -37.14270495 </i>
    <i name="e_0_energy">    -37.12731822 </i>
   </energy>
  </scstep>
  <scstep>
   <time name="dav">    7.82    7.84</time>
   <time name="total">   11.03   11.06</time>
   <energy>
    <i name="e_fr_energy">    -37.12336103 </i>
    <i name="e_wo_entrp">    -37.14542506 </i>
    <i name="e_0_energy">    -37.13071571 </i>
   </energy>
  </scstep>
  <scstep>
   <time name="dav">    7.39    7.41</time>
   <time name="total">   10.61   10.64</time>
   <energy>
    <i name="e_fr_energy">    -37.11779907 </i>
    <i name="e_wo_entrp">    -37.14283037 </i>
    <i name="e_0_energy">    -37.12614284 </i>
   </energy>
  </scstep>
  <scstep>
   <time name="dav">    6.76    6.77</time>
   <time name="total">   10.02   10.04</time>
   <energy>
    <i name="e_fr_energy">    -37.12046835 </i>
    <i name="e_wo_entrp">    -37.14467379 </i>
    <i name="e_0_energy">    -37.12853683 </i>
   </energy>
  </scstep>
  <scstep>
   <time name="dav">    6.79    6.80</time>
   <time name="total">   10.05   10.08</time>
   <energy>
    <i name="e_fr_energy">    -37.12068408 </i>
    <i name="e_wo_entrp">    -37.14521548 </i>
    <i name="e_0_energy">    -37.12886122 </i>
   </energy>
  </scstep>
  <scstep>
   <time name="dav">    4.75    4.76</time>
   <time name="total">    8.03    8.05</time>
   <energy>
    <i name="e_fr_energy">    -37.12087947 </i>
    <i name="e_wo_entrp">    -37.14438733 </i>
    <i name="e_0_energy">    -37.12871542 </i>
   </energy>
  </scstep>
  <scstep>
   <time name="dav">    4.65    4.67</time>
   <time name="total">    7.90    7.93</time>
   <energy>
    <i name="e_fr_energy">    -37.12118401 </i>
    <i name="e_wo_entrp">    -37.14511543 </i>
    <i name="e_0_energy">    -37.12916115 </i>
   </energy>
  </scstep>
  <scstep>
   <time name="dav">    4.55    4.56</time>
   <time name="total">    7.83    7.85</time>
   <energy>
    <i name="e_fr_energy">    -37.12135129 </i>
    <i name="e_wo_entrp">    -37.14549182 </i>
    <i name="e_0_energy">    -37.12939813 </i>
   </energy>
  </scstep>
  <scstep>
   <time name="dav">    4.55    4.56</time>
   <time name="total">    7.82    7.85</time>
   <energy>
    <i name="e_fr_energy">    -37.12149302 </i>
    <i name="e_wo_entrp">    -37.14566795 </i>
    <i name="e_0_energy">    -37.12955133 </i>
   </energy>
  </scstep>
  <scstep>
   <time name="dav">    4.53    4.54</time>
   <time name="total">    7.82    7.84</time>
   <energy>
    <i name="e_fr_energy">    -37.12160155 </i>
    <i name="e_wo_entrp">    -37.14581029 </i>
    <i name="e_0_energy">    -37.12967113 </i>
   </energy>
  </scstep>
  <scstep>
   <time name="dav">    4.52    4.53</time>
   <time name="total">    7.83    7.85</time>
   <energy>
    <i name="e_fr_energy">    -37.12171369 </i>
    <i name="e_wo_entrp">    -37.14592130 </i>
    <i name="e_0_energy">    -37.12978289 </i>
   </energy>
  </scstep>
  <scstep>
   <time name="dav">    4.54    4.55</time>
   <time name="total">    7.87    7.89</time>
   <energy>
    <i name="e_fr_energy">    -37.12182834 </i>
    <i name="e_wo_entrp">    -37.14604264 </i>
    <i name="e_0_energy">    -37.12989977 </i>
   </energy>
  </scstep>
  <scstep>
   <time name="dav">    4.54    4.55</time>
   <time name="total">    7.03    7.05</time>
   <energy>
    <i name="alphaZ">      4.75925485 </i>
    <i name="ewald">  12799.49971516 </i>
    <i name="hartreedc"> -21853.01481108 </i>
    <i name="XCdc">     60.33236631 </i>
    <i name="pawpsdc">  10087.88500028 </i>
    <i name="pawaedc"> -10252.23876880 </i>
    <i name="eentropy">      0.02420929 </i>
    <i name="bandstr">   -589.32747745 </i>
    <i name="atom">   9704.95859309 </i>
    <i name="e_fr_energy">    -37.12191836 </i>
    <i name="e_wo_entrp">    -37.14612764 </i>
    <i name="e_0_energy">    -37.12998812 </i>
   </energy>
  </scstep>
  <structure>
   <crystal>
    <varray name="basis" >
     <v>      21.08005917       0.00000000       0.00000000 </v>
     <v>       0.00000000      22.29418195       0.00000000 </v>
     <v>       0.00000000       0.00000000      25.33662833 </v>
    </varray>
    <i name="volume">  11907.26961362 </i>
    <varray name="rec_basis" >
     <v>       0.04743820       0.00000000       0.00000000 </v>
     <v>       0.00000000       0.04485475       0.00000000 </v>
     <v>       0.00000000       0.00000000       0.03946855 </v>
    </varray>
   </crystal>
   <varray name="positions" >
    <v>       0.57980374       0.54026298       0.48008261 </v>
    <v>       0.54946471       0.50469692       0.39810235 </v>
    <v>       0.48618375       0.57295578       0.44544508 </v>
    <v>       0.44913239       0.47622065       0.42146126 </v>
    <v>       0.45717389       0.50340962       0.50897654 </v>
    <v>       0.47813090       0.41597079       0.55966770 </v>
    <v>       0.51087722       0.59652650       0.54321903 </v>
    <v>       0.56739608       0.48673400       0.56749887 </v>
    <v>       0.45487058       0.51285396       0.60912526 </v>
    <v>       0.53790439       0.43542345       0.47385461 </v>
   </varray>
  </structure>
  <varray name="forces" >
   <v>      -0.22728616      -0.13949353       0.22588501 </v>
   <v>       0.09471601       0.06571098      -0.18308459 </v>
   <v>      -0.07192466       0.02743986       0.13319484 </v>
   <v>      -0.20941343       0.13157418      -0.11434999 </v>
   <v>       0.19191977      -0.00189387       0.45761855 </v>
   <v>       0.08118398       0.50491834      -0.11170926 </v>
   <v>      -0.06427630      -0.02436941      -0.29396354 </v>
   <v>       0.05526980      -0.07973399       0.16546546 </v>
   <v>       0.02350809      -0.22408830      -0.39285968 </v>
   <v>       0.12630291      -0.26006427       0.11380321 </v>
  </varray>
  <energy>
   <i name="e_fr_energy">    -37.12191836 </i>
   <i name="e_wo_entrp">    -37.14612764 </i>
   <i name="e_0_energy">    -37.12998812 </i>
  </energy>
  <time name="totalsc">  197.96  198.57</time>
 </calculation>
 <calculation>
  <scstep>
   <time name="dav">    5.92    5.94</time>
   <time name="total">    9.10    9.13</time>
   <energy>
    <i name="alphaZ">      4.75925485 </i>
    <i name="ewald">  12847.17881839 </i>
    <i name="hartreedc"> -21900.22445415 </i>
    <i name="XCdc">     60.45010908 </i>
    <i name="pawpsdc">  10087.88481008 </i>
    <i name="pawaedc"> -10252.23848580 </i>
    <i name="eentropy">      0.02761779 </i>
    <i name="bandstr">   -589.93213740 </i>
    <i name="atom">   9704.95859309 </i>
    <i name="e_fr_energy">    -37.13587408 </i>
    <i name="e_wo_entrp">    -37.16349186 </i>
    <i name="e_0_energy">    -37.14508001 </i>
   </energy>
  </scstep>
  <scstep>
   <time name="dav">    7.52    7.53</time>
   <time name="total">   10.69   10.72</time>
   <energy>
    <i name="e_fr_energy">    -37.50994651 </i>
    <i name="e_wo_entrp">    -37.52540764 </i>
    <i name="e_0_energy">    -37.51510022 </i>
   </energy>
  </scstep>
  <scstep>
   <time name="dav">    7.26    7.28</time>
   <time name="total">   10.44   10.47</time>
   <energy>
    <i name="e_fr_energy">    -37.09564956 </i>
    <i name="e_wo_entrp">    -37.11512395 </i>
    <i name="e_0_energy">    -37.10214103 </i>
   </energy>
  </scstep>
  <scstep>
   <time name="dav">    7.92    7.94</time>
   <time name="total">   11.10   11.13</time>
   <energy>
    <i name="e_fr_energy">    -37.17771226 </i>
    <i name="e_wo_entrp">    -37.20973702 </i>
    <i name="e_0_energy">    -37.18838718 </i>
   </energy>
  </scstep>
  <scstep>
   <time name="dav">    7.56    7.58</time>
   <time name="total">   10.72   10.75</time>
   <energy>
    <i name="e_fr_energy">    -37.16795522 </i>
    <i name="e_wo_entrp">    -37.19258424 </i>
    <i name="e_0_energy">    -37.17616490 </i>
   </energy>
  </scstep>
  <scstep>
   <time name="dav">    7.52    7.54</time>
   <time name="total">   10.70   10.73</time>
   <energy>
    <i name="e_fr_energy">    -37.16958574 </i>
    <i name="e_wo_entrp">    -37.19807528 </i>
    <i name="e_0_energy">    -37.17908226 </i>
   </energy>
  </scstep>
  <scstep>
   <time name="dav">    7.52    7.54</time>
   <time name="total">   10.72   10.75</time>
   <energy>
    <i name="e_fr_energy">    -37.16773681 </i>
    <i name="e_wo_entrp">    -37.19364799 </i>
    <i name="e_0_energy">    -37.17637387 </i>
   </energy>
  </scstep>
  <scstep>
   <time name="dav">    8.01    8.02</time>
   <time name="total">   11.19   11.23</time>
   <energy>
    <i name="e_fr_energy">    -37.16942516 </i>
    <i name="e_wo_entrp">    -37.19615591 </i>
    <i name="e_0_energy">    -37.17833541 </i>
   </energy>
  </scstep>
  <scstep>
   <time name="dav">    7.20    7.21</time>
   <time name="total">   10.39   10.42</time>
   <energy>
    <i name="e_fr_energy">    -37.16956303 </i>
    <i name="e_wo_entrp">    -37.19922211 </i>
    <i name="e_0_energy">    -37.17944939 </i>
   </energy>
  </scstep>
  <scstep>
   <time name="dav">    7.54    7.56</time>
   <time name="total">   10.75   10.78</time>
   <energy>
    <i name="e_fr_energy">    -37.16898899 </i>
    <i name="e_wo_entrp">    -37.19687707 </i>
    <i name="e_0_energy">    -37.17828502 </i>
   </energy>
  </scstep>
  <scstep>
   <time name="dav">    7.48    7.50</time>
   <time name="total">   10.68   10.71</time>
   <energy>
    <i name="e_fr_energy">    -37.17095642 </i>
    <i name="e_wo_entrp">    -37.19810639 </i>
    <i name="e_0_energy">    -37.18000641 </i>
   </energy>
  </scstep>
  <scstep>
   <time name="dav">    6.53    6.54</time>
   <time name="total">    9.71    9.74</time>
   <energy>
    <i name="e_fr_energy">    -37.16970153 </i>
    <i name="e_wo_entrp">    -37.19691340 </i>
    <i name="e_0_energy">    -37.17877216 </i>
   </energy>
  </scstep>
  <scstep>
   <time name="dav">    5.37    5.39</time>
   <time name="total">    8.57    8.59</time>
   <energy>
    <i name="e_fr_energy">    -37.17020185 </i>
    <i name="e_wo_entrp">    -37.19684768 </i>
    <i name="e_0_energy">    -37.17908380 </i>
   </energy>
  </scstep>
  <scstep>
   <time name="dav">    4.78    4.79</time>
   <time name="total">    7.99    8.01</time>
   <energy>
    <i name="e_fr_energy">    -37.17047746 </i>
    <i name="e_wo_entrp">    -37.19756481 </i>
    <i name="e_0_energy">    -37.17950657 </i>
   </energy>
  </scstep>
  <scstep>
   <time name="dav">    4.52    4.53</time>
   <time name="total">    7.78    7.80</time>
   <energy>
    <i name="e_fr_energy">    -37.17064655 </i>
    <i name="e_wo_entrp">    -37.19783989 </i>
    <i name="e_0_energy">    -37.17971100 </i>
   </energy>
  </scstep>
  <scstep>
   <time name="dav">    4.52    4.53</time>
   <time name="total">    7.77    7.79</time>
   <energy>
    <i name="e_fr_energy">    -37.17075929 </i>
    <i name="e_wo_entrp">    -37.19788815 </i>
    <i name="e_0_energy">    -37.17980224 </i>
   </energy>
  </scstep>
  <scstep>
   <time name="dav">    4.62    4.63</time>
   <time name="total">    7.11    7.13</time>
   <energy>
    <i name="alphaZ">      4.75925485 </i>
    <i name="ewald">  12847.17881839 </i>
    <i name="hartreedc"> -21899.52589635 </i>
    <i name="XCdc">     60.41090803 </i>
    <i name="pawpsdc">  10106.78587273 </i>
    <i name="pawaedc"> -10271.35494403 </i>
    <i name="eentropy">      0.02716490 </i>
    <i name="bandstr">   -590.41060951 </i>
    <i name="atom">   9704.95859309 </i>
    <i name="e_fr_energy">    -37.17083789 </i>
    <i name="e_wo_entrp">    -37.19800279 </i>
    <i name="e_0_energy">    -37.17989286 </i>
   </energy>
  </scstep>
  <structure>
   <crystal>
    <varray name="basis" >
     <v>      21.08005917       0.00000000       0.00000000 </v>
     <v>       0.00000000      22.29418195       0.00000000 </v>
     <v>       0.00000000       0.00000000      25.33662833 </v>
    </varray>
    <i name="volume">  11907.26961362 </i>
    <varray name="rec_basis" >
     <v>       0.04743820       0.00000000       0.00000000 </v>
     <v>       0.00000000       0.04485475       0.00000000 </v>
     <v>       0.00000000       0.00000000       0.03946855 </v>
    </varray>
   </crystal>
   <varray name="positions" >
    <v>       0.57894748       0.53990647       0.48038865 </v>
    <v>       0.54953777       0.50490918       0.39793286 </v>
    <v>       0.48615118       0.57264915       0.44585177 </v>
    <v>       0.44881159       0.47676326       0.42134552 </v>
    <v>       0.45768405       0.50331649       0.50974334 </v>
    <v>       0.47837708       0.41738649       0.55933311 </v>
    <v>       0.51072285       0.59681906       0.54239021 </v>
    <v>       0.56792489       0.48628736       0.56797639 </v>
    <v>       0.45461961       0.51220149       0.60846586 </v>
    <v>       0.53816116       0.43481569       0.47400560 </v>
   </varray>
  </structure>
  <varray name="forces" >
   <v>      -0.11483557      -0.22561530       0.21346522 </v>
   <v>       0.04630659       0.02306740      -0.11309392 </v>
   <v>      -0.15624217       0.09037291       0.02553572 </v>
   <v>      -0.10106750       0.10852104      -0.00003871 </v>
   <v>       0.14761576       0.05453319       0.13806180 </v>
   <v>       0.03930198       0.17672442      -0.03301295 </v>
   <v>      -0.06570729       0.02118801      -0.15237565 </v>
   <v>       0.10529015      -0.00356917       0.14460419 </v>
   <v>      -0.00110508      -0.08771771      -0.21039071 </v>
   <v>       0.10044313      -0.15750478      -0.01275499 </v>
  </varray>
  <energy>
   <i name="e_fr_energy">    -37.17083789 </i>
   <i name="e_wo_entrp">    -37.19800279 </i>
   <i name="e_0_energy">    -37.17989286 </i>
  </energy>
  <time name="totalsc">  174.83  175.34</time>
 </calculation>
 <calculation>
  <scstep>
   <time name="dav">    5.88    5.89</time>
   <time name="total">    9.08    9.10</time>
   <energy>
    <i name="alphaZ">      4.75925485 </i>
    <i name="ewald">  12894.38055489 </i>
    <i name="hartreedc"> -21946.09179982 </i>
    <i name="XCdc">     60.53422997 </i>
    <i name="pawpsdc">  10106.76686396 </i>
    <i name="pawaedc"> -10271.33745159 </i>
    <i name="eentropy">      0.02984574 </i>
    <i name="bandstr">   -591.15074086 </i>
    <i name="atom">   9704.95859309 </i>
    <i name="e_fr_energy">    -37.15064977 </i>
    <i name="e_wo_entrp">    -37.18049551 </i>
    <i name="e_0_energy">    -37.16059835 </i>
   </energy>
  </scstep>
  <scstep>
   <time name="dav">    7.63    7.65</time>
   <time name="total">   10.79   10.82</time>
   <energy>
    <i name="e_fr_energy">    -37.46873337 </i>
    <i name="e_wo_entrp">    -37.48131665 </i>
    <i name="e_0_energy">    -37.47292780 </i>
   </energy>
  </scstep>
  <scstep>
   <time name="dav">    7.25    7.27</time>
   <time name="total">   10.44   10.47</time>
   <energy>
    <i name="e_fr_energy">    -37.11309432 </i>
    <i name="e_wo_entrp">    -37.13887279 </i>
    <i name="e_0_energy">    -37.12168714 </i>
   </energy>
  </scstep>
  <scstep>
   <time name="dav">    8.06    8.08</time>
   <time name="total">   11.24   11.27</time>
   <energy>
    <i name="e_fr_energy">    -37.19231418 </i>
    <i name="e_wo_entrp">    -37.22385519 </i>
    <i name="e_0_energy">    -37.20282785 </i>
   </energy>
  </scstep>
  <scstep>
   <time name="dav">    7.29    7.31</time>
   <time name="total">   10.47   10.51</time>
   <energy>
    <i name="e_fr_energy">    -37.17981263 </i>
    <i name="e_wo_entrp">    -37.20779651 </i>
    <i name="e_0_energy">    -37.18914059 </i>
   </energy>
  </scstep>
  <scstep>
   <time name="dav">    7.52    7.53</time>
   <time name="total">   10.72   10.75</time>
   <energy>
    <i name="e_fr_energy">    -37.18284197 </i>
    <i name="e_wo_entrp">    -37.21370412 </i>
    <i name="e_0_energy">    -37.19312935 </i>
   </energy>
  </scstep>
  <scstep>
   <time name="dav">    7.57    7.59</time>
   <time name="total">   10.71   10.75</time>
   <energy>
    <i name="e_fr_energy">    -37.18092232 </i>
    <i name="e_wo_entrp">    -37.20980689 </i>
    <i name="e_0_energy">    -37.19055051 </i>
   </energy>
  </scstep>
  <scstep>
   <time name="dav">    7.72    7.74</time>
   <time name="total">   10.87   10.90</time>
   <energy>
    <i name="e_fr_energy">    -37.18260688 </i>
    <i name="e_wo_entrp">    -37.21145786 </i>
    <i name="e_0_energy">    -37.19222387 </i>
   </energy>
  </scstep>
  <scstep>
   <time name="dav">    7.01    7.03</time>
   <time name="total">   10.18   10.21</time>
   <energy>
    <i name="e_fr_energy">    -37.18231833 </i>
    <i name="e_wo_entrp">    -37.21441532 </i>
    <i name="e_0_energy">    -37.19301733 </i>
   </energy>
  </scstep>
  <scstep>
   <time name="dav">    7.54    7.56</time>
   <time name="total">   10.73   10.76</time>
   <energy>
    <i name="e_fr_energy">    -37.18190736 </i>
    <i name="e_wo_entrp">    -37.21216623 </i>
    <i name="e_0_energy">    -37.19199365 </i>
   </energy>
  </scstep>
  <scstep>
   <time name="dav">    7.41    7.42</time>
   <time name="total">   10.64   10.67</time>
   <energy>
    <i name="e_fr_energy">    -37.18360245 </i>
    <i name="e_wo_entrp">    -37.21314265 </i>
    <i name="e_0_energy">    -37.19344918 </i>
   </energy>
  </scstep>
  <scstep>
   <time name="dav">    6.76    6.79</time>
   <time name="total">   10.01   10.05</time>
   <energy>
    <i name="e_fr_energy">    -37.18255036 </i>
    <i name="e_wo_entrp">    -37.21235662 </i>
    <i name="e_0_energy">    -37.19248578 </i>
   </energy>
  </scstep>
  <scstep>
   <time name="dav">    5.11    5.12</time>
   <time name="total">    8.34    8.36</time>
   <energy>
    <i name="e_fr_energy">    -37.18305592 </i>
    <i name="e_wo_entrp">    -37.21220886 </i>
    <i name="e_0_energy">    -37.19277356 </i>
   </energy>
  </scstep>
  <scstep>
   <time name="dav">    4.78    4.79</time>
   <time name="total">    8.03    8.05</time>
   <energy>
    <i name="e_fr_energy">    -37.18336582 </i>
    <i name="e_wo_entrp">    -37.21296621 </i>
    <i name="e_0_energy">    -37.19323261 </i>
   </energy>
  </scstep>
  <scstep>
   <time name="dav">    4.53    4.55</time>
   <time name="total">    7.77    7.80</time>
   <energy>
    <i name="e_fr_energy">    -37.18360244 </i>
    <i name="e_wo_entrp">    -37.21330440 </i>
    <i name="e_0_energy">    -37.19350309 </i>
   </energy>
  </scstep>
  <scstep>
   <time name="dav">    4.51    4.52</time>
   <time name="total">    7.76    7.78</time>
   <energy>
    <i name="e_fr_energy">    -37.18379025 </i>
    <i name="e_wo_entrp">    -37.21347246 </i>
    <i name="e_0_energy">    -37.19368432 </i>
   </energy>
  </scstep>
  <scstep>
   <time name="dav">    4.64    4.66</time>
   <time name="total">    7.93    7.96</time>
   <energy>
    <i name="e_fr_energy">    -37.18390550 </i>
    <i name="e_wo_entrp">    -37.21361364 </i>
    <i name="e_0_energy">    -37.19380821 </i>
   </energy>
  </scstep>
  <scstep>
   <time name="dav">    4.48    4.48</time>
   <time name="total">    7.75    7.77</time>
   <energy>
    <i name="e_fr_energy">    -37.18405705 </i>
    <i name="e_wo_entrp">    -37.21374406 </i>
    <i name="e_0_energy">    -37.19395272 </i>
   </energy>
  </scstep>
  <scstep>
   <time name="dav">    4.52    4.53</time>
   <time name="total">    7.79    7.81</time>
   <energy>
    <i name="e_fr_energy">    -37.18421176 </i>
    <i name="e_wo_entrp">    -37.21391675 </i>
    <i name="e_0_energy">    -37.19411342 </i>
   </energy>
  </scstep>
  <scstep>
   <time name="dav">    4.51    4.52</time>
   <time name="total">    7.83    7.85</time>
   <energy>
    <i name="e_fr_energy">    -37.18431400 </i>
    <i name="e_wo_entrp">    -37.21400416 </i>
    <i name="e_0_energy">    -37.19421072 </i>
   </energy>
  </scstep>
  <scstep>
   <time name="dav">    4.51    4.52</time>
   <time name="total">    7.01    7.03</time>
   <energy>
    <i name="alphaZ">      4.75925485 </i>
    <i name="ewald">  12894.38055489 </i>
    <i name="hartreedc"> -21945.38045572 </i>
    <i name="XCdc">     60.49657212 </i>
    <i name="pawpsdc">  10128.32103235 </i>
    <i name="pawaedc"> -10293.14169321 </i>
    <i name="eentropy">      0.02969629 </i>
    <i name="bandstr">   -591.60793579 </i>
    <i name="atom">   9704.95859309 </i>
    <i name="e_fr_energy">    -37.18438115 </i>
    <i name="e_wo_entrp">    -37.21407743 </i>
    <i name="e_0_energy">    -37.19427991 </i>
   </energy>
  </scstep>
  <structure>
   <crystal>
    <varray name="basis" >
     <v>      21.08005917       0.00000000       0.00000000 </v>
     <v>       0.00000000      22.29418195       0.00000000 </v>
     <v>       0.00000000       0.00000000      25.33662833 </v>
    </varray>
    <i name="volume">  11907.26961362 </i>
    <varray name="rec_basis" >
     <v>       0.04743820       0.00000000       0.00000000 </v>
     <v>       0.00000000       0.04485475       0.00000000 </v>
     <v>       0.00000000       0.00000000       0.03946855 </v>
    </varray>
   </crystal>
   <varray name="positions" >
    <v>       0.57811310       0.53955906       0.48068687 </v>
    <v>       0.54960897       0.50511603       0.39776770 </v>
    <v>       0.48611945       0.57235036       0.44624807 </v>
    <v>       0.44849898       0.47729201       0.42123274 </v>
    <v>       0.45818117       0.50322573       0.51049056 </v>
    <v>       0.47861697       0.41876602       0.55900707 </v>
    <v>       0.51057242       0.59710415       0.54158256 </v>
    <v>       0.56844019       0.48585213       0.56844171 </v>
    <v>       0.45437505       0.51156570       0.60782331 </v>
    <v>       0.53841136       0.43422346       0.47415273 </v>
   </varray>
  </structure>
  <varray name="forces" >
   <v>       0.01220824      -0.31909087       0.20009423 </v>
   <v>      -0.00095259      -0.01266605      -0.04592026 </v>
   <v>      -0.24437755       0.15354552      -0.09586857 </v>
   <v>      -0.00260857       0.08247655       0.10043447 </v>
   <v>       0.09602369       0.14366384      -0.21452035 </v>
   <v>       0.00505423      -0.20539136       0.04862394 </v>
   <v>      -0.06993697       0.07788085       0.00305793 </v>
   <v>       0.15733045       0.07490039       0.12261702 </v>
   <v>      -0.03544672       0.06936764       0.01260049 </v>
   <v>       0.08270579      -0.06468651      -0.13111889 </v>
  </varray>
  <energy>
   <i name="e_fr_energy">    -37.18438115 </i>
   <i name="e_wo_entrp">    -37.21407743 </i>
   <i name="e_0_energy">    -37.19427991 </i>
  </energy>
  <time name="totalsc">  205.61  206.32</time>
 </calculation>
 <calculation>
  <scstep>
   <time name="dav">    5.92    5.94</time>
   <time name="total">    9.13    9.16</time>
   <energy>
    <i name="alphaZ">      4.75925485 </i>
    <i name="ewald">  12881.82778739 </i>
    <i name="hartreedc"> -21933.26965491 </i>
    <i name="XCdc">     60.44839653 </i>
    <i name="pawpsdc">  10128.32197937 </i>
    <i name="pawaedc"> -10293.14227427 </i>
    <i name="eentropy">      0.03458199 </i>
    <i name="bandstr">   -591.12044600 </i>
    <i name="atom">   9704.95859309 </i>
    <i name="e_fr_energy">    -37.18178197 </i>
    <i name="e_wo_entrp">    -37.21636396 </i>
    <i name="e_0_energy">    -37.19330930 </i>
   </energy>
  </scstep>
  <scstep>
   <time name="dav">    7.39    7.41</time>
   <time name="total">   10.59   10.62</time>
   <energy>
    <i name="e_fr_energy">    -37.34914202 </i>
    <i name="e_wo_entrp">    -37.36769841 </i>
    <i name="e_0_energy">    -37.35532749 </i>
   </energy>
  </scstep>
  <scstep>
   <time name="dav">    6.98    7.00</time>
   <time name="total">   10.16   10.20</time>
   <energy>
    <i name="e_fr_energy">    -37.17265338 </i>
    <i name="e_wo_entrp">    -37.20596189 </i>
    <i name="e_0_energy">    -37.18375622 </i>
   </energy>
  </scstep>
  <scstep>
   <time name="dav">    8.04    8.05</time>
   <time name="total">   11.22   11.25</time>
   <energy>
    <i name="e_fr_energy">    -37.21225093 </i>
    <i name="e_wo_entrp">    -37.24059533 </i>
    <i name="e_0_energy">    -37.22169907 </i>
   </energy>
  </scstep>
  <scstep>
   <time name="dav">    6.86    6.88</time>
   <time name="total">   10.07   10.09</time>
   <energy>
    <i name="e_fr_energy">    -37.20278621 </i>
    <i name="e_wo_entrp">    -37.23971081 </i>
    <i name="e_0_energy">    -37.21509441 </i>
   </energy>
  </scstep>
  <scstep>
   <time name="dav">    7.67    7.69</time>
   <time name="total">   10.87   10.90</time>
   <energy>
    <i name="e_fr_energy">    -37.20447790 </i>
    <i name="e_wo_entrp">    -37.23973214 </i>
    <i name="e_0_energy">    -37.21622932 </i>
   </energy>
  </scstep>
  <scstep>
   <time name="dav">    7.09    7.11</time>
   <time name="total">   10.29   10.33</time>
   <energy>
    <i name="e_fr_energy">    -37.20388536 </i>
    <i name="e_wo_entrp">    -37.23861430 </i>
    <i name="e_0_energy">    -37.21546167 </i>
   </energy>
  </scstep>
  <scstep>
   <time name="dav">    7.61    7.63</time>
   <time name="total">   10.82   10.85</time>
   <energy>
    <i name="e_fr_energy">    -37.20536148 </i>
    <i name="e_wo_entrp">    -37.23865004 </i>
    <i name="e_0_energy">    -37.21645767 </i>
   </energy>
  </scstep>
  <scstep>
   <time name="dav">    7.75    7.77</time>
   <time name="total">   10.94   10.97</time>
   <energy>
    <i name="e_fr_energy">    -37.20494272 </i>
    <i name="e_wo_entrp">    -37.24127651 </i>
    <i name="e_0_energy">    -37.21705399 </i>
   </energy>
  </scstep>
  <scstep>
   <time name="dav">    7.36    7.38</time>
   <time name="total">   10.56   10.59</time>
   <energy>
    <i name="e_fr_energy">    -37.20522962 </i>
    <i name="e_wo_entrp">    -37.24058635 </i>
    <i name="e_0_energy">    -37.21701519 </i>
   </energy>
  </scstep>
  <scstep>
   <time name="dav">    6.82    6.84</time>
   <time name="total">   10.03   10.06</time>
   <energy>
    <i name="e_fr_energy">    -37.20516588 </i>
    <i name="e_wo_entrp">    -37.24078914 </i>
    <i name="e_0_energy">    -37.21704030 </i>
   </energy>
  </scstep>
  <scstep>
   <time name="dav">    5.29    5.31</time>
   <time name="total">    8.53    8.56</time>
   <energy>
    <i name="e_fr_energy">    -37.20552331 </i>
    <i name="e_wo_entrp">    -37.24073682 </i>
    <i name="e_0_energy">    -37.21726115 </i>
   </energy>
  </scstep>
  <scstep>
   <time name="dav">    4.77    4.79</time>
   <time name="total">    7.27    7.29</time>
   <energy>
    <i name="alphaZ">      4.75925485 </i>
    <i name="ewald">  12881.82778739 </i>
    <i name="hartreedc"> -21933.36885302 </i>
    <i name="XCdc">     60.45244386 </i>
    <i name="pawpsdc">  10119.81847692 </i>
    <i name="pawaedc"> -10284.50915608 </i>
    <i name="eentropy">      0.03477828 </i>
    <i name="bandstr">   -591.17888955 </i>
    <i name="atom">   9704.95859309 </i>
    <i name="e_fr_energy">    -37.20556427 </i>
    <i name="e_wo_entrp">    -37.24034255 </i>
    <i name="e_0_energy">    -37.21715703 </i>
   </energy>
  </scstep>
  <structure>
   <crystal>
    <varray name="basis" >
     <v>      21.08005917       0.00000000       0.00000000 </v>
     <v>       0.00000000      22.29418195       0.00000000 </v>
     <v>       0.00000000       0.00000000      25.33662833 </v>
    </varray>
    <i name="volume">  11907.26961362 </i>
    <varray name="rec_basis" >
     <v>       0.04743820       0.00000000       0.00000000 </v>
     <v>       0.00000000       0.04485475       0.00000000 </v>
     <v>       0.00000000       0.00000000       0.03946855 </v>
    </varray>
   </crystal>
   <varray name="positions" >
    <v>       0.57770070       0.53845420       0.48135390 </v>
    <v>       0.54964443       0.50519104       0.39756251 </v>
    <v>       0.48535905       0.57263097       0.44621897 </v>
    <v>       0.44832263       0.47781407       0.42142613 </v>
    <v>       0.45874106       0.50359001       0.51035026 </v>
    <v>       0.47876159       0.41891857       0.55895446 </v>
    <v>       0.51027866       0.59748173       0.54115517 </v>
    <v>       0.56919635       0.48583306       0.56900270 </v>
    <v>       0.45413548       0.51142265       0.60750901 </v>
    <v>       0.53879772       0.43371835       0.47390019 </v>
   </varray>
  </structure>
  <varray name="forces" >
   <v>      -0.10336809      -0.24048544       0.08462154 </v>
   <v>      -0.04252912       0.01493518       0.05295522 </v>
   <v>      -0.08394113       0.12891562      -0.11424490 </v>
   <v>       0.03194492       0.04682681       0.07730728 </v>
   <v>       0.10659124       0.05535170      -0.17943208 </v>
   <v>       0.05007359      -0.16693651       0.01921506 </v>
   <v>      -0.04086515       0.07497703       0.04411817 </v>
   <v>       0.05616562       0.04930124       0.09502694 </v>
   <v>      -0.00698373       0.07915684       0.01966015 </v>
   <v>       0.03291186      -0.04204248      -0.09922738 </v>
  </varray>
  <energy>
   <i name="e_fr_energy">    -37.20556427 </i>
   <i name="e_wo_entrp">    -37.24034255 </i>
   <i name="e_0_energy">    -37.21715703 </i>
  </energy>
  <time name="totalsc">  139.94  140.37</time>
 </calculation>
 <calculation>
  <scstep>
   <time name="dav">    5.92    5.94</time>
   <time name="total">    9.10    9.13</time>
   <energy>
    <i name="alphaZ">      4.75925485 </i>
    <i name="ewald">  12862.38943569 </i>
    <i name="hartreedc"> -21914.56666368 </i>
    <i name="XCdc">     60.38869281 </i>
    <i name="pawpsdc">  10119.75935231 </i>
    <i name="pawaedc"> -10284.45490034 </i>
    <i name="eentropy">      0.04308301 </i>
    <i name="bandstr">   -590.43575869 </i>
    <i name="atom">   9704.95859309 </i>
    <i name="e_fr_energy">    -37.15891095 </i>
    <i name="e_wo_entrp">    -37.20199396 </i>
    <i name="e_0_energy">    -37.17327195 </i>
   </energy>
  </scstep>
  <scstep>
   <time name="dav">    7.10    7.12</time>
   <time name="total">   10.30   10.33</time>
   <energy>
    <i name="e_fr_energy">    -37.56655794 </i>
    <i name="e_wo_entrp">    -37.57853053 </i>
    <i name="e_0_energy">    -37.57054880 </i>
   </energy>
  </scstep>
  <scstep>
   <time name="dav">    6.72    6.74</time>
   <time name="total">    9.90    9.94</time>
   <energy>
    <i name="e_fr_energy">    -37.16891947 </i>
    <i name="e_wo_entrp">    -37.20869780 </i>
    <i name="e_0_energy">    -37.18217891 </i>
   </energy>
  </scstep>
  <scstep>
   <time name="dav">    7.77    7.78</time>
   <time name="total">   10.95   10.98</time>
   <energy>
    <i name="e_fr_energy">    -37.22857907 </i>
    <i name="e_wo_entrp">    -37.25520886 </i>
    <i name="e_0_energy">    -37.23745567 </i>
   </energy>
  </scstep>
  <scstep>
   <time name="dav">    7.25    7.27</time>
   <time name="total">   10.45   10.49</time>
   <energy>
    <i name="e_fr_energy">    -37.21375193 </i>
    <i name="e_wo_entrp">    -37.25792147 </i>
    <i name="e_0_energy">    -37.22847511 </i>
   </energy>
  </scstep>
  <scstep>
   <time name="dav">    6.98    7.00</time>
   <time name="total">   10.17   10.21</time>
   <energy>
    <i name="e_fr_energy">    -37.21415689 </i>
    <i name="e_wo_entrp">    -37.25861764 </i>
    <i name="e_0_energy">    -37.22897714 </i>
   </energy>
  </scstep>
  <scstep>
   <time name="dav">    7.31    7.33</time>
   <time name="total">   10.51   10.55</time>
   <energy>
    <i name="e_fr_energy">    -37.21262142 </i>
    <i name="e_wo_entrp">    -37.25310209 </i>
    <i name="e_0_energy">    -37.22611498 </i>
   </energy>
  </scstep>
  <scstep>
   <time name="dav">    7.36    7.38</time>
[...]
       <r>    -1.6185     3.9187    59.5816 </r>
       <r>    -1.5730     3.6083    59.7459 </r>
       <r>    -1.5274     3.1744    59.8904 </r>
       <r>    -1.4819     2.9064    60.0227 </r>
       <r>    -1.4364     3.0210    60.1602 </r>
       <r>    -1.3909     3.4561    60.3176 </r>
       <r>    -1.3453     3.8807    60.4943 </r>
       <r>    -1.2998     3.9136    60.6724 </r>
       <r>    -1.2543     3.3739    60.8260 </r>
       <r>    -1.2088     2.3754    60.9342 </r>
       <r>    -1.1632     1.2253    60.9899 </r>
       <r>    -1.1177     0.2421    61.0010 </r>
       <r>    -1.0722    -0.3571    60.9847 </r>
       <r>    -1.0266    -0.4488    60.9643 </r>
       <r>    -0.9811     0.0531    60.9667 </r>
       <r>    -0.9356     1.1948    61.0211 </r>
       <r>    -0.8901     2.8938    61.1528 </r>
       <r>    -0.8445     4.8431    61.3733 </r>
       <r>    -0.7990     6.5410    61.6711 </r>
       <r>    -0.7535     7.4932    62.0122 </r>
       <r>    -0.7080     7.4865    62.3531 </r>
       <r>    -0.6624     6.7401    62.6599 </r>
       <r>    -0.6169     5.8060    62.9242 </r>
       <r>    -0.5714     5.2754    63.1644 </r>
       <r>    -0.5259     5.4868    63.4142 </r>
       <r>    -0.4803     6.4005    63.7056 </r>
       <r>    -0.4348     7.6618    64.0544 </r>
       <r>    -0.3893     8.7631    64.4533 </r>
       <r>    -0.3438     9.2209    64.8731 </r>
       <r>    -0.2982     8.7389    65.2710 </r>
       <r>    -0.2527     7.3254    65.6045 </r>
       <r>    -0.2072     5.3046    65.8460 </r>
       <r>    -0.1617     3.1817    65.9908 </r>
       <r>    -0.1161     1.4215    66.0555 </r>
       <r>    -0.0706     0.2694    66.0678 </r>
       <r>    -0.0251    -0.2861    66.0548 </r>
       <r>     0.0204    -0.4223    66.0355 </r>
       <r>     0.0660    -0.3500    66.0196 </r>
       <r>     0.1115    -0.2237    66.0094 </r>
       <r>     0.1570    -0.1192    66.0040 </r>
       <r>     0.2025    -0.0546    66.0015 </r>
       <r>     0.2481    -0.0218    66.0005 </r>
       <r>     0.2936    -0.0077    66.0001 </r>
       <r>     0.3391    -0.0024    66.0000 </r>
       <r>     0.3846    -0.0007    66.0000 </r>
       <r>     0.4302    -0.0002    66.0000 </r>
       <r>     0.4757    -0.0000    66.0000 </r>
       <r>     0.5212    -0.0000    66.0000 </r>
       <r>     0.5668    -0.0000    66.0000 </r>
       <r>     0.6123    -0.0000    66.0000 </r>
       <r>     0.6578    -0.0000    66.0000 </r>
       <r>     0.7033    -0.0000    66.0000 </r>
       <r>     0.7489    -0.0000    66.0000 </r>
       <r>     0.7944    -0.0000    66.0000 </r>
       <r>     0.8399    -0.0000    66.0000 </r>
       <r>     0.8854    -0.0000    66.0000 </r>
       <r>     0.9310    -0.0000    66.0000 </r>
       <r>     0.9765     0.0000    66.0000 </r>
       <r>     1.0220     0.0000    66.0000 </r>
       <r>     1.0675     0.0000    66.0000 </r>
       <r>     1.1131     0.0000    66.0000 </r>
       <r>     1.1586     0.0000    66.0000 </r>
       <r>     1.2041     0.0000    66.0000 </r>
       <r>     1.2496     0.0000    66.0000 </r>
       <r>     1.2952     0.0000    66.0000 </r>
       <r>     1.3407     0.0000    66.0000 </r>
       <r>     1.3862     0.0000    66.0000 </r>
       <r>     1.4317     0.0000    66.0000 </r>
       <r>     1.4773     0.0000    66.0000 </r>
       <r>     1.5228     0.0000    66.0000 </r>
       <r>     1.5683     0.0000    66.0000 </r>
       <r>     1.6138     0.0000    66.0000 </r>
       <r>     1.6594     0.0000    66.0000 </r>
       <r>     1.7049     0.0000    66.0000 </r>
       <r>     1.7504     0.0000    66.0000 </r>
       <r>     1.7959     0.0000    66.0000 </r>
       <r>     1.8415     0.0000    66.0000 </r>
       <r>     1.8870     0.0000    66.0000 </r>
       <r>     1.9325     0.0000    66.0000 </r>
      </set>
      <set comment="spin 2">
       <r>   -11.7252     0.0000     0.0000 </r>
       <r>   -11.6797     0.0000     0.0000 </r>
       <r>   -11.6341     0.0000     0.0000 </r>
       <r>   -11.5886     0.0000     0.0000 </r>
       <r>   -11.5431     0.0000     0.0000 </r>
       <r>   -11.4976     0.0000     0.0000 </r>
       <r>   -11.4520     0.0000     0.0000 </r>
       <r>   -11.4065     0.0000     0.0000 </r>
       <r>   -11.3610     0.0000     0.0000 </r>
       <r>   -11.3155     0.0000     0.0000 </r>
       <r>   -11.2699    -0.0000    -0.0000 </r>
       <r>   -11.2244    -0.0000    -0.0000 </r>
       <r>   -11.1789    -0.0000    -0.0000 </r>
       <r>   -11.1334    -0.0000    -0.0000 </r>
       <r>   -11.0878    -0.0000    -0.0000 </r>
       <r>   -11.0423    -0.0000    -0.0000 </r>
       <r>   -10.9968    -0.0000    -0.0000 </r>
       <r>   -10.9513    -0.0000    -0.0000 </r>
       <r>   -10.9057    -0.0000    -0.0000 </r>
       <r>   -10.8602    -0.0000    -0.0000 </r>
       <r>   -10.8147    -0.0000    -0.0000 </r>
       <r>   -10.7691    -0.0000    -0.0000 </r>
       <r>   -10.7236    -0.0000    -0.0000 </r>
       <r>   -10.6781    -0.0000    -0.0000 </r>
       <r>   -10.6326    -0.0000    -0.0000 </r>
       <r>   -10.5870    -0.0000    -0.0000 </r>
       <r>   -10.5415    -0.0000    -0.0000 </r>
       <r>   -10.4960    -0.0000    -0.0000 </r>
       <r>   -10.4505    -0.0000    -0.0000 </r>
       <r>   -10.4049    -0.0000    -0.0000 </r>
       <r>   -10.3594    -0.0000    -0.0000 </r>
       <r>   -10.3139    -0.0001    -0.0000 </r>
       <r>   -10.2684    -0.0006    -0.0000 </r>
       <r>   -10.2228    -0.0021    -0.0001 </r>
       <r>   -10.1773    -0.0064    -0.0004 </r>
       <r>   -10.1318    -0.0177    -0.0012 </r>
       <r>   -10.0863    -0.0427    -0.0032 </r>
       <r>   -10.0407    -0.0888    -0.0072 </r>
       <r>    -9.9952    -0.1554    -0.0143 </r>
       <r>    -9.9497    -0.2171    -0.0242 </r>
       <r>    -9.9042    -0.2044    -0.0335 </r>
       <r>    -9.8586    -0.0016    -0.0336 </r>
       <r>    -9.8131     0.5128    -0.0102 </r>
       <r>    -9.7676     1.3821     0.0527 </r>
       <r>    -9.7221     2.4850     0.1659 </r>
       <r>    -9.6765     3.5242     0.3263 </r>
       <r>    -9.6310     4.1370     0.5146 </r>
       <r>    -9.5855     4.0835     0.7005 </r>
       <r>    -9.5400     3.3852     0.8547 </r>
       <r>    -9.4944     2.3127     0.9599 </r>
       <r>    -9.4489     1.2298     1.0159 </r>
       <r>    -9.4034     0.4113     1.0346 </r>
       <r>    -9.3579    -0.0499     1.0324 </r>
       <r>    -9.3123    -0.2153     1.0226 </r>
       <r>    -9.2668    -0.2102     1.0130 </r>
       <r>    -9.2213    -0.1445     1.0064 </r>
       <r>    -9.1757    -0.0802     1.0028 </r>
       <r>    -9.1302    -0.0377     1.0011 </r>
       <r>    -9.0847    -0.0153     1.0004 </r>
       <r>    -9.0392    -0.0055     1.0001 </r>
       <r>    -8.9936    -0.0017     1.0000 </r>
       <r>    -8.9481    -0.0005     1.0000 </r>
       <r>    -8.9026    -0.0004     1.0000 </r>
       <r>    -8.8571    -0.0011     0.9999 </r>
       <r>    -8.8115    -0.0035     0.9998 </r>
       <r>    -8.7660    -0.0102     0.9993 </r>
       <r>    -8.7205    -0.0266     0.9981 </r>
       <r>    -8.6750    -0.0601     0.9954 </r>
       <r>    -8.6294    -0.1163     0.9901 </r>
       <r>    -8.5839    -0.1861     0.9816 </r>
       <r>    -8.5384    -0.2266     0.9713 </r>
       <r>    -8.4929    -0.1463     0.9646 </r>
       <r>    -8.4473     0.1810     0.9729 </r>
       <r>    -8.4018     0.8546     1.0118 </r>
       <r>    -8.3563     1.8531     1.0961 </r>
       <r>    -8.3108     2.9719     1.2314 </r>
       <r>    -8.2652     3.8638     1.4073 </r>
       <r>    -8.2197     4.1950     1.5983 </r>
       <r>    -8.1742     3.8271     1.7725 </r>
       <r>    -8.1287     2.8966     1.9044 </r>
       <r>    -8.0831     1.7315     1.9832 </r>
       <r>    -8.0376     0.6748     2.0140 </r>
       <r>    -7.9921    -0.0525     2.0116 </r>
       <r>    -7.9466    -0.3707     1.9947 </r>
       <r>    -7.9010    -0.2738     1.9822 </r>
       <r>    -7.8555     0.2255     1.9925 </r>
       <r>    -7.8100     1.0748     2.0414 </r>
       <r>    -7.7645     2.1165     2.1378 </r>
       <r>    -7.7189     3.0763     2.2778 </r>
       <r>    -7.6734     3.6774     2.4453 </r>
       <r>    -7.6279     3.8325     2.6197 </r>
       <r>    -7.5823     3.7633     2.7911 </r>
       <r>    -7.5368     3.9152     2.9693 </r>
       <r>    -7.4913     4.6864     3.1827 </r>
       <r>    -7.4458     6.1465     3.4625 </r>
       <r>    -7.4002     7.9430     3.8241 </r>
       <r>    -7.3547     9.4646     4.2550 </r>
       <r>    -7.3092    10.1607     4.7176 </r>
       <r>    -7.2637     9.8237     5.1648 </r>
       <r>    -7.2181     8.6765     5.5598 </r>
       <r>    -7.1726     7.2340     5.8891 </r>
       <r>    -7.1271     6.0413     6.1642 </r>
       <r>    -7.0816     5.4531     6.4124 </r>
       <r>    -7.0360     5.5541     6.6653 </r>
       <r>    -6.9905     6.2053     6.9478 </r>
       <r>    -6.9450     7.1415     7.2729 </r>
       <r>    -6.8995     8.0845     7.6409 </r>
       <r>    -6.8539     8.8689     8.0447 </r>
       <r>    -6.8084     9.5257     8.4784 </r>
       <r>    -6.7629    10.2214     8.9437 </r>
       <r>    -6.7174    11.0420     9.4464 </r>
       <r>    -6.6718    11.8038     9.9838 </r>
       <r>    -6.6263    12.1168    10.5354 </r>
       <r>    -6.5808    11.7051    11.0683 </r>
       <r>    -6.5353    10.7073    11.5557 </r>
       <r>    -6.4897     9.6617    11.9956 </r>
       <r>    -6.4442     9.1716    12.4131 </r>
       <r>    -6.3987     9.5352    12.8472 </r>
       <r>    -6.3532    10.6261    13.3310 </r>
       <r>    -6.3076    12.0519    13.8797 </r>
       <r>    -6.2621    13.4002    14.4897 </r>
       <r>    -6.2166    14.3834    15.1445 </r>
       <r>    -6.1711    14.8424    15.8203 </r>
       <r>    -6.1255    14.6889    16.4890 </r>
       <r>    -6.0800    13.8730    17.1206 </r>
       <r>    -6.0345    12.4204    17.6860 </r>
       <r>    -5.9889    10.5196    18.1649 </r>
       <r>    -5.9434     8.5786    18.5555 </r>
       <r>    -5.8979     7.1489    18.8809 </r>
       <r>    -5.8524     6.6926    19.1856 </r>
       <r>    -5.8068     7.3130    19.5185 </r>
       <r>    -5.7613     8.6456    19.9121 </r>
       <r>    -5.7158    10.0243    20.3685 </r>
       <r>    -5.6703    10.8396    20.8620 </r>
       <r>    -5.6247    10.8647    21.3566 </r>
       <r>    -5.5792    10.3544    21.8280 </r>
       <r>    -5.5337     9.8756    22.2776 </r>
       <r>    -5.4882     9.9806    22.7320 </r>
       <r>    -5.4426    10.9050    23.2284 </r>
       <r>    -5.3971    12.4472    23.7951 </r>
       <r>    -5.3516    14.0944    24.4367 </r>
       <r>    -5.3061    15.3219    25.1343 </r>
       <r>    -5.2605    15.8797    25.8572 </r>
       <r>    -5.2150    15.8777    26.5801 </r>
       <r>    -5.1695    15.6261    27.2914 </r>
       <r>    -5.1240    15.3712    27.9912 </r>
       <r>    -5.0784    15.1292    28.6800 </r>
       <r>    -5.0329    14.7201    29.3501 </r>
       <r>    -4.9874    13.9481    29.9851 </r>
       <r>    -4.9419    12.7993    30.5678 </r>
       <r>    -4.8963    11.5411    31.0933 </r>
       <r>    -4.8508    10.6621    31.5787 </r>
       <r>    -4.8053    10.6559    32.0638 </r>
       <r>    -4.7598    11.7487    32.5986 </r>
       <r>    -4.7142    13.7411    33.2242 </r>
       <r>    -4.6687    16.0944    33.9569 </r>
       <r>    -4.6232    18.2219    34.7865 </r>
       <r>    -4.5777    19.7851    35.6872 </r>
       <r>    -4.5321    20.7936    36.6339 </r>
       <r>    -4.4866    21.4709    37.6113 </r>
       <r>    -4.4411    22.0216    38.6139 </r>
       <r>    -4.3956    22.4738    39.6370 </r>
       <r>    -4.3500    22.6816    40.6696 </r>
       <r>    -4.3045    22.4473    41.6915 </r>
       <r>    -4.2590    21.6597    42.6776 </r>
       <r>    -4.2134    20.3676    43.6049 </r>
       <r>    -4.1679    18.7761    44.4597 </r>
       <r>    -4.1224    17.2120    45.2433 </r>
       <r>    -4.0769    16.0807    45.9753 </r>
       <r>    -4.0313    15.7679    46.6932 </r>
       <r>    -3.9858    16.4479    47.4420 </r>
       <r>    -3.9403    17.8870    48.2563 </r>
       <r>    -3.8948    19.4387    49.1413 </r>
       <r>    -3.8492    20.3212    50.0664 </r>
       <r>    -3.8037    20.0088    50.9773 </r>
       <r>    -3.7582    18.4407    51.8168 </r>
       <r>    -3.7127    15.9171    52.5415 </r>
       <r>    -3.6671    12.8436    53.1262 </r>
       <r>    -3.6216     9.5684    53.5618 </r>
       <r>    -3.5761     6.3870    53.8526 </r>
       <r>    -3.5306     3.5892    54.0160 </r>
       <r>    -3.4850     1.4270    54.0809 </r>
       <r>    -3.4395     0.0225    54.0820 </r>
       <r>    -3.3940    -0.6693    54.0515 </r>
       <r>    -3.3485    -0.7927    54.0154 </r>
       <r>    -3.3029    -0.4777    53.9937 </r>
       <r>    -3.2574     0.2107    54.0032 </r>
       <r>    -3.2119     1.2155    54.0586 </r>
       <r>    -3.1664     2.3812    54.1670 </r>
       <r>    -3.1208     3.4111    54.3223 </r>
       <r>    -3.0753     3.9641    54.5027 </r>
       <r>    -3.0298     3.8488    54.6780 </r>
       <r>    -2.9843     3.1772    54.8226 </r>
       <r>    -2.9387     2.3458    54.9294 </r>
       <r>    -2.8932     1.8313    55.0128 </r>
       <r>    -2.8477     1.9201    55.1002 </r>
       <r>    -2.8022     2.5407    55.2159 </r>
       <r>    -2.7566     3.3078    55.3664 </r>
       <r>    -2.7111     3.7590    55.5376 </r>
       <r>    -2.6656     3.6415    55.7034 </r>
       <r>    -2.6200     3.0686    55.8431 </r>
       <r>    -2.5745     2.4405    55.9542 </r>
       <r>    -2.5290     2.1775    56.0533 </r>
       <r>    -2.4835     2.4446    56.1646 </r>
       <r>    -2.4379     3.0547    56.3037 </r>
       <r>    -2.3924     3.6186    56.4684 </r>
       <r>    -2.3469     3.8319    56.6428 </r>
       <r>    -2.3014     3.6867    56.8107 </r>
       <r>    -2.2558     3.4481    56.9677 </r>
       <r>    -2.2103     3.4147    57.1231 </r>
       <r>    -2.1648     3.6603    57.2898 </r>
       <r>    -2.1193     3.9634    57.4702 </r>
       <r>    -2.0737     3.9765    57.6512 </r>
       <r>    -2.0282     3.4834    57.8098 </r>
       <r>    -1.9827     2.5429    57.9256 </r>
       <r>    -1.9372     1.4283    57.9906 </r>
       <r>    -1.8916     0.4528    58.0112 </r>
       <r>    -1.8461    -0.1693    58.0035 </r>
       <r>    -1.8006    -0.3471    57.9877 </r>
       <r>    -1.7551    -0.0648    57.9848 </r>
       <r>    -1.7095     0.6477    58.0142 </r>
       <r>    -1.6640     1.6911    58.0912 </r>
       <r>    -1.6185     2.8710    58.2219 </r>
       <r>    -1.5730     3.9399    58.4013 </r>
       <r>    -1.5274     4.7043    58.6155 </r>
       <r>    -1.4819     5.1146    58.8483 </r>
       <r>    -1.4364     5.2584    59.0877 </r>
       <r>    -1.3909     5.2724    59.3277 </r>
       <r>    -1.3453     5.2587    59.5672 </r>
       <r>    -1.2998     5.2591    59.8066 </r>
       <r>    -1.2543     5.2600    60.0460 </r>
       <r>    -1.2088     5.1871    60.2822 </r>
       <r>    -1.1632     4.9099    60.5057 </r>
       <r>    -1.1177     4.3011    60.7015 </r>
       <r>    -1.0722     3.3371    60.8534 </r>
       <r>    -1.0266     2.1542    60.9515 </r>
       <r>    -0.9811     1.0035    60.9972 </r>
       <r>    -0.9356     0.1430    61.0037 </r>
       <r>    -0.8901    -0.2479    60.9924 </r>
       <r>    -0.8445    -0.0878    60.9884 </r>
       <r>    -0.7990     0.6155    61.0165 </r>
       <r>    -0.7535     1.7621    61.0967 </r>
       <r>    -0.7080     3.1494    61.2401 </r>
       <r>    -0.6624     4.4996    61.4449 </r>
       <r>    -0.6169     5.5373    61.6970 </r>
       <r>    -0.5714     6.0820    61.9739 </r>
       <r>    -0.5259     6.1035    62.2517 </r>
       <r>    -0.4803     5.7223    62.5123 </r>
       <r>    -0.4348     5.1681    62.7475 </r>
       <r>    -0.3893     4.7087    62.9619 </r>
       <r>    -0.3438     4.5722    63.1701 </r>
       <r>    -0.2982     4.8900    63.3927 </r>
       <r>    -0.2527     5.6743    63.6510 </r>
       <r>    -0.2072     6.8058    63.9608 </r>
       <r>    -0.1617     8.0101    64.3255 </r>
       <r>    -0.1161     8.8679    64.7292 </r>
       <r>    -0.0706     8.9396    65.1362 </r>
       <r>    -0.0251     7.9911    65.5000 </r>
       <r>     0.0204     6.1679    65.7808 </r>
       <r>     0.0660     3.9579    65.9610 </r>
       <r>     0.1115     1.9429    66.0494 </r>
       <r>     0.1570     0.5191    66.0731 </r>
       <r>     0.2025    -0.2280    66.0627 </r>
       <r>     0.2481    -0.4559    66.0419 </r>
       <r>     0.2936    -0.4042    66.0235 </r>
       <r>     0.3391    -0.2664    66.0114 </r>
       <r>     0.3846    -0.1442    66.0049 </r>
       <r>     0.4302    -0.0665    66.0018 </r>
       <r>     0.4757    -0.0267    66.0006 </r>
       <r>     0.5212    -0.0094    66.0002 </r>
       <r>     0.5668    -0.0029    66.0000 </r>
       <r>     0.6123    -0.0008    66.0000 </r>
       <r>     0.6578    -0.0002    66.0000 </r>
       <r>     0.7033    -0.0000    66.0000 </r>
       <r>     0.7489    -0.0000    66.0000 </r>
       <r>     0.7944    -0.0000    66.0000 </r>
       <r>     0.8399    -0.0000    66.0000 </r>
       <r>     0.8854    -0.0000    66.0000 </r>
       <r>     0.9310    -0.0000    66.0000 </r>
       <r>     0.9765    -0.0000    66.0000 </r>
       <r>     1.0220    -0.0000    66.0000 </r>
       <r>     1.0675    -0.0000    66.0000 </r>
       <r>     1.1131    -0.0000    66.0000 </r>
       <r>     1.1586    -0.0000    66.0000 </r>
       <r>     1.2041     0.0000    66.0000 </r>
       <r>     1.2496     0.0000    66.0000 </r>
       <r>     1.2952     0.0000    66.0000 </r>
       <r>     1.3407     0.0000    66.0000 </r>
       <r>     1.3862     0.0000    66.0000 </r>
       <r>     1.4317     0.0000    66.0000 </r>
       <r>     1.4773     0.0000    66.0000 </r>
       <r>     1.5228     0.0000    66.0000 </r>
       <r>     1.5683     0.0000    66.0000 </r>
       <r>     1.6138     0.0000    66.0000 </r>
       <r>     1.6594     0.0000    66.0000 </r>
       <r>     1.7049     0.0000    66.0000 </r>
       <r>     1.7504     0.0000    66.0000 </r>
       <r>     1.7959     0.0000    66.0000 </r>
       <r>     1.8415     0.0000    66.0000 </r>
       <r>     1.8870     0.0000    66.0000 </r>
       <r>     1.9325     0.0000    66.0000 </r>
      </set>
     </set>
    </array>
   </total>
  </dos>
 </calculation>
 <structure name="finalpos" >
  <crystal>
   <varray name="basis" >
    <v>      21.08005917       0.00000000       0.00000000 </v>
    <v>       0.00000000      22.29418195       0.00000000 </v>
    <v>       0.00000000       0.00000000      25.33662833 </v>
   </varray>
   <i name="volume">  11907.26961362 </i>
   <varray name="rec_basis" >
    <v>       0.04743820       0.00000000       0.00000000 </v>
    <v>       0.00000000       0.04485475       0.00000000 </v>
    <v>       0.00000000       0.00000000       0.03946855 </v>
   </varray>
  </crystal>
  <varray name="positions" >
   <v>       0.57224918       0.53368593       0.48380489 </v>
   <v>       0.54908784       0.50668727       0.39829517 </v>
   <v>       0.48411316       0.57498639       0.44510705 </v>
   <v>       0.44849792       0.47880489       0.42232984 </v>
   <v>       0.46284217       0.50460587       0.50941079 </v>
   <v>       0.48155135       0.41916961       0.55794777 </v>
   <v>       0.50961958       0.59979964       0.54135644 </v>
   <v>       0.57045134       0.48643858       0.57153216 </v>
   <v>       0.45357249       0.51221016       0.60614345 </v>
   <v>       0.53895262       0.42866629       0.47150576 </v>
  </varray>
 </structure>
</modeling>
