unknown system                          
            1
    21.080059    0.000000    0.000000
     0.000000   22.294182    0.000000
     0.000000    0.000000   25.336628
   Ni   Pd
     6     4
Direct configuration=     1
   0.58224351  0.54044546  0.48159682
   0.55094102  0.50422156  0.39618483
   0.48486140  0.57622990  0.44435039
   0.44726758  0.47423576  0.42035045
   0.45698390  0.50418779  0.51075442
   0.47778361  0.41420993  0.56052872
   0.51079602  0.59344084  0.54503106
   0.56398624  0.48897193  0.56638234
   0.45760124  0.51384774  0.60760869
   0.53847315  0.43526373  0.47464560
Direct configuration=     2
   0.58068096  0.54032859  0.48062704
   0.54999552  0.50452601  0.39741290
   0.48570830  0.57413299  0.44505148
   0.44846190  0.47550698  0.42106187
   0.45710558  0.50368941  0.50961577
   0.47800603  0.41533767  0.55997728
   0.51084803  0.59541705  0.54387055
   0.56617008  0.48753864  0.56709742
   0.45585239  0.51321128  0.60857998
   0.53810889  0.43536603  0.47413901
Direct configuration=     3
   0.57980374  0.54026298  0.48008261
   0.54946471  0.50469692  0.39810235
   0.48618375  0.57295578  0.44544508
   0.44913239  0.47622065  0.42146126
   0.45717389  0.50340962  0.50897654
   0.47813090  0.41597079  0.55966770
   0.51087722  0.59652650  0.54321903
   0.56739608  0.48673400  0.56749887
   0.45487058  0.51285396  0.60912526
   0.53790439  0.43542345  0.47385461
Direct configuration=     4
   0.57894748  0.53990647  0.48038865
   0.54953777  0.50490918  0.39793286
   0.48615118  0.57264915  0.44585177
   0.44881159  0.47676326  0.42134552
   0.45768405  0.50331649  0.50974334
   0.47837708  0.41738649  0.55933311
   0.51072285  0.59681906  0.54239021
   0.56792489  0.48628736  0.56797639
   0.45461961  0.51220149  0.60846586
   0.53816116  0.43481569  0.47400560
Direct configuration=     5
   0.57811310  0.53955906  0.48068687
   0.54960897  0.50511603  0.39776770
   0.48611945  0.57235036  0.44624807
   0.44849898  0.47729201  0.42123274
   0.45818117  0.50322573  0.51049056
   0.47861697  0.41876602  0.55900707
   0.51057242  0.59710415  0.54158256
   0.56844019  0.48585213  0.56844171
   0.45437505  0.51156570  0.60782331
   0.53841136  0.43422346  0.47415273
Direct configuration=     6
   0.57770070  0.53845420  0.48135390
   0.54964443  0.50519104  0.39756251
   0.48535905  0.57263097  0.44621897
   0.44832263  0.47781407  0.42142613
   0.45874106  0.50359001  0.51035026
   0.47876159  0.41891857  0.55895446
   0.51027866  0.59748173  0.54115517
   0.56919635  0.48583306  0.56900270
   0.45413548  0.51142265  0.60750901
   0.53879772  0.43371835  0.47390019
Direct configuration=     7
   0.57707449  0.53677653  0.48236676
   0.54969827  0.50530494  0.39725095
   0.48420442  0.57305707  0.44617479
   0.44805484  0.47860680  0.42171980
   0.45959124  0.50414314  0.51013723
   0.47898118  0.41915019  0.55887457
   0.50983259  0.59805506  0.54050620
   0.57034454  0.48580409  0.56985454
   0.45377169  0.51120545  0.60703177
   0.53938439  0.43295137  0.47351671
Direct configuration=     8
   0.57587192  0.53567494  0.48254047
   0.54929221  0.50555413  0.39778511
   0.48422974  0.57360064  0.44564361
   0.44824232  0.47888360  0.42195327
   0.46039192  0.50408759  0.50965327
   0.47954801  0.41881988  0.55875917
   0.50967628  0.59860560  0.54060132
   0.57047838  0.48583714  0.57041176
   0.45375759  0.51146941  0.60694014
   0.53944930  0.43252173  0.47314520
Direct configuration=     9
   0.57548688  0.53532222  0.48259609
   0.54916219  0.50563391  0.39795614
   0.48423785  0.57377468  0.44547353
   0.44830235  0.47897222  0.42202802
   0.46064828  0.50406980  0.50949832
   0.47972949  0.41871412  0.55872222
   0.50962624  0.59878188  0.54063178
   0.57052123  0.48584772  0.57059017
   0.45375307  0.51155392  0.60691080
   0.53947008  0.43238417  0.47302624
Direct configuration=    10
   0.57457761  0.53532775  0.48286998
   0.54906501  0.50593595  0.39804548
   0.48463345  0.57433082  0.44517602
   0.44815976  0.47884543  0.42194618
   0.46118890  0.50397458  0.50969224
   0.48029692  0.41869086  0.55859196
   0.50964346  0.59889138  0.54080947
   0.57004433  0.48592308  0.57078663
   0.45398036  0.51175969  0.60661589
   0.53934787  0.43137512  0.47289947
Direct configuration=    11
   0.57407277  0.53533082  0.48302205
   0.54901105  0.50610364  0.39809508
   0.48485309  0.57463960  0.44501083
   0.44808059  0.47877503  0.42190075
   0.46148907  0.50392171  0.50979991
   0.48061197  0.41867794  0.55851964
   0.50965302  0.59895217  0.54090813
   0.56977953  0.48596492  0.57089571
   0.45410655  0.51187394  0.60645215
   0.53928002  0.43081486  0.47282908
Direct configuration=    12
   0.57315503  0.53501239  0.48337190
   0.54891490  0.50636574  0.39820660
   0.48489519  0.57491936  0.44484897
   0.44818519  0.47880711  0.42209649
   0.46210547  0.50414275  0.50931498
   0.48116873  0.41843776  0.55838281
   0.50962260  0.59929666  0.54126132
   0.56965764  0.48615129  0.57108861
   0.45409586  0.51224736  0.60643675
   0.53913703  0.42967421  0.47242489
Direct configuration=    13
   0.57310648  0.53499555  0.48339040
   0.54890982  0.50637960  0.39821250
   0.48489742  0.57493416  0.44484041
   0.44819072  0.47880881  0.42210685
   0.46213808  0.50415445  0.50928932
   0.48119818  0.41842505  0.55837557
   0.50962099  0.59931489  0.54128001
   0.56965120  0.48616115  0.57109881
   0.45409530  0.51226711  0.60643594
   0.53912947  0.42961387  0.47240351
Direct configuration=    14
   0.57291217  0.53431437  0.48355529
   0.54895481  0.50638925  0.39829356
   0.48446017  0.57498048  0.44486032
   0.44838588  0.47887886  0.42223737
   0.46244708  0.50428279  0.50924728
   0.48127082  0.41862807  0.55823575
   0.50953182  0.59959823  0.54145417
   0.56998307  0.48629640  0.57116200
   0.45389946  0.51229410  0.60633824
   0.53909237  0.42939208  0.47204933
Direct configuration=    15
   0.57280726  0.53394656  0.48364433
   0.54897910  0.50639447  0.39833733
   0.48422407  0.57500549  0.44487107
   0.44849126  0.47891669  0.42230785
   0.46261393  0.50435209  0.50922458
   0.48131005  0.41873769  0.55816025
   0.50948367  0.59975122  0.54154822
   0.57016227  0.48636942  0.57119612
   0.45379372  0.51230868  0.60628548
   0.53907233  0.42927232  0.47185809
Direct configuration=    16
   0.57239556  0.53353378  0.48385163
   0.54914188  0.50654623  0.39828597
   0.48394701  0.57501934  0.44508833
   0.44847094  0.47885333  0.42227731
   0.46294546  0.50461281  0.50955010
   0.48143471  0.41919188  0.55796949
   0.50949893  0.59978837  0.54145104
   0.57045131  0.48647346  0.57139741
   0.45361815  0.51222176  0.60604309
   0.53903371  0.42881368  0.47151896
Direct configuration=    17
   0.57247884  0.53361728  0.48380970
   0.54910896  0.50651553  0.39829636
   0.48400305  0.57501654  0.44504438
   0.44847505  0.47886615  0.42228349
   0.46287840  0.50456007  0.50948425
   0.48140949  0.41910001  0.55800807
   0.50949584  0.59978086  0.54147070
   0.57039285  0.48645241  0.57135669
   0.45365366  0.51223934  0.60609212
   0.53904152  0.42890645  0.47158756
Direct configuration=    18
   0.57223217  0.53369102  0.48380453
   0.54908627  0.50669999  0.39829509
   0.48412132  0.57498416  0.44511169
   0.44849962  0.47880036  0.42233327
   0.46283949  0.50460927  0.50940535
   0.48156186  0.41917476  0.55794330
   0.50962875  0.59980103  0.54134798
   0.57045567  0.48643756  0.57154515
   0.45356648  0.51220800  0.60614725
   0.53894604  0.42864851  0.47149970
Direct configuration=    19
   0.57224918  0.53368593  0.48380489
   0.54908784  0.50668727  0.39829517
   0.48411316  0.57498639  0.44510705
   0.44849792  0.47880489  0.42232984
   0.46284217  0.50460587  0.50941079
   0.48155135  0.41916961  0.55794777
   0.50961958  0.59979964  0.54135644
   0.57045134  0.48643858  0.57153216
   0.45357249  0.51221016  0.60614345
   0.53895262  0.42866629  0.47150576
