   8   8   0   0
  0.1296092E+04  0.2113307E-08  0.2130010E-08  0.2303465E-08  0.5000000E-15
   1.0000000000000000E-004
  CAR 
 unknown system                          
      1.97999546    -12.78837226  301     -5.13594660      1.00000000
    -12.788  0.0000E+00  0.0000E+00  0.0000E+00  0.0000E+00
    -12.739  0.0000E+00  0.0000E+00  0.0000E+00  0.0000E+00
    -12.690  0.0000E+00  0.0000E+00  0.0000E+00  0.0000E+00
    -12.641  0.0000E+00  0.0000E+00  0.0000E+00  0.0000E+00
    -12.591  0.0000E+00  0.0000E+00  0.0000E+00  0.0000E+00
    -12.542  0.0000E+00  0.0000E+00  0.0000E+00  0.0000E+00
    -12.493  0.0000E+00  0.0000E+00  0.0000E+00  0.0000E+00
    -12.444  0.0000E+00  0.0000E+00  0.0000E+00  0.0000E+00
    -12.395 -0.4499E-29 -0.4499E-29 -0.2215E-30 -0.2215E-30
    -12.345 -0.2094E-27 -0.2094E-27 -0.1053E-28 -0.1053E-28
    -12.296 -0.8787E-26 -0.8787E-26 -0.4431E-27 -0.4431E-27
    -12.247 -0.3262E-24 -0.3262E-24 -0.1650E-25 -0.1650E-25
    -12.198 -0.1071E-22 -0.1071E-22 -0.5437E-24 -0.5437E-24
    -12.148 -0.3109E-21 -0.3109E-21 -0.1585E-22 -0.1585E-22
    -12.099 -0.7983E-20 -0.7983E-20 -0.4088E-21 -0.4088E-21
    -12.050 -0.1812E-18 -0.1812E-18 -0.9329E-20 -0.9329E-20
    -12.001 -0.3635E-17 -0.3635E-17 -0.1883E-18 -0.1883E-18
    -11.951 -0.6220E-16 -0.6220E-16 -0.3250E-17 -0.3250E-17
    -11.902 -0.9779E-15 -0.9779E-15 -0.5139E-16 -0.5139E-16
    -11.853 -0.1348E-13 -0.1348E-13 -0.7148E-15 -0.7148E-15
    -11.804 -0.1640E-12 -0.1640E-12 -0.8788E-14 -0.8788E-14
    -11.755 -0.1760E-11 -0.1760E-11 -0.9543E-13 -0.9543E-13
    -11.705 -0.1665E-10 -0.1665E-10 -0.9151E-12 -0.9151E-12
    -11.656 -0.1387E-09 -0.1387E-09 -0.7745E-11 -0.7745E-11
    -11.607 -0.1017E-08 -0.1017E-08 -0.5782E-10 -0.5782E-10
    -11.558 -0.6555E-08 -0.6555E-08 -0.3805E-09 -0.3805E-09
    -11.508 -0.3707E-07 -0.3707E-07 -0.2206E-08 -0.2206E-08
    -11.459 -0.1837E-06 -0.1837E-06 -0.1125E-07 -0.1125E-07
    -11.410 -0.7950E-06 -0.7950E-06 -0.5038E-07 -0.5038E-07
    -11.361 -0.2997E-05 -0.2997E-05 -0.1979E-06 -0.1979E-06
    -11.312 -0.9785E-05 -0.9785E-05 -0.6796E-06 -0.6796E-06
    -11.262 -0.2747E-04 -0.2747E-04 -0.2032E-05 -0.2032E-05
    -11.213 -0.6550E-04 -0.6550E-04 -0.5256E-05 -0.5256E-05
    -11.164 -0.1297E-03 -0.1297E-03 -0.1164E-04 -0.1164E-04
    -11.115 -0.2029E-03 -0.2029E-03 -0.2163E-04 -0.2163E-04
    -11.065 -0.2169E-03 -0.2169E-03 -0.3230E-04 -0.3230E-04
    -11.016 -0.3829E-04 -0.3829E-04 -0.3419E-04 -0.3419E-04
    -10.967  0.4885E-03  0.4885E-03 -0.1014E-04 -0.1014E-04
    -10.918  0.1427E-02  0.1427E-02  0.6013E-04  0.6013E-04
    -10.868  0.2624E-02  0.2624E-02  0.1893E-03  0.1893E-03
    -10.819  0.3692E-02  0.3692E-02  0.3710E-03  0.3710E-03
    -10.770  0.4189E-02  0.4189E-02  0.5773E-03  0.5773E-03
    -10.721  0.3887E-02  0.3887E-02  0.7686E-03  0.7686E-03
    -10.672  0.2927E-02  0.2927E-02  0.9127E-03  0.9127E-03
    -10.622  0.1720E-02  0.1720E-02  0.9974E-03  0.9974E-03
    -10.573  0.6900E-03  0.6900E-03  0.1031E-02  0.1031E-02
    -10.524  0.5668E-04  0.5668E-04  0.1034E-02  0.1034E-02
    -10.475 -0.1996E-03 -0.1996E-03  0.1024E-02  0.1024E-02
    -10.425 -0.2280E-03 -0.2280E-03  0.1013E-02  0.1013E-02
    -10.376 -0.1825E-03 -0.1825E-03  0.1004E-02  0.1004E-02
    -10.327 -0.1616E-03 -0.1616E-03  0.9961E-03  0.9961E-03
    -10.278 -0.2054E-03 -0.2054E-03  0.9860E-03  0.9860E-03
    -10.229 -0.3016E-03 -0.3016E-03  0.9712E-03  0.9712E-03
    -10.179 -0.3702E-03 -0.3702E-03  0.9529E-03  0.9529E-03
    -10.130 -0.2377E-03 -0.2377E-03  0.9412E-03  0.9412E-03
    -10.081  0.3420E-03  0.3420E-03  0.9581E-03  0.9581E-03
    -10.032  0.1572E-02  0.1572E-02  0.1035E-02  0.1035E-02
     -9.982  0.3425E-02  0.3425E-02  0.1204E-02  0.1204E-02
     -9.933  0.5512E-02  0.5512E-02  0.1475E-02  0.1475E-02
     -9.884  0.7159E-02  0.7159E-02  0.1828E-02  0.1828E-02
     -9.835  0.7719E-02  0.7719E-02  0.2208E-02  0.2208E-02
     -9.785  0.6939E-02  0.6939E-02  0.2549E-02  0.2549E-02
     -9.736  0.5123E-02  0.5123E-02  0.2802E-02  0.2802E-02
     -9.687  0.2973E-02  0.2973E-02  0.2948E-02  0.2948E-02
     -9.638  0.1243E-02  0.1243E-02  0.3009E-02  0.3009E-02
     -9.589  0.4255E-03  0.4255E-03  0.3030E-02  0.3030E-02
     -9.539  0.6174E-03  0.6174E-03  0.3060E-02  0.3060E-02
     -9.490  0.1541E-02  0.1541E-02  0.3136E-02  0.3136E-02
     -9.441  0.2689E-02  0.2689E-02  0.3269E-02  0.3269E-02
     -9.392  0.3566E-02  0.3566E-02  0.3444E-02  0.3444E-02
     -9.342  0.3971E-02  0.3971E-02  0.3640E-02  0.3640E-02
     -9.293  0.4110E-02  0.4110E-02  0.3842E-02  0.3842E-02
     -9.244  0.4415E-02  0.4415E-02  0.4059E-02  0.4059E-02
     -9.195  0.5157E-02  0.5157E-02  0.4313E-02  0.4313E-02
     -9.146  0.6199E-02  0.6199E-02  0.4618E-02  0.4618E-02
     -9.096  0.7146E-02  0.7146E-02  0.4970E-02  0.4970E-02
     -9.047  0.7747E-02  0.7747E-02  0.5352E-02  0.5352E-02
     -8.998  0.8143E-02  0.8143E-02  0.5752E-02  0.5752E-02
     -8.949  0.8696E-02  0.8696E-02  0.6181E-02  0.6181E-02
     -8.899  0.9601E-02  0.9601E-02  0.6653E-02  0.6653E-02
     -8.850  0.1069E-01  0.1069E-01  0.7180E-02  0.7180E-02
     -8.801  0.1162E-01  0.1162E-01  0.7752E-02  0.7752E-02
     -8.752  0.1214E-01  0.1214E-01  0.8349E-02  0.8349E-02
     -8.702  0.1212E-01  0.1212E-01  0.8946E-02  0.8946E-02
     -8.653  0.1146E-01  0.1146E-01  0.9510E-02  0.9510E-02
     -8.604  0.1007E-01  0.1007E-01  0.1001E-01  0.1001E-01
     -8.555  0.8119E-02  0.8119E-02  0.1041E-01  0.1041E-01
     -8.506  0.6340E-02  0.6340E-02  0.1072E-01  0.1072E-01
     -8.456  0.5819E-02  0.5819E-02  0.1100E-01  0.1100E-01
     -8.407  0.7341E-02  0.7341E-02  0.1137E-01  0.1137E-01
     -8.358  0.1076E-01  0.1076E-01  0.1190E-01  0.1190E-01
     -8.309  0.1495E-01  0.1495E-01  0.1263E-01  0.1263E-01
     -8.259  0.1837E-01  0.1837E-01  0.1354E-01  0.1354E-01
     -8.210  0.1990E-01  0.1990E-01  0.1452E-01  0.1452E-01
     -8.161  0.1925E-01  0.1925E-01  0.1546E-01  0.1546E-01
     -8.112  0.1687E-01  0.1687E-01  0.1629E-01  0.1629E-01
     -8.062  0.1352E-01  0.1352E-01  0.1696E-01  0.1696E-01
     -8.013  0.9973E-02  0.9973E-02  0.1745E-01  0.1745E-01
     -7.964  0.6863E-02  0.6863E-02  0.1779E-01  0.1779E-01
     -7.915  0.4661E-02  0.4661E-02  0.1802E-01  0.1802E-01
     -7.866  0.3535E-02  0.3535E-02  0.1819E-01  0.1819E-01
     -7.816  0.3253E-02  0.3253E-02  0.1835E-01  0.1835E-01
     -7.767  0.3296E-02  0.3296E-02  0.1851E-01  0.1851E-01
     -7.718  0.3219E-02  0.3219E-02  0.1867E-01  0.1867E-01
     -7.669  0.2983E-02  0.2983E-02  0.1882E-01  0.1882E-01
     -7.619  0.2972E-02  0.2972E-02  0.1896E-01  0.1896E-01
     -7.570  0.3657E-02  0.3657E-02  0.1914E-01  0.1914E-01
     -7.521  0.5193E-02  0.5193E-02  0.1940E-01  0.1940E-01
     -7.472  0.7277E-02  0.7277E-02  0.1976E-01  0.1976E-01
     -7.423  0.9349E-02  0.9349E-02  0.2022E-01  0.2022E-01
     -7.373  0.1093E-01  0.1093E-01  0.2076E-01  0.2076E-01
     -7.324  0.1184E-01  0.1184E-01  0.2134E-01  0.2134E-01
     -7.275  0.1227E-01  0.1227E-01  0.2194E-01  0.2194E-01
     -7.226  0.1256E-01  0.1256E-01  0.2256E-01  0.2256E-01
     -7.176  0.1304E-01  0.1304E-01  0.2320E-01  0.2320E-01
     -7.127  0.1374E-01  0.1374E-01  0.2388E-01  0.2388E-01
     -7.078  0.1431E-01  0.1431E-01  0.2458E-01  0.2458E-01
     -7.029  0.1427E-01  0.1427E-01  0.2529E-01  0.2529E-01
     -6.979  0.1340E-01  0.1340E-01  0.2595E-01  0.2595E-01
     -6.930  0.1205E-01  0.1205E-01  0.2654E-01  0.2654E-01
     -6.881  0.1098E-01  0.1098E-01  0.2708E-01  0.2708E-01
     -6.832  0.1090E-01  0.1090E-01  0.2762E-01  0.2762E-01
     -6.783  0.1190E-01  0.1190E-01  0.2820E-01  0.2820E-01
     -6.733  0.1354E-01  0.1354E-01  0.2887E-01  0.2887E-01
     -6.684  0.1518E-01  0.1518E-01  0.2962E-01  0.2962E-01
     -6.635  0.1639E-01  0.1639E-01  0.3042E-01  0.3042E-01
     -6.586  0.1707E-01  0.1707E-01  0.3126E-01  0.3126E-01
     -6.536  0.1728E-01  0.1728E-01  0.3211E-01  0.3211E-01
     -6.487  0.1702E-01  0.1702E-01  0.3295E-01  0.3295E-01
     -6.438  0.1625E-01  0.1625E-01  0.3375E-01  0.3375E-01
     -6.389  0.1510E-01  0.1510E-01  0.3450E-01  0.3450E-01
     -6.340  0.1401E-01  0.1401E-01  0.3519E-01  0.3519E-01
     -6.290  0.1369E-01  0.1369E-01  0.3586E-01  0.3586E-01
     -6.241  0.1455E-01  0.1455E-01  0.3658E-01  0.3658E-01
     -6.192  0.1630E-01  0.1630E-01  0.3738E-01  0.3738E-01
     -6.143  0.1789E-01  0.1789E-01  0.3826E-01  0.3826E-01
     -6.093  0.1820E-01  0.1820E-01  0.3916E-01  0.3916E-01
     -6.044  0.1677E-01  0.1677E-01  0.3998E-01  0.3998E-01
     -5.995  0.1398E-01  0.1398E-01  0.4067E-01  0.4067E-01
     -5.946  0.1065E-01  0.1065E-01  0.4119E-01  0.4119E-01
     -5.896  0.7487E-02  0.7487E-02  0.4156E-01  0.4156E-01
     -5.847  0.4828E-02  0.4828E-02  0.4180E-01  0.4180E-01
     -5.798  0.2825E-02  0.2825E-02  0.4194E-01  0.4194E-01
     -5.749  0.1618E-02  0.1618E-02  0.4202E-01  0.4202E-01
     -5.700  0.1321E-02  0.1321E-02  0.4208E-01  0.4208E-01
     -5.650  0.1836E-02  0.1836E-02  0.4217E-01  0.4217E-01
     -5.601  0.2774E-02  0.2774E-02  0.4231E-01  0.4231E-01
     -5.552  0.3617E-02  0.3617E-02  0.4249E-01  0.4249E-01
     -5.503  0.4044E-02  0.4044E-02  0.4269E-01  0.4269E-01
     -5.453  0.4108E-02  0.4108E-02  0.4289E-01  0.4289E-01
     -5.404  0.4097E-02  0.4097E-02  0.4309E-01  0.4309E-01
     -5.355  0.4189E-02  0.4189E-02  0.4330E-01  0.4330E-01
     -5.306  0.4256E-02  0.4256E-02  0.4351E-01  0.4351E-01
     -5.257  0.3997E-02  0.3997E-02  0.4370E-01  0.4370E-01
     -5.207  0.3248E-02  0.3248E-02  0.4386E-01  0.4386E-01
     -5.158  0.2157E-02  0.2157E-02  0.4397E-01  0.4397E-01
     -5.109  0.1069E-02  0.1069E-02  0.4402E-01  0.4402E-01
     -5.060  0.2778E-03  0.2778E-03  0.4404E-01  0.4404E-01
     -5.010 -0.1257E-03 -0.1257E-03  0.4403E-01  0.4403E-01
     -4.961 -0.2313E-03 -0.2313E-03  0.4402E-01  0.4402E-01
     -4.912 -0.1890E-03 -0.1890E-03  0.4401E-01  0.4401E-01
     -4.863 -0.1127E-03 -0.1127E-03  0.4400E-01  0.4400E-01
     -4.813 -0.5421E-04 -0.5421E-04  0.4400E-01  0.4400E-01
     -4.764 -0.2181E-04 -0.2181E-04  0.4400E-01  0.4400E-01
     -4.715 -0.7486E-05 -0.7486E-05  0.4400E-01  0.4400E-01
     -4.666 -0.2218E-05 -0.2218E-05  0.4400E-01  0.4400E-01
     -4.617 -0.5921E-06 -0.5921E-06  0.4400E-01  0.4400E-01
     -4.567 -0.2509E-06 -0.2509E-06  0.4400E-01  0.4400E-01
     -4.518 -0.5798E-06 -0.5798E-06  0.4400E-01  0.4400E-01
     -4.469 -0.2172E-05 -0.2172E-05  0.4400E-01  0.4400E-01
     -4.420 -0.7347E-05 -0.7347E-05  0.4400E-01  0.4400E-01
     -4.370 -0.2146E-04 -0.2146E-04  0.4400E-01  0.4400E-01
     -4.321 -0.5346E-04 -0.5346E-04  0.4400E-01  0.4400E-01
     -4.272 -0.1115E-03 -0.1115E-03  0.4399E-01  0.4399E-01
     -4.223 -0.1875E-03 -0.1875E-03  0.4398E-01  0.4398E-01
     -4.173 -0.2308E-03 -0.2308E-03  0.4397E-01  0.4397E-01
     -4.124 -0.1292E-03 -0.1292E-03  0.4396E-01  0.4396E-01
     -4.075  0.2638E-03  0.2638E-03  0.4398E-01  0.4398E-01
     -4.026  0.1030E-02  0.1030E-02  0.4403E-01  0.4403E-01
     -3.977  0.2067E-02  0.2067E-02  0.4413E-01  0.4413E-01
     -3.927  0.3065E-02  0.3065E-02  0.4428E-01  0.4428E-01
     -3.878  0.3695E-02  0.3695E-02  0.4446E-01  0.4446E-01
     -3.829  0.3898E-02  0.3898E-02  0.4465E-01  0.4465E-01
     -3.780  0.4018E-02  0.4018E-02  0.4485E-01  0.4485E-01
     -3.730  0.4562E-02  0.4562E-02  0.4508E-01  0.4508E-01
     -3.681  0.5728E-02  0.5728E-02  0.4536E-01  0.4536E-01
     -3.632  0.7132E-02  0.7132E-02  0.4571E-01  0.4571E-01
     -3.583  0.8055E-02  0.8055E-02  0.4611E-01  0.4611E-01
     -3.534  0.8022E-02  0.8022E-02  0.4650E-01  0.4650E-01
     -3.484  0.7165E-02  0.7165E-02  0.4685E-01  0.4685E-01
     -3.435  0.6039E-02  0.6039E-02  0.4715E-01  0.4715E-01
     -3.386  0.5099E-02  0.5099E-02  0.4740E-01  0.4740E-01
     -3.337  0.4377E-02  0.4377E-02  0.4762E-01  0.4762E-01
     -3.287  0.3620E-02  0.3620E-02  0.4780E-01  0.4780E-01
     -3.238  0.2653E-02  0.2653E-02  0.4793E-01  0.4793E-01
     -3.189  0.1575E-02  0.1575E-02  0.4800E-01  0.4800E-01
     -3.140  0.6424E-03  0.6424E-03  0.4803E-01  0.4803E-01
     -3.090  0.4435E-04  0.4435E-04  0.4804E-01  0.4804E-01
     -3.041 -0.2077E-03 -0.2077E-03  0.4803E-01  0.4803E-01
     -2.992 -0.2313E-03 -0.2313E-03  0.4802E-01  0.4802E-01
     -2.943 -0.1627E-03 -0.1627E-03  0.4801E-01  0.4801E-01
     -2.894 -0.8866E-04 -0.8866E-04  0.4800E-01  0.4800E-01
     -2.844 -0.3974E-04 -0.3974E-04  0.4800E-01  0.4800E-01
     -2.795 -0.1507E-04 -0.1507E-04  0.4800E-01  0.4800E-01
     -2.746 -0.4987E-05 -0.4987E-05  0.4800E-01  0.4800E-01
     -2.697 -0.1845E-05 -0.1845E-05  0.4800E-01  0.4800E-01
     -2.647 -0.2226E-05 -0.2226E-05  0.4800E-01  0.4800E-01
     -2.598 -0.6625E-05 -0.6625E-05  0.4800E-01  0.4800E-01
     -2.549 -0.1966E-04 -0.1966E-04  0.4800E-01  0.4800E-01
     -2.500 -0.5054E-04 -0.5054E-04  0.4800E-01  0.4800E-01
     -2.451 -0.1101E-03 -0.1101E-03  0.4799E-01  0.4799E-01
     -2.401 -0.1978E-03 -0.1978E-03  0.4798E-01  0.4798E-01
     -2.352 -0.2761E-03 -0.2761E-03  0.4797E-01  0.4797E-01
     -2.303 -0.2429E-03 -0.2429E-03  0.4796E-01  0.4796E-01
     -2.254  0.6592E-04  0.6592E-04  0.4796E-01  0.4796E-01
     -2.204  0.8128E-03  0.8128E-03  0.4800E-01  0.4800E-01
     -2.155  0.2047E-02  0.2047E-02  0.4810E-01  0.4810E-01
     -2.106  0.3616E-02  0.3616E-02  0.4828E-01  0.4828E-01
     -2.057  0.5175E-02  0.5175E-02  0.4853E-01  0.4853E-01
     -2.007  0.6316E-02  0.6316E-02  0.4884E-01  0.4884E-01
     -1.958  0.6720E-02  0.6720E-02  0.4917E-01  0.4917E-01
     -1.909  0.6271E-02  0.6271E-02  0.4948E-01  0.4948E-01
     -1.860  0.5095E-02  0.5095E-02  0.4973E-01  0.4973E-01
     -1.811  0.3513E-02  0.3513E-02  0.4991E-01  0.4991E-01
     -1.761  0.1928E-02  0.1928E-02  0.5000E-01  0.5000E-01
     -1.712  0.6664E-03  0.6664E-03  0.5003E-01  0.5003E-01
     -1.663 -0.1283E-03 -0.1283E-03  0.5003E-01  0.5003E-01
     -1.614 -0.4742E-03 -0.4742E-03  0.5000E-01  0.5000E-01
     -1.564 -0.4346E-03 -0.4346E-03  0.4998E-01  0.4998E-01
     -1.515 -0.1669E-04 -0.1670E-04  0.4998E-01  0.4998E-01
     -1.466  0.8064E-03  0.8064E-03  0.5002E-01  0.5002E-01
     -1.417  0.1961E-02  0.1961E-02  0.5012E-01  0.5012E-01
     -1.368  0.3160E-02  0.3160E-02  0.5027E-01  0.5027E-01
     -1.318  0.3958E-02  0.3958E-02  0.5047E-01  0.5047E-01
     -1.269  0.3994E-02  0.3994E-02  0.5067E-01  0.5067E-01
     -1.220  0.3249E-02  0.3249E-02  0.5083E-01  0.5083E-01
     -1.171  0.2109E-02  0.2109E-02  0.5093E-01  0.5093E-01
     -1.121  0.1168E-02  0.1168E-02  0.5099E-01  0.5099E-01
     -1.072  0.9115E-03  0.9114E-03  0.5103E-01  0.5103E-01
     -1.023  0.1464E-02  0.1464E-02  0.5110E-01  0.5110E-01
     -0.974  0.2526E-02  0.2526E-02  0.5123E-01  0.5123E-01
     -0.924  0.3520E-02  0.3520E-02  0.5140E-01  0.5140E-01
     -0.875  0.3902E-02  0.3902E-02  0.5159E-01  0.5159E-01
     -0.826  0.3479E-02  0.3479E-02  0.5176E-01  0.5176E-01
     -0.777  0.2533E-02  0.2533E-02  0.5189E-01  0.5189E-01
     -0.728  0.1653E-02  0.1653E-02  0.5197E-01  0.5197E-01
     -0.678  0.1378E-02  0.1378E-02  0.5204E-01  0.5204E-01
     -0.629  0.1891E-02  0.1891E-02  0.5213E-01  0.5213E-01
     -0.580  0.2962E-02  0.2962E-02  0.5228E-01  0.5228E-01
     -0.531  0.4133E-02  0.4133E-02  0.5248E-01  0.5248E-01
     -0.481  0.5003E-02  0.5003E-02  0.5273E-01  0.5273E-01
     -0.432  0.5383E-02  0.5383E-02  0.5299E-01  0.5299E-01
     -0.383  0.5283E-02  0.5283E-02  0.5325E-01  0.5325E-01
     -0.334  0.4848E-02  0.4848E-02  0.5349E-01  0.5349E-01
     -0.284  0.4345E-02  0.4345E-02  0.5371E-01  0.5371E-01
     -0.235  0.4165E-02  0.4165E-02  0.5391E-01  0.5391E-01
     -0.186  0.4649E-02  0.4649E-02  0.5414E-01  0.5414E-01
     -0.137  0.5792E-02  0.5792E-02  0.5442E-01  0.5442E-01
     -0.088  0.7088E-02  0.7087E-02  0.5477E-01  0.5477E-01
     -0.038  0.7762E-02  0.7762E-02  0.5516E-01  0.5516E-01
      0.011  0.7272E-02  0.7272E-02  0.5551E-01  0.5551E-01
      0.060  0.5671E-02  0.5671E-02  0.5579E-01  0.5579E-01
      0.109  0.3549E-02  0.3549E-02  0.5597E-01  0.5597E-01
      0.159  0.1621E-02  0.1621E-02  0.5605E-01  0.5605E-01
      0.208  0.3316E-03  0.3316E-03  0.5606E-01  0.5606E-01
      0.257 -0.2695E-03 -0.2695E-03  0.5605E-01  0.5605E-01
      0.306 -0.3950E-03 -0.3950E-03  0.5603E-01  0.5603E-01
      0.355 -0.3054E-03 -0.3054E-03  0.5602E-01  0.5602E-01
      0.405 -0.1776E-03 -0.1776E-03  0.5601E-01  0.5601E-01
      0.454 -0.8432E-04 -0.8432E-04  0.5600E-01  0.5600E-01
      0.503 -0.3379E-04 -0.3379E-04  0.5600E-01  0.5600E-01
      0.552 -0.1161E-04 -0.1161E-04  0.5600E-01  0.5600E-01
      0.602 -0.3456E-05 -0.3456E-05  0.5600E-01  0.5600E-01
      0.651 -0.8958E-06 -0.8958E-06  0.5600E-01  0.5600E-01
      0.700 -0.2030E-06 -0.2030E-06  0.5600E-01  0.5600E-01
      0.749 -0.4032E-07 -0.4032E-07  0.5600E-01  0.5600E-01
      0.799 -0.7034E-08 -0.7035E-08  0.5600E-01  0.5600E-01
      0.848 -0.1079E-08 -0.1079E-08  0.5600E-01  0.5600E-01
      0.897 -0.1458E-09 -0.1459E-09  0.5600E-01  0.5600E-01
      0.946 -0.1737E-10 -0.1737E-10  0.5600E-01  0.5600E-01
      0.995 -0.1824E-11 -0.1824E-11  0.5600E-01  0.5600E-01
      1.045 -0.1690E-12 -0.1690E-12  0.5600E-01  0.5600E-01
      1.094 -0.1382E-13 -0.1382E-13  0.5600E-01  0.5600E-01
      1.143 -0.9968E-15 -0.9968E-15  0.5600E-01  0.5600E-01
      1.192 -0.6315E-16 -0.6315E-16  0.5600E-01  0.5600E-01
      1.242 -0.4511E-17 -0.4511E-17  0.5600E-01  0.5600E-01
      1.291  0.0000E+00  0.0000E+00  0.5600E-01  0.5600E-01
      1.340  0.0000E+00  0.0000E+00  0.5600E-01  0.5600E-01
      1.389  0.0000E+00  0.0000E+00  0.5600E-01  0.5600E-01
      1.438  0.0000E+00  0.0000E+00  0.5600E-01  0.5600E-01
      1.488  0.0000E+00  0.0000E+00  0.5600E-01  0.5600E-01
      1.537  0.0000E+00  0.0000E+00  0.5600E-01  0.5600E-01
      1.586  0.0000E+00  0.0000E+00  0.5600E-01  0.5600E-01
      1.635  0.0000E+00  0.0000E+00  0.5600E-01  0.5600E-01
      1.685  0.0000E+00  0.0000E+00  0.5600E-01  0.5600E-01
      1.734  0.0000E+00  0.0000E+00  0.5600E-01  0.5600E-01
      1.783  0.0000E+00  0.0000E+00  0.5600E-01  0.5600E-01
      1.832  0.0000E+00  0.0000E+00  0.5600E-01  0.5600E-01
      1.882  0.0000E+00  0.0000E+00  0.5600E-01  0.5600E-01
      1.931  0.0000E+00  0.0000E+00  0.5600E-01  0.5600E-01
      1.980  0.0000E+00  0.0000E+00  0.5600E-01  0.5600E-01
