    8    8 1000    2
  0.1296092E+04  0.2113307E-08  0.2130010E-08  0.2303465E-08  0.5000000E-15
   1.0000000000000000E-004
  CAR 
 unknown system                          
     88      1     56
 
  0.1262379E-14  0.1262379E-14  0.1262379E-14  0.1000000E+01
    1      -10.788372    -10.788372   1.000000   1.000000
    2       -9.905179     -9.905179   1.000000   1.000000
    3       -9.818770     -9.818770   1.000000   1.000000
    4       -9.390395     -9.390395   1.000000   1.000000
    5       -9.143039     -9.143039   1.000000   1.000000
    6       -9.057159     -9.057159   1.000000   1.000000
    7       -8.864775     -8.864775   1.000000   1.000000
    8       -8.856633     -8.856633   1.000000   1.000000
    9       -8.740008     -8.740008   1.000000   1.000000
   10       -8.622269     -8.622269   1.000000   1.000000
   11       -8.603966     -8.603966   1.000000   1.000000
   12       -8.330971     -8.330971   1.000000   1.000000
   13       -8.307702     -8.307702   1.000000   1.000000
   14       -8.262021     -8.262021   1.000000   1.000000
   15       -8.231822     -8.231822   1.000000   1.000000
   16       -8.161191     -8.161191   1.000000   1.000000
   17       -8.112296     -8.112296   1.000000   1.000000
   18       -8.019184     -8.019184   1.000000   1.000000
   19       -7.766204     -7.766204   1.000000   1.000000
   20       -7.488462     -7.488462   1.000000   1.000000
   21       -7.398374     -7.398374   1.000000   1.000000
   22       -7.316378     -7.316378   1.000000   1.000000
   23       -7.237594     -7.237594   1.000000   1.000000
   24       -7.147294     -7.147294   1.000000   1.000000
   25       -7.065974     -7.065974   1.000000   1.000000
   26       -7.002679     -7.002679   1.000000   1.000000
   27       -6.992873     -6.992873   1.000000   1.000000
   28       -6.790100     -6.790100   1.000000   1.000000
   29       -6.783610     -6.783610   1.000000   1.000000
   30       -6.683237     -6.683237   1.000000   1.000000
   31       -6.627434     -6.627434   1.000000   1.000000
   32       -6.585306     -6.585306   1.000000   1.000000
   33       -6.497101     -6.497101   1.000000   1.000000
   34       -6.466106     -6.466106   1.000000   1.000000
   35       -6.382394     -6.382394   1.000000   1.000000
   36       -6.356407     -6.356407   1.000000   1.000000
   37       -6.190775     -6.190775   1.000000   1.000000
   38       -6.156016     -6.156016   1.000000   1.000000
   39       -6.145715     -6.145715   1.000000   1.000000
   40       -6.102846     -6.102846   1.000000   1.000000
   41       -6.023683     -6.023683   1.000000   1.000000
   42       -5.899540     -5.899540   1.000000   1.000000
   43       -5.552931     -5.552931   1.006018   1.006018
   44       -5.299108     -5.299108   0.993981   0.993981
   45       -3.883950     -3.883950  -0.000000  -0.000000
   46       -3.608636     -3.608636  -0.000000  -0.000000
   47       -3.583848     -3.583848  -0.000000  -0.000000
   48       -3.347954     -3.347954  -0.000000  -0.000000
   49       -2.056947     -2.056947  -0.000000  -0.000000
   50       -1.911327     -1.911327  -0.000000  -0.000000
   51       -1.312323     -1.312322  -0.000000  -0.000000
   52       -0.900766     -0.900765  -0.000000  -0.000000
   53       -0.528872     -0.528871  -0.000000  -0.000000
   54       -0.340461     -0.340461  -0.000000  -0.000000
   55       -0.088178     -0.088177  -0.000000  -0.000000
   56       -0.020007     -0.020005  -0.000000  -0.000000
