 vasp.6.1.2 22Jul20 (build Jan 14 2022 17:24:41) gamma-only                      
 executed on             LinuxPGI date 2022.01.26  03:33:34
 running on    8 total cores
 distrk:  each k-point on    8 cores,    1 groups
 distr:  one band on NCORE=   8 cores,    1 groups


--------------------------------------------------------------------------------------------------------


 INCAR:
 POTCAR:    PAW_PBE Au 04Oct2007                  
 -----------------------------------------------------------------------------
|                                                                             |
|           W    W    AA    RRRRR   N    N  II  N    N   GGGG   !!!           |
|           W    W   A  A   R    R  NN   N  II  NN   N  G    G  !!!           |
|           W    W  A    A  R    R  N N  N  II  N N  N  G       !!!           |
|           W WW W  AAAAAA  RRRRR   N  N N  II  N  N N  G  GGG   !            |
|           WW  WW  A    A  R   R   N   NN  II  N   NN  G    G                |
|           W    W  A    A  R    R  N    N  II  N    N   GGGG   !!!           |
|                                                                             |
|     You use a magnetic or noncollinear calculation, but did not specify     |
|     the initial magnetic moment with the MAGMOM tag. Note that a            |
|     default of 1 will be used for all atoms. This ferromagnetic setup       |
|     may break the symmetry of the crystal, in particular it may rule        |
|     out finding an antiferromagnetic solution. Thence, we recommend         |
|     setting the initial magnetic moment manually or verifying carefully     |
|     that this magnetic setup is desired.                                    |
|                                                                             |
 -----------------------------------------------------------------------------

 -----------------------------------------------------------------------------
|                                                                             |
|           W    W    AA    RRRRR   N    N  II  N    N   GGGG   !!!           |
|           W    W   A  A   R    R  NN   N  II  NN   N  G    G  !!!           |
|           W    W  A    A  R    R  N N  N  II  N N  N  G       !!!           |
|           W WW W  AAAAAA  RRRRR   N  N N  II  N  N N  G  GGG   !            |
|           WW  WW  A    A  R   R   N   NN  II  N   NN  G    G                |
|           W    W  A    A  R    R  N    N  II  N    N   GGGG   !!!           |
|                                                                             |
|     For optimal performance we recommend to set                             |
|       NCORE = 4 - approx SQRT(number of cores).                             |
|     NCORE specifies how many cores store one orbital (NPAR=cpu/NCORE).      |
|     This setting can greatly improve the performance of VASP for DFT.       |
|     The default, NCORE=1 might be grossly inefficient on modern             |
|     multi-core architectures or massively parallel machines. Do your        |
|     own testing!!!!                                                         |
|     Unfortunately you need to use the default for GW and RPA                |
|     calculations (for HF NCORE is supported but not extensively tested      |
|     yet).                                                                   |
|                                                                             |
 -----------------------------------------------------------------------------

 POTCAR:    PAW_PBE Au 04Oct2007                  
   SHA256 =  d0044ae04e2bdce24051b198fc5c053d722a5bc6fe3c3b100514a13fc5d2db88 Au/POTCAR             
   COPYR  = (c) Copyright 04Oct2007 Georg Kresse                                                    
   COPYR  = This file is part of the software VASP. Any use, copying, and all other rights are regul
   COPYR  = If you do not have a valid VASP license, you may not use, copy or distribute this file. 
   VRHFIN =Au: s1d10                                                                                
   LEXCH  = PE                                                                                      
   EATOM  =   926.0867 eV,   68.0654 Ry                                                             
                                                                                                    
   TITEL  = PAW_PBE Au 04Oct2007                                                                    
   LULTRA =        F    use ultrasoft PP ?                                                          
   IUNSCR =        1    unscreen: 0-lin 1-nonlin 2-no                                               
   RPACOR =    2.330    partial core radius                                                         
   POMASS =  196.966; ZVAL   =   11.000    mass and valenz                                          
   RCORE  =    2.500    outmost cutoff radius                                                       
   RWIGS  =    2.840; RWIGS  =    1.503    wigner-seitz radius (au A)                               
   ENMAX  =  229.943; ENMIN  =  172.457 eV                                                          
   ICORE  =        3    local potential                                                             
   LCOR   =        T    correct aug charges                                                         
   LPAW   =        T    paw PP                                                                      
   EAUG   =  356.670                                                                                
   DEXC   =    0.000                                                                                
   RMAX   =    2.562    core radius for proj-oper                                                   
   RAUG   =    1.300    factor for augmentation sphere                                              
   RDEP   =    2.598    radius for radial grids                                                     
   RDEPT  =    2.193    core radius for aug-charge                                                  
                                                                                                    
   Atomic configuration                                                                             
   16 entries                                                                                       
     n  l   j            E        occ.                                                              
     1  0  0.50    -80748.5001   2.0000                                                             
     2  0  0.50    -14244.7466   2.0000                                                             
     2  1  1.50    -12310.9591   6.0000                                                             
     3  0  0.50     -3362.1768   2.0000                                                             
     3  1  1.50     -2801.5463   6.0000                                                             
     3  2  2.50     -2203.8206  10.0000                                                             
     4  0  0.50      -729.8168   2.0000                                                             
     4  1  1.50      -546.0527   6.0000                                                             
     4  2  2.50      -325.7302  10.0000                                                             
     4  3  3.50       -81.1472  14.0000                                                             
     5  0  0.50      -108.3201   2.0000                                                             
     5  1  1.50       -59.7479   6.0000                                                             
     5  2  2.50        -6.8783  10.0000                                                             
     6  0  0.50        -5.7602   1.0000                                                             
     6  1  1.50        -6.8029   0.0000                                                             
     5  3  2.50        -1.3606   0.0000                                                             
   Description                                                                                      
     l       E           TYP  RCUT    TYP  RCUT                                                     
     2     -6.8782861     23  2.500                                                                 
     2     -8.2388687     23  2.500                                                                 
     0     -5.7601759     23  2.500                                                                 
     0     -0.8493231     23  2.500                                                                 
     1     -2.7211652     23  2.500                                                                 
     1     27.2116520     23  2.500                                                                 
     3     -1.3605826     23  2.500                                                                 
  local pseudopotential read in
  partial core-charges read in
  partial kinetic energy density read in
  atomic valenz-charges read in
  non local Contribution for L=            2  read in
    real space projection operators read in
  non local Contribution for L=            2  read in
    real space projection operators read in
  non local Contribution for L=            0  read in
    real space projection operators read in
  non local Contribution for L=            0  read in
    real space projection operators read in
  non local Contribution for L=            1  read in
    real space projection operators read in
  non local Contribution for L=            1  read in
    real space projection operators read in
    PAW grid and wavefunctions read in
 
   number of l-projection  operators is LMAX  =            6
   number of lm-projection operators is LMMAX =           18
 
  PAW_PBE Au 04Oct2007                  :
 energy of atom  1       EATOM= -926.0867
 kinetic energy error for atom=    0.0062 (will be added to EATOM!!)
 
 
 POSCAR: Au
  positions in cartesian coordinates
  No initial velocities read in
 exchange correlation table for  LEXCH =        8
   RHO(1)=    0.500       N(1)  =     2000
   RHO(2)=  100.500       N(2)  =     4000
 


--------------------------------------------------------------------------------------------------------


 ion  position               nearest neighbor table
   1  0.476  0.484  0.392-   6 2.59   5 2.59   2 2.63
   2  0.446  0.449  0.498-   3 2.63   1 2.63   6 2.74   5 2.74   7 2.74   4 2.74
   3  0.427  0.424  0.609-   7 2.59   4 2.59   2 2.63
   4  0.452  0.540  0.583-   3 2.59   8 2.65   5 2.70   7 2.71   2 2.74
   5  0.477  0.571  0.471-   1 2.59   8 2.65   4 2.70   6 2.71   2 2.74
   6  0.568  0.481  0.467-   1 2.59   8 2.65   7 2.70   5 2.71   2 2.74
   7  0.543  0.450  0.578-   3 2.59   8 2.65   6 2.70   4 2.71   2 2.74
   8  0.569  0.567  0.549-   5 2.65   4 2.65   6 2.65   7 2.65
 

IMPORTANT INFORMATION: All symmetrisations will be switched off!
NOSYMM: (Re-)initialisation of all symmetry stuff for point group C_1.


----------------------------------------------------------------------------------------

                                     Primitive cell                                     

  volume of cell :   10368.7369

  direct lattice vectors                    reciprocal lattice vectors
    21.133068180  0.000000000  0.000000000     0.047319206  0.000000000  0.000000000
     0.000000000 21.300100466  0.000000000     0.000000000  0.046948135  0.000000000
     0.000000000  0.000000000 23.034651586     0.000000000  0.000000000  0.043412855

  length of vectors
    21.133068180 21.300100466 23.034651586     0.047319206  0.046948135  0.043412855

  position of ions in fractional coordinates (direct lattice)
     0.475960929  0.484257188  0.392353639
     0.446400585  0.449116914  0.498314312
     0.427471293  0.424256890  0.608689722
     0.452077636  0.539988320  0.582628200
     0.476985584  0.570844097  0.471291860
     0.567503184  0.480699077  0.467007051
     0.542588212  0.449878420  0.578324984
     0.568873601  0.567406550  0.549445374

  ion indices of the primitive-cell ions
   primitive index   ion index
                 1           1
                 2           2
                 3           3
                 4           4
                 5           5
                 6           6
                 7           7
                 8           8

----------------------------------------------------------------------------------------

 
 
 KPOINTS: KPOINTS created by Atomic Simulation Env

Automatic generation of k-mesh.
Space group operators:
 irot       det(A)        alpha          n_x          n_y          n_z        tau_x        tau_y        tau_z
    1     1.000000     0.000000     1.000000     0.000000     0.000000     0.000000     0.000000     0.000000
 
 Subroutine IBZKPT returns following result:
 ===========================================
 
 Found      1 irreducible k-points:
 
 Following reciprocal coordinates:
            Coordinates               Weight
  0.000000  0.000000  0.000000      1.000000
 
 Following cartesian coordinates:
            Coordinates               Weight
  0.000000  0.000000  0.000000      1.000000
 


--------------------------------------------------------------------------------------------------------




 Dimension of arrays:
   k-points           NKPTS =      1   k-points in BZ     NKDIM =      1   number of bands    NBANDS=     56
   number of dos      NEDOS =    301   number of ions     NIONS =      8
   non local maximal  LDIM  =      6   non local SUM 2l+1 LMDIM =     18
   total plane-waves  NPLWV = ******
   max r-space proj   IRMAX =      1   max aug-charges    IRDMAX=   8454
   dimension x,y,z NGX =   108 NGY =  108 NGZ =  120
   dimension x,y,z NGXF=   216 NGYF=  216 NGZF=  240
   support grid    NGXF=   216 NGYF=  216 NGZF=  240
   ions per type =               8
   NGX,Y,Z   is equivalent  to a cutoff of   8.50,  8.43,  8.66 a.u.
   NGXF,Y,Z  is equivalent  to a cutoff of  16.99, 16.86, 17.32 a.u.

 SYSTEM =  unknown system                          
 POSCAR =  Au                                      

 Startparameter for this run:
   NWRITE =      2    write-flag & timer
   PREC   = normal    normal or accurate (medium, high low for compatibility)
   ISTART =      0    job   : 0-new  1-cont  2-samecut
   ICHARG =      2    charge: 1-file 2-atom 10-const
   ISPIN  =      2    spin polarized calculation?
   LNONCOLLINEAR =      F non collinear calculations
   LSORBIT =      F    spin-orbit coupling
   INIWAV =      1    electr: 0-lowe 1-rand  2-diag
   LASPH  =      F    aspherical Exc in radial PAW
   METAGGA=      F    non-selfconsistent MetaGGA calc.

 Electronic Relaxation 1
   ENCUT  =  400.0 eV  29.40 Ry    5.42 a.u.  34.46 34.74 37.56*2*pi/ulx,y,z
   ENINI  =  400.0     initial cutoff
   ENAUG  =  356.7 eV  augmentation charge cutoff
   NELM   =     60;   NELMIN=  2; NELMDL=  0     # of ELM steps 
   EDIFF  = 0.1E-03   stopping-criterion for ELM
   LREAL  =      F    real-space projection
   NLSPLINE    = F    spline interpolate recip. space projectors
   LCOMPAT=      F    compatible to vasp.4.4
   GGA_COMPAT  = T    GGA compatible to vasp.4.4-vasp.4.6
   LMAXPAW     = -100 max onsite density
   LMAXMIX     =    2 max onsite mixed and CHGCAR
   VOSKOWN=      0    Vosko Wilk Nusair interpolation
   ROPT   =    0.00000
 Ionic relaxation
   EDIFFG = 0.1E-02   stopping-criterion for IOM
   NSW    =   1000    number of steps for IOM
   NBLOCK =      1;   KBLOCK =   1000    inner block; outer block 
   IBRION =      2    ionic relax: 0-MD 1-quasi-New 2-CG
   NFREE  =      1    steps in history (QN), initial steepest desc. (CG)
   ISIF   =      0    stress and relaxation
   IWAVPR =     11    prediction:  0-non 1-charg 2-wave 3-comb
   ISYM   =      0    0-nonsym 1-usesym 2-fastsym
   LCORR  =      T    Harris-Foulkes like correction to forces

   POTIM  = 0.5000    time-step for ionic-motion
   TEIN   =    0.0    initial temperature
   TEBEG  =    0.0;   TEEND  =   0.0 temperature during run
   SMASS  =  -3.00    Nose mass-parameter (am)
   estimated Nose-frequenzy (Omega)   =  0.10E-29 period in steps = 0.13E+47 mass=  -0.102E-25a.u.
   SCALEE = 1.0000    scale energy and forces
   NPACO  =    256;   APACO  = 16.0  distance and # of slots for P.C.
   PSTRESS=    0.0 pullay stress

  Mass of Ions in am
   POMASS = 196.97
  Ionic Valenz
   ZVAL   =  11.00
  Atomic Wigner-Seitz radii
   RWIGS  =  -1.00
  virtual crystal weights 
   VCA    =   1.00
   NELECT =      88.0000    total number of electrons
   NUPDOWN=      -1.0000    fix difference up-down

 DOS related values:
   EMIN   =  10.00;   EMAX   =-10.00  energy-range for DOS
   EFERMI =   0.00
   ISMEAR =     1;   SIGMA  =   0.20  broadening in eV -4-tet -1-fermi 0-gaus

 Electronic relaxation 2 (details)
   IALGO  =     38    algorithm
   LDIAG  =      T    sub-space diagonalisation (order eigenvalues)
   LSUBROT=      F    optimize rotation matrix (better conditioning)
   TURBO    =      0    0=normal 1=particle mesh
   IRESTART =      0    0=no restart 2=restart with 2 vectors
   NREBOOT  =      0    no. of reboots
   NMIN     =      0    reboot dimension
   EREF     =   0.00    reference energy to select bands
   IMIX   =      4    mixing-type and parameters
     AMIX     =   0.40;   BMIX     =  1.00
     AMIX_MAG =   1.60;   BMIX_MAG =  1.00
     AMIN     =   0.10
     WC   =   100.;   INIMIX=   1;  MIXPRE=   1;  MAXMIX= -45

 Intra band minimization:
   WEIMIN = 0.0010     energy-eigenvalue tresh-hold
   EBREAK =  0.45E-06  absolut break condition
   DEPER  =   0.30     relativ break condition  

   TIME   =   0.40     timestep for ELM

  volume/ion in A,a.u.               =    1296.09      8746.46
  Fermi-wavevector in a.u.,A,eV,Ry     =   0.333934  0.631043  1.517210  0.111512
  Thomas-Fermi vector in A             =   1.232208
 
 Write flags
   LWAVE        =      F    write WAVECAR
   LDOWNSAMPLE  =      F    k-point downsampling of WAVECAR
   LCHARG       =      F    write CHGCAR
   LVTOT        =      F    write LOCPOT, total local potential
   LVHAR        =      F    write LOCPOT, Hartree potential only
   LELF         =      F    write electronic localiz. function (ELF)
   LORBIT       =      0    0 simple, 1 ext, 2 COOP (PROOUT), +10 PAW based schemes


 Dipole corrections
   LMONO  =      F    monopole corrections only (constant potential shift)
   LDIPOL =      F    correct potential (dipole corrections)
   IDIPOL =      0    1-x, 2-y, 3-z, 4-all directions 
   EPSILON=  1.0000000 bulk dielectric constant

 Exchange correlation treatment:
   GGA     =    PE    GGA type
   LEXCH   =     8    internal setting for exchange type
   VOSKOWN=      0    Vosko Wilk Nusair interpolation
   LHFCALC =     F    Hartree Fock is set to
   LHFONE  =     F    Hartree Fock one center treatment
   AEXX    =    0.0000 exact exchange contribution

 Linear response parameters
   LEPSILON=     F    determine dielectric tensor
   LRPA    =     F    only Hartree local field effects (RPA)
   LNABLA  =     F    use nabla operator in PAW spheres
   LVEL    =     F    velocity operator in full k-point grid
   LINTERFAST=   F  fast interpolation
   KINTER  =     0    interpolate to denser k-point grid
   CSHIFT  =0.1000    complex shift for real part using Kramers Kronig
   OMEGAMAX=  -1.0    maximum frequency
   DEG_THRESHOLD= 0.2000000E-02 threshold for treating states as degnerate
   RTIME   =   -0.100 relaxation time in fs
  (WPLASMAI=    0.000 imaginary part of plasma frequency in eV, 0.658/RTIME)
   DFIELD  = 0.0000000 0.0000000 0.0000000 field for delta impulse in time
 
 Orbital magnetization related:
   ORBITALMAG=     F  switch on orbital magnetization
   LCHIMAG   =     F  perturbation theory with respect to B field
   DQ        =  0.001000  dq finite difference perturbation B field
   LLRAUG    =     F  two centre corrections for induced B field



--------------------------------------------------------------------------------------------------------


 conjugate gradient relaxation of ions
 charge density and potential will be updated during run
 spin polarized calculation
 Variant of blocked Davidson
 Davidson routine will perform the subspace rotation
 perform sub-space diagonalisation
    after iterative eigenvector-optimisation
 modified Broyden-mixing scheme, WC =      100.0
 initial mixing is a Kerker type mixing with AMIX =  0.4000 and BMIX =      1.0000
 Hartree-type preconditioning will be used
 using additional bands            12
 reciprocal scheme for non local part
 use partial core corrections
 calculate Harris-corrections to forces 
   (improved forces if not selfconsistent)
 use gradient corrections 
 use of overlap-Matrix (Vanderbilt PP)
 Methfessel and Paxton  Order N= 1 SIGMA  =   0.20


--------------------------------------------------------------------------------------------------------


  energy-cutoff  :      400.00
  volume of cell :    10368.74
      direct lattice vectors                 reciprocal lattice vectors
    21.133068180  0.000000000  0.000000000     0.047319206  0.000000000  0.000000000
     0.000000000 21.300100466  0.000000000     0.000000000  0.046948135  0.000000000
     0.000000000  0.000000000 23.034651586     0.000000000  0.000000000  0.043412855

  length of vectors
    21.133068180 21.300100466 23.034651586     0.047319206  0.046948135  0.043412855


 
 k-points in units of 2pi/SCALE and weight: KPOINTS created by Atomic Simulation Env
   0.00000000  0.00000000  0.00000000       1.000
 
 k-points in reciprocal lattice and weights: KPOINTS created by Atomic Simulation Env
   0.00000000  0.00000000  0.00000000       1.000
 
 position of ions in fractional coordinates (direct lattice) 
   0.47596093  0.48425719  0.39235364
   0.44640059  0.44911691  0.49831431
   0.42747129  0.42425689  0.60868972
   0.45207764  0.53998832  0.58262820
   0.47698558  0.57084410  0.47129186
   0.56750318  0.48069908  0.46700705
   0.54258821  0.44987842  0.57832498
   0.56887360  0.56740655  0.54944537
 
 position of ions in cartesian coordinates  (Angst):
  10.05851476 10.31472675  9.03772938
   9.43381400  9.56623539 11.47849655
   9.03377999  9.03671438 14.02095566
   9.55378751 11.50180547 13.42063758
  10.08016887 12.15903661 10.85604379
  11.99308348 10.23893864 10.75734471
  11.46655367  9.58245555 13.32151451
  12.02204459 12.08581653 12.65628276
 


--------------------------------------------------------------------------------------------------------


 use parallel FFT for orbitals z direction half grid
 k-point   1 :   0.0000 0.0000 0.0000  plane waves:   94132

 maximum and minimum number of plane-waves per node :     11770    11765

 maximum number of plane-waves:     94132
 maximum index in each direction: 
   IXMAX=   34   IYMAX=   34   IZMAX=   37
   IXMIN=  -34   IYMIN=  -34   IZMIN=    0


 parallel 3D FFT for wavefunctions:
    minimum data exchange during FFTs selected (reduces bandwidth)
 parallel 3D FFT for charge:
    minimum data exchange during FFTs selected (reduces bandwidth)


 total amount of memory used by VASP MPI-rank0   221513. kBytes
=======================================================================

   base      :      30000. kBytes
   nonl-proj :       3200. kBytes
   fftplans  :      51206. kBytes
   grid      :     115993. kBytes
   one-center:         15. kBytes
   wavefun   :      21099. kBytes
 
     INWAV:  cpu time    0.0001: real time    0.0001
 Broyden mixing: mesh for mixing (old mesh)
   NGX = 69   NGY = 69   NGZ = 75
  (NGX  =216   NGY  =216   NGZ  =240)
  gives a total of 357075 points

 initial charge density was supplied:
 charge density of overlapping atoms calculated
 number of electron      88.0000000 magnetization       8.0000000
 keeping initial charge density in first step


--------------------------------------------------------------------------------------------------------


 Maximum index for augmentation-charges          1051 (set IRDMAX)


--------------------------------------------------------------------------------------------------------


 First call to EWALD:  gamma=   0.081
 Maximum number of real-space cells 3x 3x 3
 Maximum number of reciprocal cells 3x 3x 3

    FEWALD:  cpu time    0.0012: real time    0.0012


--------------------------------------- Iteration      1(   1)  ---------------------------------------


    POTLOK:  cpu time    3.9927: real time    4.0041
    SETDIJ:  cpu time    0.0274: real time    0.0274
     EDDAV:  cpu time    5.8245: real time    5.8422
       DOS:  cpu time    0.0016: real time    0.0016
    --------------------------------------------
      LOOP:  cpu time    9.8462: real time    9.8753

 eigenvalue-minimisations  :   224
 total energy-change (2. order) : 0.7606453E+03  (-0.1363874E+04)
 number of electron      88.0000000 magnetization       8.0000000
 augmentation part       88.0000000 magnetization       8.0000000

 Free energy of the ion-electron system (eV)
  ---------------------------------------------------
  alpha Z        PSCENC =         7.18958809
  Ewald energy   TEWEN  =      8638.25529107
  -Hartree energ DENC   =    -15715.76918563
  -exchange      EXHF   =         0.00000000
  -V(xc)+E(xc)   XCENC  =       119.29218406
  PAW double counting   =      6992.17180065    -6807.49900724
  entropy T*S    EENTRO =        -0.00142562
  eigenvalues    EBANDS =       118.36187972
  atomic energy  EATOM  =      7408.64415014
  Solvation  Ediel_sol  =         0.00000000
  ---------------------------------------------------
  free energy    TOTEN  =       760.64527524 eV

  energy without entropy =      760.64670086  energy(sigma->0) =      760.64575045


--------------------------------------------------------------------------------------------------------




--------------------------------------- Iteration      1(   2)  ---------------------------------------


     EDDAV:  cpu time    9.1468: real time    9.1684
       DOS:  cpu time    0.0010: real time    0.0010
    --------------------------------------------
      LOOP:  cpu time    9.1478: real time    9.1693

 eigenvalue-minimisations  :   424
 total energy-change (2. order) :-0.3208514E+03  (-0.2976031E+03)
 number of electron      88.0000000 magnetization       8.0000000
 augmentation part       88.0000000 magnetization       8.0000000

 Free energy of the ion-electron system (eV)
  ---------------------------------------------------
  alpha Z        PSCENC =         7.18958809
  Ewald energy   TEWEN  =      8638.25529107
  -Hartree energ DENC   =    -15715.76918563
  -exchange      EXHF   =         0.00000000
  -V(xc)+E(xc)   XCENC  =       119.29218406
  PAW double counting   =      6992.17180065    -6807.49900724
  entropy T*S    EENTRO =        -0.13074409
  eigenvalues    EBANDS =      -202.36023167
  atomic energy  EATOM  =      7408.64415014
  Solvation  Ediel_sol  =         0.00000000
  ---------------------------------------------------
  free energy    TOTEN  =       439.79384538 eV

  energy without entropy =      439.92458947  energy(sigma->0) =      439.83742674


--------------------------------------------------------------------------------------------------------




--------------------------------------- Iteration      1(   3)  ---------------------------------------


     EDDAV:  cpu time    8.6570: real time    8.6670
       DOS:  cpu time    0.0058: real time    0.0058
    --------------------------------------------
      LOOP:  cpu time    8.6628: real time    8.6728

 eigenvalue-minimisations  :   400
 total energy-change (2. order) :-0.3158023E+03  (-0.2986380E+03)
 number of electron      88.0000000 magnetization       8.0000000
 augmentation part       88.0000000 magnetization       8.0000000

 Free energy of the ion-electron system (eV)
  ---------------------------------------------------
  alpha Z        PSCENC =         7.18958809
  Ewald energy   TEWEN  =      8638.25529107
  -Hartree energ DENC   =    -15715.76918563
  -exchange      EXHF   =         0.00000000
  -V(xc)+E(xc)   XCENC  =       119.29218406
  PAW double counting   =      6992.17180065    -6807.49900724
  entropy T*S    EENTRO =        -0.02246391
  eigenvalues    EBANDS =      -518.27079153
  atomic energy  EATOM  =      7408.64415014
  Solvation  Ediel_sol  =         0.00000000
  ---------------------------------------------------
  free energy    TOTEN  =       123.99156571 eV

  energy without entropy =      124.01402962  energy(sigma->0) =      123.99905368


--------------------------------------------------------------------------------------------------------




--------------------------------------- Iteration      1(   4)  ---------------------------------------


     EDDAV:  cpu time    6.8755: real time    6.8980
       DOS:  cpu time    0.0012: real time    0.0012
    --------------------------------------------
      LOOP:  cpu time    6.8767: real time    6.8992

 eigenvalue-minimisations  :   296
 total energy-change (2. order) :-0.1093154E+03  (-0.1022602E+03)
 number of electron      88.0000000 magnetization       8.0000000
 augmentation part       88.0000000 magnetization       8.0000000

 Free energy of the ion-electron system (eV)
  ---------------------------------------------------
  alpha Z        PSCENC =         7.18958809
  Ewald energy   TEWEN  =      8638.25529107
  -Hartree energ DENC   =    -15715.76918563
  -exchange      EXHF   =         0.00000000
  -V(xc)+E(xc)   XCENC  =       119.29218406
  PAW double counting   =      6992.17180065    -6807.49900724
  entropy T*S    EENTRO =        -0.03799912
  eigenvalues    EBANDS =      -627.57068351
  atomic energy  EATOM  =      7408.64415014
  Solvation  Ediel_sol  =         0.00000000
  ---------------------------------------------------
  free energy    TOTEN  =        14.67613851 eV

  energy without entropy =       14.71413764  energy(sigma->0) =       14.68880489


--------------------------------------------------------------------------------------------------------




--------------------------------------- Iteration      1(   5)  ---------------------------------------


     EDDAV:  cpu time    7.6006: real time    7.6159
       DOS:  cpu time    0.0030: real time    0.0030
    CHARGE:  cpu time    0.7733: real time    0.7743
    MIXING:  cpu time    0.0651: real time    0.0652
    --------------------------------------------
      LOOP:  cpu time    8.4420: real time    8.4584

 eigenvalue-minimisations  :   336
 total energy-change (2. order) :-0.2619734E+02  (-0.2353789E+02)
 number of electron      87.9999961 magnetization       7.1058859
 augmentation part       31.1247309 magnetization       7.2649370

 Broyden mixing:
  rms(total) = 0.23578E+01    rms(broyden)= 0.23578E+01
  rms(prec ) = 0.23793E+01
  weight for this iteration     100.00

 Free energy of the ion-electron system (eV)
  ---------------------------------------------------
  alpha Z        PSCENC =         7.18958809
  Ewald energy   TEWEN  =      8638.25529107
  -Hartree energ DENC   =    -15715.76918563
  -exchange      EXHF   =         0.00000000
  -V(xc)+E(xc)   XCENC  =       119.29218406
  PAW double counting   =      6992.17180065    -6807.49900724
  entropy T*S    EENTRO =         0.03097132
  eigenvalues    EBANDS =      -653.83699531
  atomic energy  EATOM  =      7408.64415014
  Solvation  Ediel_sol  =         0.00000000
  ---------------------------------------------------
  free energy    TOTEN  =       -11.52120285 eV

  energy without entropy =      -11.55217417  energy(sigma->0) =      -11.53152662


--------------------------------------------------------------------------------------------------------




--------------------------------------- Iteration      1(   6)  ---------------------------------------


    POTLOK:  cpu time    3.7971: real time    3.8061
    SETDIJ:  cpu time    0.0242: real time    0.0243
     EDDAV:  cpu time    6.0871: real time    6.1006
       DOS:  cpu time    0.0036: real time    0.0036
    CHARGE:  cpu time    0.7073: real time    0.7080
    MIXING:  cpu time    0.0675: real time    0.0676
    --------------------------------------------
      LOOP:  cpu time   10.6868: real time   10.7102

 eigenvalue-minimisations  :   256
 total energy-change (2. order) : 0.8646169E+01  (-0.9771407E+01)
 number of electron      87.9999960 magnetization       6.2374742
 augmentation part       32.5259489 magnetization       5.3545724

 Broyden mixing:
  rms(total) = 0.16394E+01    rms(broyden)= 0.16394E+01
  rms(prec ) = 0.16445E+01
  weight for this iteration     100.00

 eigenvalues of (default mixing * dielectric matrix)
  average eigenvalue GAMMA=   0.9725
  0.9725

 Free energy of the ion-electron system (eV)
  ---------------------------------------------------
  alpha Z        PSCENC =         7.18958809
  Ewald energy   TEWEN  =      8638.25529107
  -Hartree energ DENC   =    -15647.17257539
  -exchange      EXHF   =         0.00000000
  -V(xc)+E(xc)   XCENC  =       126.16996117
  PAW double counting   =      7422.04125490    -7245.52321475
  entropy T*S    EENTRO =        -0.02656264
  eigenvalues    EBANDS =      -712.45292629
  atomic energy  EATOM  =      7408.64415014
  Solvation  Ediel_sol  =         0.00000000
  ---------------------------------------------------
  free energy    TOTEN  =        -2.87503369 eV

  energy without entropy =       -2.84847105  energy(sigma->0) =       -2.86617948


--------------------------------------------------------------------------------------------------------




--------------------------------------- Iteration      1(   7)  ---------------------------------------


    POTLOK:  cpu time    3.7910: real time    3.8015
    SETDIJ:  cpu time    0.0260: real time    0.0260
     EDDAV:  cpu time    5.9011: real time    5.9084
       DOS:  cpu time    0.0032: real time    0.0032
    CHARGE:  cpu time    0.7969: real time    0.7977
    MIXING:  cpu time    0.0676: real time    0.0714
    --------------------------------------------
      LOOP:  cpu time   10.5858: real time   10.6081

 eigenvalue-minimisations  :   248
 total energy-change (2. order) : 0.3419933E+00  (-0.3573670E+00)
 number of electron      87.9999960 magnetization       5.1319347
 augmentation part       32.3353371 magnetization       4.5981909

 Broyden mixing:
  rms(total) = 0.68318E+00    rms(broyden)= 0.68318E+00
  rms(prec ) = 0.68565E+00
  weight for this iteration     100.00

 eigenvalues of (default mixing * dielectric matrix)
  average eigenvalue GAMMA=   1.2419
  0.7412  1.7426

 Free energy of the ion-electron system (eV)
  ---------------------------------------------------
  alpha Z        PSCENC =         7.18958809
  Ewald energy   TEWEN  =      8638.25529107
  -Hartree energ DENC   =    -15677.48778815
  -exchange      EXHF   =         0.00000000
  -V(xc)+E(xc)   XCENC  =       127.17171673
  PAW double counting   =      7841.98649510    -7669.42475753
  entropy T*S    EENTRO =        -0.00285912
  eigenvalues    EBANDS =      -678.86487675
  atomic energy  EATOM  =      7408.64415014
  Solvation  Ediel_sol  =         0.00000000
  ---------------------------------------------------
  free energy    TOTEN  =        -2.53304041 eV

  energy without entropy =       -2.53018129  energy(sigma->0) =       -2.53208737


--------------------------------------------------------------------------------------------------------




--------------------------------------- Iteration      1(   8)  ---------------------------------------


    POTLOK:  cpu time    3.8252: real time    3.8371
    SETDIJ:  cpu time    0.0267: real time    0.0267
     EDDAV:  cpu time    6.3797: real time    6.3983
       DOS:  cpu time    0.0009: real time    0.0009
    CHARGE:  cpu time    0.8930: real time    0.8975
    MIXING:  cpu time    0.0844: real time    0.0845
    --------------------------------------------
      LOOP:  cpu time   11.2098: real time   11.2450

 eigenvalue-minimisations  :   256
 total energy-change (2. order) :-0.4332189E+01  (-0.1686596E+00)
 number of electron      87.9999960 magnetization       4.6353499
 augmentation part       32.2245715 magnetization       4.3638810

 Broyden mixing:
  rms(total) = 0.25264E+00    rms(broyden)= 0.25264E+00
  rms(prec ) = 0.25613E+00
  weight for this iteration     100.00

 eigenvalues of (default mixing * dielectric matrix)
  average eigenvalue GAMMA=   1.1971
  2.0282  0.9239  0.6392

 Free energy of the ion-electron system (eV)
  ---------------------------------------------------
  alpha Z        PSCENC =         7.18958809
  Ewald energy   TEWEN  =      8638.25529107
  -Hartree energ DENC   =    -15695.87323172
  -exchange      EXHF   =         0.00000000
  -V(xc)+E(xc)   XCENC  =       124.08753835
  PAW double counting   =      8183.65589758    -8014.32441750
  entropy T*S    EENTRO =         0.02111903
  eigenvalues    EBANDS =      -658.52116401
  atomic energy  EATOM  =      7408.64415014
  Solvation  Ediel_sol  =         0.00000000
  ---------------------------------------------------
  free energy    TOTEN  =        -6.86522896 eV

  energy without entropy =       -6.88634799  energy(sigma->0) =       -6.87226863


--------------------------------------------------------------------------------------------------------




--------------------------------------- Iteration      1(   9)  ---------------------------------------


    POTLOK:  cpu time    3.8123: real time    3.8249
    SETDIJ:  cpu time    0.0253: real time    0.0254
     EDDAV:  cpu time    6.0594: real time    6.0656
       DOS:  cpu time    0.0041: real time    0.0041
    CHARGE:  cpu time    0.7640: real time    0.7649
    MIXING:  cpu time    0.0838: real time    0.0839
    --------------------------------------------
      LOOP:  cpu time   10.7490: real time   10.7688

 eigenvalue-minimisations  :   248
 total energy-change (2. order) :-0.1996910E+01  (-0.4315284E-01)
 number of electron      87.9999960 magnetization       3.6976755
 augmentation part       32.2433252 magnetization       3.4620526

 Broyden mixing:
  rms(total) = 0.15203E+00    rms(broyden)= 0.15203E+00
  rms(prec ) = 0.15481E+00
  weight for this iteration     100.00

 eigenvalues of (default mixing * dielectric matrix)
  average eigenvalue GAMMA=   1.2410
  2.1696  1.3558  0.8181  0.6204

 Free energy of the ion-electron system (eV)
  ---------------------------------------------------
  alpha Z        PSCENC =         7.18958809
  Ewald energy   TEWEN  =      8638.25529107
  -Hartree energ DENC   =    -15693.93530862
  -exchange      EXHF   =         0.00000000
  -V(xc)+E(xc)   XCENC  =       122.51452062
  PAW double counting   =      8212.89297567    -8044.05334321
  entropy T*S    EENTRO =         0.01490451
  eigenvalues    EBANDS =      -660.38491733
  atomic energy  EATOM  =      7408.64415014
  Solvation  Ediel_sol  =         0.00000000
  ---------------------------------------------------
  free energy    TOTEN  =        -8.86213906 eV

  energy without entropy =       -8.87704357  energy(sigma->0) =       -8.86710723


--------------------------------------------------------------------------------------------------------




--------------------------------------- Iteration      1(  10)  ---------------------------------------


    POTLOK:  cpu time    3.6924: real time    3.6968
    SETDIJ:  cpu time    0.0266: real time    0.0266
     EDDAV:  cpu time    6.0923: real time    6.1060
       DOS:  cpu time    0.0027: real time    0.0027
    CHARGE:  cpu time    0.6816: real time    0.6826
    MIXING:  cpu time    0.0754: real time    0.0755
    --------------------------------------------
      LOOP:  cpu time   10.5709: real time   10.5902

 eigenvalue-minimisations  :   248
 total energy-change (2. order) :-0.3163891E+01  (-0.1231480E+00)
 number of electron      87.9999960 magnetization       2.9139536
 augmentation part       32.2870046 magnetization       2.7538576

 Broyden mixing:
  rms(total) = 0.10042E+00    rms(broyden)= 0.10042E+00
  rms(prec ) = 0.10151E+00
  weight for this iteration     100.00

 eigenvalues of (default mixing * dielectric matrix)
  average eigenvalue GAMMA=   1.3366
  2.6215  1.6473  0.8893  0.8893  0.6355

 Free energy of the ion-electron system (eV)
  ---------------------------------------------------
  alpha Z        PSCENC =         7.18958809
  Ewald energy   TEWEN  =      8638.25529107
  -Hartree energ DENC   =    -15690.06760146
  -exchange      EXHF   =         0.00000000
  -V(xc)+E(xc)   XCENC  =       119.99689396
  PAW double counting   =      8221.43286927    -8053.12088208
  entropy T*S    EENTRO =         0.00650329
  eigenvalues    EBANDS =      -664.36284202
  atomic energy  EATOM  =      7408.64415014
  Solvation  Ediel_sol  =         0.00000000
  ---------------------------------------------------
  free energy    TOTEN  =       -12.02602974 eV

  energy without entropy =      -12.03253302  energy(sigma->0) =      -12.02819750


--------------------------------------------------------------------------------------------------------




--------------------------------------- Iteration      1(  11)  ---------------------------------------


    POTLOK:  cpu time    3.7255: real time    3.7378
    SETDIJ:  cpu time    0.0231: real time    0.0268
     EDDAV:  cpu time    6.7832: real time    6.7907
       DOS:  cpu time    0.0043: real time    0.0043
    CHARGE:  cpu time    0.7863: real time    0.7872
    MIXING:  cpu time    0.0845: real time    0.0846
    --------------------------------------------
      LOOP:  cpu time   11.4070: real time   11.4314

 eigenvalue-minimisations  :   248
 total energy-change (2. order) :-0.1750398E+01  (-0.6231099E-01)
 number of electron      87.9999960 magnetization       2.1801757
 augmentation part       32.2953264 magnetization       2.0448328

 Broyden mixing:
  rms(total) = 0.73053E-01    rms(broyden)= 0.73052E-01
  rms(prec ) = 0.74411E-01
  weight for this iteration     100.00

 eigenvalues of (default mixing * dielectric matrix)
  average eigenvalue GAMMA=   1.3486
  2.7599  1.8631  1.0655  1.0655  0.6987  0.6386

 Free energy of the ion-electron system (eV)
  ---------------------------------------------------
  alpha Z        PSCENC =         7.18958809
  Ewald energy   TEWEN  =      8638.25529107
  -Hartree energ DENC   =    -15688.00721901
  -exchange      EXHF   =         0.00000000
  -V(xc)+E(xc)   XCENC  =       118.57878790
  PAW double counting   =      8205.89072698    -8037.61672437
  entropy T*S    EENTRO =         0.01057153
  eigenvalues    EBANDS =      -666.72160017
  atomic energy  EATOM  =      7408.64415014
  Solvation  Ediel_sol  =         0.00000000
  ---------------------------------------------------
  free energy    TOTEN  =       -13.77642783 eV

  energy without entropy =      -13.78699936  energy(sigma->0) =      -13.77995168


--------------------------------------------------------------------------------------------------------




--------------------------------------- Iteration      1(  12)  ---------------------------------------


    POTLOK:  cpu time    4.4036: real time    4.4170
    SETDIJ:  cpu time    0.0252: real time    0.0253
     EDDAV:  cpu time    5.8212: real time    5.8278
       DOS:  cpu time    0.0013: real time    0.0013
    CHARGE:  cpu time    0.7356: real time    0.7365
    MIXING:  cpu time    0.1002: real time    0.1004
    --------------------------------------------
      LOOP:  cpu time   11.0871: real time   11.1082

 eigenvalue-minimisations  :   240
 total energy-change (2. order) :-0.9492998E+00  (-0.3107017E-01)
 number of electron      87.9999960 magnetization       1.2946893
 augmentation part       32.3046180 magnetization       1.1742612

 Broyden mixing:
  rms(total) = 0.49549E-01    rms(broyden)= 0.49549E-01
  rms(prec ) = 0.50766E-01
  weight for this iteration     100.00

 eigenvalues of (default mixing * dielectric matrix)
  average eigenvalue GAMMA=   1.5765
  3.9491  2.5271  1.3940  1.0494  0.8226  0.6465  0.6465

 Free energy of the ion-electron system (eV)
  ---------------------------------------------------
  alpha Z        PSCENC =         7.18958809
  Ewald energy   TEWEN  =      8638.25529107
  -Hartree energ DENC   =    -15684.09902243
  -exchange      EXHF   =         0.00000000
  -V(xc)+E(xc)   XCENC  =       117.73230786
  PAW double counting   =      8173.07803234    -8004.55620020
  entropy T*S    EENTRO =         0.01283082
  eigenvalues    EBANDS =      -670.98270533
  atomic energy  EATOM  =      7408.64415014
  Solvation  Ediel_sol  =         0.00000000
  ---------------------------------------------------
  free energy    TOTEN  =       -14.72572763 eV

  energy without entropy =      -14.73855845  energy(sigma->0) =      -14.73000457


--------------------------------------------------------------------------------------------------------




--------------------------------------- Iteration      1(  13)  ---------------------------------------


    POTLOK:  cpu time    3.8406: real time    3.8602
    SETDIJ:  cpu time    0.0273: real time    0.0273
     EDDAV:  cpu time    5.5643: real time    5.5711
       DOS:  cpu time    0.0113: real time    0.0114
    CHARGE:  cpu time    0.7670: real time    0.7678
    MIXING:  cpu time    0.1003: real time    0.1004
    --------------------------------------------
      LOOP:  cpu time   10.3109: real time   10.3382

 eigenvalue-minimisations  :   232
 total energy-change (2. order) :-0.6777717E+00  (-0.2483147E-01)
 number of electron      87.9999960 magnetization       0.9863763
 augmentation part       32.3275816 magnetization       0.9179700

 Broyden mixing:
  rms(total) = 0.36857E-01    rms(broyden)= 0.36857E-01
  rms(prec ) = 0.37745E-01
  weight for this iteration     100.00

 eigenvalues of (default mixing * dielectric matrix)
  average eigenvalue GAMMA=   1.5370
  4.3524  2.3397  1.7180  1.0187  0.9363  0.6566  0.6373  0.6373

 Free energy of the ion-electron system (eV)
  ---------------------------------------------------
  alpha Z        PSCENC =         7.18958809
  Ewald energy   TEWEN  =      8638.25529107
  -Hartree energ DENC   =    -15678.83355603
  -exchange      EXHF   =         0.00000000
  -V(xc)+E(xc)   XCENC  =       117.04848218
  PAW double counting   =      8145.51752192    -7976.77121753
  entropy T*S    EENTRO =         0.01216158
  eigenvalues    EBANDS =      -676.46592078
  atomic energy  EATOM  =      7408.64415014
  Solvation  Ediel_sol  =         0.00000000
  ---------------------------------------------------
  free energy    TOTEN  =       -15.40349935 eV

  energy without entropy =      -15.41566093  energy(sigma->0) =      -15.40755321


--------------------------------------------------------------------------------------------------------




--------------------------------------- Iteration      1(  14)  ---------------------------------------


    POTLOK:  cpu time    3.8486: real time    3.8634
    SETDIJ:  cpu time    0.0242: real time    0.0242
     EDDAV:  cpu time    6.4630: real time    6.4850
       DOS:  cpu time    0.0045: real time    0.0045
    CHARGE:  cpu time    0.7526: real time    0.7534
    MIXING:  cpu time    0.1067: real time    0.1069
    --------------------------------------------
      LOOP:  cpu time   11.1997: real time   11.2374

 eigenvalue-minimisations  :   280
 total energy-change (2. order) :-0.1627788E+00  (-0.1765425E-02)
 number of electron      87.9999960 magnetization       0.6386525
 augmentation part       32.3161244 magnetization       0.5907289

 Broyden mixing:
  rms(total) = 0.23853E-01    rms(broyden)= 0.23853E-01
  rms(prec ) = 0.24761E-01
  weight for this iteration     100.00

 eigenvalues of (default mixing * dielectric matrix)
  average eigenvalue GAMMA=   1.5943
  5.4496  2.3160  1.7136  1.2087  0.9658  0.8122  0.7126  0.6109  0.5591

 Free energy of the ion-electron system (eV)
  ---------------------------------------------------
  alpha Z        PSCENC =         7.18958809
  Ewald energy   TEWEN  =      8638.25529107
  -Hartree energ DENC   =    -15677.96222348
  -exchange      EXHF   =         0.00000000
  -V(xc)+E(xc)   XCENC  =       116.88908412
  PAW double counting   =      8154.93059745    -7986.20452761
  entropy T*S    EENTRO =         0.01191089
  eigenvalues    EBANDS =      -677.32014887
  atomic energy  EATOM  =      7408.64415014
  Solvation  Ediel_sol  =         0.00000000
  ---------------------------------------------------
  free energy    TOTEN  =       -15.56627820 eV

  energy without entropy =      -15.57818908  energy(sigma->0) =      -15.57024849


--------------------------------------------------------------------------------------------------------




--------------------------------------- Iteration      1(  15)  ---------------------------------------


    POTLOK:  cpu time    3.8363: real time    3.8455
    SETDIJ:  cpu time    0.0273: real time    0.0274
     EDDAV:  cpu time    6.3051: real time    6.3485
       DOS:  cpu time    0.0041: real time    0.0041
    CHARGE:  cpu time    1.6278: real time    2.0327
    MIXING:  cpu time    0.1137: real time    0.1138
    --------------------------------------------
      LOOP:  cpu time   11.9143: real time   12.3720

 eigenvalue-minimisations  :   256
 total energy-change (2. order) :-0.2740352E+00  (-0.1479400E-02)
 number of electron      87.9999960 magnetization       0.3298646
 augmentation part       32.3202632 magnetization       0.3084343

 Broyden mixing:
  rms(total) = 0.15165E-01    rms(broyden)= 0.15165E-01
  rms(prec ) = 0.15962E-01
  weight for this iteration     100.00

 eigenvalues of (default mixing * dielectric matrix)
  average eigenvalue GAMMA=   1.7455
  6.4903  2.4222  2.4222  1.6601  0.9360  0.9360  0.6968  0.6968  0.6212  0.5732

 Free energy of the ion-electron system (eV)
  ---------------------------------------------------
  alpha Z        PSCENC =         7.18958809
  Ewald energy   TEWEN  =      8638.25529107
  -Hartree energ DENC   =    -15675.82320463
  -exchange      EXHF   =         0.00000000
  -V(xc)+E(xc)   XCENC  =       116.59217394
  PAW double counting   =      8158.92879942    -7990.17552798
  entropy T*S    EENTRO =         0.01165885
  eigenvalues    EBANDS =      -679.46324230
  atomic energy  EATOM  =      7408.64415014
  Solvation  Ediel_sol  =         0.00000000
  ---------------------------------------------------
  free energy    TOTEN  =       -15.84031339 eV

  energy without entropy =      -15.85197224  energy(sigma->0) =      -15.84419967


--------------------------------------------------------------------------------------------------------




--------------------------------------- Iteration      1(  16)  ---------------------------------------


    POTLOK:  cpu time    3.8352: real time    3.8475
    SETDIJ:  cpu time    0.0287: real time    0.0287
     EDDAV:  cpu time    5.9800: real time    6.0009
       DOS:  cpu time    0.0119: real time    0.0119
    CHARGE:  cpu time    0.6889: real time    0.6935
    MIXING:  cpu time    0.1159: real time    0.1160
    --------------------------------------------
      LOOP:  cpu time   10.6606: real time   10.6986

 eigenvalue-minimisations  :   248
 total energy-change (2. order) :-0.2206776E+00  (-0.6621342E-03)
 number of electron      87.9999960 magnetization       0.1723315
 augmentation part       32.3183740 magnetization       0.1655035

 Broyden mixing:
  rms(total) = 0.89907E-02    rms(broyden)= 0.89905E-02
  rms(prec ) = 0.95603E-02
  weight for this iteration     100.00

 eigenvalues of (default mixing * dielectric matrix)
  average eigenvalue GAMMA=   1.8234
  7.3627  2.9302  2.1954  1.9388  1.1279  0.9788  0.9788  0.7332  0.6329  0.6329
  0.5463

 Free energy of the ion-electron system (eV)
  ---------------------------------------------------
  alpha Z        PSCENC =         7.18958809
  Ewald energy   TEWEN  =      8638.25529107
  -Hartree energ DENC   =    -15673.93182276
  -exchange      EXHF   =         0.00000000
  -V(xc)+E(xc)   XCENC  =       116.35352218
  PAW double counting   =      8167.34022293    -7998.58211523
  entropy T*S    EENTRO =         0.01160250
  eigenvalues    EBANDS =      -681.34142992
  atomic energy  EATOM  =      7408.64415014
  Solvation  Ediel_sol  =         0.00000000
  ---------------------------------------------------
  free energy    TOTEN  =       -16.06099099 eV

  energy without entropy =      -16.07259349  energy(sigma->0) =      -16.06485849


--------------------------------------------------------------------------------------------------------




--------------------------------------- Iteration      1(  17)  ---------------------------------------


    POTLOK:  cpu time    3.7943: real time    3.7987
    SETDIJ:  cpu time    0.0251: real time    0.0251
     EDDAV:  cpu time    6.1096: real time    6.1244
       DOS:  cpu time    0.0130: real time    0.0130
    CHARGE:  cpu time    0.6882: real time    0.6893
    MIXING:  cpu time    0.1256: real time    0.1295
    --------------------------------------------
      LOOP:  cpu time   10.7558: real time   10.7801

 eigenvalue-minimisations  :   240
 total energy-change (2. order) :-0.9323619E-01  (-0.3305497E-03)
 number of electron      87.9999960 magnetization       0.1076821
 augmentation part       32.3206369 magnetization       0.1046258

 Broyden mixing:
  rms(total) = 0.40028E-02    rms(broyden)= 0.40025E-02
  rms(prec ) = 0.46009E-02
  weight for this iteration     100.00

 eigenvalues of (default mixing * dielectric matrix)
  average eigenvalue GAMMA=   1.8465
  8.0032  3.3106  2.2856  1.9178  1.3389  0.9714  0.9714  0.8547  0.7077  0.6267
  0.6267  0.5435

 Free energy of the ion-electron system (eV)
  ---------------------------------------------------
  alpha Z        PSCENC =         7.18958809
  Ewald energy   TEWEN  =      8638.25529107
  -Hartree energ DENC   =    -15672.67998140
  -exchange      EXHF   =         0.00000000
  -V(xc)+E(xc)   XCENC  =       116.24727010
  PAW double counting   =      8168.55123051    -7999.79136225
  entropy T*S    EENTRO =         0.01159759
  eigenvalues    EBANDS =      -682.58201105
  atomic energy  EATOM  =      7408.64415014
  Solvation  Ediel_sol  =         0.00000000
  ---------------------------------------------------
  free energy    TOTEN  =       -16.15422718 eV

  energy without entropy =      -16.16582478  energy(sigma->0) =      -16.15809305


--------------------------------------------------------------------------------------------------------




--------------------------------------- Iteration      1(  18)  ---------------------------------------


    POTLOK:  cpu time    3.8358: real time    3.8429
    SETDIJ:  cpu time    0.0254: real time    0.0254
     EDDAV:  cpu time    5.1342: real time    5.1506
       DOS:  cpu time    0.0097: real time    0.0098
    CHARGE:  cpu time    0.7449: real time    0.7458
    MIXING:  cpu time    0.1435: real time    0.1436
    --------------------------------------------
      LOOP:  cpu time    9.8935: real time    9.9182

 eigenvalue-minimisations  :   192
 total energy-change (2. order) :-0.2585145E-01  (-0.5430649E-04)
 number of electron      87.9999960 magnetization       0.0616196
 augmentation part       32.3209897 magnetization       0.0604167

 Broyden mixing:
  rms(total) = 0.26352E-02    rms(broyden)= 0.26352E-02
  rms(prec ) = 0.31574E-02
  weight for this iteration     100.00

 eigenvalues of (default mixing * dielectric matrix)
  average eigenvalue GAMMA=   1.8538
  8.2837  3.6268  2.1387  2.1387  1.6254  1.0872  0.9690  0.9690  0.7986  0.6590
  0.6395  0.6194  0.5442

 Free energy of the ion-electron system (eV)
  ---------------------------------------------------
  alpha Z        PSCENC =         7.18958809
  Ewald energy   TEWEN  =      8638.25529107
  -Hartree energ DENC   =    -15672.09558123
  -exchange      EXHF   =         0.00000000
  -V(xc)+E(xc)   XCENC  =       116.21775357
  PAW double counting   =      8168.86906477    -8000.11527513
  entropy T*S    EENTRO =         0.01159640
  eigenvalues    EBANDS =      -683.15666632
  atomic energy  EATOM  =      7408.64415014
  Solvation  Ediel_sol  =         0.00000000
  ---------------------------------------------------
  free energy    TOTEN  =       -16.18007863 eV

  energy without entropy =      -16.19167503  energy(sigma->0) =      -16.18394410


--------------------------------------------------------------------------------------------------------




--------------------------------------- Iteration      1(  19)  ---------------------------------------


    POTLOK:  cpu time    3.7488: real time    3.7602
    SETDIJ:  cpu time    0.0248: real time    0.0248
     EDDAV:  cpu time    4.3443: real time    4.3642
       DOS:  cpu time    0.0096: real time    0.0096
    CHARGE:  cpu time    0.7483: real time    0.7490
    MIXING:  cpu time    0.1649: real time    0.1650
    --------------------------------------------
      LOOP:  cpu time    9.0406: real time    9.0729

 eigenvalue-minimisations  :   152
 total energy-change (2. order) :-0.1450732E-01  (-0.3809213E-04)
 number of electron      87.9999960 magnetization       0.0366900
 augmentation part       32.3214564 magnetization       0.0359306

 Broyden mixing:
  rms(total) = 0.16978E-02    rms(broyden)= 0.16978E-02
  rms(prec ) = 0.20689E-02
  weight for this iteration     100.00

 eigenvalues of (default mixing * dielectric matrix)
  average eigenvalue GAMMA=   1.8826
  8.4853  4.0289  2.3397  2.3397  1.9748  1.1308  1.0179  1.0179  0.8433  0.7494
  0.5434  0.6342  0.6342  0.6171

 Free energy of the ion-electron system (eV)
  ---------------------------------------------------
  alpha Z        PSCENC =         7.18958809
  Ewald energy   TEWEN  =      8638.25529107
  -Hartree energ DENC   =    -15671.52971492
  -exchange      EXHF   =         0.00000000
  -V(xc)+E(xc)   XCENC  =       116.20061174
  PAW double counting   =      8168.02059902    -7999.26730245
  entropy T*S    EENTRO =         0.01159628
  eigenvalues    EBANDS =      -683.71940492
  atomic energy  EATOM  =      7408.64415014
  Solvation  Ediel_sol  =         0.00000000
  ---------------------------------------------------
  free energy    TOTEN  =       -16.19458595 eV

  energy without entropy =      -16.20618223  energy(sigma->0) =      -16.19845137


--------------------------------------------------------------------------------------------------------




--------------------------------------- Iteration      1(  20)  ---------------------------------------


    POTLOK:  cpu time    3.7567: real time    3.7699
    SETDIJ:  cpu time    0.0243: real time    0.0243
     EDDAV:  cpu time    4.4985: real time    4.5069
       DOS:  cpu time    0.0025: real time    0.0025
    CHARGE:  cpu time    0.7309: real time    0.7315
    MIXING:  cpu time    0.1454: real time    0.1456
    --------------------------------------------
      LOOP:  cpu time    9.1582: real time    9.1807

 eigenvalue-minimisations  :   160
 total energy-change (2. order) :-0.5839822E-02  (-0.1370962E-04)
 number of electron      87.9999960 magnetization       0.0243041
 augmentation part       32.3215034 magnetization       0.0233303

 Broyden mixing:
  rms(total) = 0.10368E-02    rms(broyden)= 0.10368E-02
  rms(prec ) = 0.13110E-02
  weight for this iteration     100.00

 eigenvalues of (default mixing * dielectric matrix)
  average eigenvalue GAMMA=   1.8839
  8.5835  4.3791  2.7928  2.1142  2.1142  1.3135  1.0538  1.0538  0.8607  0.8607
  0.6999  0.5445  0.6500  0.6188  0.6188

 Free energy of the ion-electron system (eV)
  ---------------------------------------------------
  alpha Z        PSCENC =         7.18958809
  Ewald energy   TEWEN  =      8638.25529107
  -Hartree energ DENC   =    -15671.14600087
  -exchange      EXHF   =         0.00000000
  -V(xc)+E(xc)   XCENC  =       116.19326859
  PAW double counting   =      8167.48927055    -7998.73540013
  entropy T*S    EENTRO =         0.01159632
  eigenvalues    EBANDS =      -684.10218954
  atomic energy  EATOM  =      7408.64415014
  Solvation  Ediel_sol  =         0.00000000
  ---------------------------------------------------
  free energy    TOTEN  =       -16.20042577 eV

  energy without entropy =      -16.21202209  energy(sigma->0) =      -16.20429121


--------------------------------------------------------------------------------------------------------




--------------------------------------- Iteration      1(  21)  ---------------------------------------


    POTLOK:  cpu time    3.7416: real time    3.7502
    SETDIJ:  cpu time    0.0239: real time    0.0240
     EDDAV:  cpu time    4.6774: real time    4.6861
       DOS:  cpu time    0.0098: real time    0.0098
    CHARGE:  cpu time    0.7511: real time    0.7519
    MIXING:  cpu time    0.1718: real time    0.1720
    --------------------------------------------
      LOOP:  cpu time    9.3758: real time    9.3940

 eigenvalue-minimisations  :   168
 total energy-change (2. order) :-0.4643238E-02  (-0.3784959E-05)
 number of electron      87.9999960 magnetization       0.0103019
 augmentation part       32.3216383 magnetization       0.0095078

 Broyden mixing:
  rms(total) = 0.72842E-03    rms(broyden)= 0.72842E-03
  rms(prec ) = 0.91737E-03
  weight for this iteration     100.00

 eigenvalues of (default mixing * dielectric matrix)
  average eigenvalue GAMMA=   1.9113
  8.6598  4.7682  3.0207  2.2180  2.2180  1.7463  1.1170  0.9845  0.9845  0.9174
  0.8351  0.5445  0.6870  0.6413  0.6291  0.6099

 Free energy of the ion-electron system (eV)
  ---------------------------------------------------
  alpha Z        PSCENC =         7.18958809
  Ewald energy   TEWEN  =      8638.25529107
  -Hartree energ DENC   =    -15670.87973219
  -exchange      EXHF   =         0.00000000
  -V(xc)+E(xc)   XCENC  =       116.18684003
  PAW double counting   =      8167.42196176    -7998.66648813
  entropy T*S    EENTRO =         0.01159629
  eigenvalues    EBANDS =      -684.36827608
  atomic energy  EATOM  =      7408.64415014
  Solvation  Ediel_sol  =         0.00000000
  ---------------------------------------------------
  free energy    TOTEN  =       -16.20506901 eV

  energy without entropy =      -16.21666530  energy(sigma->0) =      -16.20893444


--------------------------------------------------------------------------------------------------------




--------------------------------------- Iteration      1(  22)  ---------------------------------------


    POTLOK:  cpu time    3.7640: real time    3.8221
    SETDIJ:  cpu time    0.0284: real time    0.0284
     EDDAV:  cpu time    4.7032: real time    4.7080
       DOS:  cpu time    0.0069: real time    0.0069
    CHARGE:  cpu time    0.7965: real time    0.8047
    MIXING:  cpu time    0.1776: real time    0.1778
    --------------------------------------------
      LOOP:  cpu time    9.4767: real time    9.5479

 eigenvalue-minimisations  :   160
 total energy-change (2. order) :-0.4871556E-02  (-0.3862567E-05)
 number of electron      87.9999960 magnetization       0.0040631
 augmentation part       32.3218023 magnetization       0.0036640

 Broyden mixing:
  rms(total) = 0.42249E-03    rms(broyden)= 0.42248E-03
  rms(prec ) = 0.50389E-03
  weight for this iteration     100.00

 eigenvalues of (default mixing * dielectric matrix)
  average eigenvalue GAMMA=   1.9801
  8.7357  5.6728  3.5044  2.3993  2.3993  1.9240  1.2977  1.0505  1.0505  0.8873
  0.8873  0.7530  0.5445  0.6852  0.6090  0.6308  0.6308

 Free energy of the ion-electron system (eV)
  ---------------------------------------------------
  alpha Z        PSCENC =         7.18958809
  Ewald energy   TEWEN  =      8638.25529107
  -Hartree energ DENC   =    -15670.54805297
  -exchange      EXHF   =         0.00000000
  -V(xc)+E(xc)   XCENC  =       116.17895180
  PAW double counting   =      8167.58800278    -7998.83043084
  entropy T*S    EENTRO =         0.01159622
  eigenvalues    EBANDS =      -684.69903686
  atomic energy  EATOM  =      7408.64415014
  Solvation  Ediel_sol  =         0.00000000
  ---------------------------------------------------
  free energy    TOTEN  =       -16.20994056 eV

  energy without entropy =      -16.22153679  energy(sigma->0) =      -16.21380597


--------------------------------------------------------------------------------------------------------




--------------------------------------- Iteration      1(  23)  ---------------------------------------


    POTLOK:  cpu time    3.7240: real time    3.7325
    SETDIJ:  cpu time    0.0236: real time    0.0236
     EDDAV:  cpu time    4.6861: real time    4.6946
       DOS:  cpu time    0.0072: real time    0.0072
    CHARGE:  cpu time    0.7443: real time    0.7451
    MIXING:  cpu time    0.1828: real time    0.1830
    --------------------------------------------
      LOOP:  cpu time    9.3679: real time    9.3860

 eigenvalue-minimisations  :   168
 total energy-change (2. order) :-0.1928980E-02  (-0.1910260E-05)
 number of electron      87.9999960 magnetization       0.0014537
 augmentation part       32.3219555 magnetization       0.0011820

 Broyden mixing:
  rms(total) = 0.23051E-03    rms(broyden)= 0.23050E-03
  rms(prec ) = 0.28001E-03
  weight for this iteration     100.00

 eigenvalues of (default mixing * dielectric matrix)
  average eigenvalue GAMMA=   2.0314
  8.8243  6.6952  3.8714  2.5999  2.1919  2.1919  1.4611  1.1792  1.0018  1.0018
  0.8711  0.8711  0.7330  0.5443  0.6606  0.6341  0.6163  0.6163

 Free energy of the ion-electron system (eV)
  ---------------------------------------------------
  alpha Z        PSCENC =         7.18958809
  Ewald energy   TEWEN  =      8638.25529107
  -Hartree energ DENC   =    -15670.39038276
  -exchange      EXHF   =         0.00000000
  -V(xc)+E(xc)   XCENC  =       116.17555085
  PAW double counting   =      8167.72562133    -7998.96799684
  entropy T*S    EENTRO =         0.01159620
  eigenvalues    EBANDS =      -684.85528765
  atomic energy  EATOM  =      7408.64415014
  Solvation  Ediel_sol  =         0.00000000
  ---------------------------------------------------
  free energy    TOTEN  =       -16.21186955 eV

  energy without entropy =      -16.22346575  energy(sigma->0) =      -16.21573495


--------------------------------------------------------------------------------------------------------




--------------------------------------- Iteration      1(  24)  ---------------------------------------


    POTLOK:  cpu time    3.6117: real time    3.6193
    SETDIJ:  cpu time    0.0243: real time    0.0243
     EDDAV:  cpu time    4.7170: real time    4.7253
       DOS:  cpu time    0.0077: real time    0.0077
    CHARGE:  cpu time    0.7712: real time    0.7719
    MIXING:  cpu time    0.2098: real time    0.2101
    --------------------------------------------
      LOOP:  cpu time    9.3416: real time    9.3585

 eigenvalue-minimisations  :   168
 total energy-change (2. order) :-0.9443595E-03  (-0.8429632E-06)
 number of electron      87.9999960 magnetization       0.0006332
 augmentation part       32.3219986 magnetization       0.0004979

 Broyden mixing:
  rms(total) = 0.12285E-03    rms(broyden)= 0.12284E-03
  rms(prec ) = 0.16261E-03
  weight for this iteration     100.00

 eigenvalues of (default mixing * dielectric matrix)
  average eigenvalue GAMMA=   2.0477
  8.9765  7.2716  4.0740  2.5531  2.3441  2.3441  1.6596  1.2932  1.0367  1.0367
  0.8775  0.8775  0.8029  0.5443  0.6995  0.6615  0.6169  0.6169  0.6205

 Free energy of the ion-electron system (eV)
  ---------------------------------------------------
  alpha Z        PSCENC =         7.18958809
  Ewald energy   TEWEN  =      8638.25529107
  -Hartree energ DENC   =    -15670.32683261
  -exchange      EXHF   =         0.00000000
  -V(xc)+E(xc)   XCENC  =       116.17418942
  PAW double counting   =      8167.82630688    -7999.06923351
  entropy T*S    EENTRO =         0.01159620
  eigenvalues    EBANDS =      -684.91786959
  atomic energy  EATOM  =      7408.64415014
  Solvation  Ediel_sol  =         0.00000000
  ---------------------------------------------------
  free energy    TOTEN  =       -16.21281390 eV

  energy without entropy =      -16.22441010  energy(sigma->0) =      -16.21667930


--------------------------------------------------------------------------------------------------------




--------------------------------------- Iteration      1(  25)  ---------------------------------------


    POTLOK:  cpu time    3.6276: real time    3.6360
    SETDIJ:  cpu time    0.0245: real time    0.0246
     EDDAV:  cpu time    4.5688: real time    4.5774
       DOS:  cpu time    0.0130: real time    0.0130
    CHARGE:  cpu time    0.7544: real time    0.7552
    MIXING:  cpu time    0.2198: real time    0.2201
    --------------------------------------------
      LOOP:  cpu time    9.2082: real time    9.2262

 eigenvalue-minimisations  :   160
 total energy-change (2. order) :-0.1831739E-03  (-0.2110598E-06)
 number of electron      87.9999960 magnetization       0.0002824
 augmentation part       32.3219449 magnetization       0.0002239

 Broyden mixing:
  rms(total) = 0.63083E-04    rms(broyden)= 0.63078E-04
  rms(prec ) = 0.97272E-04
  weight for this iteration     100.00

 eigenvalues of (default mixing * dielectric matrix)
  average eigenvalue GAMMA=   2.0472
  9.0897  7.5169  4.2078  2.5967  2.5319  2.4198  1.7988  1.3977  1.0771  1.0004
  1.0004  0.9020  0.9020  0.7459  0.7076  0.5443  0.6521  0.6219  0.6219  0.6097

 Free energy of the ion-electron system (eV)
  ---------------------------------------------------
  alpha Z        PSCENC =         7.18958809
  Ewald energy   TEWEN  =      8638.25529107
  -Hartree energ DENC   =    -15670.31462530
  -exchange      EXHF   =         0.00000000
  -V(xc)+E(xc)   XCENC  =       116.17412602
  PAW double counting   =      8167.87900592    -7999.12215941
  entropy T*S    EENTRO =         0.01159620
  eigenvalues    EBANDS =      -684.92996981
  atomic energy  EATOM  =      7408.64415014
  Solvation  Ediel_sol  =         0.00000000
  ---------------------------------------------------
  free energy    TOTEN  =       -16.21299708 eV

  energy without entropy =      -16.22459327  energy(sigma->0) =      -16.21686248


--------------------------------------------------------------------------------------------------------




--------------------------------------- Iteration      1(  26)  ---------------------------------------


    POTLOK:  cpu time    3.7277: real time    3.7374
    SETDIJ:  cpu time    0.0260: real time    0.0260
     EDDAV:  cpu time    4.6350: real time    4.6396
       DOS:  cpu time    0.0127: real time    0.0127
    --------------------------------------------
      LOOP:  cpu time    8.4013: real time    8.4156

 eigenvalue-minimisations  :   152
 total energy-change (2. order) :-0.4417173E-04  (-0.1195515E-06)
 number of electron      87.9999960 magnetization       0.0002824
 augmentation part       32.3219449 magnetization       0.0002239

 Free energy of the ion-electron system (eV)
  ---------------------------------------------------
  alpha Z        PSCENC =         7.18958809
  Ewald energy   TEWEN  =      8638.25529107
  -Hartree energ DENC   =    -15670.31016296
  -exchange      EXHF   =         0.00000000
  -V(xc)+E(xc)   XCENC  =       116.17421146
  PAW double counting   =      8167.88038010    -7999.12349762
  entropy T*S    EENTRO =         0.01159620
  eigenvalues    EBANDS =      -684.93459774
  atomic energy  EATOM  =      7408.64415014
  Solvation  Ediel_sol  =         0.00000000
  ---------------------------------------------------
  free energy    TOTEN  =       -16.21304125 eV

  energy without entropy =      -16.22463745  energy(sigma->0) =      -16.21690665


--------------------------------------------------------------------------------------------------------




 average (electrostatic) potential at core
  the test charge radii are     1.2098
  (the norm of the test charge is              1.0000)
       1 -77.3846       2 -77.3903       3 -77.3850       4 -77.1373       5 -77.1372
       6 -77.1381       7 -77.1380       8 -77.0568
 
 
 
 E-fermi :  -4.8475     XC(G=0):  -0.3741     alpha+bet : -0.1832


 spin component 1

 k-point     1 :       0.0000    0.0000    0.0000
  band No.  band energies     occupation 
      1     -11.5923      1.00000
      2     -10.7216      1.00000
      3     -10.6027      1.00000
      4      -9.8823      1.00000
      5      -9.7922      1.00000
      6      -9.5973      1.00000
      7      -9.4771      1.00000
      8      -9.4396      1.00000
      9      -9.3028      1.00000
     10      -9.2371      1.00000
     11      -9.0396      1.00000
     12      -8.8980      1.00000
     13      -8.8191      1.00000
     14      -8.6430      1.00000
     15      -8.6025      1.00000
     16      -8.5542      1.00000
     17      -8.4057      1.00000
     18      -8.3310      1.00000
     19      -7.9854      1.00000
     20      -7.6328      1.00000
     21      -7.5552      1.00000
     22      -7.4331      1.00000
     23      -7.4106      1.00000
     24      -7.3131      1.00000
     25      -7.2718      1.00000
     26      -7.2438      1.00000
     27      -7.1832      1.00000
     28      -7.1480      1.00000
     29      -7.0969      1.00000
     30      -6.6437      1.00000
     31      -6.6121      1.00000
     32      -6.5939      1.00000
     33      -6.5461      1.00000
     34      -6.4894      1.00000
     35      -6.3421      1.00000
     36      -6.1638      1.00000
     37      -6.1600      1.00000
     38      -6.0839      1.00000
     39      -6.0525      1.00000
     40      -6.0365      1.00000
     41      -5.9528      1.00000
     42      -5.9398      1.00000
     43      -5.6229      1.00000
     44      -5.0158      1.00000
     45      -3.9206     -0.00000
     46      -3.6392     -0.00000
     47      -3.2717     -0.00000
     48      -3.2206     -0.00000
     49      -1.9618     -0.00000
     50      -1.7446     -0.00000
     51      -1.3764     -0.00000
     52      -0.9572     -0.00000
     53      -0.3044     -0.00000
     54      -0.2376     -0.00000
     55      -0.1826     -0.00000
     56       0.1345     -0.00000

 spin component 2

 k-point     1 :       0.0000    0.0000    0.0000
  band No.  band energies     occupation 
      1     -11.5923      1.00000
      2     -10.7216      1.00000
      3     -10.6027      1.00000
      4      -9.8823      1.00000
      5      -9.7922      1.00000
      6      -9.5973      1.00000
      7      -9.4771      1.00000
      8      -9.4396      1.00000
      9      -9.3028      1.00000
     10      -9.2371      1.00000
     11      -9.0396      1.00000
     12      -8.8980      1.00000
     13      -8.8191      1.00000
     14      -8.6430      1.00000
     15      -8.6025      1.00000
     16      -8.5542      1.00000
     17      -8.4057      1.00000
     18      -8.3310      1.00000
     19      -7.9854      1.00000
     20      -7.6328      1.00000
     21      -7.5552      1.00000
     22      -7.4331      1.00000
     23      -7.4106      1.00000
     24      -7.3131      1.00000
     25      -7.2718      1.00000
     26      -7.2438      1.00000
     27      -7.1832      1.00000
     28      -7.1480      1.00000
     29      -7.0969      1.00000
     30      -6.6437      1.00000
     31      -6.6121      1.00000
     32      -6.5939      1.00000
     33      -6.5461      1.00000
     34      -6.4894      1.00000
     35      -6.3421      1.00000
     36      -6.1638      1.00000
     37      -6.1600      1.00000
     38      -6.0839      1.00000
     39      -6.0525      1.00000
     40      -6.0365      1.00000
     41      -5.9528      1.00000
     42      -5.9398      1.00000
     43      -5.6229      1.00000
     44      -5.0158      1.00000
     45      -3.9206     -0.00000
     46      -3.6392     -0.00000
     47      -3.2717     -0.00000
     48      -3.2206     -0.00000
     49      -1.9618     -0.00000
     50      -1.7446     -0.00000
     51      -1.3767     -0.00000
     52      -0.9572     -0.00000
     53      -0.3043     -0.00000
     54      -0.2376     -0.00000
     55      -0.1823     -0.00000
     56       0.0695     -0.00000


--------------------------------------------------------------------------------------------------------


 soft charge-density along one line, spin component            1
         0         1         2         3         4         5         6         7         8         9
 total charge-density along one line
 
 soft charge-density along one line, spin component            2
         0         1         2         3         4         5         6         7         8         9
 total charge-density along one line
 
 pseudopotential strength for first ion, spin component:            1
 -9.459  -0.000   0.007   0.003   0.001  -9.575  -0.000   0.007
 -0.000  -9.517   0.009  -0.014   0.009  -0.000  -9.632   0.009
  0.007   0.009  -9.524   0.007   0.001   0.007   0.009  -9.639
  0.003  -0.014   0.007  -9.514  -0.012   0.003  -0.014   0.007
  0.001   0.009   0.001  -0.012  -9.469   0.001   0.009   0.001
 -9.575  -0.000   0.007   0.003   0.001  -9.675   0.000   0.007
 -0.000  -9.632   0.009  -0.014   0.009   0.000  -9.731   0.009
  0.007   0.009  -9.639   0.007   0.001   0.007   0.009  -9.738
  0.003  -0.014   0.007  -9.629  -0.012   0.003  -0.014   0.007
  0.001   0.009   0.001  -0.012  -9.585   0.001   0.009   0.001
  0.004   0.002   0.017   0.003   0.000   0.004   0.002   0.017
  0.005   0.002   0.024   0.005   0.000   0.005   0.002   0.024
 -0.003  -0.025   0.002   0.000   0.002  -0.003  -0.024   0.002
  0.000  -0.000  -0.026  -0.001   0.000   0.000  -0.000  -0.025
 -0.002   0.000   0.003  -0.025  -0.003  -0.002   0.000   0.003
 -0.003  -0.028   0.002  -0.000   0.002  -0.003  -0.027   0.002
 -0.000   0.000  -0.028  -0.001   0.000  -0.000   0.001  -0.027
 -0.001  -0.000   0.003  -0.027  -0.003  -0.001  -0.000   0.003
 pseudopotential strength for first ion, spin component:            2
 -9.459  -0.000   0.007   0.003   0.001  -9.575  -0.000   0.007
 -0.000  -9.517   0.009  -0.014   0.009  -0.000  -9.632   0.009
  0.007   0.009  -9.524   0.007   0.001   0.007   0.009  -9.639
  0.003  -0.014   0.007  -9.514  -0.012   0.003  -0.014   0.007
  0.001   0.009   0.001  -0.012  -9.469   0.001   0.009   0.001
 -9.575  -0.000   0.007   0.003   0.001  -9.675   0.000   0.007
 -0.000  -9.632   0.009  -0.014   0.009   0.000  -9.731   0.009
  0.007   0.009  -9.639   0.007   0.001   0.007   0.009  -9.738
  0.003  -0.014   0.007  -9.629  -0.012   0.003  -0.014   0.007
  0.001   0.009   0.001  -0.012  -9.585   0.001   0.009   0.001
  0.004   0.002   0.017   0.003   0.000   0.004   0.002   0.017
  0.005   0.002   0.024   0.005   0.000   0.005   0.002   0.024
 -0.003  -0.025   0.002   0.000   0.002  -0.003  -0.024   0.002
  0.000  -0.000  -0.026  -0.001   0.000   0.000  -0.000  -0.025
 -0.002   0.000   0.003  -0.025  -0.003  -0.002   0.000   0.003
 -0.003  -0.028   0.002  -0.000   0.002  -0.003  -0.027   0.002
 -0.000   0.000  -0.028  -0.001   0.000  -0.000   0.001  -0.027
 -0.001  -0.000   0.003  -0.027  -0.003  -0.001  -0.000   0.003
 total augmentation occupancy for first ion, spin component:            1
  2.996   0.285  -0.032   0.225  -0.000  -0.831  -0.246   0.005  -0.179   0.009  -0.099   0.052  -0.053  -0.019  -0.039  -0.002
  0.285   3.914   0.336  -0.145  -0.231  -0.244  -2.014  -0.206   0.050   0.354  -0.290   0.130  -0.269  -0.104   0.024  -0.017
[...]
  -Hartree energ DENC   =    -15058.67853941
  -exchange      EXHF   =         0.00000000
  -V(xc)+E(xc)   XCENC  =       114.48238851
  PAW double counting   =      7792.65955811    -7620.50750446
  entropy T*S    EENTRO =         0.01522438
  eigenvalues    EBANDS =      -662.33369929
  atomic energy  EATOM  =      7408.64415014
  Solvation  Ediel_sol  =         0.00000000
  ---------------------------------------------------
  free energy    TOTEN  =       -16.95242235 eV

  energy without entropy =      -16.96764673  energy(sigma->0) =      -16.95749714


--------------------------------------------------------------------------------------------------------




--------------------------------------- Iteration     15(   2)  ---------------------------------------


    POTLOK:  cpu time    4.0790: real time    4.1054
    SETDIJ:  cpu time    0.0251: real time    0.0252
     EDDAV:  cpu time    6.2362: real time    6.2500
       DOS:  cpu time    0.0024: real time    0.0024
    --------------------------------------------
      LOOP:  cpu time   10.3427: real time   10.3830

 eigenvalue-minimisations  :   240
 total energy-change (2. order) :-0.5093103E-04  (-0.4731205E-04)
 number of electron      87.9999972 magnetization       0.0000000
 augmentation part       32.4644676 magnetization       0.0000000

 Free energy of the ion-electron system (eV)
  ---------------------------------------------------
  alpha Z        PSCENC =         7.18958809
  Ewald energy   TEWEN  =      8001.57641158
  -Hartree energ DENC   =    -15058.66084736
  -exchange      EXHF   =         0.00000000
  -V(xc)+E(xc)   XCENC  =       114.48213159
  PAW double counting   =      7792.65344664    -7620.50173674
  entropy T*S    EENTRO =         0.01522157
  eigenvalues    EBANDS =      -662.35083880
  atomic energy  EATOM  =      7408.64415014
  Solvation  Ediel_sol  =         0.00000000
  ---------------------------------------------------
  free energy    TOTEN  =       -16.95247328 eV

  energy without entropy =      -16.96769485  energy(sigma->0) =      -16.95754714


--------------------------------------------------------------------------------------------------------




 average (electrostatic) potential at core
  the test charge radii are     1.2098
  (the norm of the test charge is              1.0000)
       1 -77.1958       2 -77.2444       3 -77.1925       4 -76.9279       5 -76.9280
       6 -76.9280       7 -76.9272       8 -76.8423
 
 
 
 E-fermi :  -5.1359     XC(G=0):  -0.3848     alpha+bet : -0.1832


 spin component 1

 k-point     1 :       0.0000    0.0000    0.0000
  band No.  band energies     occupation 
      1     -10.7884      1.00000
      2      -9.9052      1.00000
      3      -9.8188      1.00000
      4      -9.3904      1.00000
      5      -9.1430      1.00000
      6      -9.0572      1.00000
      7      -8.8648      1.00000
      8      -8.8566      1.00000
      9      -8.7400      1.00000
     10      -8.6223      1.00000
     11      -8.6040      1.00000
     12      -8.3310      1.00000
     13      -8.3077      1.00000
     14      -8.2620      1.00000
     15      -8.2318      1.00000
     16      -8.1612      1.00000
     17      -8.1123      1.00000
     18      -8.0192      1.00000
     19      -7.7662      1.00000
     20      -7.4885      1.00000
     21      -7.3984      1.00000
     22      -7.3164      1.00000
     23      -7.2376      1.00000
     24      -7.1473      1.00000
     25      -7.0660      1.00000
     26      -7.0027      1.00000
     27      -6.9929      1.00000
     28      -6.7901      1.00000
     29      -6.7836      1.00000
     30      -6.6832      1.00000
     31      -6.6274      1.00000
     32      -6.5853      1.00000
     33      -6.4971      1.00000
     34      -6.4661      1.00000
     35      -6.3824      1.00000
     36      -6.3564      1.00000
     37      -6.1908      1.00000
     38      -6.1560      1.00000
     39      -6.1457      1.00000
     40      -6.1028      1.00000
     41      -6.0237      1.00000
     42      -5.8995      1.00000
     43      -5.5529      1.00602
     44      -5.2991      0.99398
     45      -3.8839     -0.00000
     46      -3.6086     -0.00000
     47      -3.5838     -0.00000
     48      -3.3480     -0.00000
     49      -2.0569     -0.00000
     50      -1.9113     -0.00000
     51      -1.3123     -0.00000
     52      -0.9008     -0.00000
     53      -0.5289     -0.00000
     54      -0.3405     -0.00000
     55      -0.0882     -0.00000
     56      -0.0200     -0.00000

 spin component 2

 k-point     1 :       0.0000    0.0000    0.0000
  band No.  band energies     occupation 
      1     -10.7884      1.00000
      2      -9.9052      1.00000
      3      -9.8188      1.00000
      4      -9.3904      1.00000
      5      -9.1430      1.00000
      6      -9.0572      1.00000
      7      -8.8648      1.00000
      8      -8.8566      1.00000
      9      -8.7400      1.00000
     10      -8.6223      1.00000
     11      -8.6040      1.00000
     12      -8.3310      1.00000
     13      -8.3077      1.00000
     14      -8.2620      1.00000
     15      -8.2318      1.00000
     16      -8.1612      1.00000
     17      -8.1123      1.00000
     18      -8.0192      1.00000
     19      -7.7662      1.00000
     20      -7.4885      1.00000
     21      -7.3984      1.00000
     22      -7.3164      1.00000
     23      -7.2376      1.00000
     24      -7.1473      1.00000
     25      -7.0660      1.00000
     26      -7.0027      1.00000
     27      -6.9929      1.00000
     28      -6.7901      1.00000
     29      -6.7836      1.00000
     30      -6.6832      1.00000
     31      -6.6274      1.00000
     32      -6.5853      1.00000
     33      -6.4971      1.00000
     34      -6.4661      1.00000
     35      -6.3824      1.00000
     36      -6.3564      1.00000
     37      -6.1908      1.00000
     38      -6.1560      1.00000
     39      -6.1457      1.00000
     40      -6.1028      1.00000
     41      -6.0237      1.00000
     42      -5.8995      1.00000
     43      -5.5529      1.00602
     44      -5.2991      0.99398
     45      -3.8839     -0.00000
     46      -3.6086     -0.00000
     47      -3.5838     -0.00000
     48      -3.3480     -0.00000
     49      -2.0569     -0.00000
     50      -1.9113     -0.00000
     51      -1.3123     -0.00000
     52      -0.9008     -0.00000
     53      -0.5289     -0.00000
     54      -0.3405     -0.00000
     55      -0.0882     -0.00000
     56      -0.0200     -0.00000


--------------------------------------------------------------------------------------------------------


 soft charge-density along one line, spin component            1
         0         1         2         3         4         5         6         7         8         9
 total charge-density along one line
 
 soft charge-density along one line, spin component            2
         0         1         2         3         4         5         6         7         8         9
 total charge-density along one line
 
 pseudopotential strength for first ion, spin component:            1
 -9.385   0.005   0.002   0.007   0.001  -9.503   0.005   0.002
  0.005  -9.435   0.012  -0.009   0.003   0.005  -9.552   0.012
  0.002   0.012  -9.445   0.011   0.001   0.002   0.012  -9.562
  0.007  -0.009   0.011  -9.432  -0.006   0.007  -0.008   0.010
  0.001   0.003   0.001  -0.006  -9.396   0.001   0.003   0.001
 -9.503   0.005   0.002   0.007   0.001  -9.605   0.005   0.002
  0.005  -9.552   0.012  -0.008   0.003   0.005  -9.653   0.012
  0.002   0.012  -9.562   0.010   0.001   0.002   0.012  -9.663
  0.007  -0.008   0.010  -9.549  -0.006   0.007  -0.008   0.010
  0.001   0.003   0.001  -0.006  -9.514   0.001   0.003   0.001
  0.001  -0.002   0.015  -0.000  -0.000   0.001  -0.002   0.015
  0.001  -0.003   0.022  -0.001  -0.000   0.001  -0.003   0.022
 -0.003  -0.029   0.002  -0.000   0.002  -0.003  -0.028   0.002
 -0.000  -0.001  -0.031  -0.003   0.000  -0.000  -0.001  -0.030
 -0.002  -0.000   0.003  -0.029  -0.004  -0.002  -0.000   0.002
 -0.003  -0.033   0.002  -0.000   0.003  -0.003  -0.033   0.002
 -0.000  -0.001  -0.036  -0.003   0.000  -0.000  -0.001  -0.035
 -0.002  -0.000   0.003  -0.033  -0.005  -0.002  -0.000   0.003
 pseudopotential strength for first ion, spin component:            2
 -9.385   0.005   0.002   0.007   0.001  -9.503   0.005   0.002
  0.005  -9.435   0.012  -0.009   0.003   0.005  -9.552   0.012
  0.002   0.012  -9.445   0.011   0.001   0.002   0.012  -9.562
  0.007  -0.009   0.011  -9.432  -0.006   0.007  -0.008   0.010
  0.001   0.003   0.001  -0.006  -9.396   0.001   0.003   0.001
 -9.503   0.005   0.002   0.007   0.001  -9.605   0.005   0.002
  0.005  -9.552   0.012  -0.008   0.003   0.005  -9.653   0.012
  0.002   0.012  -9.562   0.010   0.001   0.002   0.012  -9.663
  0.007  -0.008   0.010  -9.549  -0.006   0.007  -0.008   0.010
  0.001   0.003   0.001  -0.006  -9.514   0.001   0.003   0.001
  0.001  -0.002   0.015  -0.000  -0.000   0.001  -0.002   0.015
  0.001  -0.003   0.022  -0.001  -0.000   0.001  -0.003   0.022
 -0.003  -0.029   0.002  -0.000   0.002  -0.003  -0.028   0.002
 -0.000  -0.001  -0.031  -0.003   0.000  -0.000  -0.001  -0.030
 -0.002  -0.000   0.003  -0.029  -0.004  -0.002  -0.000   0.002
 -0.003  -0.033   0.002  -0.000   0.003  -0.003  -0.033   0.002
 -0.000  -0.001  -0.036  -0.003   0.000  -0.000  -0.001  -0.035
 -0.002  -0.000   0.003  -0.033  -0.005  -0.002  -0.000   0.003
 total augmentation occupancy for first ion, spin component:            1
  2.786   0.131  -0.044   0.084  -0.000  -0.610  -0.088   0.008  -0.038   0.008   0.015   0.010  -0.021  -0.001  -0.010  -0.003
  0.131   3.385   0.233  -0.197  -0.100  -0.087  -1.425  -0.093   0.122   0.201  -0.070   0.065  -0.175  -0.054   0.030  -0.025
 -0.044   0.233   3.419   0.215   0.001   0.008  -0.092  -1.433  -0.082   0.015  -0.816   0.254  -0.014  -0.222  -0.008   0.000
  0.084  -0.197   0.215   3.424   0.126  -0.037   0.122  -0.082  -1.425  -0.233  -0.142   0.089   0.029  -0.064  -0.177   0.001
 -0.000  -0.100   0.001   0.126   2.704   0.008   0.199   0.015  -0.232  -0.674  -0.007   0.004   0.046  -0.001  -0.054   0.000
 -0.610  -0.087   0.008  -0.037   0.008   0.426   0.055   0.020   0.001  -0.014  -0.018  -0.000   0.017   0.003   0.004   0.000
 -0.088  -1.425  -0.092   0.122   0.199   0.055   1.412  -0.014  -0.065  -0.276   0.084  -0.072   0.229   0.038  -0.019  -0.006
  0.008  -0.093  -1.433  -0.082   0.015   0.020  -0.014   1.402  -0.019  -0.027   0.737  -0.243  -0.007   0.271  -0.016   0.001
 -0.038   0.122  -0.082  -1.425  -0.232   0.001  -0.065  -0.019   1.382   0.314   0.149  -0.094  -0.018   0.049   0.227  -0.001
  0.008   0.201   0.015  -0.233  -0.674  -0.014  -0.276  -0.027   0.314   0.600   0.007  -0.004  -0.066  -0.001   0.077   0.003
  0.015  -0.070  -0.816  -0.142  -0.007  -0.018   0.084   0.737   0.149   0.007   2.027  -0.317   0.035   0.288   0.050  -0.003
  0.010   0.065   0.254   0.089   0.004  -0.000  -0.072  -0.243  -0.094  -0.004  -0.317   0.089  -0.015  -0.076  -0.019   0.001
 -0.021  -0.175  -0.014   0.029   0.046   0.017   0.229  -0.007  -0.018  -0.066   0.035  -0.015   0.045   0.007  -0.005  -0.002
 -0.001  -0.054  -0.222  -0.064  -0.001   0.003   0.038   0.271   0.049  -0.001   0.288  -0.076   0.007   0.075   0.008  -0.000
 -0.010   0.030  -0.008  -0.177  -0.054   0.004  -0.019  -0.016   0.227   0.077   0.050  -0.019  -0.005   0.008   0.046  -0.000
 -0.003  -0.025   0.000   0.001   0.000   0.000  -0.006   0.001  -0.001   0.003  -0.003   0.001  -0.002  -0.000  -0.000   0.001
  0.000  -0.001  -0.021  -0.002  -0.000  -0.000   0.000  -0.011  -0.000   0.000  -0.019   0.004  -0.000  -0.004  -0.000  -0.000
 -0.001   0.001   0.001  -0.025  -0.001   0.001  -0.001   0.001  -0.006  -0.003  -0.004   0.001  -0.000  -0.000  -0.002   0.000
 total augmentation occupancy for first ion, spin component:            2
 -0.000   0.000  -0.000   0.000   0.000   0.000  -0.000   0.000  -0.000  -0.000  -0.000   0.000   0.000   0.000   0.000  -0.000
  0.000  -0.000  -0.000   0.000  -0.000  -0.000   0.000   0.000  -0.000   0.000  -0.000   0.000   0.000   0.000  -0.000  -0.000
 -0.000  -0.000  -0.000  -0.000   0.000   0.000   0.000   0.000   0.000  -0.000  -0.000   0.000   0.000  -0.000   0.000   0.000
  0.000   0.000  -0.000  -0.000   0.000  -0.000  -0.000   0.000   0.000  -0.000  -0.000   0.000  -0.000   0.000   0.000  -0.000
  0.000  -0.000   0.000   0.000  -0.000  -0.000   0.000  -0.000  -0.000   0.000  -0.000   0.000  -0.000   0.000   0.000   0.000
  0.000  -0.000   0.000  -0.000  -0.000  -0.000   0.000  -0.000   0.000   0.000   0.000  -0.000  -0.000  -0.000  -0.000   0.000
 -0.000   0.000   0.000  -0.000   0.000   0.000  -0.000  -0.000   0.000   0.000   0.000  -0.000  -0.000   0.000   0.000   0.000
  0.000   0.000   0.000   0.000  -0.000  -0.000  -0.000  -0.000  -0.000   0.000   0.000  -0.000  -0.000   0.000  -0.000   0.000
 -0.000  -0.000   0.000   0.000  -0.000   0.000   0.000  -0.000  -0.000  -0.000   0.000  -0.000   0.000   0.000  -0.000  -0.000
 -0.000   0.000  -0.000  -0.000   0.000   0.000   0.000   0.000  -0.000  -0.000   0.000  -0.000   0.000   0.000  -0.000  -0.000
 -0.000  -0.000  -0.000  -0.000  -0.000   0.000   0.000   0.000   0.000   0.000   0.000  -0.000   0.000   0.000   0.000  -0.000
  0.000   0.000   0.000   0.000   0.000  -0.000  -0.000  -0.000  -0.000  -0.000  -0.000   0.000   0.000  -0.000   0.000  -0.000
  0.000   0.000   0.000  -0.000  -0.000  -0.000  -0.000  -0.000   0.000   0.000   0.000   0.000  -0.000  -0.000   0.000   0.000
  0.000   0.000  -0.000   0.000   0.000  -0.000   0.000   0.000   0.000   0.000   0.000  -0.000  -0.000   0.000  -0.000   0.000
  0.000  -0.000   0.000   0.000   0.000  -0.000   0.000  -0.000  -0.000  -0.000   0.000   0.000   0.000  -0.000  -0.000  -0.000
 -0.000  -0.000   0.000  -0.000   0.000   0.000   0.000   0.000  -0.000  -0.000  -0.000  -0.000   0.000   0.000  -0.000  -0.000
 -0.000   0.000   0.000   0.000  -0.000  -0.000  -0.000  -0.000  -0.000  -0.000  -0.000   0.000  -0.000  -0.000  -0.000   0.000
 -0.000  -0.000   0.000  -0.000  -0.000   0.000  -0.000   0.000   0.000   0.000  -0.000  -0.000  -0.000   0.000   0.000   0.000


------------------------ aborting loop because EDIFF is reached ----------------------------------------


    CHARGE:  cpu time    0.8324: real time    0.8337
    FORLOC:  cpu time    0.1084: real time    0.1085
    FORNL :  cpu time    3.4034: real time    3.4105
    FORCOR:  cpu time    3.7797: real time    3.7922
    FORHAR:  cpu time    0.4885: real time    0.4967
    MIXING:  cpu time    0.0673: real time    0.0673
    OFIELD:  cpu time    0.0000: real time    0.0000

 VOLUME and BASIS-vectors are now :
 -----------------------------------------------------------------------------
  energy-cutoff  :      400.00
  volume of cell :    10368.74
      direct lattice vectors                 reciprocal lattice vectors
    21.133068180  0.000000000  0.000000000     0.047319206  0.000000000  0.000000000
     0.000000000 21.300100466  0.000000000     0.000000000  0.046948135  0.000000000
     0.000000000  0.000000000 23.034651586     0.000000000  0.000000000  0.043412855

  length of vectors
    21.133068180 21.300100466 23.034651586     0.047319206  0.046948135  0.043412855


 FORCES acting on ions
    electron-ion (+dipol)            ewald-force                    non-local-force                 convergence-correction
 -----------------------------------------------------------------------------------------------
   0.151E+03 0.109E+03 0.806E+03   -.150E+03 -.109E+03 -.800E+03   -.680E+00 -.379E+00 -.573E+01   0.310E-01 0.296E-01 -.450E-01
   0.497E+03 0.483E+03 0.226E+03   -.497E+03 -.483E+03 -.226E+03   -.220E+00 -.219E+00 -.904E-01   0.160E-01 0.157E-01 0.479E-01
   0.426E+03 0.453E+03 -.542E+03   -.423E+03 -.450E+03 0.538E+03   -.272E+01 -.293E+01 0.418E+01   0.298E-01 0.290E-01 0.142E-01
   0.430E+03 -.467E+03 -.530E+03   -.429E+03 0.467E+03 0.527E+03   -.107E+01 0.264E+00 0.264E+01   0.146E-01 -.565E-01 0.278E-01
   0.246E+03 -.697E+03 0.370E+03   -.246E+03 0.695E+03 -.367E+03   -.351E-01 0.156E+01 -.240E+01   0.278E-01 -.109E-01 -.353E-01
   -.676E+03 0.228E+03 0.418E+03   0.674E+03 -.228E+03 -.415E+03   0.143E+01 0.859E-01 -.248E+01   -.143E-01 0.306E-01 -.331E-01
   -.492E+03 0.458E+03 -.482E+03   0.491E+03 -.457E+03 0.479E+03   0.392E+00 -.121E+01 0.257E+01   -.549E-01 0.109E-01 0.305E-01
   -.583E+03 -.567E+03 -.266E+03   0.580E+03 0.565E+03 0.265E+03   0.256E+01 0.249E+01 0.117E+01   -.112E-01 -.103E-01 -.724E-02
 -----------------------------------------------------------------------------------------------
   0.308E+00 0.300E+00 0.147E+00   0.114E-12 0.000E+00 0.227E-12   -.347E+00 -.339E+00 -.146E+00   0.387E-01 0.383E-01 -.369E-03
 
 
 POSITION                                       TOTAL-FORCE (eV/Angst)
 -----------------------------------------------------------------------------------
     10.05069     10.30908      8.99740        -0.018030     -0.016709      0.027939
      9.43845      9.57276     11.48059        -0.023545     -0.025731     -0.004168
      9.01208      9.01296     14.05056         0.000153      0.002418     -0.045080
      9.41435     11.64892     13.42994         0.003648      0.014637     -0.008687
      9.94141     12.30725     10.86476        -0.000608      0.010597      0.016607
     12.14101     10.10010     10.75064         0.012567     -0.002568      0.015425
     11.61413      9.44172     13.31521         0.014082      0.006018     -0.007898
     12.02963     12.09293     12.65991         0.011733      0.011338      0.005863
 -----------------------------------------------------------------------------------
    total drift:                               -0.000638     -0.000670      0.000572


--------------------------------------------------------------------------------------------------------



  FREE ENERGIE OF THE ION-ELECTRON SYSTEM (eV)
  ---------------------------------------------------
  free  energy   TOTEN  =       -16.95247328 eV

  energy  without entropy=      -16.96769485  energy(sigma->0) =      -16.95754714
 
 d Force =-0.3689579E-04[-0.146E-03, 0.721E-04]  d Energy =-0.1571178E-04-0.212E-04
 d Force =-0.6353166E+00[-0.636E+00,-0.635E+00]  d Ewald  =-0.6353166E+00 0.665E-07


--------------------------------------------------------------------------------------------------------


    POTLOK:  cpu time    3.9369: real time    3.9540


--------------------------------------------------------------------------------------------------------




--------------------------------------------------------------------------------------------------------


  
 reached required accuracy - stopping structural energy minimisation
     LOOP+:  cpu time   33.6626: real time   33.7863
    4ORBIT:  cpu time    0.0000: real time    0.0000

 total amount of memory used by VASP MPI-rank0   221513. kBytes
=======================================================================

   base      :      30000. kBytes
   nonl-proj :       3200. kBytes
   fftplans  :      51206. kBytes
   grid      :     115993. kBytes
   one-center:         15. kBytes
   wavefun   :      21099. kBytes
 
  
  
 General timing and accounting informations for this job:
 ========================================================
  
                  Total CPU time used (sec):     1060.715
                            User time (sec):     1047.138
                          System time (sec):       13.577
                         Elapsed time (sec):     1079.231
  
                   Maximum memory used (kb):      439940.
                   Average memory used (kb):           0.
  
                          Minor page faults:      5426283
                          Major page faults:        14854
                 Voluntary context switches:         3334
