unknown system                          
            1
    21.133068    0.000000    0.000000
     0.000000   21.300100    0.000000
     0.000000    0.000000   23.034652
   Au
     8
Direct configuration=     1
   0.47596093  0.48425719  0.39235364
   0.44640059  0.44911691  0.49831431
   0.42747129  0.42425689  0.60868972
   0.45207764  0.53998832  0.58262820
   0.47698558  0.57084410  0.47129186
   0.56750318  0.48069908  0.46700705
   0.54258821  0.44987842  0.57832498
   0.56887360  0.56740655  0.54944537
Direct configuration=     2
   0.47445881  0.48296757  0.38897958
   0.44437149  0.44716734  0.49746892
   0.42483731  0.42156719  0.61034901
   0.44949496  0.54376994  0.58371095
   0.47467714  0.57496025  0.47115585
   0.57164582  0.47841546  0.46656526
   0.54645185  0.44724965  0.57910837
   0.57192365  0.57035005  0.55071720
Direct configuration=     3
   0.47429401  0.48282608  0.38860940
   0.44414888  0.44695345  0.49737617
   0.42454832  0.42127210  0.61053106
   0.44921161  0.54418484  0.58382974
   0.47442387  0.57541185  0.47114092
   0.57210032  0.47816492  0.46651679
   0.54687574  0.44696124  0.57919432
   0.57225828  0.57067299  0.55085674
Direct configuration=     4
   0.47419802  0.48270856  0.38904047
   0.44435976  0.44715991  0.49746620
   0.42464877  0.42139447  0.61010385
   0.44896476  0.54446341  0.58351836
   0.47404410  0.57552633  0.47142576
   0.57223379  0.47777366  0.46677519
   0.54713789  0.44673440  0.57886119
   0.57227392  0.57068671  0.55086412
Direct configuration=     5
   0.47391007  0.48235598  0.39033368
   0.44499243  0.44777931  0.49773628
   0.42495013  0.42176160  0.60882224
   0.44822422  0.54529912  0.58258419
   0.47290480  0.57586978  0.47228028
   0.57263420  0.47659990  0.46755040
   0.54792434  0.44605390  0.57786179
   0.57232085  0.57072787  0.55088627
Direct configuration=     6
   0.47391280  0.48233704  0.39072926
   0.44499675  0.44779148  0.49773615
   0.42511728  0.42194145  0.60850962
   0.44777169  0.54566701  0.58277652
   0.47253069  0.57633182  0.47212427
   0.57309521  0.47624052  0.46735573
   0.54829970  0.44559243  0.57801449
   0.57213690  0.57054571  0.55080910
Direct configuration=     7
   0.47391449  0.48232537  0.39097320
   0.44499941  0.44779898  0.49773607
   0.42522035  0.42205236  0.60831684
   0.44749263  0.54589388  0.58289512
   0.47229999  0.57661674  0.47202806
   0.57337950  0.47601890  0.46723568
   0.54853118  0.44530785  0.57810866
   0.57202347  0.57043339  0.55076151
Direct configuration=     8
   0.47406945  0.48248140  0.39086917
   0.44506622  0.44786932  0.49777556
   0.42530932  0.42212629  0.60851829
   0.44739306  0.54608389  0.58300728
   0.47223669  0.57685731  0.47198590
   0.57361477  0.47596014  0.46718037
   0.54872790  0.44519868  0.57820015
   0.57144363  0.56987042  0.55051842
Direct configuration=     9
   0.47430090  0.48271446  0.39071379
   0.44516602  0.44797437  0.49783454
   0.42544219  0.42223672  0.60881917
   0.44724433  0.54636768  0.58317480
   0.47214213  0.57721663  0.47192295
   0.57396616  0.47587238  0.46709775
   0.54902171  0.44503563  0.57833680
   0.57057759  0.56902959  0.55015535
Direct configuration=    10
   0.47464629  0.48304889  0.39073375
   0.44550144  0.44831120  0.49795676
   0.42572537  0.42249613  0.60909356
   0.44689395  0.54639673  0.58323916
   0.47184372  0.57731194  0.47176367
   0.57404194  0.47558748  0.46691394
   0.54905845  0.44467435  0.57837609
   0.57014986  0.56862073  0.54997821
Direct configuration=    11
   0.47528292  0.48366530  0.39077053
   0.44611968  0.44893204  0.49818205
   0.42624733  0.42297426  0.60959933
   0.44624814  0.54645027  0.58335778
   0.47129371  0.57748763  0.47147011
   0.57418161  0.47506237  0.46657514
   0.54912616  0.44400844  0.57844852
   0.56936146  0.56786714  0.54965170
Direct configuration=    12
   0.47555356  0.48394712  0.39055697
   0.44650641  0.44931233  0.49843125
   0.42642333  0.42312635  0.60991432
   0.44570559  0.54667155  0.58317424
   0.47070228  0.57768392  0.47154545
   0.57437505  0.47447191  0.46661202
   0.54935032  0.44348061  0.57821631
   0.56924449  0.56775367  0.54960458
Direct configuration=    13
   0.47565616  0.48405397  0.39047600
   0.44665303  0.44945650  0.49852573
   0.42649005  0.42318401  0.61003374
   0.44549990  0.54675544  0.58310466
   0.47047806  0.57775834  0.47157401
   0.57444838  0.47424806  0.46662600
   0.54943530  0.44328049  0.57812827
   0.56920014  0.56771064  0.54958672
Direct configuration=    14
   0.47556990  0.48397262  0.39064327
   0.44660965  0.44941293  0.49836662
   0.42642976  0.42312839  0.60995614
   0.44547317  0.54693923  0.58300916
   0.47040079  0.57781636  0.47170075
   0.57452020  0.47415976  0.46674471
   0.54961483  0.44326790  0.57802662
   0.56924272  0.56775026  0.54960787
Direct configuration=    15
   0.47559073  0.48399227  0.39060287
   0.44662013  0.44942345  0.49840505
   0.42644432  0.42314182  0.60997488
   0.44547963  0.54689484  0.58303223
   0.47041945  0.57780235  0.47167014
   0.57450285  0.47418109  0.46671604
   0.54957147  0.44327094  0.57805117
   0.56923244  0.56774069  0.54960277
