  16  16   0   0
  0.8951455E+03  0.2399203E-08  0.2469325E-08  0.2417511E-08  0.5000000E-15
   1.0000000000000000E-004
  CAR 
 unknown system                          
      2.24730698    -10.99351399  301     -4.28107698      1.00000000
    -10.994  0.0000E+00  0.0000E+00  0.0000E+00  0.0000E+00
    -10.949  0.0000E+00  0.0000E+00  0.0000E+00  0.0000E+00
    -10.905  0.0000E+00  0.0000E+00  0.0000E+00  0.0000E+00
    -10.861  0.0000E+00  0.0000E+00  0.0000E+00  0.0000E+00
    -10.817  0.0000E+00  0.0000E+00  0.0000E+00  0.0000E+00
    -10.773  0.0000E+00  0.0000E+00  0.0000E+00  0.0000E+00
    -10.729  0.0000E+00  0.0000E+00  0.0000E+00  0.0000E+00
    -10.685  0.0000E+00  0.0000E+00  0.0000E+00  0.0000E+00
    -10.640  0.0000E+00  0.0000E+00  0.0000E+00  0.0000E+00
    -10.596 -0.6578E-29  0.0000E+00 -0.2903E-30  0.0000E+00
    -10.552 -0.2028E-27 -0.1155E-29 -0.9241E-29 -0.5096E-31
    -10.508 -0.5831E-26 -0.3742E-28 -0.2666E-27 -0.1702E-29
    -10.464 -0.1519E-24 -0.1129E-26 -0.6973E-26 -0.5155E-28
    -10.420 -0.3587E-23 -0.3089E-25 -0.1653E-24 -0.1415E-26
    -10.376 -0.7670E-22 -0.7656E-24 -0.3551E-23 -0.3521E-25
    -10.331 -0.1486E-20 -0.1719E-22 -0.6913E-22 -0.7939E-24
    -10.287 -0.2607E-19 -0.3496E-21 -0.1220E-20 -0.1622E-22
    -10.243 -0.4142E-18 -0.6440E-20 -0.1950E-19 -0.3005E-21
    -10.199 -0.5958E-17 -0.1074E-18 -0.2825E-18 -0.5043E-20
    -10.155 -0.7508E-16 -0.1623E-17 -0.3596E-17 -0.7668E-19
    -10.111 -0.8856E-15 -0.2094E-16 -0.4268E-16 -0.1001E-17
    -10.067 -0.9418E-14 -0.2673E-15 -0.4584E-15 -0.1280E-16
    -10.023 -0.9059E-13 -0.2977E-14 -0.4457E-14 -0.1442E-15
     -9.978 -0.7876E-12 -0.3009E-13 -0.3922E-13 -0.1472E-14
     -9.934 -0.6188E-11 -0.2750E-12 -0.3123E-12 -0.1361E-13
     -9.890 -0.4391E-10 -0.2271E-11 -0.2250E-11 -0.1139E-12
     -9.846 -0.2812E-09 -0.1695E-10 -0.1466E-10 -0.8618E-12
     -9.802 -0.1624E-08 -0.1142E-09 -0.8634E-10 -0.5900E-11
     -9.758 -0.8453E-08 -0.6938E-09 -0.4594E-09 -0.3652E-10
     -9.714 -0.3960E-07 -0.3801E-08 -0.2207E-08 -0.2043E-09
     -9.669 -0.1667E-06 -0.1876E-07 -0.9566E-08 -0.1032E-08
     -9.625 -0.6299E-06 -0.8326E-07 -0.3737E-07 -0.4707E-08
     -9.581 -0.2130E-05 -0.3319E-06 -0.1314E-06 -0.1936E-07
     -9.537 -0.6424E-05 -0.1186E-05 -0.4149E-06 -0.7168E-07
     -9.493 -0.1720E-04 -0.3785E-05 -0.1174E-05 -0.2387E-06
     -9.449 -0.4062E-04 -0.1076E-04 -0.2967E-05 -0.7134E-06
     -9.405 -0.8355E-04 -0.2705E-04 -0.6655E-05 -0.1907E-05
     -9.360 -0.1467E-03 -0.5965E-04 -0.1313E-04 -0.4540E-05
     -9.316 -0.2104E-03 -0.1136E-03 -0.2242E-04 -0.9555E-05
     -9.272 -0.2176E-03 -0.1815E-03 -0.3202E-04 -0.1756E-04
     -9.228 -0.6891E-04 -0.2264E-03 -0.3506E-04 -0.2756E-04
     -9.184  0.3503E-03 -0.1686E-03 -0.1960E-04 -0.3500E-04
     -9.140  0.1102E-02  0.1056E-03  0.2904E-04 -0.3034E-04
     -9.096  0.2114E-02  0.6963E-03  0.1223E-03  0.3929E-06
     -9.052  0.3144E-02  0.1610E-02  0.2611E-03  0.7145E-04
     -9.007  0.3848E-02  0.2695E-02  0.4309E-03  0.1904E-03
     -8.963  0.3939E-02  0.3655E-02  0.6048E-03  0.3517E-03
     -8.919  0.3353E-02  0.4161E-02  0.7528E-03  0.5354E-03
     -8.875  0.2333E-02  0.4015E-02  0.8557E-03  0.7126E-03
     -8.831  0.1352E-02  0.3255E-02  0.9154E-03  0.8562E-03
     -8.787  0.9332E-03  0.2129E-02  0.9566E-03  0.9502E-03
     -8.743  0.1437E-02  0.9636E-03  0.1020E-02  0.9928E-03
     -8.698  0.2908E-02  0.3118E-04  0.1148E-02  0.9941E-03
     -8.654  0.5041E-02 -0.4966E-03  0.1371E-02  0.9722E-03
     -8.610  0.7299E-02 -0.5092E-03  0.1693E-02  0.9497E-03
     -8.566  0.9144E-02  0.8754E-04  0.2097E-02  0.9536E-03
     -8.522  0.1026E-01  0.1344E-02  0.2550E-02  0.1013E-02
     -8.478  0.1066E-01  0.3173E-02  0.3020E-02  0.1153E-02
     -8.434  0.1061E-01  0.5279E-02  0.3488E-02  0.1386E-02
     -8.389  0.1045E-01  0.7236E-02  0.3949E-02  0.1705E-02
     -8.345  0.1046E-01  0.8677E-02  0.4411E-02  0.2088E-02
     -8.301  0.1078E-01  0.9484E-02  0.4887E-02  0.2507E-02
     -8.257  0.1139E-01  0.9806E-02  0.5389E-02  0.2940E-02
     -8.213  0.1214E-01  0.9894E-02  0.5925E-02  0.3376E-02
     -8.169  0.1284E-01  0.9918E-02  0.6492E-02  0.3814E-02
     -8.125  0.1337E-01  0.9908E-02  0.7082E-02  0.4252E-02
     -8.081  0.1370E-01  0.9846E-02  0.7686E-02  0.4686E-02
     -8.036  0.1392E-01  0.9765E-02  0.8301E-02  0.5117E-02
     -7.992  0.1415E-01  0.9740E-02  0.8926E-02  0.5547E-02
     -7.948  0.1444E-01  0.9824E-02  0.9563E-02  0.5981E-02
     -7.904  0.1480E-01  0.1001E-01  0.1022E-01  0.6422E-02
     -7.860  0.1521E-01  0.1029E-01  0.1089E-01  0.6876E-02
     -7.816  0.1567E-01  0.1068E-01  0.1158E-01  0.7348E-02
     -7.772  0.1621E-01  0.1125E-01  0.1229E-01  0.7844E-02
     -7.727  0.1675E-01  0.1203E-01  0.1303E-01  0.8375E-02
     -7.683  0.1715E-01  0.1292E-01  0.1379E-01  0.8946E-02
     -7.639  0.1723E-01  0.1373E-01  0.1455E-01  0.9551E-02
     -7.595  0.1694E-01  0.1426E-01  0.1530E-01  0.1018E-01
     -7.551  0.1642E-01  0.1449E-01  0.1602E-01  0.1082E-01
     -7.507  0.1594E-01  0.1456E-01  0.1673E-01  0.1146E-01
     -7.463  0.1568E-01  0.1469E-01  0.1742E-01  0.1211E-01
     -7.418  0.1562E-01  0.1502E-01  0.1811E-01  0.1277E-01
     -7.374  0.1554E-01  0.1543E-01  0.1879E-01  0.1345E-01
     -7.330  0.1525E-01  0.1571E-01  0.1947E-01  0.1415E-01
     -7.286  0.1471E-01  0.1569E-01  0.2012E-01  0.1484E-01
     -7.242  0.1397E-01  0.1540E-01  0.2073E-01  0.1552E-01
     -7.198  0.1319E-01  0.1506E-01  0.2131E-01  0.1618E-01
     -7.154  0.1258E-01  0.1492E-01  0.2187E-01  0.1684E-01
     -7.110  0.1245E-01  0.1505E-01  0.2242E-01  0.1751E-01
     -7.065  0.1314E-01  0.1535E-01  0.2300E-01  0.1819E-01
     -7.021  0.1473E-01  0.1561E-01  0.2365E-01  0.1887E-01
     -6.977  0.1688E-01  0.1570E-01  0.2439E-01  0.1957E-01
     -6.933  0.1885E-01  0.1556E-01  0.2523E-01  0.2025E-01
     -6.889  0.1990E-01  0.1524E-01  0.2611E-01  0.2093E-01
     -6.845  0.1970E-01  0.1488E-01  0.2697E-01  0.2158E-01
     -6.801  0.1853E-01  0.1468E-01  0.2779E-01  0.2223E-01
     -6.756  0.1708E-01  0.1490E-01  0.2855E-01  0.2289E-01
     -6.712  0.1598E-01  0.1575E-01  0.2925E-01  0.2358E-01
     -6.668  0.1557E-01  0.1712E-01  0.2994E-01  0.2434E-01
     -6.624  0.1580E-01  0.1861E-01  0.3064E-01  0.2516E-01
     -6.580  0.1647E-01  0.1964E-01  0.3136E-01  0.2603E-01
     -6.536  0.1737E-01  0.1977E-01  0.3213E-01  0.2690E-01
     -6.492  0.1828E-01  0.1898E-01  0.3294E-01  0.2774E-01
     -6.447  0.1894E-01  0.1763E-01  0.3377E-01  0.2852E-01
     -6.403  0.1903E-01  0.1619E-01  0.3461E-01  0.2923E-01
     -6.359  0.1833E-01  0.1504E-01  0.3542E-01  0.2990E-01
     -6.315  0.1688E-01  0.1437E-01  0.3617E-01  0.3053E-01
     -6.271  0.1504E-01  0.1428E-01  0.3683E-01  0.3116E-01
     -6.227  0.1328E-01  0.1483E-01  0.3742E-01  0.3181E-01
     -6.183  0.1203E-01  0.1601E-01  0.3795E-01  0.3252E-01
     -6.139  0.1149E-01  0.1758E-01  0.3845E-01  0.3330E-01
     -6.094  0.1174E-01  0.1906E-01  0.3897E-01  0.3414E-01
     -6.050  0.1282E-01  0.1987E-01  0.3954E-01  0.3502E-01
     -6.006  0.1473E-01  0.1962E-01  0.4019E-01  0.3588E-01
     -5.962  0.1729E-01  0.1834E-01  0.4095E-01  0.3669E-01
     -5.918  0.2006E-01  0.1644E-01  0.4184E-01  0.3742E-01
     -5.874  0.2237E-01  0.1458E-01  0.4282E-01  0.3806E-01
     -5.830  0.2363E-01  0.1335E-01  0.4387E-01  0.3865E-01
     -5.785  0.2357E-01  0.1317E-01  0.4491E-01  0.3923E-01
     -5.741  0.2245E-01  0.1413E-01  0.4590E-01  0.3985E-01
     -5.697  0.2091E-01  0.1599E-01  0.4682E-01  0.4056E-01
     -5.653  0.1964E-01  0.1831E-01  0.4769E-01  0.4137E-01
     -5.609  0.1913E-01  0.2047E-01  0.4853E-01  0.4227E-01
     -5.565  0.1943E-01  0.2193E-01  0.4939E-01  0.4324E-01
     -5.521  0.2036E-01  0.2234E-01  0.5029E-01  0.4423E-01
     -5.477  0.2169E-01  0.2174E-01  0.5125E-01  0.4519E-01
     -5.432  0.2328E-01  0.2059E-01  0.5227E-01  0.4609E-01
     -5.388  0.2512E-01  0.1954E-01  0.5338E-01  0.4696E-01
     -5.344  0.2712E-01  0.1917E-01  0.5458E-01  0.4780E-01
     -5.300  0.2906E-01  0.1969E-01  0.5586E-01  0.4867E-01
     -5.256  0.3063E-01  0.2086E-01  0.5721E-01  0.4959E-01
     -5.212  0.3159E-01  0.2220E-01  0.5861E-01  0.5057E-01
     -5.168  0.3195E-01  0.2342E-01  0.6002E-01  0.5161E-01
     -5.123  0.3188E-01  0.2455E-01  0.6142E-01  0.5269E-01
     -5.079  0.3161E-01  0.2586E-01  0.6282E-01  0.5383E-01
     -5.035  0.3127E-01  0.2755E-01  0.6420E-01  0.5505E-01
     -4.991  0.3089E-01  0.2943E-01  0.6556E-01  0.5635E-01
     -4.947  0.3058E-01  0.3101E-01  0.6691E-01  0.5771E-01
     -4.903  0.3058E-01  0.3185E-01  0.6826E-01  0.5912E-01
     -4.859  0.3125E-01  0.3177E-01  0.6964E-01  0.6052E-01
     -4.814  0.3272E-01  0.3096E-01  0.7109E-01  0.6189E-01
     -4.770  0.3473E-01  0.2975E-01  0.7262E-01  0.6320E-01
     -4.726  0.3657E-01  0.2841E-01  0.7423E-01  0.6446E-01
     -4.682  0.3737E-01  0.2709E-01  0.7588E-01  0.6565E-01
     -4.638  0.3655E-01  0.2595E-01  0.7750E-01  0.6680E-01
     -4.594  0.3410E-01  0.2515E-01  0.7900E-01  0.6791E-01
     -4.550  0.3042E-01  0.2483E-01  0.8034E-01  0.6900E-01
     -4.506  0.2604E-01  0.2499E-01  0.8149E-01  0.7011E-01
     -4.461  0.2130E-01  0.2541E-01  0.8243E-01  0.7123E-01
     -4.417  0.1640E-01  0.2583E-01  0.8316E-01  0.7237E-01
     -4.373  0.1152E-01  0.2601E-01  0.8366E-01  0.7351E-01
     -4.329  0.7025E-02  0.2586E-01  0.8398E-01  0.7466E-01
     -4.285  0.3369E-02  0.2537E-01  0.8412E-01  0.7578E-01
     -4.241  0.8549E-03  0.2455E-01  0.8416E-01  0.7686E-01
     -4.197 -0.5089E-03  0.2347E-01  0.8414E-01  0.7790E-01
     -4.152 -0.9865E-03  0.2226E-01  0.8410E-01  0.7888E-01
     -4.108 -0.9598E-03  0.2111E-01  0.8405E-01  0.7981E-01
     -4.064 -0.7598E-03  0.2011E-01  0.8402E-01  0.8070E-01
     -4.020 -0.5749E-03  0.1905E-01  0.8399E-01  0.8154E-01
     -3.976 -0.4421E-03  0.1752E-01  0.8397E-01  0.8231E-01
     -3.932 -0.2855E-03  0.1512E-01  0.8396E-01  0.8298E-01
     -3.888  0.2306E-04  0.1178E-01  0.8396E-01  0.8350E-01
     -3.843  0.5921E-03  0.7922E-02  0.8399E-01  0.8385E-01
     -3.799  0.1443E-02  0.4253E-02  0.8405E-01  0.8404E-01
     -3.755  0.2486E-02  0.1416E-02  0.8416E-01  0.8410E-01
     -3.711  0.3574E-02 -0.2544E-03  0.8432E-01  0.8409E-01
     -3.667  0.4604E-02 -0.7729E-03  0.8452E-01  0.8405E-01
     -3.623  0.5586E-02 -0.3706E-03  0.8477E-01  0.8404E-01
     -3.579  0.6581E-02  0.6540E-03  0.8506E-01  0.8407E-01
     -3.535  0.7559E-02  0.2025E-02  0.8539E-01  0.8415E-01
     -3.490  0.8287E-02  0.3528E-02  0.8576E-01  0.8431E-01
     -3.446  0.8410E-02  0.5024E-02  0.8613E-01  0.8453E-01
     -3.402  0.7667E-02  0.6439E-02  0.8647E-01  0.8482E-01
     -3.358  0.6097E-02  0.7695E-02  0.8674E-01  0.8516E-01
     -3.314  0.4058E-02  0.8622E-02  0.8692E-01  0.8554E-01
     -3.270  0.2050E-02  0.8956E-02  0.8701E-01  0.8593E-01
     -3.226  0.4949E-03  0.8452E-02  0.8703E-01  0.8630E-01
     -3.181 -0.3885E-03  0.7071E-02  0.8701E-01  0.8662E-01
     -3.137 -0.5476E-03  0.5068E-02  0.8699E-01  0.8684E-01
     -3.093 -0.7370E-05  0.2909E-02  0.8699E-01  0.8697E-01
     -3.049  0.1169E-02  0.1083E-02  0.8704E-01  0.8702E-01
     -3.005  0.2834E-02 -0.6624E-04  0.8717E-01  0.8701E-01
     -2.961  0.4694E-02 -0.3788E-03  0.8737E-01  0.8700E-01
     -2.917  0.6326E-02  0.1596E-03  0.8765E-01  0.8700E-01
     -2.872  0.7326E-02  0.1451E-02  0.8797E-01  0.8707E-01
     -2.828  0.7499E-02  0.3263E-02  0.8831E-01  0.8721E-01
     -2.784  0.6974E-02  0.5202E-02  0.8861E-01  0.8744E-01
     -2.740  0.6126E-02  0.6781E-02  0.8888E-01  0.8774E-01
     -2.696  0.5346E-02  0.7596E-02  0.8912E-01  0.8808E-01
     -2.652  0.4818E-02  0.7527E-02  0.8933E-01  0.8841E-01
     -2.608  0.4445E-02  0.6807E-02  0.8953E-01  0.8871E-01
     -2.564  0.3988E-02  0.5875E-02  0.8970E-01  0.8897E-01
     -2.519  0.3274E-02  0.5114E-02  0.8985E-01  0.8919E-01
     -2.475  0.2331E-02  0.4634E-02  0.8995E-01  0.8940E-01
     -2.431  0.1346E-02  0.4270E-02  0.9001E-01  0.8959E-01
     -2.387  0.5369E-03  0.3765E-02  0.9004E-01  0.8975E-01
     -2.343  0.1933E-04  0.2989E-02  0.9004E-01  0.8989E-01
     -2.299 -0.2205E-03  0.2020E-02  0.9003E-01  0.8997E-01
     -2.255 -0.2812E-03  0.1073E-02  0.9001E-01  0.9002E-01
     -2.210 -0.2735E-03  0.3435E-03  0.9000E-01  0.9004E-01
     -2.166 -0.2692E-03 -0.9076E-04  0.8999E-01  0.9003E-01
     -2.122 -0.2784E-03 -0.2782E-03  0.8998E-01  0.9002E-01
     -2.078 -0.2462E-03 -0.3268E-03  0.8997E-01  0.9001E-01
     -2.034 -0.6797E-04 -0.3301E-03  0.8996E-01  0.8999E-01
     -1.990  0.3681E-03 -0.3185E-03  0.8998E-01  0.8998E-01
     -1.946  0.1109E-02 -0.2450E-03  0.9003E-01  0.8997E-01
     -1.901  0.2069E-02 -0.4772E-05  0.9012E-01  0.8997E-01
     -1.857  0.3022E-02  0.5085E-03  0.9025E-01  0.8999E-01
     -1.813  0.3702E-02  0.1319E-02  0.9042E-01  0.9005E-01
     -1.769  0.3965E-02  0.2302E-02  0.9059E-01  0.9015E-01
     -1.725  0.3908E-02  0.3192E-02  0.9076E-01  0.9029E-01
     -1.681  0.3842E-02  0.3706E-02  0.9093E-01  0.9045E-01
     -1.637  0.4129E-02  0.3725E-02  0.9112E-01  0.9062E-01
     -1.593  0.4981E-02  0.3421E-02  0.9134E-01  0.9077E-01
     -1.548  0.6347E-02  0.3212E-02  0.9162E-01  0.9091E-01
     -1.504  0.7946E-02  0.3560E-02  0.9197E-01  0.9107E-01
     -1.460  0.9391E-02  0.4719E-02  0.9238E-01  0.9128E-01
     -1.416  0.1032E-01  0.6585E-02  0.9284E-01  0.9157E-01
     -1.372  0.1052E-01  0.8722E-02  0.9330E-01  0.9195E-01
     -1.328  0.9936E-02  0.1055E-01  0.9374E-01  0.9242E-01
     -1.284  0.8688E-02  0.1157E-01  0.9412E-01  0.9293E-01
     -1.239  0.7006E-02  0.1152E-01  0.9443E-01  0.9344E-01
     -1.195  0.5208E-02  0.1046E-01  0.9466E-01  0.9390E-01
     -1.151  0.3669E-02  0.8671E-02  0.9482E-01  0.9428E-01
     -1.107  0.2788E-02  0.6611E-02  0.9495E-01  0.9457E-01
     -1.063  0.2876E-02  0.4767E-02  0.9507E-01  0.9478E-01
     -1.019  0.4009E-02  0.3585E-02  0.9525E-01  0.9494E-01
     -0.975  0.5925E-02  0.3362E-02  0.9551E-01  0.9509E-01
     -0.930  0.8052E-02  0.4141E-02  0.9587E-01  0.9527E-01
     -0.886  0.9706E-02  0.5667E-02  0.9630E-01  0.9552E-01
     -0.842  0.1037E-01  0.7444E-02  0.9675E-01  0.9585E-01
     -0.798  0.9939E-02  0.8911E-02  0.9719E-01  0.9624E-01
     -0.754  0.8775E-02  0.9656E-02  0.9758E-01  0.9667E-01
     -0.710  0.7521E-02  0.9581E-02  0.9791E-01  0.9709E-01
     -0.666  0.6755E-02  0.8925E-02  0.9821E-01  0.9749E-01
     -0.622  0.6669E-02  0.8128E-02  0.9850E-01  0.9785E-01
     -0.577  0.6990E-02  0.7591E-02  0.9881E-01  0.9818E-01
     -0.533  0.7174E-02  0.7446E-02  0.9913E-01  0.9851E-01
     -0.489  0.6748E-02  0.7490E-02  0.9943E-01  0.9884E-01
     -0.445  0.5593E-02  0.7324E-02  0.9967E-01  0.9916E-01
     -0.401  0.3994E-02  0.6621E-02  0.9985E-01  0.9946E-01
     -0.357  0.2475E-02  0.5352E-02  0.9996E-01  0.9969E-01
     -0.313  0.1523E-02  0.3825E-02  0.1000E+00  0.9986E-01
     -0.268  0.1368E-02  0.2527E-02  0.1001E+00  0.9997E-01
     -0.224  0.1919E-02  0.1865E-02  0.1002E+00  0.1001E+00
     -0.180  0.2861E-02  0.1981E-02  0.1003E+00  0.1001E+00
     -0.136  0.3867E-02  0.2722E-02  0.1005E+00  0.1003E+00
     -0.092  0.4780E-02  0.3785E-02  0.1007E+00  0.1004E+00
     -0.048  0.5662E-02  0.4917E-02  0.1009E+00  0.1006E+00
     -0.004  0.6682E-02  0.6040E-02  0.1012E+00  0.1009E+00
      0.041  0.7909E-02  0.7208E-02  0.1016E+00  0.1012E+00
      0.085  0.9172E-02  0.8450E-02  0.1020E+00  0.1016E+00
      0.129  0.1009E-01  0.9616E-02  0.1024E+00  0.1020E+00
      0.173  0.1023E-01  0.1037E-01  0.1029E+00  0.1025E+00
      0.217  0.9379E-02  0.1032E-01  0.1033E+00  0.1029E+00
      0.261  0.7628E-02  0.9283E-02  0.1036E+00  0.1034E+00
      0.305  0.5377E-02  0.7381E-02  0.1039E+00  0.1037E+00
      0.349  0.3147E-02  0.5046E-02  0.1040E+00  0.1039E+00
      0.394  0.1365E-02  0.2813E-02  0.1041E+00  0.1040E+00
      0.438  0.2225E-03  0.1096E-02  0.1041E+00  0.1041E+00
      0.482 -0.3226E-03  0.5176E-04  0.1041E+00  0.1041E+00
      0.526 -0.4550E-03 -0.4014E-03  0.1040E+00  0.1041E+00
      0.570 -0.3804E-03 -0.4711E-03  0.1040E+00  0.1040E+00
      0.614 -0.2492E-03 -0.3666E-03  0.1040E+00  0.1040E+00
      0.658 -0.1374E-03 -0.2286E-03  0.1040E+00  0.1040E+00
      0.703 -0.6573E-04 -0.1210E-03  0.1040E+00  0.1040E+00
      0.747 -0.2766E-04 -0.5571E-04  0.1040E+00  0.1040E+00
      0.791 -0.1033E-04 -0.2261E-04  0.1040E+00  0.1040E+00
      0.835 -0.3441E-05 -0.8151E-05  0.1040E+00  0.1040E+00
      0.879 -0.1027E-05 -0.2624E-05  0.1040E+00  0.1040E+00
      0.923 -0.2751E-06 -0.7568E-06  0.1040E+00  0.1040E+00
      0.967 -0.6629E-07 -0.1960E-06  0.1040E+00  0.1040E+00
      1.011 -0.1439E-07 -0.4569E-07  0.1040E+00  0.1040E+00
      1.056 -0.2815E-08 -0.9593E-08  0.1040E+00  0.1040E+00
      1.100 -0.4971E-09 -0.1817E-08  0.1040E+00  0.1040E+00
      1.144 -0.7927E-10 -0.3106E-09  0.1040E+00  0.1040E+00
      1.188 -0.1142E-10 -0.4795E-10  0.1040E+00  0.1040E+00
      1.232 -0.1487E-11 -0.6692E-11  0.1040E+00  0.1040E+00
      1.276 -0.1751E-12 -0.8443E-12  0.1040E+00  0.1040E+00
      1.320 -0.1865E-13 -0.9635E-13  0.1040E+00  0.1040E+00
      1.365 -0.1796E-14 -0.9941E-14  0.1040E+00  0.1040E+00
      1.409 -0.1560E-15 -0.9307E-15  0.1040E+00  0.1040E+00
      1.453 -0.1509E-16 -0.8049E-16  0.1040E+00  0.1040E+00
      1.497  0.0000E+00 -0.5031E-17  0.1040E+00  0.1040E+00
      1.541  0.0000E+00  0.0000E+00  0.1040E+00  0.1040E+00
      1.585  0.0000E+00  0.0000E+00  0.1040E+00  0.1040E+00
      1.629  0.0000E+00  0.0000E+00  0.1040E+00  0.1040E+00
      1.674  0.0000E+00  0.0000E+00  0.1040E+00  0.1040E+00
      1.718  0.0000E+00  0.0000E+00  0.1040E+00  0.1040E+00
      1.762  0.0000E+00  0.0000E+00  0.1040E+00  0.1040E+00
      1.806  0.0000E+00  0.0000E+00  0.1040E+00  0.1040E+00
      1.850  0.0000E+00  0.0000E+00  0.1040E+00  0.1040E+00
      1.894  0.0000E+00  0.0000E+00  0.1040E+00  0.1040E+00
      1.938  0.0000E+00  0.0000E+00  0.1040E+00  0.1040E+00
      1.982  0.0000E+00  0.0000E+00  0.1040E+00  0.1040E+00
      2.027  0.0000E+00  0.0000E+00  0.1040E+00  0.1040E+00
      2.071  0.0000E+00  0.0000E+00  0.1040E+00  0.1040E+00
      2.115  0.0000E+00  0.0000E+00  0.1040E+00  0.1040E+00
      2.159  0.0000E+00  0.0000E+00  0.1040E+00  0.1040E+00
      2.203  0.0000E+00  0.0000E+00  0.1040E+00  0.1040E+00
      2.247  0.0000E+00  0.0000E+00  0.1040E+00  0.1040E+00
