   16   16 1000    2
  0.8951455E+03  0.2399203E-08  0.2469325E-08  0.2417511E-08  0.5000000E-15
   1.0000000000000000E-004
  CAR 
 unknown system                          
    160      1    104
 
  0.1262379E-14  0.1262379E-14  0.1262379E-14  0.1000000E+01
    1       -8.993514     -8.927646   1.000000   1.000000
    2       -8.596565     -8.381867   1.000000   1.000000
    3       -8.562657     -8.344530   1.000000   1.000000
    4       -8.425990     -8.163634   1.000000   1.000000
    5       -8.351290     -8.136794   1.000000   1.000000
    6       -8.218717     -7.981221   1.000000   1.000000
    7       -8.184838     -7.906250   1.000000   1.000000
    8       -8.101189     -7.803699   1.000000   1.000000
    9       -8.007224     -7.704135   1.000000   1.000000
   10       -7.969532     -7.645147   1.000000   1.000000
   11       -7.859598     -7.561046   1.000000   1.000000
   12       -7.842427     -7.537673   1.000000   1.000000
   13       -7.762341     -7.411452   1.000000   1.000000
   14       -7.666840     -7.353842   1.000000   1.000000
   15       -7.634806     -7.335527   1.000000   1.000000
   16       -7.629283     -7.248712   1.000000   1.000000
   17       -7.520575     -7.178613   1.000000   1.000000
   18       -7.424285     -7.085498   1.000000   1.000000
   19       -7.395186     -7.054838   1.000000   1.000000
   20       -7.360441     -6.994976   1.000000   1.000000
   21       -7.242289     -6.907782   1.000000   1.000000
   22       -7.178868     -6.831791   1.000000   1.000000
   23       -7.142137     -6.825992   1.000000   1.000000
   24       -6.978627     -6.697460   1.000000   1.000000
   25       -6.952984     -6.626607   1.000000   1.000000
   26       -6.915567     -6.608998   1.000000   1.000000
   27       -6.902754     -6.562502   1.000000   1.000000
   28       -6.835907     -6.527712   1.000000   1.000000
   29       -6.767899     -6.462411   1.000000   1.000000
   30       -6.674719     -6.359223   1.000000   1.000000
   31       -6.629735     -6.334041   1.000000   1.000000
   32       -6.584621     -6.261680   1.000000   1.000000
   33       -6.508943     -6.151986   1.000000   1.000000
   34       -6.443241     -6.119802   1.000000   1.000000
   35       -6.388867     -6.063161   1.000000   1.000000
   36       -6.376685     -6.038431   1.000000   1.000000
   37       -6.333600     -5.998439   1.000000   1.000000
   38       -6.183309     -5.917020   1.000000   1.000000
   39       -6.168204     -5.853284   1.000000   1.000000
   40       -6.037934     -5.749109   1.000000   1.000000
   41       -5.990553     -5.695262   1.000000   1.000000
   42       -5.895993     -5.625199   1.000000   1.000000
   43       -5.880297     -5.600226   1.000000   1.000000
   44       -5.841702     -5.544222   1.000000   1.000000
   45       -5.830868     -5.528264   1.000000   1.000000
   46       -5.767794     -5.464428   1.000000   1.000000
   47       -5.736758     -5.436583   1.000000   1.000000
   48       -5.660206     -5.366487   1.000000   1.000000
   49       -5.591830     -5.275714   1.000000   1.000000
   50       -5.569945     -5.242522   1.000000   1.000000
   51       -5.485128     -5.217916   1.000000   1.000000
   52       -5.474064     -5.188516   1.000000   1.000000
   53       -5.452515     -5.160319   1.000000   1.000000
   54       -5.355392     -5.080040   1.000000   1.000000
   55       -5.341451     -5.033467   1.000000   1.000001
   56       -5.298646     -5.014645   1.000000   1.000001
   57       -5.277488     -4.965686   1.000000   1.000007
   58       -5.265280     -4.953086   1.000000   1.000011
   59       -5.212383     -4.924692   1.000000   1.000026
   60       -5.182901     -4.905036   1.000000   1.000047
   61       -5.169698     -4.885471   1.000000   1.000083
   62       -5.120046     -4.816541   1.000000   1.000506
   63       -5.074676     -4.786626   1.000000   1.001022
   64       -5.070233     -4.770354   1.000000   1.001466
   65       -5.007379     -4.709843   1.000002   1.004888
   66       -4.999480     -4.687718   1.000002   1.007171
   67       -4.968188     -4.673594   1.000007   1.009005
   68       -4.945383     -4.616599   1.000014   1.019533
   69       -4.893125     -4.567862   1.000066   1.030468
   70       -4.866486     -4.511159   1.000140   1.034518
   71       -4.825520     -4.465133   1.000405   1.014754
   72       -4.779209     -4.457106   1.001207   1.007807
   73       -4.770198     -4.438836   1.001471   0.987125
   74       -4.730085     -4.362279   1.003350   0.814206
   75       -4.700925     -4.335949   1.005726   0.722777
   76       -4.679418     -4.293815   1.008211   0.553778
   77       -4.675375     -4.254828   1.008757   0.389986
   78       -4.648330     -4.210411   1.013077   0.220673
   79       -4.633815     -4.163943   1.015865   0.086519
   80       -4.610854     -4.155653   1.020824   0.068188
   81       -4.522060     -4.055709   1.035396  -0.033777
   82       -4.487806     -3.980994   1.028276  -0.027633
   83       -4.460015     -3.967896   1.010467  -0.024644
   84       -4.431902     -3.943309   0.977363  -0.019036
   85       -3.683779     -3.458147  -0.000101  -0.000000
   86       -3.485949     -3.286661  -0.000000  -0.000000
   87       -3.430185     -3.231898  -0.000000  -0.000000
   88       -2.920487     -2.752007  -0.000000  -0.000000
   89       -2.826472     -2.668078  -0.000000  -0.000000
   90       -2.600984     -2.437980  -0.000000  -0.000000
   91       -1.805282     -1.681460  -0.000000  -0.000000
   92       -1.556112     -1.405795  -0.000000  -0.000000
   93       -1.427539     -1.297343  -0.000000  -0.000000
   94       -1.375775     -1.265679  -0.000000  -0.000000
   95       -1.235259     -1.130083  -0.000000  -0.000000
   96       -0.949688     -0.866959  -0.000000  -0.000000
   97       -0.856832     -0.769167  -0.000000  -0.000000
   98       -0.805128     -0.689609  -0.000000  -0.000000
   99       -0.589131     -0.508561  -0.000000  -0.000000
  100       -0.497439     -0.411394  -0.000000  -0.000000
  101       -0.139600     -0.082215  -0.000000  -0.000000
  102        0.049513      0.086690  -0.000000  -0.000000
  103        0.148979      0.193781  -0.000000  -0.000000
  104        0.215753      0.247307  -0.000000  -0.000000
