       N       E                     dE             d eps       ncg     rms          rms(c)
DAV:   1     0.142840633987E+04    0.14284E+04   -0.27192E+04   416   0.736E+02
DAV:   2     0.736630753284E+03   -0.69178E+03   -0.62079E+03   800   0.871E+01
DAV:   3     0.136339176756E+03   -0.60029E+03   -0.56135E+03   688   0.832E+01
DAV:   4    -0.403475051686E+02   -0.17669E+03   -0.15993E+03   568   0.489E+01
DAV:   5    -0.642216672285E+02   -0.23874E+02   -0.18526E+02   568   0.177E+01    0.264E+01
DAV:   6    -0.547914418637E+02    0.94302E+01   -0.37613E+01   424   0.145E+01    0.145E+01
DAV:   7    -0.548144498210E+02   -0.23008E-01   -0.23019E+01   448   0.318E+01    0.232E+01
DAV:   8    -0.496553620156E+02    0.51591E+01   -0.24083E+01   448   0.245E+01    0.141E+01
DAV:   9    -0.485873463074E+02    0.10680E+01   -0.71753E+00   456   0.167E+01    0.906E+00
DAV:  10    -0.494646450968E+02   -0.87730E+00   -0.37778E+00   456   0.110E+01    0.620E+00
DAV:  11    -0.504367557542E+02   -0.97211E+00   -0.11867E+00   456   0.678E+00    0.473E+00
DAV:  12    -0.514863540742E+02   -0.10496E+01   -0.81709E-01   456   0.439E+00    0.354E+00
DAV:  13    -0.526988941641E+02   -0.12125E+01   -0.46435E-01   432   0.347E+00    0.255E+00
DAV:  14    -0.553488910484E+02   -0.26500E+01   -0.91348E-01   440   0.348E+00    0.246E+00
DAV:  15    -0.558615234708E+02   -0.51263E+00   -0.17696E-01   472   0.224E+00    0.151E+00
DAV:  16    -0.564304925856E+02   -0.56897E+00   -0.81256E-02   432   0.145E+00    0.115E+00
DAV:  17    -0.573559304138E+02   -0.92544E+00   -0.15476E-01   432   0.129E+00    0.117E+00
DAV:  18    -0.581112477872E+02   -0.75532E+00   -0.11904E-01   456   0.116E+00    0.883E-01
DAV:  19    -0.587535418047E+02   -0.64229E+00   -0.79205E-02   424   0.921E-01    0.729E-01
DAV:  20    -0.592969709749E+02   -0.54343E+00   -0.52236E-02   472   0.771E-01    0.630E-01
DAV:  21    -0.600516744872E+02   -0.75470E+00   -0.84032E-02   432   0.802E-01    0.419E-01
DAV:  22    -0.605573333980E+02   -0.50566E+00   -0.51437E-02   464   0.588E-01    0.322E-01
DAV:  23    -0.608487378847E+02   -0.29140E+00   -0.12287E-02   432   0.382E-01    0.239E-01
DAV:  24    -0.612572501908E+02   -0.40851E+00   -0.16786E-02   440   0.334E-01    0.203E-01
DAV:  25    -0.614735138124E+02   -0.21626E+00   -0.57331E-03   480   0.263E-01    0.165E-01
DAV:  26    -0.616842381967E+02   -0.21072E+00   -0.54718E-03   440   0.203E-01    0.119E-01
DAV:  27    -0.617961172012E+02   -0.11188E+00   -0.25527E-03   480   0.161E-01    0.107E-01
DAV:  28    -0.618681264672E+02   -0.72009E-01   -0.14788E-03   424   0.129E-01    0.610E-02
DAV:  29    -0.619072446455E+02   -0.39118E-01   -0.62171E-04   384   0.699E-02    0.484E-02
DAV:  30    -0.619278633477E+02   -0.20619E-01   -0.24001E-04   352   0.570E-02    0.319E-02
DAV:  31    -0.619456714963E+02   -0.17808E-01   -0.24102E-04   336   0.422E-02    0.263E-02
DAV:  32    -0.619551128044E+02   -0.94413E-02   -0.13696E-04   328   0.300E-02    0.184E-02
DAV:  33    -0.619575561608E+02   -0.24434E-02   -0.72044E-05   296   0.290E-02    0.187E-02
DAV:  34    -0.619583071296E+02   -0.75097E-03   -0.63884E-05   304   0.207E-02    0.984E-03
DAV:  35    -0.619588890304E+02   -0.58190E-03   -0.30946E-05   296   0.130E-02    0.654E-03
DAV:  36    -0.619593586721E+02   -0.46964E-03   -0.26845E-05   304   0.116E-02    0.606E-03
DAV:  37    -0.619597679958E+02   -0.40932E-03   -0.20139E-05   296   0.910E-03    0.498E-03
DAV:  38    -0.619601038368E+02   -0.33584E-03   -0.14442E-05   288   0.697E-03    0.316E-03
DAV:  39    -0.619604153682E+02   -0.31153E-03   -0.93603E-06   256   0.568E-03    0.200E-03
DAV:  40    -0.619607020575E+02   -0.28669E-03   -0.58456E-06   280   0.429E-03    0.139E-03
DAV:  41    -0.619608744499E+02   -0.17239E-03   -0.39549E-06   256   0.308E-03    0.800E-04
DAV:  42    -0.619609400080E+02   -0.65558E-04   -0.19494E-06   248   0.223E-03
   1 F= -.61960940E+02 E0= -.61957195E+02  d E =-.619609E+02  mag=     8.1173
       N       E                     dE             d eps       ncg     rms          rms(c)
DAV:   1    -0.620613805210E+02   -0.10051E+00   -0.93831E+01   416   0.253E+01    0.248E+00
DAV:   2    -0.622189685789E+02   -0.15759E+00   -0.16752E+00   440   0.503E+00    0.312E+00
DAV:   3    -0.621888834070E+02    0.30085E-01   -0.49101E-01   440   0.421E+00    0.231E+00
DAV:   4    -0.621769545600E+02    0.11929E-01   -0.12854E-01   440   0.205E+00    0.169E+00
DAV:   5    -0.621689509262E+02    0.80036E-02   -0.10004E-01   432   0.174E+00    0.137E+00
DAV:   6    -0.621658799321E+02    0.30710E-02   -0.66649E-02   448   0.144E+00    0.111E+00
DAV:   7    -0.621599190572E+02    0.59609E-02   -0.30767E-02   440   0.107E+00    0.726E-01
DAV:   8    -0.621576566318E+02    0.22624E-02   -0.10866E-02   440   0.667E-01    0.334E-01
DAV:   9    -0.621579026869E+02   -0.24606E-03   -0.30211E-03   440   0.345E-01    0.188E-01
DAV:  10    -0.621585447679E+02   -0.64208E-03   -0.11109E-03   432   0.211E-01    0.137E-01
DAV:  11    -0.621593526549E+02   -0.80789E-03   -0.48760E-04   312   0.139E-01    0.109E-01
DAV:  12    -0.621601513586E+02   -0.79870E-03   -0.24878E-04   272   0.970E-02    0.515E-02
DAV:  13    -0.621607760087E+02   -0.62465E-03   -0.92071E-05   280   0.531E-02    0.276E-02
DAV:  14    -0.621619190493E+02   -0.11430E-02   -0.44671E-05   264   0.286E-02    0.214E-02
DAV:  15    -0.621629750103E+02   -0.10560E-02   -0.29171E-05   280   0.240E-02    0.188E-02
DAV:  16    -0.621643883509E+02   -0.14133E-02   -0.29868E-05   280   0.168E-02    0.144E-02
DAV:  17    -0.621655513037E+02   -0.11630E-02   -0.25721E-05   280   0.127E-02    0.109E-02
DAV:  18    -0.621668432632E+02   -0.12920E-02   -0.32092E-05   288   0.128E-02    0.963E-03
DAV:  19    -0.621684575001E+02   -0.16142E-02   -0.35859E-05   288   0.118E-02    0.931E-03
DAV:  20    -0.621700847425E+02   -0.16272E-02   -0.58538E-05   288   0.130E-02    0.708E-03
DAV:  21    -0.621709524851E+02   -0.86774E-03   -0.31035E-05   296   0.108E-02    0.445E-03
DAV:  22    -0.621716067684E+02   -0.65428E-03   -0.24842E-05   280   0.798E-03    0.297E-03
DAV:  23    -0.621720748946E+02   -0.46813E-03   -0.16004E-05   296   0.682E-03    0.204E-03
DAV:  24    -0.621725339190E+02   -0.45902E-03   -0.14738E-05   288   0.564E-03    0.166E-03
DAV:  25    -0.621727767990E+02   -0.24288E-03   -0.78472E-06   272   0.488E-03    0.135E-03
DAV:  26    -0.621729782280E+02   -0.20143E-03   -0.55918E-06   272   0.340E-03    0.848E-04
DAV:  27    -0.621731192777E+02   -0.14105E-03   -0.31463E-06   288   0.282E-03    0.663E-04
DAV:  28    -0.621731984690E+02   -0.79191E-04   -0.19776E-06   272   0.201E-03
   2 F= -.62173198E+02 E0= -.62171618E+02  d E =-.212258E+00  mag=     8.2641
       N       E                     dE             d eps       ncg     rms          rms(c)
DAV:   1    -0.621607346988E+02    0.12385E-01   -0.37877E+01   416   0.160E+01    0.149E+00
DAV:   2    -0.622244087151E+02   -0.63674E-01   -0.68146E-01   432   0.319E+00    0.199E+00
DAV:   3    -0.622122223663E+02    0.12186E-01   -0.18750E-01   432   0.260E+00    0.142E+00
DAV:   4    -0.622096356968E+02    0.25867E-02   -0.55566E-02   432   0.129E+00    0.117E+00
DAV:   5    -0.622050451883E+02    0.45905E-02   -0.40742E-02   424   0.106E+00    0.783E-01
DAV:   6    -0.622042769682E+02    0.76822E-03   -0.19699E-02   424   0.827E-01    0.615E-01
DAV:   7    -0.622029630783E+02    0.13139E-02   -0.10841E-02   432   0.641E-01    0.480E-01
DAV:   8    -0.622020180734E+02    0.94500E-03   -0.44839E-03   424   0.427E-01    0.204E-01
DAV:   9    -0.622021903798E+02   -0.17231E-03   -0.10916E-03   424   0.210E-01    0.109E-01
DAV:  10    -0.622024307531E+02   -0.24037E-03   -0.35031E-04   272   0.124E-01    0.758E-02
DAV:  11    -0.622027542925E+02   -0.32354E-03   -0.16101E-04   256   0.760E-02    0.573E-02
DAV:  12    -0.622030137550E+02   -0.25946E-03   -0.85182E-05   256   0.556E-02    0.293E-02
DAV:  13    -0.622031977634E+02   -0.18401E-03   -0.35190E-05   256   0.308E-02    0.167E-02
DAV:  14    -0.622034988474E+02   -0.30108E-03   -0.15519E-05   264   0.177E-02    0.107E-02
DAV:  15    -0.622037803263E+02   -0.28148E-03   -0.85949E-06   264   0.129E-02    0.929E-03
DAV:  16    -0.622041240182E+02   -0.34369E-03   -0.76522E-06   272   0.933E-03    0.755E-03
DAV:  17    -0.622044238337E+02   -0.29982E-03   -0.62074E-06   272   0.683E-03    0.527E-03
DAV:  18    -0.622047134136E+02   -0.28958E-03   -0.57323E-06   272   0.602E-03    0.396E-03
DAV:  19    -0.622051257902E+02   -0.41238E-03   -0.86236E-06   288   0.537E-03    0.408E-03
DAV:  20    -0.622055866695E+02   -0.46088E-03   -0.11717E-05   280   0.611E-03    0.361E-03
DAV:  21    -0.622059669976E+02   -0.38033E-03   -0.13302E-05   304   0.591E-03    0.232E-03
DAV:  22    -0.622061547553E+02   -0.18776E-03   -0.79704E-06   288   0.468E-03    0.160E-03
DAV:  23    -0.622063108562E+02   -0.15610E-03   -0.59629E-06   280   0.349E-03    0.996E-04
DAV:  24    -0.622064493560E+02   -0.13850E-03   -0.43160E-06   288   0.314E-03    0.853E-04
DAV:  25    -0.622065425461E+02   -0.93190E-04   -0.30215E-06   288   0.263E-03
   3 F= -.62206543E+02 E0= -.62206355E+02  d E =-.245603E+00  mag=     8.3282
       N       E                     dE             d eps       ncg     rms          rms(c)
DAV:   1    -0.622145967002E+02   -0.81473E-02   -0.69508E+00   416   0.690E+00    0.523E-01
DAV:   2    -0.622301905194E+02   -0.15594E-01   -0.14165E-01   440   0.161E+00    0.141E+00
DAV:   3    -0.622235248549E+02    0.66657E-02   -0.54230E-02   432   0.121E+00    0.595E-01
DAV:   4    -0.622233152850E+02    0.20957E-03   -0.10368E-02   424   0.576E-01    0.318E-01
DAV:   5    -0.622230835764E+02    0.23171E-03   -0.27384E-03   424   0.318E-01    0.221E-01
DAV:   6    -0.622230883840E+02   -0.48076E-05   -0.16215E-03   432   0.236E-01    0.188E-01
DAV:   7    -0.622232198790E+02   -0.13149E-03   -0.13929E-03   416   0.227E-01    0.206E-01
DAV:   8    -0.622230512483E+02    0.16863E-03   -0.81786E-04   336   0.189E-01    0.805E-02
DAV:   9    -0.622231027256E+02   -0.51477E-04   -0.21606E-04   264   0.880E-02
   4 F= -.62223103E+02 E0= -.62223806E+02  d E =-.165602E-01  mag=     8.3293
       N       E                     dE             d eps       ncg     rms          rms(c)
DAV:   1    -0.622043560889E+02    0.18695E-01   -0.24561E+01   416   0.130E+01    0.988E-01
DAV:   2    -0.622622687057E+02   -0.57913E-01   -0.51562E-01   432   0.306E+00    0.273E+00
DAV:   3    -0.622372499233E+02    0.25019E-01   -0.21898E-01   424   0.231E+00    0.112E+00
DAV:   4    -0.622355064452E+02    0.17435E-02   -0.37647E-02   424   0.109E+00    0.577E-01
DAV:   5    -0.622345695597E+02    0.93689E-03   -0.97339E-03   424   0.592E-01    0.415E-01
DAV:   6    -0.622343808418E+02    0.18872E-03   -0.52113E-03   432   0.431E-01    0.329E-01
DAV:   7    -0.622348441758E+02   -0.46333E-03   -0.46332E-03   432   0.408E-01    0.376E-01
DAV:   8    -0.622342627965E+02    0.58138E-03   -0.31461E-03   424   0.353E-01    0.160E-01
DAV:   9    -0.622343624447E+02   -0.99648E-04   -0.80874E-04   384   0.166E-01
   5 F= -.62234362E+02 E0= -.62236733E+02  d E =-.278199E-01  mag=     8.3285
       N       E                     dE             d eps       ncg     rms          rms(c)
DAV:   1    -0.622355177262E+02   -0.12549E-02   -0.10026E+01   416   0.828E+00    0.595E-01
DAV:   2    -0.622558707660E+02   -0.20353E-01   -0.19284E-01   424   0.189E+00    0.141E+00
DAV:   3    -0.622495422126E+02    0.63286E-02   -0.64997E-02   424   0.138E+00    0.708E-01
DAV:   4    -0.622486776318E+02    0.86458E-03   -0.16089E-02   424   0.650E-01    0.367E-01
DAV:   5    -0.622484444138E+02    0.23322E-03   -0.36527E-03   424   0.334E-01    0.249E-01
DAV:   6    -0.622483379486E+02    0.10647E-03   -0.16262E-03   424   0.239E-01    0.178E-01
DAV:   7    -0.622485873276E+02   -0.24938E-03   -0.15844E-03   424   0.223E-01    0.194E-01
DAV:   8    -0.622484915561E+02    0.95771E-04   -0.97835E-04   408   0.200E-01
   6 F= -.62248492E+02 E0= -.62252281E+02  d E =-.141291E-01  mag=     8.3274
       N       E                     dE             d eps       ncg     rms          rms(c)
DAV:   1    -0.621557035434E+02    0.92884E-01   -0.82593E+01   416   0.238E+01    0.164E+00
DAV:   2    -0.623159379913E+02   -0.16023E+00   -0.15162E+00   432   0.523E+00    0.363E+00
DAV:   3    -0.622751392886E+02    0.40799E-01   -0.48840E-01   440   0.366E+00    0.186E+00
DAV:   4    -0.622657748622E+02    0.93644E-02   -0.12896E-01   432   0.179E+00    0.103E+00
DAV:   5    -0.622627200039E+02    0.30549E-02   -0.31711E-02   424   0.973E-01    0.727E-01
DAV:   6    -0.622606987697E+02    0.20212E-02   -0.12386E-02   424   0.676E-01    0.464E-01
DAV:   7    -0.622611070883E+02   -0.40832E-03   -0.11197E-02   432   0.584E-01    0.491E-01
DAV:   8    -0.622602894548E+02    0.81763E-03   -0.64304E-03   432   0.534E-01    0.212E-01
DAV:   9    -0.622606509012E+02   -0.36145E-03   -0.16085E-03   440   0.224E-01    0.128E-01
DAV:  10    -0.622608181144E+02   -0.16721E-03   -0.45446E-04   280   0.132E-01    0.816E-02
DAV:  11    -0.622610401817E+02   -0.22207E-03   -0.19362E-04   272   0.849E-02    0.719E-02
DAV:  12    -0.622613527775E+02   -0.31260E-03   -0.11501E-04   280   0.619E-02    0.375E-02
DAV:  13    -0.622616183055E+02   -0.26553E-03   -0.63633E-05   280   0.442E-02    0.273E-02
DAV:  14    -0.622618217976E+02   -0.20349E-03   -0.33078E-05   264   0.301E-02    0.138E-02
DAV:  15    -0.622619929103E+02   -0.17111E-03   -0.14585E-05   264   0.167E-02    0.877E-03
DAV:  16    -0.622621247460E+02   -0.13184E-03   -0.64074E-06   256   0.111E-02    0.433E-03
DAV:  17    -0.622622975165E+02   -0.17277E-03   -0.39840E-06   264   0.541E-03    0.322E-03
DAV:  18    -0.622624376364E+02   -0.14012E-03   -0.27347E-06   272   0.428E-03    0.248E-03
DAV:  19    -0.622626214795E+02   -0.18384E-03   -0.33681E-06   272   0.336E-03    0.189E-03
DAV:  20    -0.622628299143E+02   -0.20843E-03   -0.44587E-06   280   0.360E-03    0.202E-03
DAV:  21    -0.622629756237E+02   -0.14571E-03   -0.35694E-06   272   0.342E-03    0.140E-03
DAV:  22    -0.622631023413E+02   -0.12672E-03   -0.39131E-06   280   0.286E-03    0.113E-03
DAV:  23    -0.622631941899E+02   -0.91849E-04   -0.28870E-06   264   0.268E-03
   7 F= -.62263194E+02 E0= -.62271348E+02  d E =-.288317E-01  mag=     8.2980
       N       E                     dE             d eps       ncg     rms          rms(c)
DAV:   1    -0.622546737463E+02    0.84286E-02   -0.15798E+01   416   0.104E+01    0.665E-01
DAV:   2    -0.622833770891E+02   -0.28703E-01   -0.27706E-01   424   0.224E+00    0.142E+00
DAV:   3    -0.622763150155E+02    0.70621E-02   -0.64191E-02   416   0.151E+00    0.680E-01
DAV:   4    -0.622757267478E+02    0.58827E-03   -0.18308E-02   416   0.720E-01    0.479E-01
DAV:   5    -0.622749431382E+02    0.78361E-03   -0.52260E-03   416   0.392E-01    0.288E-01
DAV:   6    -0.622748710702E+02    0.72068E-04   -0.28434E-03   416   0.291E-01    0.249E-01
DAV:   7    -0.622749412604E+02   -0.70190E-04   -0.30221E-03   424   0.281E-01    0.244E-01
DAV:   8    -0.622747473104E+02    0.19395E-03   -0.16437E-03   432   0.243E-01    0.976E-02
DAV:   9    -0.622748035650E+02   -0.56255E-04   -0.28688E-04   296   0.108E-01
   8 F= -.62274804E+02 E0= -.62284745E+02  d E =-.116094E-01  mag=     8.2974
       N       E                     dE             d eps       ncg     rms          rms(c)
DAV:   1    -0.622283760330E+02    0.46371E-01   -0.40238E+01   416   0.166E+01    0.106E+00
DAV:   2    -0.623025500427E+02   -0.74174E-01   -0.69608E-01   432   0.356E+00    0.224E+00
DAV:   3    -0.622847708871E+02    0.17779E-01   -0.15857E-01   416   0.237E+00    0.107E+00
DAV:   4    -0.622828898501E+02    0.18810E-02   -0.44324E-02   416   0.115E+00    0.763E-01
DAV:   5    -0.622807475337E+02    0.21423E-02   -0.12479E-02   416   0.632E-01    0.441E-01
DAV:   6    -0.622805149302E+02    0.23260E-03   -0.67085E-03   416   0.456E-01    0.395E-01
DAV:   7    -0.622806318122E+02   -0.11688E-03   -0.73662E-03   424   0.455E-01    0.394E-01
DAV:   8    -0.622800605688E+02    0.57124E-03   -0.42745E-03   432   0.385E-01    0.149E-01
DAV:   9    -0.622801866912E+02   -0.12612E-03   -0.72754E-04   448   0.164E-01    0.793E-02
DAV:  10    -0.622802197378E+02   -0.33047E-04   -0.13293E-04   272   0.837E-02
   9 F= -.62280220E+02 E0= -.62292821E+02  d E =-.170255E-01  mag=     8.2960
       N       E                     dE             d eps       ncg     rms          rms(c)
DAV:   1    -0.622700975017E+02    0.10089E-01   -0.19708E+01   416   0.116E+01    0.695E-01
DAV:   2    -0.623032302534E+02   -0.33133E-01   -0.32776E-01   416   0.229E+00    0.123E+00
DAV:   3    -0.622975122289E+02    0.57180E-02   -0.51835E-02   416   0.147E+00    0.497E-01
DAV:   4    -0.622978804524E+02   -0.36822E-03   -0.11246E-02   424   0.626E-01    0.514E-01
DAV:   5    -0.622968248092E+02    0.10556E-02   -0.48670E-03   416   0.409E-01    0.283E-01
DAV:   6    -0.622969937078E+02   -0.16890E-03   -0.32082E-03   424   0.310E-01    0.290E-01
DAV:   7    -0.622969793087E+02    0.14399E-04   -0.33971E-03   432   0.313E-01    0.232E-01
DAV:   8    -0.622968973398E+02    0.81969E-04   -0.14042E-03   432   0.247E-01    0.108E-01
DAV:   9    -0.622969260311E+02   -0.28691E-04   -0.35237E-04   272   0.116E-01
  10 F= -.62296926E+02 E0= -.62310208E+02  d E =-.167063E-01  mag=     8.2956
       N       E                     dE             d eps       ncg     rms          rms(c)
DAV:   1    -0.621942094722E+02    0.10269E+00   -0.87238E+01   416   0.245E+01    0.147E+00
DAV:   2    -0.623452022387E+02   -0.15099E+00   -0.14580E+00   424   0.488E+00    0.270E+00
DAV:   3    -0.623157570580E+02    0.29445E-01   -0.23471E-01   424   0.317E+00    0.106E+00
DAV:   4    -0.623153946400E+02    0.36242E-03   -0.49356E-02   432   0.130E+00    0.101E+00
DAV:   5    -0.623113156768E+02    0.40790E-02   -0.22288E-02   432   0.837E-01    0.590E-01
DAV:   6    -0.623111280608E+02    0.18762E-03   -0.13802E-02   448   0.633E-01    0.597E-01
DAV:   7    -0.623107056875E+02    0.42237E-03   -0.15350E-02   440   0.654E-01    0.525E-01
DAV:   8    -0.623098575041E+02    0.84818E-03   -0.74809E-03   440   0.543E-01    0.250E-01
DAV:   9    -0.623099451291E+02   -0.87625E-04   -0.19217E-03   448   0.262E-01    0.154E-01
DAV:  10    -0.623098747315E+02    0.70398E-04   -0.43549E-04   280   0.136E-01
  11 F= -.62309875E+02 E0= -.62323930E+02  d E =-.296550E-01  mag=     8.2946
       N       E                     dE             d eps       ncg     rms          rms(c)
DAV:   1    -0.622839617435E+02    0.25983E-01   -0.31787E+01   416   0.147E+01    0.840E-01
DAV:   2    -0.623334897484E+02   -0.49528E-01   -0.51694E-01   432   0.271E+00    0.129E+00
DAV:   3    -0.623297246507E+02    0.37651E-02   -0.79100E-02   432   0.163E+00    0.742E-01
DAV:   4    -0.623292746837E+02    0.44997E-03   -0.24626E-02   432   0.811E-01    0.647E-01
DAV:   5    -0.623273183300E+02    0.19564E-02   -0.71679E-03   432   0.505E-01    0.290E-01
DAV:   6    -0.623277437966E+02   -0.42547E-03   -0.39751E-03   448   0.384E-01    0.373E-01
DAV:   7    -0.623272465588E+02    0.49724E-03   -0.46434E-03   448   0.387E-01    0.242E-01
DAV:   8    -0.623272715305E+02   -0.24972E-04   -0.20765E-03   432   0.277E-01    0.142E-01
DAV:   9    -0.623272948666E+02   -0.23336E-04   -0.54304E-04   280   0.140E-01
  12 F= -.62327295E+02 E0= -.62340641E+02  d E =-.174201E-01  mag=     8.2866
       N       E                     dE             d eps       ncg     rms          rms(c)
DAV:   1    -0.622558614681E+02    0.71410E-01   -0.57463E+01   416   0.198E+01    0.113E+00
DAV:   2    -0.623452683515E+02   -0.89407E-01   -0.93025E-01   424   0.366E+00    0.173E+00
DAV:   3    -0.623376862149E+02    0.75821E-02   -0.13624E-01   440   0.218E+00    0.937E-01
DAV:   4    -0.623364625407E+02    0.12237E-02   -0.37697E-02   440   0.103E+00    0.816E-01
DAV:   5    -0.623332325969E+02    0.32299E-02   -0.12607E-02   440   0.667E-01    0.398E-01
DAV:   6    -0.623338361093E+02   -0.60351E-03   -0.78840E-03   440   0.526E-01    0.528E-01
DAV:   7    -0.623328444497E+02    0.99166E-03   -0.99372E-03   440   0.544E-01    0.394E-01
DAV:   8    -0.623325134121E+02    0.33104E-03   -0.44956E-03   440   0.399E-01    0.174E-01
DAV:   9    -0.623326879017E+02   -0.17449E-03   -0.77303E-04   392   0.169E-01    0.804E-02
DAV:  10    -0.623327982017E+02   -0.11030E-03   -0.14997E-04   248   0.839E-02    0.595E-02
DAV:  11    -0.623329559287E+02   -0.15773E-03   -0.81382E-05   280   0.571E-02    0.449E-02
DAV:  12    -0.623331985274E+02   -0.24260E-03   -0.72676E-05   272   0.434E-02    0.299E-02
DAV:  13    -0.623333845534E+02   -0.18603E-03   -0.39019E-05   264   0.322E-02    0.210E-02
DAV:  14    -0.623335587811E+02   -0.17423E-03   -0.24014E-05   264   0.242E-02    0.997E-03
DAV:  15    -0.623337330013E+02   -0.17422E-03   -0.10124E-05   248   0.124E-02    0.553E-03
DAV:  16    -0.623338705178E+02   -0.13752E-03   -0.45745E-06   264   0.760E-03    0.398E-03
DAV:  17    -0.623340573238E+02   -0.18681E-03   -0.43436E-06   248   0.495E-03    0.311E-03
DAV:  18    -0.623342106780E+02   -0.15335E-03   -0.32376E-06   264   0.409E-03    0.255E-03
DAV:  19    -0.623344715796E+02   -0.26090E-03   -0.60831E-06   288   0.388E-03    0.191E-03
DAV:  20    -0.623347189127E+02   -0.24733E-03   -0.72269E-06   296   0.382E-03    0.166E-03
DAV:  21    -0.623349017913E+02   -0.18288E-03   -0.62471E-06   288   0.393E-03    0.128E-03
DAV:  22    -0.623350380134E+02   -0.13622E-03   -0.62354E-06   280   0.326E-03    0.786E-04
DAV:  23    -0.623351207908E+02   -0.82777E-04   -0.39329E-06   280   0.282E-03
  13 F= -.62335121E+02 E0= -.62347792E+02  d E =-.252461E-01  mag=     8.2515
       N       E                     dE             d eps       ncg     rms          rms(c)
DAV:   1    -0.622848810634E+02    0.50157E-01   -0.44144E+01   416   0.173E+01    0.104E+00
DAV:   2    -0.623623364284E+02   -0.77455E-01   -0.74024E-01   432   0.348E+00    0.202E+00
DAV:   3    -0.623468970470E+02    0.15439E-01   -0.12923E-01   424   0.231E+00    0.913E-01
DAV:   4    -0.623468811757E+02    0.15871E-04   -0.42539E-02   424   0.108E+00    0.867E-01
DAV:   5    -0.623434389921E+02    0.34422E-02   -0.12022E-02   424   0.639E-01    0.383E-01
DAV:   6    -0.623438229040E+02   -0.38391E-03   -0.61905E-03   424   0.446E-01    0.425E-01
DAV:   7    -0.623435391423E+02    0.28376E-03   -0.83467E-03   424   0.468E-01    0.353E-01
DAV:   8    -0.623431993222E+02    0.33982E-03   -0.38192E-03   424   0.362E-01    0.170E-01
DAV:   9    -0.623432831365E+02   -0.83814E-04   -0.66742E-04   352   0.170E-01
  14 F= -.62343283E+02 E0= -.62357329E+02  d E =-.816235E-02  mag=     8.2498
       N       E                     dE             d eps       ncg     rms          rms(c)
DAV:   1    -0.623430919785E+02    0.10734E-03   -0.11560E-01   440   0.890E-01    0.926E-02
DAV:   2    -0.623434632600E+02   -0.37128E-03   -0.29914E-03   440   0.238E-01    0.190E-01
DAV:   3    -0.623433266507E+02    0.13661E-03   -0.10867E-03   384   0.197E-01    0.740E-02
DAV:   4    -0.623434321973E+02   -0.10555E-03   -0.28686E-04   248   0.976E-02    0.719E-02
DAV:   5    -0.623434340476E+02   -0.18503E-05   -0.13407E-04   240   0.715E-02
  15 F= -.62343434E+02 E0= -.62357666E+02  d E =-.831326E-02  mag=     8.2496
       N       E                     dE             d eps       ncg     rms          rms(c)
DAV:   1    -0.623378180654E+02    0.56141E-02   -0.74913E+00   416   0.715E+00    0.480E-01
DAV:   2    -0.623502844513E+02   -0.12466E-01   -0.12862E-01   424   0.143E+00    0.870E-01
DAV:   3    -0.623478506851E+02    0.24338E-02   -0.24247E-02   416   0.999E-01    0.360E-01
DAV:   4    -0.623479463930E+02   -0.95708E-04   -0.65921E-03   416   0.458E-01    0.330E-01
DAV:   5    -0.623475394070E+02    0.40699E-03   -0.23002E-03   432   0.287E-01    0.185E-01
DAV:   6    -0.623476999221E+02   -0.16052E-03   -0.16865E-03   424   0.230E-01    0.222E-01
DAV:   7    -0.623475784279E+02    0.12149E-03   -0.15668E-03   440   0.214E-01    0.154E-01
DAV:   8    -0.623475382101E+02    0.40218E-04   -0.71532E-04   280   0.153E-01
  16 F= -.62347538E+02 E0= -.62362177E+02  d E =-.410416E-02  mag=     8.2526
       N       E                     dE             d eps       ncg     rms          rms(c)
DAV:   1    -0.623471701888E+02    0.40824E-03   -0.35725E-01   424   0.156E+00    0.124E-01
DAV:   2    -0.623478613130E+02   -0.69112E-03   -0.68770E-03   424   0.364E-01    0.248E-01
DAV:   3    -0.623476441859E+02    0.21713E-03   -0.17672E-03   416   0.282E-01    0.986E-02
DAV:   4    -0.623476914388E+02   -0.47253E-04   -0.42435E-04   248   0.121E-01
  17 F= -.62347691E+02 E0= -.62362533E+02  d E =-.425739E-02  mag=     8.2536
       N       E                     dE             d eps       ncg     rms          rms(c)
DAV:   1    -0.623436581296E+02    0.39861E-02   -0.47950E+00   416   0.571E+00    0.365E-01
DAV:   2    -0.623532692208E+02   -0.96111E-02   -0.88681E-02   440   0.120E+00    0.929E-01
DAV:   3    -0.623498987064E+02    0.33705E-02   -0.25432E-02   424   0.863E-01    0.338E-01
DAV:   4    -0.623501131377E+02   -0.21443E-03   -0.48516E-03   416   0.382E-01    0.246E-01
DAV:   5    -0.623499500445E+02    0.16309E-03   -0.12682E-03   400   0.219E-01    0.153E-01
DAV:   6    -0.623499634718E+02   -0.13427E-04   -0.90184E-04   336   0.173E-01
  18 F= -.62349963E+02 E0= -.62364655E+02  d E =-.227203E-02  mag=     8.2548
       N       E                     dE             d eps       ncg     rms          rms(c)
DAV:   1    -0.623487548388E+02    0.11952E-02   -0.99213E-01   440   0.261E+00    0.196E-01
DAV:   2    -0.623511525569E+02   -0.23977E-02   -0.19273E-02   424   0.619E-01    0.539E-01
DAV:   3    -0.623498710006E+02    0.12816E-02   -0.66902E-03   416   0.496E-01    0.163E-01
DAV:   4    -0.623500998943E+02   -0.22889E-03   -0.14838E-03   416   0.192E-01    0.150E-01
DAV:   5    -0.623500249186E+02    0.74976E-04   -0.37179E-04   264   0.117E-01
  19 F= -.62350025E+02 E0= -.62364564E+02  d E =-.233348E-02  mag=     8.2552
       N       E                     dE             d eps       ncg     rms          rms(c)
DAV:   1    -0.623454994706E+02    0.46004E-02   -0.42196E+00   416   0.536E+00    0.329E-01
DAV:   2    -0.623523065673E+02   -0.68071E-02   -0.69474E-02   432   0.100E+00    0.619E-01
DAV:   3    -0.623512887923E+02    0.10178E-02   -0.14145E-02   424   0.679E-01    0.346E-01
DAV:   4    -0.623512294985E+02    0.59294E-04   -0.48652E-03   424   0.361E-01    0.235E-01
DAV:   5    -0.623510508796E+02    0.17862E-03   -0.13292E-03   400   0.204E-01    0.142E-01
DAV:   6    -0.623511637561E+02   -0.11288E-03   -0.90800E-04   368   0.169E-01    0.153E-01
DAV:   7    -0.623511205095E+02    0.43247E-04   -0.84050E-04   408   0.161E-01
  20 F= -.62351121E+02 E0= -.62365734E+02  d E =-.109559E-02  mag=     8.2528
       N       E                     dE             d eps       ncg     rms          rms(c)
DAV:   1    -0.623510960917E+02    0.67664E-04   -0.43953E-02   440   0.555E-01    0.464E-02
DAV:   2    -0.623512823378E+02   -0.18625E-03   -0.10113E-03   440   0.165E-01    0.133E-01
DAV:   3    -0.623511876611E+02    0.94677E-04   -0.34034E-04   256   0.125E-01
  21 F= -.62351188E+02 E0= -.62365851E+02  d E =-.116274E-02  mag=     8.2523
       N       E                     dE             d eps       ncg     rms          rms(c)
DAV:   1    -0.623500676616E+02    0.12147E-02   -0.15270E+00   416   0.322E+00    0.218E-01
DAV:   2    -0.623530079390E+02   -0.29403E-02   -0.28377E-02   424   0.706E-01    0.500E-01
DAV:   3    -0.623519982726E+02    0.10097E-02   -0.68932E-03   424   0.510E-01    0.185E-01
DAV:   4    -0.623521809523E+02   -0.18268E-03   -0.16611E-03   424   0.226E-01    0.152E-01
DAV:   5    -0.623521104237E+02    0.70529E-04   -0.53719E-04   264   0.134E-01
  22 F= -.62352110E+02 E0= -.62367245E+02  d E =-.922763E-03  mag=     8.2524
       N       E                     dE             d eps       ncg     rms          rms(c)
DAV:   1    -0.623517916730E+02    0.38928E-03   -0.38352E-01   416   0.161E+00    0.125E-01
DAV:   2    -0.623527162073E+02   -0.92453E-03   -0.74124E-03   432   0.377E-01    0.343E-01
DAV:   3    -0.623521364049E+02    0.57980E-03   -0.25209E-03   432   0.292E-01    0.891E-02
DAV:   4    -0.623522942230E+02   -0.15782E-03   -0.36759E-04   264   0.102E-01    0.902E-02
DAV:   5    -0.623522869864E+02    0.72366E-05   -0.28661E-04   264   0.999E-02
  23 F= -.62352287E+02 E0= -.62367689E+02  d E =-.109933E-02  mag=     8.2527
       N       E                     dE             d eps       ncg     rms          rms(c)
DAV:   1    -0.623507658953E+02    0.15283E-02   -0.14977E+00   432   0.319E+00    0.193E-01
DAV:   2    -0.623528889952E+02   -0.21231E-02   -0.23811E-02   432   0.587E-01    0.288E-01
DAV:   3    -0.623527266395E+02    0.16236E-03   -0.32273E-03   424   0.362E-01    0.140E-01
DAV:   4    -0.623527356601E+02   -0.90206E-05   -0.72450E-04   352   0.154E-01
  24 F= -.62352736E+02 E0= -.62368696E+02  d E =-.448674E-03  mag=     8.2544
       N       E                     dE             d eps       ncg     rms          rms(c)
DAV:   1    -0.623526802213E+02    0.46418E-04   -0.84327E-03   432   0.260E-01    0.936E-02
DAV:   2    -0.623532116665E+02   -0.53145E-03   -0.27885E-03   448   0.294E-01    0.326E-01
DAV:   3    -0.623525774415E+02    0.63422E-03   -0.20950E-03   368   0.254E-01    0.631E-02
DAV:   4    -0.623526883119E+02   -0.11087E-03   -0.22250E-04   256   0.807E-02    0.542E-02
DAV:   5    -0.623526893588E+02   -0.10469E-05   -0.11068E-04   280   0.575E-02
  25 F= -.62352689E+02 E0= -.62368516E+02  d E =-.402372E-03  mag=     8.2561
