 vasp.6.1.2 22Jul20 (build Aug  2 2021 21:04:21) gamma-only                      
 executed on             LinuxPGI date 2021.12.14  09:53:14
 running on   16 total cores
 distrk:  each k-point on   16 cores,    1 groups
 distr:  one band on NCORE=   8 cores,    2 groups


--------------------------------------------------------------------------------------------------------


 INCAR:
 POTCAR:    PAW_PBE Pd 04Jan2005                  
 -----------------------------------------------------------------------------
|                                                                             |
|           W    W    AA    RRRRR   N    N  II  N    N   GGGG   !!!           |
|           W    W   A  A   R    R  NN   N  II  NN   N  G    G  !!!           |
|           W    W  A    A  R    R  N N  N  II  N N  N  G       !!!           |
|           W WW W  AAAAAA  RRRRR   N  N N  II  N  N N  G  GGG   !            |
|           WW  WW  A    A  R   R   N   NN  II  N   NN  G    G                |
|           W    W  A    A  R    R  N    N  II  N    N   GGGG   !!!           |
|                                                                             |
|     You use a magnetic or noncollinear calculation, but did not specify     |
|     the initial magnetic moment with the MAGMOM tag. Note that a            |
|     default of 1 will be used for all atoms. This ferromagnetic setup       |
|     may break the symmetry of the crystal, in particular it may rule        |
|     out finding an antiferromagnetic solution. Thence, we recommend         |
|     setting the initial magnetic moment manually or verifying carefully     |
|     that this magnetic setup is desired.                                    |
|                                                                             |
 -----------------------------------------------------------------------------

 POTCAR:    PAW_PBE Pd 04Jan2005                  
   SHA256 =  dd6f6f02930356371984e2b707ff5e456046761dc76b07c1eba30abd15eb3c39 Pd/POTCAR             
   COPYR  = (c) Copyright 04Jan2005 Georg Kresse                                                    
   COPYR  = This file is part of the software VASP. Any use, copying, and all other rights are regul
   COPYR  = If you do not have a valid VASP license, you may not use, copy or distribute this file. 
   VRHFIN =Pd : s1 d9                                                                               
   LEXCH  = PE                                                                                      
   EATOM  =   809.7530 eV,   59.5152 Ry                                                             
                                                                                                    
   TITEL  = PAW_PBE Pd 04Jan2005                                                                    
   LULTRA =        F    use ultrasoft PP ?                                                          
   IUNSCR =        1    unscreen: 0-lin 1-nonlin 2-no                                               
   RPACOR =    2.000    partial core radius                                                         
   POMASS =  106.420; ZVAL   =   10.000    mass and valenz                                          
   RCORE  =    2.600    outmost cutoff radius                                                       
   RWIGS  =    2.710; RWIGS  =    1.434    wigner-seitz radius (au A)                               
   ENMAX  =  250.925; ENMIN  =  188.194 eV                                                          
   ICORE  =        3    local potential                                                             
   LCOR   =        T    correct aug charges                                                         
   LPAW   =        T    paw PP                                                                      
   EAUG   =  416.230                                                                                
   DEXC   =    0.000                                                                                
   RMAX   =    2.653    core radius for proj-oper                                                   
   RAUG   =    1.300    factor for augmentation sphere                                              
   RDEP   =    2.734    radius for radial grids                                                     
   RDEPT  =    2.103    core radius for aug-charge                                                  
                                                                                                    
   Atomic configuration                                                                             
   12 entries                                                                                       
     n  l   j            E        occ.                                                              
     1  0  0.50    -24164.6631   2.0000                                                             
     2  0  0.50     -3530.9218   2.0000                                                             
     2  1  1.50     -3165.6822   6.0000                                                             
     3  0  0.50      -639.4577   2.0000                                                             
     3  1  1.50      -519.4532   6.0000                                                             
     3  2  2.50      -328.9757  10.0000                                                             
     4  0  0.50       -88.7014   2.0000                                                             
     4  1  1.50       -54.4540   6.0000                                                             
     4  2  2.50        -6.6878   9.0000                                                             
     5  0  0.50        -4.3543   1.0000                                                             
     5  1  0.50        -1.3606   0.0000                                                             
     4  3  2.50        -1.3606   0.0000                                                             
   Description                                                                                      
     l       E           TYP  RCUT    TYP  RCUT                                                     
     2     -6.6878251     23  2.400                                                                 
     2     -8.0484077     23  2.400                                                                 
     0     -4.3542939     23  2.400                                                                 
     0      4.3406793     23  2.400                                                                 
     1     -4.0817478     23  2.600                                                                 
     1     15.8380318     23  2.600                                                                 
     3     -4.0817478     23  2.400                                                                 
  local pseudopotential read in
  partial core-charges read in
  partial kinetic energy density read in
  atomic valenz-charges read in
  non local Contribution for L=            2  read in
    real space projection operators read in
  non local Contribution for L=            2  read in
    real space projection operators read in
  non local Contribution for L=            0  read in
    real space projection operators read in
  non local Contribution for L=            0  read in
    real space projection operators read in
  non local Contribution for L=            1  read in
    real space projection operators read in
  non local Contribution for L=            1  read in
    real space projection operators read in
    PAW grid and wavefunctions read in
 
   number of l-projection  operators is LMAX  =            6
   number of lm-projection operators is LMMAX =           18
 
  PAW_PBE Pd 04Jan2005                  :
 energy of atom  1       EATOM= -809.7530
 kinetic energy error for atom=    0.0091 (will be added to EATOM!!)
 
 
 POSCAR: Pd
  positions in cartesian coordinates
  No initial velocities read in
 exchange correlation table for  LEXCH =        8
   RHO(1)=    0.500       N(1)  =     2000
   RHO(2)=  100.500       N(2)  =     4000
 


--------------------------------------------------------------------------------------------------------


 ion  position               nearest neighbor table
   1  0.521  0.592  0.586-   2 2.56   4 2.57   6 2.63   3 2.64   5 2.66   8 3.31
   2  0.457  0.528  0.639-   7 2.55   1 2.56   8 2.60   5 2.67
   3  0.605  0.533  0.549-   4 2.57  12 2.61   5 2.62   1 2.64   9 2.68
   4  0.581  0.625  0.505-   3 2.57   1 2.57  12 2.60   6 2.63
   5  0.503  0.495  0.544-   8 2.62   3 2.62  11 2.63   9 2.65   7 2.65   1 2.66  16 2.67   2 2.67
                             6 2.67  14 3.08  12 3.12
   6  0.482  0.584  0.485-  15 2.59  10 2.61   4 2.63   1 2.63  12 2.66   5 2.67   8 2.69  16 3.07

   7  0.423  0.439  0.595-   2 2.55  14 2.56   5 2.65  11 2.69   8 2.71
   8  0.403  0.536  0.546-   2 2.60   5 2.62  14 2.63  10 2.66   6 2.69   7 2.71   1 3.31
   9  0.584  0.442  0.493-  13 2.54  12 2.64   5 2.65  11 2.68   3 2.68  16 2.72
  10  0.401  0.533  0.436-  15 2.59  14 2.59   6 2.61   8 2.66  16 2.67
  11  0.489  0.391  0.520-  13 2.54  14 2.62   5 2.63   9 2.68   7 2.69  16 2.76
  12  0.574  0.538  0.445-   4 2.60   3 2.61  15 2.62   9 2.64  16 2.65   6 2.66   5 3.12
  13  0.537  0.376  0.428-  11 2.54   9 2.54  16 2.58
  14  0.398  0.444  0.492-   7 2.56  10 2.59  11 2.62   8 2.63  16 2.63   5 3.08
  15  0.489  0.559  0.381-  10 2.59   6 2.59  16 2.60  12 2.62
  16  0.490  0.469  0.438-  13 2.58  15 2.60  14 2.63  12 2.65  10 2.67   5 2.67   9 2.72  11 2.76
                             6 3.07
 

IMPORTANT INFORMATION: All symmetrisations will be switched off!
NOSYMM: (Re-)initialisation of all symmetry stuff for point group C_1.


----------------------------------------------------------------------------------------

                                     Primitive cell                                     

  volume of cell :   14322.3285

  direct lattice vectors                    reciprocal lattice vectors
    23.992030935  0.000000000  0.000000000     0.041680506  0.000000000  0.000000000
     0.000000000 24.693249681  0.000000000     0.000000000  0.040496897  0.000000000
     0.000000000  0.000000000 24.175105105     0.000000000  0.000000000  0.041364867

  length of vectors
    23.992030935 24.693249681 24.175105105     0.041680506  0.040496897  0.041364867

  position of ions in fractional coordinates (direct lattice)
     0.521412551  0.592207224  0.586429484
     0.456633900  0.527613784  0.638593963
     0.604934114  0.533121801  0.549093492
     0.581388242  0.625072734  0.504781489
     0.503201782  0.494500681  0.543998309
     0.482468280  0.583855457  0.484968098
     0.423428825  0.439465538  0.595011905
     0.402723840  0.536154989  0.545904335
     0.584400101  0.441772168  0.493007228
     0.400646090  0.533219980  0.436126166
     0.489331650  0.391448412  0.519700978
     0.574251326  0.537742393  0.445492379
     0.537319694  0.375569496  0.427515162
     0.398443057  0.443753071  0.492062370
     0.489265921  0.558581970  0.381072320
     0.489912139  0.468927628  0.437526808

  ion indices of the primitive-cell ions
   primitive index   ion index
                 1           1
                 2           2
                 3           3
                 4           4
                 5           5
                 6           6
                 7           7
                 8           8
                 9           9
                10          10
                11          11
                12          12
                13          13
                14          14
                15          15
                16          16

----------------------------------------------------------------------------------------

 
 
 KPOINTS: KPOINTS created by Atomic Simulation Env

Automatic generation of k-mesh.
Space group operators:
 irot       det(A)        alpha          n_x          n_y          n_z        tau_x        tau_y        tau_z
    1     1.000000     0.000000     1.000000     0.000000     0.000000     0.000000     0.000000     0.000000
 
 Subroutine IBZKPT returns following result:
 ===========================================
 
 Found      1 irreducible k-points:
 
 Following reciprocal coordinates:
            Coordinates               Weight
  0.000000  0.000000  0.000000      1.000000
 
 Following cartesian coordinates:
            Coordinates               Weight
  0.000000  0.000000  0.000000      1.000000
 


--------------------------------------------------------------------------------------------------------




 Dimension of arrays:
   k-points           NKPTS =      1   k-points in BZ     NKDIM =      1   number of bands    NBANDS=    104
   number of dos      NEDOS =    301   number of ions     NIONS =     16
   non local maximal  LDIM  =      6   non local SUM 2l+1 LMDIM =     18
   total plane-waves  NPLWV = ******
   max r-space proj   IRMAX =      1   max aug-charges    IRDMAX=   6344
   dimension x,y,z NGX =   120 NGY =  126 NGZ =  120
   dimension x,y,z NGXF=   240 NGYF=  252 NGZF=  240
   support grid    NGXF=   240 NGYF=  252 NGZF=  240
   ions per type =              16
   NGX,Y,Z   is equivalent  to a cutoff of   8.32,  8.48,  8.25 a.u.
   NGXF,Y,Z  is equivalent  to a cutoff of  16.63, 16.97, 16.50 a.u.

 SYSTEM =  unknown system                          
 POSCAR =  Pd                                      

 Startparameter for this run:
   NWRITE =      2    write-flag & timer
   PREC   = normal    normal or accurate (medium, high low for compatibility)
   ISTART =      0    job   : 0-new  1-cont  2-samecut
   ICHARG =      2    charge: 1-file 2-atom 10-const
   ISPIN  =      2    spin polarized calculation?
   LNONCOLLINEAR =      F non collinear calculations
   LSORBIT =      F    spin-orbit coupling
   INIWAV =      1    electr: 0-lowe 1-rand  2-diag
   LASPH  =      F    aspherical Exc in radial PAW
   METAGGA=      F    non-selfconsistent MetaGGA calc.

 Electronic Relaxation 1
   ENCUT  =  400.0 eV  29.40 Ry    5.42 a.u.  39.12 40.27 39.42*2*pi/ulx,y,z
   ENINI  =  400.0     initial cutoff
   ENAUG  =  416.2 eV  augmentation charge cutoff
   NELM   =     60;   NELMIN=  2; NELMDL=  0     # of ELM steps 
   EDIFF  = 0.1E-03   stopping-criterion for ELM
   LREAL  =      F    real-space projection
   NLSPLINE    = F    spline interpolate recip. space projectors
   LCOMPAT=      F    compatible to vasp.4.4
   GGA_COMPAT  = T    GGA compatible to vasp.4.4-vasp.4.6
   LMAXPAW     = -100 max onsite density
   LMAXMIX     =    2 max onsite mixed and CHGCAR
   VOSKOWN=      0    Vosko Wilk Nusair interpolation
   ROPT   =    0.00000
 Ionic relaxation
   EDIFFG = 0.1E-02   stopping-criterion for IOM
   NSW    =   1000    number of steps for IOM
   NBLOCK =      1;   KBLOCK =   1000    inner block; outer block 
   IBRION =      2    ionic relax: 0-MD 1-quasi-New 2-CG
   NFREE  =      1    steps in history (QN), initial steepest desc. (CG)
   ISIF   =      0    stress and relaxation
   IWAVPR =     11    prediction:  0-non 1-charg 2-wave 3-comb
   ISYM   =      0    0-nonsym 1-usesym 2-fastsym
   LCORR  =      T    Harris-Foulkes like correction to forces

   POTIM  = 0.5000    time-step for ionic-motion
   TEIN   =    0.0    initial temperature
   TEBEG  =    0.0;   TEEND  =   0.0 temperature during run
   SMASS  =  -3.00    Nose mass-parameter (am)
   estimated Nose-frequenzy (Omega)   =  0.10E-29 period in steps = 0.13E+47 mass=  -0.132E-25a.u.
   SCALEE = 1.0000    scale energy and forces
   NPACO  =    256;   APACO  = 16.0  distance and # of slots for P.C.
   PSTRESS=    0.0 pullay stress

  Mass of Ions in am
   POMASS = 106.42
  Ionic Valenz
   ZVAL   =  10.00
  Atomic Wigner-Seitz radii
   RWIGS  =  -1.00
  virtual crystal weights 
   VCA    =   1.00
   NELECT =     160.0000    total number of electrons
   NUPDOWN=      -1.0000    fix difference up-down

 DOS related values:
   EMIN   =  10.00;   EMAX   =-10.00  energy-range for DOS
   EFERMI =   0.00
   ISMEAR =     1;   SIGMA  =   0.20  broadening in eV -4-tet -1-fermi 0-gaus

 Electronic relaxation 2 (details)
   IALGO  =     38    algorithm
   LDIAG  =      T    sub-space diagonalisation (order eigenvalues)
   LSUBROT=      F    optimize rotation matrix (better conditioning)
   TURBO    =      0    0=normal 1=particle mesh
   IRESTART =      0    0=no restart 2=restart with 2 vectors
   NREBOOT  =      0    no. of reboots
   NMIN     =      0    reboot dimension
   EREF     =   0.00    reference energy to select bands
   IMIX   =      4    mixing-type and parameters
     AMIX     =   0.40;   BMIX     =  1.00
     AMIX_MAG =   1.60;   BMIX_MAG =  1.00
     AMIN     =   0.10
     WC   =   100.;   INIMIX=   1;  MIXPRE=   1;  MAXMIX= -45

 Intra band minimization:
   WEIMIN = 0.0010     energy-eigenvalue tresh-hold
   EBREAK =  0.24E-06  absolut break condition
   DEPER  =   0.30     relativ break condition  

   TIME   =   0.40     timestep for ELM

  volume/ion in A,a.u.               =     895.15      6040.74
  Fermi-wavevector in a.u.,A,eV,Ry     =   0.365968  0.691580  1.822268  0.133933
  Thomas-Fermi vector in A             =   1.289958
 
 Write flags
   LWAVE        =      F    write WAVECAR
   LDOWNSAMPLE  =      F    k-point downsampling of WAVECAR
   LCHARG       =      F    write CHGCAR
   LVTOT        =      F    write LOCPOT, total local potential
   LVHAR        =      F    write LOCPOT, Hartree potential only
   LELF         =      F    write electronic localiz. function (ELF)
   LORBIT       =      0    0 simple, 1 ext, 2 COOP (PROOUT), +10 PAW based schemes


 Dipole corrections
   LMONO  =      F    monopole corrections only (constant potential shift)
   LDIPOL =      F    correct potential (dipole corrections)
   IDIPOL =      0    1-x, 2-y, 3-z, 4-all directions 
   EPSILON=  1.0000000 bulk dielectric constant

 Exchange correlation treatment:
   GGA     =    PE    GGA type
   LEXCH   =     8    internal setting for exchange type
   VOSKOWN=      0    Vosko Wilk Nusair interpolation
   LHFCALC =     F    Hartree Fock is set to
   LHFONE  =     F    Hartree Fock one center treatment
   AEXX    =    0.0000 exact exchange contribution

 Linear response parameters
   LEPSILON=     F    determine dielectric tensor
   LRPA    =     F    only Hartree local field effects (RPA)
   LNABLA  =     F    use nabla operator in PAW spheres
   LVEL    =     F    velocity operator in full k-point grid
   LINTERFAST=   F  fast interpolation
   KINTER  =     0    interpolate to denser k-point grid
   CSHIFT  =0.1000    complex shift for real part using Kramers Kronig
   OMEGAMAX=  -1.0    maximum frequency
   DEG_THRESHOLD= 0.2000000E-02 threshold for treating states as degnerate
   RTIME   =   -0.100 relaxation time in fs
  (WPLASMAI=    0.000 imaginary part of plasma frequency in eV, 0.658/RTIME)
   DFIELD  = 0.0000000 0.0000000 0.0000000 field for delta impulse in time
 
 Orbital magnetization related:
   ORBITALMAG=     F  switch on orbital magnetization
   LCHIMAG   =     F  perturbation theory with respect to B field
   DQ        =  0.001000  dq finite difference perturbation B field
   LLRAUG    =     F  two centre corrections for induced B field



--------------------------------------------------------------------------------------------------------


 conjugate gradient relaxation of ions
 charge density and potential will be updated during run
 spin polarized calculation
 Variant of blocked Davidson
 Davidson routine will perform the subspace rotation
 perform sub-space diagonalisation
    after iterative eigenvector-optimisation
 modified Broyden-mixing scheme, WC =      100.0
 initial mixing is a Kerker type mixing with AMIX =  0.4000 and BMIX =      1.0000
 Hartree-type preconditioning will be used
 using additional bands            24
 reciprocal scheme for non local part
 use partial core corrections
 calculate Harris-corrections to forces 
   (improved forces if not selfconsistent)
 use gradient corrections 
 use of overlap-Matrix (Vanderbilt PP)
 Methfessel and Paxton  Order N= 1 SIGMA  =   0.20


--------------------------------------------------------------------------------------------------------


  energy-cutoff  :      400.00
  volume of cell :    14322.33
      direct lattice vectors                 reciprocal lattice vectors
    23.992030935  0.000000000  0.000000000     0.041680506  0.000000000  0.000000000
     0.000000000 24.693249681  0.000000000     0.000000000  0.040496897  0.000000000
     0.000000000  0.000000000 24.175105105     0.000000000  0.000000000  0.041364867

  length of vectors
    23.992030935 24.693249681 24.175105105     0.041680506  0.040496897  0.041364867


 
 k-points in units of 2pi/SCALE and weight: KPOINTS created by Atomic Simulation Env
   0.00000000  0.00000000  0.00000000       1.000
 
 k-points in reciprocal lattice and weights: KPOINTS created by Atomic Simulation Env
   0.00000000  0.00000000  0.00000000       1.000
 
 position of ions in fractional coordinates (direct lattice) 
   0.52141255  0.59220722  0.58642948
   0.45663390  0.52761378  0.63859396
   0.60493411  0.53312180  0.54909349
   0.58138824  0.62507273  0.50478149
   0.50320178  0.49450068  0.54399831
   0.48246828  0.58385546  0.48496810
   0.42342883  0.43946554  0.59501190
   0.40272384  0.53615499  0.54590433
   0.58440010  0.44177217  0.49300723
   0.40064609  0.53321998  0.43612617
   0.48933165  0.39144841  0.51970098
   0.57425133  0.53774239  0.44549238
   0.53731969  0.37556950  0.42751516
   0.39844306  0.44375307  0.49206237
   0.48926592  0.55858197  0.38107232
   0.48991214  0.46892763  0.43752681
 
 position of ions in cartesian coordinates  (Angst):
  12.50974605 14.62352084 14.17699441
  10.95557466 13.02849892 15.43807619
  14.51359798 13.16450974 13.27439288
  13.94868470 15.43507709 12.20314555
  12.07283273 12.21082879 13.15121629
  11.57539391 14.41728859 11.72415475
  10.15891747 10.85183225 14.38447534
   9.66216282 13.23940901 13.19729467
  14.02094530 10.90879044 11.91850155
   9.61231339 13.16693410 10.54339590
  11.74006008  9.66613338 12.56382576
  13.77745558 13.27860718 10.76982509
  12.89139072  9.27403133 10.33522398
   9.55945816 10.95770539 11.89565950
  11.73848312 13.79320404  9.21246340
  11.75398720 11.57934700 10.57725658
 


--------------------------------------------------------------------------------------------------------


 use parallel FFT for orbitals z direction half grid
 k-point   1 :   0.0000 0.0000 0.0000  plane waves:  130125

 maximum and minimum number of plane-waves per node :     16270    16257

 maximum number of plane-waves:    130125
 maximum index in each direction: 
   IXMAX=   39   IYMAX=   40   IZMAX=   39
   IXMIN=  -39   IYMIN=  -40   IZMIN=    0


 parallel 3D FFT for wavefunctions:
    minimum data exchange during FFTs selected (reduces bandwidth)
 parallel 3D FFT for charge:
    minimum data exchange during FFTs selected (reduces bandwidth)


 total amount of memory used by VASP MPI-rank0   183163. kBytes
=======================================================================

   base      :      30000. kBytes
   nonl-proj :       6504. kBytes
   fftplans  :      35590. kBytes
   grid      :      83952. kBytes
   one-center:         31. kBytes
   wavefun   :      27086. kBytes
 
     INWAV:  cpu time    0.0000: real time    0.0000
 Broyden mixing: mesh for mixing (old mesh)
   NGX = 79   NGY = 81   NGZ = 79
  (NGX  =240   NGY  =252   NGZ  =240)
  gives a total of 505521 points

 initial charge density was supplied:
 charge density of overlapping atoms calculated
 number of electron     160.0000000 magnetization      16.0000000
 keeping initial charge density in first step


--------------------------------------------------------------------------------------------------------


 Maximum index for augmentation-charges           399 (set IRDMAX)


--------------------------------------------------------------------------------------------------------


 First call to EWALD:  gamma=   0.073
 Maximum number of real-space cells 3x 3x 3
 Maximum number of reciprocal cells 3x 3x 3

    FEWALD:  cpu time    0.0027: real time    0.0027


--------------------------------------- Iteration      1(   1)  ---------------------------------------


    POTLOK:  cpu time    3.1794: real time    3.1951
    SETDIJ:  cpu time    0.0272: real time    0.0272
     EDDAV:  cpu time   15.9154: real time   15.9423
       DOS:  cpu time    0.0040: real time    0.0040
    --------------------------------------------
      LOOP:  cpu time   19.1259: real time   19.1687

 eigenvalue-minimisations  :   416
 total energy-change (2. order) : 0.1428406E+04  (-0.2719168E+04)
 number of electron     160.0000000 magnetization      16.0000000
 augmentation part      160.0000000 magnetization      16.0000000

 Free energy of the ion-electron system (eV)
  ---------------------------------------------------
  alpha Z        PSCENC =        11.64954258
  Ewald energy   TEWEN  =     26595.67297897
  -Hartree energ DENC   =    -38892.71712092
  -exchange      EXHF   =         0.00000000
  -V(xc)+E(xc)   XCENC  =      -479.52374935
  PAW double counting   =     12906.36685261   -11910.91650437
  entropy T*S    EENTRO =         0.04157482
  eigenvalues    EBANDS =       241.93048426
  atomic energy  EATOM  =     12955.90228127
  Solvation  Ediel_sol  =         0.00000000
  ---------------------------------------------------
  free energy    TOTEN  =      1428.40633987 eV

  energy without entropy =     1428.36476505  energy(sigma->0) =     1428.39248160


--------------------------------------------------------------------------------------------------------




--------------------------------------- Iteration      1(   2)  ---------------------------------------


     EDDAV:  cpu time   26.8440: real time   26.8757
       DOS:  cpu time    0.0058: real time    0.0058
    --------------------------------------------
      LOOP:  cpu time   26.8498: real time   26.8815

 eigenvalue-minimisations  :   800
 total energy-change (2. order) :-0.6917756E+03  (-0.6207869E+03)
 number of electron     160.0000000 magnetization      16.0000000
 augmentation part      160.0000000 magnetization      16.0000000

 Free energy of the ion-electron system (eV)
  ---------------------------------------------------
  alpha Z        PSCENC =        11.64954258
  Ewald energy   TEWEN  =     26595.67297897
  -Hartree energ DENC   =    -38892.71712092
  -exchange      EXHF   =         0.00000000
  -V(xc)+E(xc)   XCENC  =      -479.52374935
  PAW double counting   =     12906.36685261   -11910.91650437
  entropy T*S    EENTRO =        -0.03955563
  eigenvalues    EBANDS =      -449.76397188
  atomic energy  EATOM  =     12955.90228127
  Solvation  Ediel_sol  =         0.00000000
  ---------------------------------------------------
  free energy    TOTEN  =       736.63075328 eV

  energy without entropy =      736.67030891  energy(sigma->0) =      736.64393849


--------------------------------------------------------------------------------------------------------




--------------------------------------- Iteration      1(   3)  ---------------------------------------


     EDDAV:  cpu time   23.6072: real time   23.6353
       DOS:  cpu time    0.0017: real time    0.0017
    --------------------------------------------
      LOOP:  cpu time   23.6089: real time   23.6371

 eigenvalue-minimisations  :   688
 total energy-change (2. order) :-0.6002916E+03  (-0.5613480E+03)
 number of electron     160.0000000 magnetization      16.0000000
 augmentation part      160.0000000 magnetization      16.0000000

 Free energy of the ion-electron system (eV)
  ---------------------------------------------------
  alpha Z        PSCENC =        11.64954258
  Ewald energy   TEWEN  =     26595.67297897
  -Hartree energ DENC   =    -38892.71712092
  -exchange      EXHF   =         0.00000000
  -V(xc)+E(xc)   XCENC  =      -479.52374935
  PAW double counting   =     12906.36685261   -11910.91650437
  entropy T*S    EENTRO =         0.01805091
  eigenvalues    EBANDS =     -1050.11315495
  atomic energy  EATOM  =     12955.90228127
  Solvation  Ediel_sol  =         0.00000000
  ---------------------------------------------------
  free energy    TOTEN  =       136.33917676 eV

  energy without entropy =      136.32112585  energy(sigma->0) =      136.33315979


--------------------------------------------------------------------------------------------------------




--------------------------------------- Iteration      1(   4)  ---------------------------------------


     EDDAV:  cpu time   20.2826: real time   20.3101
       DOS:  cpu time    0.0036: real time    0.0036
    --------------------------------------------
      LOOP:  cpu time   20.2862: real time   20.3137

 eigenvalue-minimisations  :   568
 total energy-change (2. order) :-0.1766867E+03  (-0.1599292E+03)
 number of electron     160.0000000 magnetization      16.0000000
 augmentation part      160.0000000 magnetization      16.0000000

 Free energy of the ion-electron system (eV)
  ---------------------------------------------------
  alpha Z        PSCENC =        11.64954258
  Ewald energy   TEWEN  =     26595.67297897
  -Hartree energ DENC   =    -38892.71712092
  -exchange      EXHF   =         0.00000000
  -V(xc)+E(xc)   XCENC  =      -479.52374935
  PAW double counting   =     12906.36685261   -11910.91650437
  entropy T*S    EENTRO =         0.00868641
  eigenvalues    EBANDS =     -1226.79047238
  atomic energy  EATOM  =     12955.90228127
  Solvation  Ediel_sol  =         0.00000000
  ---------------------------------------------------
  free energy    TOTEN  =       -40.34750517 eV

  energy without entropy =      -40.35619158  energy(sigma->0) =      -40.35040064


--------------------------------------------------------------------------------------------------------




--------------------------------------- Iteration      1(   5)  ---------------------------------------


     EDDAV:  cpu time   20.2555: real time   20.2802
       DOS:  cpu time    0.0035: real time    0.0035
    CHARGE:  cpu time    1.1414: real time    1.1426
    MIXING:  cpu time    0.0462: real time    0.0462
    --------------------------------------------
      LOOP:  cpu time   21.4467: real time   21.4726

 eigenvalue-minimisations  :   568
 total energy-change (2. order) :-0.2387416E+02  (-0.1852645E+02)
 number of electron     159.9999947 magnetization      15.0283930
 augmentation part       67.5769315 magnetization      12.4309259

 Broyden mixing:
  rms(total) = 0.26403E+01    rms(broyden)= 0.26402E+01
  rms(prec ) = 0.26895E+01
  weight for this iteration     100.00

 Free energy of the ion-electron system (eV)
  ---------------------------------------------------
  alpha Z        PSCENC =        11.64954258
  Ewald energy   TEWEN  =     26595.67297897
  -Hartree energ DENC   =    -38892.71712092
  -exchange      EXHF   =         0.00000000
  -V(xc)+E(xc)   XCENC  =      -479.52374935
  PAW double counting   =     12906.36685261   -11910.91650437
  entropy T*S    EENTRO =        -0.01730531
  eigenvalues    EBANDS =     -1250.63864271
  atomic energy  EATOM  =     12955.90228127
  Solvation  Ediel_sol  =         0.00000000
  ---------------------------------------------------
  free energy    TOTEN  =       -64.22166723 eV

  energy without entropy =      -64.20436191  energy(sigma->0) =      -64.21589879


--------------------------------------------------------------------------------------------------------




--------------------------------------- Iteration      1(   6)  ---------------------------------------


    POTLOK:  cpu time    3.1796: real time    3.1846
    SETDIJ:  cpu time    0.0280: real time    0.0281
     EDDAV:  cpu time   16.1605: real time   16.1851
       DOS:  cpu time    0.0029: real time    0.0029
    CHARGE:  cpu time    1.1065: real time    1.1098
    MIXING:  cpu time    0.0518: real time    0.0519
    --------------------------------------------
      LOOP:  cpu time   20.5294: real time   20.5624

 eigenvalue-minimisations  :   424
 total energy-change (2. order) : 0.9430225E+01  (-0.3761258E+01)
 number of electron     159.9999947 magnetization      14.3427594
 augmentation part       68.6520997 magnetization       9.3601623

 Broyden mixing:
  rms(total) = 0.14549E+01    rms(broyden)= 0.14548E+01
  rms(prec ) = 0.15189E+01
  weight for this iteration     100.00

 eigenvalues of (default mixing * dielectric matrix)
  average eigenvalue GAMMA=   0.8520
  0.8520

 Free energy of the ion-electron system (eV)
  ---------------------------------------------------
  alpha Z        PSCENC =        11.64954258
  Ewald energy   TEWEN  =     26595.67297897
  -Hartree energ DENC   =    -38954.43166497
  -exchange      EXHF   =         0.00000000
  -V(xc)+E(xc)   XCENC  =      -474.94258333
  PAW double counting   =     13840.00730747   -12855.73571454
  entropy T*S    EENTRO =         0.04002705
  eigenvalues    EBANDS =     -1172.95361637
  atomic energy  EATOM  =     12955.90228127
  Solvation  Ediel_sol  =         0.00000000
  ---------------------------------------------------
  free energy    TOTEN  =       -54.79144186 eV

  energy without entropy =      -54.83146891  energy(sigma->0) =      -54.80478421


--------------------------------------------------------------------------------------------------------




--------------------------------------- Iteration      1(   7)  ---------------------------------------


    POTLOK:  cpu time    3.1807: real time    3.1872
    SETDIJ:  cpu time    0.0271: real time    0.0271
     EDDAV:  cpu time   16.8536: real time   16.8775
       DOS:  cpu time    0.0023: real time    0.0023
    CHARGE:  cpu time    1.1390: real time    1.1402
    MIXING:  cpu time    0.0547: real time    0.0548
    --------------------------------------------
      LOOP:  cpu time   21.2574: real time   21.2890

 eigenvalue-minimisations  :   448
 total energy-change (2. order) :-0.2300796E-01  (-0.2301852E+01)
 number of electron     159.9999947 magnetization      13.7619957
 augmentation part       67.9152798 magnetization      10.5049869

 Broyden mixing:
  rms(total) = 0.23211E+01    rms(broyden)= 0.23209E+01
  rms(prec ) = 0.25651E+01
  weight for this iteration     100.00

 eigenvalues of (default mixing * dielectric matrix)
  average eigenvalue GAMMA=   0.7609
  1.1856  0.3362

 Free energy of the ion-electron system (eV)
  ---------------------------------------------------
  alpha Z        PSCENC =        11.64954258
  Ewald energy   TEWEN  =     26595.67297897
  -Hartree energ DENC   =    -39026.70861353
  -exchange      EXHF   =         0.00000000
  -V(xc)+E(xc)   XCENC  =      -470.03952872
  PAW double counting   =     14398.07391387   -13418.02648130
  entropy T*S    EENTRO =         0.02405025
  eigenvalues    EBANDS =     -1101.36259321
  atomic energy  EATOM  =     12955.90228127
  Solvation  Ediel_sol  =         0.00000000
  ---------------------------------------------------
  free energy    TOTEN  =       -54.81444982 eV

  energy without entropy =      -54.83850007  energy(sigma->0) =      -54.82246657


--------------------------------------------------------------------------------------------------------




--------------------------------------- Iteration      1(   8)  ---------------------------------------


    POTLOK:  cpu time    3.1629: real time    3.1691
    SETDIJ:  cpu time    0.0279: real time    0.0279
     EDDAV:  cpu time   16.8628: real time   16.8863
       DOS:  cpu time    0.0031: real time    0.0031
    CHARGE:  cpu time    1.1346: real time    1.1359
    MIXING:  cpu time    0.0583: real time    0.0594
    --------------------------------------------
      LOOP:  cpu time   21.2495: real time   21.2817

 eigenvalue-minimisations  :   448
 total energy-change (2. order) : 0.5159088E+01  (-0.2408340E+01)
 number of electron     159.9999947 magnetization      13.4970652
 augmentation part       68.0299687 magnetization       9.2557502

 Broyden mixing:
  rms(total) = 0.14139E+01    rms(broyden)= 0.14136E+01
  rms(prec ) = 0.15752E+01
  weight for this iteration     100.00

 eigenvalues of (default mixing * dielectric matrix)
  average eigenvalue GAMMA=   0.6749
  1.3509  0.3913  0.2826

 Free energy of the ion-electron system (eV)
  ---------------------------------------------------
  alpha Z        PSCENC =        11.64954258
  Ewald energy   TEWEN  =     26595.67297897
  -Hartree energ DENC   =    -39060.35903635
  -exchange      EXHF   =         0.00000000
  -V(xc)+E(xc)   XCENC  =      -468.39708038
  PAW double counting   =     14700.16243446   -13723.14107741
  entropy T*S    EENTRO =        -0.03478872
  eigenvalues    EBANDS =     -1061.11061644
  atomic energy  EATOM  =     12955.90228127
  Solvation  Ediel_sol  =         0.00000000
  ---------------------------------------------------
  free energy    TOTEN  =       -49.65536202 eV

  energy without entropy =      -49.62057330  energy(sigma->0) =      -49.64376578


--------------------------------------------------------------------------------------------------------




--------------------------------------- Iteration      1(   9)  ---------------------------------------


    POTLOK:  cpu time    3.1601: real time    3.1721
    SETDIJ:  cpu time    0.0281: real time    0.0282
     EDDAV:  cpu time   17.0503: real time   17.0720
       DOS:  cpu time    0.0023: real time    0.0023
    CHARGE:  cpu time    1.1422: real time    1.1478
    MIXING:  cpu time    0.0690: real time    0.0691
    --------------------------------------------
      LOOP:  cpu time   21.4520: real time   21.4914

 eigenvalue-minimisations  :   456
 total energy-change (2. order) : 0.1068016E+01  (-0.7175328E+00)
 number of electron     159.9999952 magnetization      13.1472092
 augmentation part       68.1982618 magnetization       8.5868723

 Broyden mixing:
  rms(total) = 0.90620E+00    rms(broyden)= 0.90592E+00
  rms(prec ) = 0.98361E+00
  weight for this iteration     100.00

 eigenvalues of (default mixing * dielectric matrix)
  average eigenvalue GAMMA=   0.6671
  1.5958  0.5941  0.2392  0.2392

 Free energy of the ion-electron system (eV)
  ---------------------------------------------------
  alpha Z        PSCENC =        11.64954258
  Ewald energy   TEWEN  =     26595.67297897
  -Hartree energ DENC   =    -39070.73773381
  -exchange      EXHF   =         0.00000000
  -V(xc)+E(xc)   XCENC  =      -468.57385996
  PAW double counting   =     14801.32802580   -13825.31258996
  entropy T*S    EENTRO =         0.03132141
  eigenvalues    EBANDS =     -1048.54731262
  atomic energy  EATOM  =     12955.90228127
  Solvation  Ediel_sol  =         0.00000000
  ---------------------------------------------------
  free energy    TOTEN  =       -48.58734631 eV

  energy without entropy =      -48.61866772  energy(sigma->0) =      -48.59778678


--------------------------------------------------------------------------------------------------------




--------------------------------------- Iteration      1(  10)  ---------------------------------------


    POTLOK:  cpu time    3.1593: real time    3.1626
    SETDIJ:  cpu time    0.0279: real time    0.0279
     EDDAV:  cpu time   17.0132: real time   17.0346
       DOS:  cpu time    0.0032: real time    0.0032
    CHARGE:  cpu time    1.1306: real time    1.1318
    MIXING:  cpu time    0.0719: real time    0.0720
    --------------------------------------------
      LOOP:  cpu time   21.4060: real time   21.4321

 eigenvalue-minimisations  :   456
 total energy-change (2. order) :-0.8772988E+00  (-0.3777825E+00)
 number of electron     159.9999948 magnetization      12.8432444
 augmentation part       68.1468030 magnetization       8.4801917

 Broyden mixing:
  rms(total) = 0.61956E+00    rms(broyden)= 0.61936E+00
  rms(prec ) = 0.67466E+00
  weight for this iteration     100.00

 eigenvalues of (default mixing * dielectric matrix)
  average eigenvalue GAMMA=   0.6406
  1.7341  0.6447  0.3101  0.3101  0.2038

 Free energy of the ion-electron system (eV)
  ---------------------------------------------------
  alpha Z        PSCENC =        11.64954258
  Ewald energy   TEWEN  =     26595.67297897
  -Hartree energ DENC   =    -39084.08035073
  -exchange      EXHF   =         0.00000000
  -V(xc)+E(xc)   XCENC  =      -469.36588771
  PAW double counting   =     14908.69360188   -13933.61942911
  entropy T*S    EENTRO =        -0.03132446
  eigenvalues    EBANDS =     -1034.28605779
  atomic energy  EATOM  =     12955.90228127
  Solvation  Ediel_sol  =         0.00000000
  ---------------------------------------------------
  free energy    TOTEN  =       -49.46464510 eV

  energy without entropy =      -49.43332064  energy(sigma->0) =      -49.45420361


--------------------------------------------------------------------------------------------------------




--------------------------------------- Iteration      1(  11)  ---------------------------------------


    POTLOK:  cpu time    3.1704: real time    3.1795
    SETDIJ:  cpu time    0.0281: real time    0.0281
     EDDAV:  cpu time   16.9312: real time   16.9572
       DOS:  cpu time    0.0043: real time    0.0043
    CHARGE:  cpu time    1.1383: real time    1.1395
    MIXING:  cpu time    0.0755: real time    0.0755
    --------------------------------------------
      LOOP:  cpu time   21.3478: real time   21.3842

 eigenvalue-minimisations  :   456
 total energy-change (2. order) :-0.9721107E+00  (-0.1186671E+00)
 number of electron     159.9999947 magnetization      12.6520896
 augmentation part       68.1513715 magnetization       8.1981283

 Broyden mixing:
  rms(total) = 0.47321E+00    rms(broyden)= 0.47310E+00
  rms(prec ) = 0.51465E+00
  weight for this iteration     100.00

 eigenvalues of (default mixing * dielectric matrix)
  average eigenvalue GAMMA=   0.5966
  1.7309  0.6419  0.5295  0.2527  0.2527  0.1723

 Free energy of the ion-electron system (eV)
  ---------------------------------------------------
  alpha Z        PSCENC =        11.64954258
  Ewald energy   TEWEN  =     26595.67297897
  -Hartree energ DENC   =    -39093.82386971
  -exchange      EXHF   =         0.00000000
  -V(xc)+E(xc)   XCENC  =      -470.09434755
  PAW double counting   =     14964.76944634   -13990.22776302
  entropy T*S    EENTRO =         0.00668738
  eigenvalues    EBANDS =     -1024.29171201
  atomic energy  EATOM  =     12955.90228127
  Solvation  Ediel_sol  =         0.00000000
  ---------------------------------------------------
  free energy    TOTEN  =       -50.43675575 eV

  energy without entropy =      -50.44344313  energy(sigma->0) =      -50.43898488


--------------------------------------------------------------------------------------------------------




--------------------------------------- Iteration      1(  12)  ---------------------------------------


    POTLOK:  cpu time    3.1693: real time    3.1759
    SETDIJ:  cpu time    0.0285: real time    0.0285
     EDDAV:  cpu time   16.9331: real time   16.9556
       DOS:  cpu time    0.0034: real time    0.0034
    CHARGE:  cpu time    1.1305: real time    1.1340
    MIXING:  cpu time    0.0819: real time    0.0820
    --------------------------------------------
      LOOP:  cpu time   21.3468: real time   21.3794

 eigenvalue-minimisations  :   456
 total energy-change (2. order) :-0.1049598E+01  (-0.8170919E-01)
 number of electron     159.9999950 magnetization      12.3923118
 augmentation part       68.1162871 magnetization       8.1473268

 Broyden mixing:
  rms(total) = 0.35402E+00    rms(broyden)= 0.35392E+00
  rms(prec ) = 0.38530E+00
  weight for this iteration     100.00

 eigenvalues of (default mixing * dielectric matrix)
  average eigenvalue GAMMA=   0.6034
  1.6933  0.7697  0.7697  0.3086  0.3086  0.2056  0.1681

 Free energy of the ion-electron system (eV)
  ---------------------------------------------------
  alpha Z        PSCENC =        11.64954258
  Ewald energy   TEWEN  =     26595.67297897
  -Hartree energ DENC   =    -39098.80265261
  -exchange      EXHF   =         0.00000000
  -V(xc)+E(xc)   XCENC  =      -470.88288955
  PAW double counting   =     14980.30039040   -14005.91711690
  entropy T*S    EENTRO =        -0.01231588
  eigenvalues    EBANDS =     -1019.39657235
  atomic energy  EATOM  =     12955.90228127
  Solvation  Ediel_sol  =         0.00000000
  ---------------------------------------------------
  free energy    TOTEN  =       -51.48635407 eV

  energy without entropy =      -51.47403819  energy(sigma->0) =      -51.48224878


--------------------------------------------------------------------------------------------------------




--------------------------------------- Iteration      1(  13)  ---------------------------------------


    POTLOK:  cpu time    3.1624: real time    3.1722
    SETDIJ:  cpu time    0.0280: real time    0.0280
     EDDAV:  cpu time   16.2954: real time   16.3156
       DOS:  cpu time    0.0029: real time    0.0029
    CHARGE:  cpu time    1.1364: real time    1.1398
    MIXING:  cpu time    0.0949: real time    0.0951
    --------------------------------------------
      LOOP:  cpu time   20.7201: real time   20.7537

 eigenvalue-minimisations  :   432
 total energy-change (2. order) :-0.1212540E+01  (-0.4643465E-01)
 number of electron     159.9999949 magnetization      11.7687164
 augmentation part       68.1039921 magnetization       7.5659258

 Broyden mixing:
  rms(total) = 0.25508E+00    rms(broyden)= 0.25502E+00
  rms(prec ) = 0.27549E+00
  weight for this iteration     100.00

 eigenvalues of (default mixing * dielectric matrix)
  average eigenvalue GAMMA=   0.7053
  1.7920  1.7920  0.6761  0.4647  0.2777  0.2777  0.2065  0.1559

 Free energy of the ion-electron system (eV)
  ---------------------------------------------------
  alpha Z        PSCENC =        11.64954258
  Ewald energy   TEWEN  =     26595.67297897
  -Hartree energ DENC   =    -39104.57517551
  -exchange      EXHF   =         0.00000000
  -V(xc)+E(xc)   XCENC  =      -471.75909805
  PAW double counting   =     14989.96672711   -14015.78194513
  entropy T*S    EENTRO =        -0.01224803
  eigenvalues    EBANDS =     -1013.76195738
  atomic energy  EATOM  =     12955.90228127
  Solvation  Ediel_sol  =         0.00000000
  ---------------------------------------------------
  free energy    TOTEN  =       -52.69889416 eV

  energy without entropy =      -52.68664614  energy(sigma->0) =      -52.69481149


--------------------------------------------------------------------------------------------------------




--------------------------------------- Iteration      1(  14)  ---------------------------------------


    POTLOK:  cpu time    3.1724: real time    3.1754
    SETDIJ:  cpu time    0.0282: real time    0.0282
     EDDAV:  cpu time   16.5309: real time   16.5616
       DOS:  cpu time    0.0034: real time    0.0034
    CHARGE:  cpu time    1.1703: real time    1.1715
    MIXING:  cpu time    0.1016: real time    0.1018
    --------------------------------------------
      LOOP:  cpu time   21.0068: real time   21.0419

 eigenvalue-minimisations  :   440
 total energy-change (2. order) :-0.2649997E+01  (-0.9134768E-01)
 number of electron     159.9999950 magnetization      11.5500267
 augmentation part       68.0896983 magnetization       7.5937118

 Broyden mixing:
  rms(total) = 0.24606E+00    rms(broyden)= 0.24602E+00
  rms(prec ) = 0.26791E+00
  weight for this iteration     100.00

 eigenvalues of (default mixing * dielectric matrix)
  average eigenvalue GAMMA=   0.6807
  2.0624  1.3128  0.7541  0.7541  0.3091  0.3091  0.2689  0.2008  0.1551

 Free energy of the ion-electron system (eV)
  ---------------------------------------------------
  alpha Z        PSCENC =        11.64954258
  Ewald energy   TEWEN  =     26595.67297897
  -Hartree energ DENC   =    -39117.79696963
  -exchange      EXHF   =         0.00000000
  -V(xc)+E(xc)   XCENC  =      -473.72329054
  PAW double counting   =     15005.10098719   -14031.40453088
  entropy T*S    EENTRO =        -0.01709865
  eigenvalues    EBANDS =     -1000.73279136
  atomic energy  EATOM  =     12955.90228127
  Solvation  Ediel_sol  =         0.00000000
  ---------------------------------------------------
  free energy    TOTEN  =       -55.34889105 eV

  energy without entropy =      -55.33179240  energy(sigma->0) =      -55.34319150


--------------------------------------------------------------------------------------------------------




--------------------------------------- Iteration      1(  15)  ---------------------------------------


    POTLOK:  cpu time    3.1752: real time    3.1796
    SETDIJ:  cpu time    0.0289: real time    0.0289
     EDDAV:  cpu time   17.3925: real time   17.4205
       DOS:  cpu time    0.0036: real time    0.0037
    CHARGE:  cpu time    1.1262: real time    1.1335
    MIXING:  cpu time    0.1027: real time    0.1030
    --------------------------------------------
      LOOP:  cpu time   21.8292: real time   21.8692

 eigenvalue-minimisations  :   472
 total energy-change (2. order) :-0.5126324E+00  (-0.1769577E-01)
 number of electron     159.9999950 magnetization      11.3476336
 augmentation part       68.0746429 magnetization       7.4726900

 Broyden mixing:
  rms(total) = 0.15121E+00    rms(broyden)= 0.15118E+00
  rms(prec ) = 0.16063E+00
  weight for this iteration     100.00

 eigenvalues of (default mixing * dielectric matrix)
  average eigenvalue GAMMA=   0.6646
  2.1394  1.0348  1.0348  0.8205  0.3603  0.3603  0.2723  0.2723  0.1955  0.1553

 Free energy of the ion-electron system (eV)
  ---------------------------------------------------
  alpha Z        PSCENC =        11.64954258
  Ewald energy   TEWEN  =     26595.67297897
  -Hartree energ DENC   =    -39121.14438726
  -exchange      EXHF   =         0.00000000
  -V(xc)+E(xc)   XCENC  =      -474.14411241
  PAW double counting   =     15007.69405322   -14034.23787369
  entropy T*S    EENTRO =        -0.02311166
  eigenvalues    EBANDS =      -997.23089450
  atomic energy  EATOM  =     12955.90228127
  Solvation  Ediel_sol  =         0.00000000
  ---------------------------------------------------
  free energy    TOTEN  =       -55.86152347 eV

  energy without entropy =      -55.83841181  energy(sigma->0) =      -55.85381959


--------------------------------------------------------------------------------------------------------




--------------------------------------- Iteration      1(  16)  ---------------------------------------


    POTLOK:  cpu time    3.1667: real time    3.1731
    SETDIJ:  cpu time    0.0280: real time    0.0280
     EDDAV:  cpu time   16.1906: real time   16.2104
       DOS:  cpu time    0.0126: real time    0.0126
    CHARGE:  cpu time    1.1394: real time    1.1407
    MIXING:  cpu time    0.1137: real time    0.1138
    --------------------------------------------
      LOOP:  cpu time   20.6511: real time   20.6788

 eigenvalue-minimisations  :   432
 total energy-change (2. order) :-0.5689691E+00  (-0.8125620E-02)
 number of electron     159.9999950 magnetization      10.9824740
 augmentation part       68.0898849 magnetization       7.1492360

 Broyden mixing:
  rms(total) = 0.11498E+00    rms(broyden)= 0.11497E+00
  rms(prec ) = 0.12341E+00
  weight for this iteration     100.00

 eigenvalues of (default mixing * dielectric matrix)
  average eigenvalue GAMMA=   0.6825
  2.2774  1.2106  1.0393  0.7115  0.7115  0.3752  0.2920  0.2920  0.2413  0.2014
  0.1551

 Free energy of the ion-electron system (eV)
  ---------------------------------------------------
  alpha Z        PSCENC =        11.64954258
  Ewald energy   TEWEN  =     26595.67297897
  -Hartree energ DENC   =    -39122.81789948
  -exchange      EXHF   =         0.00000000
  -V(xc)+E(xc)   XCENC  =      -474.62320954
  PAW double counting   =     15001.29212277   -14027.97805908
  entropy T*S    EENTRO =        -0.02179426
  eigenvalues    EBANDS =      -995.50645582
  atomic energy  EATOM  =     12955.90228127
  Solvation  Ediel_sol  =         0.00000000
  ---------------------------------------------------
  free energy    TOTEN  =       -56.43049259 eV

  energy without entropy =      -56.40869832  energy(sigma->0) =      -56.42322783


--------------------------------------------------------------------------------------------------------




--------------------------------------- Iteration      1(  17)  ---------------------------------------


    POTLOK:  cpu time    3.1661: real time    3.1713
    SETDIJ:  cpu time    0.0281: real time    0.0282
     EDDAV:  cpu time   16.0981: real time   16.1174
       DOS:  cpu time    0.0121: real time    0.0121
    CHARGE:  cpu time    1.1365: real time    1.1377
    MIXING:  cpu time    0.1279: real time    0.1280
    --------------------------------------------
      LOOP:  cpu time   20.5688: real time   20.5946

 eigenvalue-minimisations  :   432
 total energy-change (2. order) :-0.9254378E+00  (-0.1547566E-01)
 number of electron     159.9999950 magnetization      10.6505046
 augmentation part       68.0755372 magnetization       6.9199510

 Broyden mixing:
  rms(total) = 0.11674E+00    rms(broyden)= 0.11672E+00
  rms(prec ) = 0.12530E+00
  weight for this iteration     100.00

 eigenvalues of (default mixing * dielectric matrix)
  average eigenvalue GAMMA=   0.7246
  2.5403  1.7957  0.8278  0.8278  0.7269  0.4818  0.2961  0.2961  0.3135  0.1551
  0.1981  0.2362

 Free energy of the ion-electron system (eV)
  ---------------------------------------------------
  alpha Z        PSCENC =        11.64954258
  Ewald energy   TEWEN  =     26595.67297897
  -Hartree energ DENC   =    -39127.30940248
  -exchange      EXHF   =         0.00000000
  -V(xc)+E(xc)   XCENC  =      -475.34718786
  PAW double counting   =     14988.55758166   -14015.41870658
  entropy T*S    EENTRO =        -0.01838193
  eigenvalues    EBANDS =      -991.04463605
  atomic energy  EATOM  =     12955.90228127
  Solvation  Ediel_sol  =         0.00000000
  ---------------------------------------------------
  free energy    TOTEN  =       -57.35593041 eV

  energy without entropy =      -57.33754848  energy(sigma->0) =      -57.34980310


--------------------------------------------------------------------------------------------------------




--------------------------------------- Iteration      1(  18)  ---------------------------------------


    POTLOK:  cpu time    3.1723: real time    3.1765
    SETDIJ:  cpu time    0.0281: real time    0.0281
     EDDAV:  cpu time   16.7754: real time   16.7946
       DOS:  cpu time    0.0122: real time    0.0122
    CHARGE:  cpu time    1.1318: real time    1.1330
    MIXING:  cpu time    0.1301: real time    0.1302
    --------------------------------------------
      LOOP:  cpu time   21.2499: real time   21.2747

 eigenvalue-minimisations  :   456
 total energy-change (2. order) :-0.7553174E+00  (-0.1190379E-01)
 number of electron     159.9999950 magnetization      10.3513357
 augmentation part       68.0744921 magnetization       6.6875565

 Broyden mixing:
  rms(total) = 0.88262E-01    rms(broyden)= 0.88249E-01
  rms(prec ) = 0.93478E-01
  weight for this iteration     100.00

 eigenvalues of (default mixing * dielectric matrix)
  average eigenvalue GAMMA=   0.7376
  2.7726  1.8970  0.8228  0.8228  0.7346  0.7346  0.2977  0.2977  0.3335  0.2981
  0.1551  0.1985  0.2232

 Free energy of the ion-electron system (eV)
  ---------------------------------------------------
  alpha Z        PSCENC =        11.64954258
  Ewald energy   TEWEN  =     26595.67297897
  -Hartree energ DENC   =    -39130.19425754
  -exchange      EXHF   =         0.00000000
  -V(xc)+E(xc)   XCENC  =      -475.93310100
  PAW double counting   =     14972.07579121   -13999.03192859
  entropy T*S    EENTRO =        -0.01671053
  eigenvalues    EBANDS =      -988.23584417
  atomic energy  EATOM  =     12955.90228127
  Solvation  Ediel_sol  =         0.00000000
  ---------------------------------------------------
  free energy    TOTEN  =       -58.11124779 eV

  energy without entropy =      -58.09453726  energy(sigma->0) =      -58.10567761


--------------------------------------------------------------------------------------------------------




--------------------------------------- Iteration      1(  19)  ---------------------------------------


    POTLOK:  cpu time    3.1633: real time    3.1669
    SETDIJ:  cpu time    0.0279: real time    0.0280
     EDDAV:  cpu time   15.8753: real time   15.8952
       DOS:  cpu time    0.0122: real time    0.0122
    CHARGE:  cpu time    1.1262: real time    1.1274
    MIXING:  cpu time    0.1375: real time    0.1376
    --------------------------------------------
      LOOP:  cpu time   20.3425: real time   20.3674

 eigenvalue-minimisations  :   424
 total energy-change (2. order) :-0.6422940E+00  (-0.7920529E-02)
 number of electron     159.9999950 magnetization      10.0785342
 augmentation part       68.0735445 magnetization       6.4697359

 Broyden mixing:
  rms(total) = 0.72887E-01    rms(broyden)= 0.72877E-01
  rms(prec ) = 0.77386E-01
  weight for this iteration     100.00

 eigenvalues of (default mixing * dielectric matrix)
  average eigenvalue GAMMA=   0.7558
  2.9323  1.9270  0.9311  0.9311  0.7430  0.7430  0.5760  0.3689  0.2938  0.2938
  0.1551  0.2682  0.1988  0.2193

 Free energy of the ion-electron system (eV)
  ---------------------------------------------------
  alpha Z        PSCENC =        11.64954258
  Ewald energy   TEWEN  =     26595.67297897
  -Hartree energ DENC   =    -39131.98227084
  -exchange      EXHF   =         0.00000000
  -V(xc)+E(xc)   XCENC  =      -476.48586158
  PAW double counting   =     14957.69567811   -13984.73366644
  entropy T*S    EENTRO =        -0.01778541
  eigenvalues    EBANDS =      -986.45443847
  atomic energy  EATOM  =     12955.90228127
  Solvation  Ediel_sol  =         0.00000000
  ---------------------------------------------------
  free energy    TOTEN  =       -58.75354180 eV

  energy without entropy =      -58.73575639  energy(sigma->0) =      -58.74761333


--------------------------------------------------------------------------------------------------------




--------------------------------------- Iteration      1(  20)  ---------------------------------------


    POTLOK:  cpu time    3.1615: real time    3.1698
    SETDIJ:  cpu time    0.0281: real time    0.0281
     EDDAV:  cpu time   17.2546: real time   17.2761
       DOS:  cpu time    0.0122: real time    0.0122
    CHARGE:  cpu time    1.1305: real time    1.1317
    MIXING:  cpu time    0.1542: real time    0.1543
    --------------------------------------------
      LOOP:  cpu time   21.7410: real time   21.7722

 eigenvalue-minimisations  :   472
 total energy-change (2. order) :-0.5434292E+00  (-0.5223582E-02)
 number of electron     159.9999950 magnetization       9.6392345
 augmentation part       68.0699607 magnetization       6.0798977

 Broyden mixing:
  rms(total) = 0.63030E-01    rms(broyden)= 0.63024E-01
  rms(prec ) = 0.67014E-01
  weight for this iteration     100.00

 eigenvalues of (default mixing * dielectric matrix)
  average eigenvalue GAMMA=   0.8063
  3.3195  2.0636  1.4623  0.9628  0.7492  0.7492  0.6566  0.3743  0.2965  0.2965
  0.3293  0.1551  0.2623  0.1986  0.2189

 Free energy of the ion-electron system (eV)
  ---------------------------------------------------
  alpha Z        PSCENC =        11.64954258
  Ewald energy   TEWEN  =     26595.67297897
  -Hartree energ DENC   =    -39132.76210419
  -exchange      EXHF   =         0.00000000
  -V(xc)+E(xc)   XCENC  =      -476.97140699
  PAW double counting   =     14946.40795806   -13973.50607938
  entropy T*S    EENTRO =        -0.01732373
  eigenvalues    EBANDS =      -985.67281757
  atomic energy  EATOM  =     12955.90228127
  Solvation  Ediel_sol  =         0.00000000
  ---------------------------------------------------
  free energy    TOTEN  =       -59.29697097 eV

  energy without entropy =      -59.27964725  energy(sigma->0) =      -59.29119640


--------------------------------------------------------------------------------------------------------




--------------------------------------- Iteration      1(  21)  ---------------------------------------


    POTLOK:  cpu time    3.1675: real time    3.1747
    SETDIJ:  cpu time    0.0278: real time    0.0278
     EDDAV:  cpu time   16.1209: real time   16.1387
       DOS:  cpu time    0.0026: real time    0.0026
    CHARGE:  cpu time    1.1238: real time    1.1250
    MIXING:  cpu time    0.1681: real time    0.1683
    --------------------------------------------
      LOOP:  cpu time   20.6108: real time   20.6372

 eigenvalue-minimisations  :   432
 total energy-change (2. order) :-0.7547035E+00  (-0.8403150E-02)
 number of electron     159.9999950 magnetization       9.2542748
 augmentation part       68.0774823 magnetization       5.7555913

 Broyden mixing:
  rms(total) = 0.41945E-01    rms(broyden)= 0.41938E-01
  rms(prec ) = 0.43681E-01
  weight for this iteration     100.00

 eigenvalues of (default mixing * dielectric matrix)
  average eigenvalue GAMMA=   0.8747
  4.2836  2.0984  1.5697  1.1840  0.7002  0.7002  0.6879  0.6879  0.3662  0.2947
  0.2947  0.2992  0.1551  0.2564  0.1986  0.2182

 Free energy of the ion-electron system (eV)
  ---------------------------------------------------
  alpha Z        PSCENC =        11.64954258
  Ewald energy   TEWEN  =     26595.67297897
  -Hartree energ DENC   =    -39133.30999452
  -exchange      EXHF   =         0.00000000
  -V(xc)+E(xc)   XCENC  =      -477.67609883
  PAW double counting   =     14929.45904230   -13956.64159472
  entropy T*S    EENTRO =        -0.01595710
  eigenvalues    EBANDS =      -985.09187445
  atomic energy  EATOM  =     12955.90228127
  Solvation  Ediel_sol  =         0.00000000
  ---------------------------------------------------
  free energy    TOTEN  =       -60.05167449 eV

  energy without entropy =      -60.03571739  energy(sigma->0) =      -60.04635545


--------------------------------------------------------------------------------------------------------




--------------------------------------- Iteration      1(  22)  ---------------------------------------


    POTLOK:  cpu time    3.1587: real time    3.1644
    SETDIJ:  cpu time    0.0280: real time    0.0280
     EDDAV:  cpu time   16.9543: real time   16.9739
       DOS:  cpu time    0.0024: real time    0.0024
    CHARGE:  cpu time    1.1375: real time    1.1388
    MIXING:  cpu time    0.1777: real time    0.1780
    --------------------------------------------
      LOOP:  cpu time   21.4586: real time   21.4854

 eigenvalue-minimisations  :   464
 total energy-change (2. order) :-0.5056589E+00  (-0.5143700E-02)
 number of electron     159.9999950 magnetization       9.0539338
 augmentation part       68.0723461 magnetization       5.6036668

 Broyden mixing:
  rms(total) = 0.32195E-01    rms(broyden)= 0.32189E-01
  rms(prec ) = 0.33865E-01
  weight for this iteration     100.00

 eigenvalues of (default mixing * dielectric matrix)
  average eigenvalue GAMMA=   0.9013
  4.8691  2.1791  1.7146  1.1143  0.7109  0.7109  0.7546  0.7546  0.4188  0.3853
  0.2950  0.2950  0.1551  0.2924  0.2565  0.1986  0.2181

 Free energy of the ion-electron system (eV)
  ---------------------------------------------------
  alpha Z        PSCENC =        11.64954258
  Ewald energy   TEWEN  =     26595.67297897
  -Hartree energ DENC   =    -39134.02274414
  -exchange      EXHF   =         0.00000000
  -V(xc)+E(xc)   XCENC  =      -478.15547924
  PAW double counting   =     14921.24389719   -13948.47268442
  entropy T*S    EENTRO =        -0.01354253
  eigenvalues    EBANDS =      -984.36158308
  atomic energy  EATOM  =     12955.90228127
  Solvation  Ediel_sol  =         0.00000000
  ---------------------------------------------------
  free energy    TOTEN  =       -60.55733340 eV

  energy without entropy =      -60.54379087  energy(sigma->0) =      -60.55281922


--------------------------------------------------------------------------------------------------------




--------------------------------------- Iteration      1(  23)  ---------------------------------------


    POTLOK:  cpu time    3.1663: real time    3.1696
    SETDIJ:  cpu time    0.0281: real time    0.0281
     EDDAV:  cpu time   16.0690: real time   16.0917
       DOS:  cpu time    0.0023: real time    0.0023
    CHARGE:  cpu time    1.1293: real time    1.1304
    MIXING:  cpu time    0.1936: real time    0.1938
    --------------------------------------------
      LOOP:  cpu time   20.5885: real time   20.6159

 eigenvalue-minimisations  :   432
 total energy-change (2. order) :-0.2914045E+00  (-0.1228718E-02)
 number of electron     159.9999950 magnetization       8.8030644
 augmentation part       68.0715675 magnetization       5.3694694

 Broyden mixing:
  rms(total) = 0.23928E-01    rms(broyden)= 0.23925E-01
  rms(prec ) = 0.25104E-01
  weight for this iteration     100.00

 eigenvalues of (default mixing * dielectric matrix)
  average eigenvalue GAMMA=   0.9528
  5.6098  2.2096  1.9753  1.0646  1.0646  0.7089  0.7089  0.7836  0.6095  0.3779
  0.2952  0.2952  0.1551  0.3238  0.2976  0.1986  0.2543  0.2181

 Free energy of the ion-electron system (eV)
  ---------------------------------------------------
  alpha Z        PSCENC =        11.64954258
  Ewald energy   TEWEN  =     26595.67297897
  -Hartree energ DENC   =    -39133.63696059
  -exchange      EXHF   =         0.00000000
  -V(xc)+E(xc)   XCENC  =      -478.44932221
  PAW double counting   =     14919.16734468   -13946.39447630
  entropy T*S    EENTRO =        -0.01290232
  eigenvalues    EBANDS =      -984.74722396
  atomic energy  EATOM  =     12955.90228127
  Solvation  Ediel_sol  =         0.00000000
  ---------------------------------------------------
  free energy    TOTEN  =       -60.84873788 eV

  energy without entropy =      -60.83583556  energy(sigma->0) =      -60.84443711


--------------------------------------------------------------------------------------------------------




--------------------------------------- Iteration      1(  24)  ---------------------------------------


    POTLOK:  cpu time    3.1619: real time    3.1730
    SETDIJ:  cpu time    0.0281: real time    0.0281
     EDDAV:  cpu time   16.3066: real time   16.3249
       DOS:  cpu time    0.0025: real time    0.0025
    CHARGE:  cpu time    1.1400: real time    1.1412
    MIXING:  cpu time    0.2011: real time    0.2013
    --------------------------------------------
      LOOP:  cpu time   20.8401: real time   20.8709

 eigenvalue-minimisations  :   440
 total energy-change (2. order) :-0.4085123E+00  (-0.1678605E-02)
 number of electron     159.9999950 magnetization       8.6609175
 augmentation part       68.0699451 magnetization       5.2479734

 Broyden mixing:
  rms(total) = 0.20324E-01    rms(broyden)= 0.20321E-01
  rms(prec ) = 0.21717E-01
  weight for this iteration     100.00

 eigenvalues of (default mixing * dielectric matrix)
  average eigenvalue GAMMA=   0.9639
  6.0012  2.1609  2.1609  1.0870  1.0870  0.8944  0.7083  0.7083  0.6322  0.4919
  0.3705  0.1551  0.2950  0.2950  0.1986  0.3138  0.2181  0.2548  0.2823

 Free energy of the ion-electron system (eV)
  ---------------------------------------------------
  alpha Z        PSCENC =        11.64954258
  Ewald energy   TEWEN  =     26595.67297897
  -Hartree energ DENC   =    -39132.92120835
  -exchange      EXHF   =         0.00000000
  -V(xc)+E(xc)   XCENC  =      -478.86661610
  PAW double counting   =     14920.09291252   -13947.31499710
  entropy T*S    EENTRO =        -0.01243699
  eigenvalues    EBANDS =      -985.45970700
  atomic energy  EATOM  =     12955.90228127
  Solvation  Ediel_sol  =         0.00000000
  ---------------------------------------------------
  free energy    TOTEN  =       -61.25725019 eV

  energy without entropy =      -61.24481321  energy(sigma->0) =      -61.25310453


--------------------------------------------------------------------------------------------------------




--------------------------------------- Iteration      1(  25)  ---------------------------------------


    POTLOK:  cpu time    3.1607: real time    3.1673
    SETDIJ:  cpu time    0.0278: real time    0.0278
     EDDAV:  cpu time   17.3441: real time   17.3653
       DOS:  cpu time    0.0024: real time    0.0024
    CHARGE:  cpu time    1.1389: real time    1.1409
    MIXING:  cpu time    0.2185: real time    0.2187
    --------------------------------------------
      LOOP:  cpu time   21.8923: real time   21.9223

 eigenvalue-minimisations  :   480
 total energy-change (2. order) :-0.2162636E+00  (-0.5733104E-03)
 number of electron     159.9999950 magnetization       8.4923692
 augmentation part       68.0686738 magnetization       5.0891756

 Broyden mixing:
  rms(total) = 0.16470E-01    rms(broyden)= 0.16468E-01
  rms(prec ) = 0.17565E-01
  weight for this iteration     100.00

 eigenvalues of (default mixing * dielectric matrix)
  average eigenvalue GAMMA=   1.0026
  6.5169  2.3081  2.3081  1.4742  0.9820  0.9820  0.7127  0.7127  0.7233  0.6252
  0.1551  0.2951  0.2951  0.3791  0.3497  0.1986  0.2978  0.2181  0.2570  0.2610

 Free energy of the ion-electron system (eV)
  ---------------------------------------------------
  alpha Z        PSCENC =        11.64954258
  Ewald energy   TEWEN  =     26595.67297897
  -Hartree energ DENC   =    -39132.19368709
  -exchange      EXHF   =         0.00000000
  -V(xc)+E(xc)   XCENC  =      -479.08891270
  PAW double counting   =     14922.05537713   -13949.26533867
  entropy T*S    EENTRO =        -0.01161486
  eigenvalues    EBANDS =      -986.19414046
  atomic energy  EATOM  =     12955.90228127
  Solvation  Ediel_sol  =         0.00000000
  ---------------------------------------------------
  free energy    TOTEN  =       -61.47351381 eV

  energy without entropy =      -61.46189895  energy(sigma->0) =      -61.46964219


--------------------------------------------------------------------------------------------------------




--------------------------------------- Iteration      1(  26)  ---------------------------------------


    POTLOK:  cpu time    3.1723: real time    3.1775
    SETDIJ:  cpu time    0.0279: real time    0.0279
     EDDAV:  cpu time   16.4346: real time   16.4571
       DOS:  cpu time    0.0122: real time    0.0122
    CHARGE:  cpu time    1.1424: real time    1.1436
    MIXING:  cpu time    0.2319: real time    0.2321
    --------------------------------------------
      LOOP:  cpu time   21.0213: real time   21.0504

 eigenvalue-minimisations  :   440
 total energy-change (2. order) :-0.2107244E+00  (-0.5471844E-03)
 number of electron     159.9999950 magnetization       8.3802521
 augmentation part       68.0702093 magnetization       4.9868972

 Broyden mixing:
  rms(total) = 0.11937E-01    rms(broyden)= 0.11935E-01
  rms(prec ) = 0.13009E-01
  weight for this iteration     100.00

 eigenvalues of (default mixing * dielectric matrix)
  average eigenvalue GAMMA=   1.0452
  7.1443  2.6304  2.3341  1.7269  1.0070  1.0070  0.7126  0.7126  0.7684  0.6078
  0.6078  0.1551  0.2949  0.2949  0.3604  0.3604  0.1986  0.2181  0.2920  0.2533
  0.2624

 Free energy of the ion-electron system (eV)
  ---------------------------------------------------
  alpha Z        PSCENC =        11.64954258
  Ewald energy   TEWEN  =     26595.67297897
  -Hartree energ DENC   =    -39130.84936087
  -exchange      EXHF   =         0.00000000
  -V(xc)+E(xc)   XCENC  =      -479.31523399
  PAW double counting   =     14924.51754464   -13951.71029448
  entropy T*S    EENTRO =        -0.01155938
  eigenvalues    EBANDS =      -987.54013693
  atomic energy  EATOM  =     12955.90228127
  Solvation  Ediel_sol  =         0.00000000
  ---------------------------------------------------
  free energy    TOTEN  =       -61.68423820 eV

  energy without entropy =      -61.67267881  energy(sigma->0) =      -61.68038507


--------------------------------------------------------------------------------------------------------




--------------------------------------- Iteration      1(  27)  ---------------------------------------


    POTLOK:  cpu time    3.1792: real time    3.1826
    SETDIJ:  cpu time    0.0282: real time    0.0282
     EDDAV:  cpu time   17.5867: real time   17.6105
       DOS:  cpu time    0.0123: real time    0.0123
    CHARGE:  cpu time    1.1582: real time    1.1595
    MIXING:  cpu time    0.2511: real time    0.2514
    --------------------------------------------
      LOOP:  cpu time   22.2157: real time   22.2445

 eigenvalue-minimisations  :   480
 total energy-change (2. order) :-0.1118790E+00  (-0.2552717E-03)
 number of electron     159.9999950 magnetization       8.2928859
 augmentation part       68.0705087 magnetization       4.9042472

 Broyden mixing:
  rms(total) = 0.10716E-01    rms(broyden)= 0.10714E-01
  rms(prec ) = 0.11684E-01
  weight for this iteration     100.00

 eigenvalues of (default mixing * dielectric matrix)
  average eigenvalue GAMMA=   1.0785
  7.8292  3.0340  2.2744  1.8567  1.0310  1.0310  0.9202  0.7113  0.7113  0.6609
  0.6609  0.3782  0.3586  0.2950  0.2950  0.1551  0.1986  0.3112  0.2181  0.2846
  0.2577  0.2527

 Free energy of the ion-electron system (eV)
  ---------------------------------------------------
  alpha Z        PSCENC =        11.64954258
  Ewald energy   TEWEN  =     26595.67297897
  -Hartree energ DENC   =    -39129.67491510
  -exchange      EXHF   =         0.00000000
  -V(xc)+E(xc)   XCENC  =      -479.43827905
  PAW double counting   =     14926.24576034   -13953.42353137
  entropy T*S    EENTRO =        -0.01174819
  eigenvalues    EBANDS =      -988.71820665
  atomic energy  EATOM  =     12955.90228127
  Solvation  Ediel_sol  =         0.00000000
  ---------------------------------------------------
  free energy    TOTEN  =       -61.79611720 eV

  energy without entropy =      -61.78436901  energy(sigma->0) =      -61.79220114


--------------------------------------------------------------------------------------------------------




--------------------------------------- Iteration      1(  28)  ---------------------------------------


    POTLOK:  cpu time    3.1685: real time    3.1755
    SETDIJ:  cpu time    0.0279: real time    0.0279
     EDDAV:  cpu time   15.9910: real time   16.0116
       DOS:  cpu time    0.0123: real time    0.0123
    CHARGE:  cpu time    1.1346: real time    1.1359
    MIXING:  cpu time    0.2628: real time    0.2631
    --------------------------------------------
      LOOP:  cpu time   20.5971: real time   20.6263

 eigenvalue-minimisations  :   424
 total energy-change (2. order) :-0.7200927E-01  (-0.1478791E-03)
 number of electron     159.9999950 magnetization       8.2391925
 augmentation part       68.0715765 magnetization       4.8537299

 Broyden mixing:
  rms(total) = 0.61038E-02    rms(broyden)= 0.61019E-02
  rms(prec ) = 0.68382E-02
  weight for this iteration     100.00

 eigenvalues of (default mixing * dielectric matrix)
  average eigenvalue GAMMA=   1.1117
  8.4972  3.3983  2.2413  1.9741  1.0678  0.9942  0.9942  0.7128  0.7128  0.6943
  0.6943  0.6263  0.3639  0.3639  0.1551  0.2949  0.2949  0.1986  0.2181  0.2914
  0.2780  0.2549  0.2478

 Free energy of the ion-electron system (eV)
  ---------------------------------------------------
  alpha Z        PSCENC =        11.64954258
  Ewald energy   TEWEN  =     26595.67297897
  -Hartree energ DENC   =    -39128.63778945
  -exchange      EXHF   =         0.00000000
  -V(xc)+E(xc)   XCENC  =      -479.52110085
  PAW double counting   =     14927.26249644   -13954.43310711
  entropy T*S    EENTRO =        -0.01139878
  eigenvalues    EBANDS =      -989.75202953
  atomic energy  EATOM  =     12955.90228127
  Solvation  Ediel_sol  =         0.00000000
  ---------------------------------------------------
  free energy    TOTEN  =       -61.86812647 eV

  energy without entropy =      -61.85672768  energy(sigma->0) =      -61.86432687


--------------------------------------------------------------------------------------------------------




--------------------------------------- Iteration      1(  29)  ---------------------------------------


    POTLOK:  cpu time    3.1519: real time    3.1576
    SETDIJ:  cpu time    0.0286: real time    0.0286
     EDDAV:  cpu time   14.8494: real time   14.8698
       DOS:  cpu time    0.0122: real time    0.0122
    CHARGE:  cpu time    1.1378: real time    1.1398
    MIXING:  cpu time    0.2793: real time    0.2797
    --------------------------------------------
      LOOP:  cpu time   19.4592: real time   19.4877

 eigenvalue-minimisations  :   384
 total energy-change (2. order) :-0.3911818E-01  (-0.6217091E-04)
 number of electron     159.9999950 magnetization       8.2075854
 augmentation part       68.0718956 magnetization       4.8238070

 Broyden mixing:
  rms(total) = 0.48380E-02    rms(broyden)= 0.48376E-02
  rms(prec ) = 0.55204E-02
  weight for this iteration     100.00

 eigenvalues of (default mixing * dielectric matrix)
  average eigenvalue GAMMA=   1.1235
  8.8009  3.6493  2.2387  1.9984  1.3605  0.9981  0.9981  0.7119  0.7119  0.7064
  0.7064  0.6392  0.4744  0.1551  0.3729  0.3580  0.2950  0.2950  0.1986  0.2181
  0.2963  0.2759  0.2561  0.2492

 Free energy of the ion-electron system (eV)
  ---------------------------------------------------
  alpha Z        PSCENC =        11.64954258
  Ewald energy   TEWEN  =     26595.67297897
  -Hartree energ DENC   =    -39127.77678121
  -exchange      EXHF   =         0.00000000
  -V(xc)+E(xc)   XCENC  =      -479.56593491
  PAW double counting   =     14927.68828046   -13954.85577115
  entropy T*S    EENTRO =        -0.01143538
  eigenvalues    EBANDS =      -990.61040528
  atomic energy  EATOM  =     12955.90228127
  Solvation  Ediel_sol  =         0.00000000
  ---------------------------------------------------
  free energy    TOTEN  =       -61.90724465 eV

  energy without entropy =      -61.89580927  energy(sigma->0) =      -61.90343285


--------------------------------------------------------------------------------------------------------




--------------------------------------- Iteration      1(  30)  ---------------------------------------


    POTLOK:  cpu time    3.1502: real time    3.1549
    SETDIJ:  cpu time    0.0282: real time    0.0282
     EDDAV:  cpu time   13.9157: real time   13.9382
       DOS:  cpu time    0.0132: real time    0.0132
    CHARGE:  cpu time    1.1271: real time    1.1284
    MIXING:  cpu time    0.3167: real time    0.3170
    --------------------------------------------
      LOOP:  cpu time   18.5511: real time   18.5800

 eigenvalue-minimisations  :   352
 total energy-change (2. order) :-0.2061870E-01  (-0.2400101E-04)
 number of electron     159.9999950 magnetization       8.1784783
 augmentation part       68.0724434 magnetization       4.7948726

 Broyden mixing:
  rms(total) = 0.31938E-02    rms(broyden)= 0.31932E-02
  rms(prec ) = 0.37541E-02
  weight for this iteration     100.00

 eigenvalues of (default mixing * dielectric matrix)
  average eigenvalue GAMMA=   1.1472
  9.1755  3.9463  2.3389  1.9926  1.5734  0.9990  0.9990  0.7112  0.7112  0.8267
  0.7462  0.7462  0.6058  0.1551  0.3688  0.3688  0.2950  0.2950  0.3337  0.1986
  0.2969  0.2181  0.2742  0.2559  0.2482

[...]
     69      -4.8931      1.00007
     70      -4.8665      1.00014
     71      -4.8255      1.00041
     72      -4.7792      1.00121
     73      -4.7702      1.00147
     74      -4.7301      1.00335
     75      -4.7009      1.00573
     76      -4.6794      1.00821
     77      -4.6754      1.00876
     78      -4.6483      1.01308
     79      -4.6338      1.01587
     80      -4.6109      1.02082
     81      -4.5221      1.03540
     82      -4.4878      1.02828
     83      -4.4600      1.01047
     84      -4.4319      0.97736
     85      -3.6838     -0.00010
     86      -3.4859     -0.00000
     87      -3.4302     -0.00000
     88      -2.9205     -0.00000
     89      -2.8265     -0.00000
     90      -2.6010     -0.00000
     91      -1.8053     -0.00000
     92      -1.5561     -0.00000
     93      -1.4275     -0.00000
     94      -1.3758     -0.00000
     95      -1.2353     -0.00000
     96      -0.9497     -0.00000
     97      -0.8568     -0.00000
     98      -0.8051     -0.00000
     99      -0.5891     -0.00000
    100      -0.4974     -0.00000
    101      -0.1396     -0.00000
    102       0.0495     -0.00000
    103       0.1490     -0.00000
    104       0.2158     -0.00000

 spin component 2

 k-point     1 :       0.0000    0.0000    0.0000
  band No.  band energies     occupation 
      1      -8.9276      1.00000
      2      -8.3819      1.00000
      3      -8.3445      1.00000
      4      -8.1636      1.00000
      5      -8.1368      1.00000
      6      -7.9812      1.00000
      7      -7.9062      1.00000
      8      -7.8037      1.00000
      9      -7.7041      1.00000
     10      -7.6451      1.00000
     11      -7.5610      1.00000
     12      -7.5377      1.00000
     13      -7.4115      1.00000
     14      -7.3538      1.00000
     15      -7.3355      1.00000
     16      -7.2487      1.00000
     17      -7.1786      1.00000
     18      -7.0855      1.00000
     19      -7.0548      1.00000
     20      -6.9950      1.00000
     21      -6.9078      1.00000
     22      -6.8318      1.00000
     23      -6.8260      1.00000
     24      -6.6975      1.00000
     25      -6.6266      1.00000
     26      -6.6090      1.00000
     27      -6.5625      1.00000
     28      -6.5277      1.00000
     29      -6.4624      1.00000
     30      -6.3592      1.00000
     31      -6.3340      1.00000
     32      -6.2617      1.00000
     33      -6.1520      1.00000
     34      -6.1198      1.00000
     35      -6.0632      1.00000
     36      -6.0384      1.00000
     37      -5.9984      1.00000
     38      -5.9170      1.00000
     39      -5.8533      1.00000
     40      -5.7491      1.00000
     41      -5.6953      1.00000
     42      -5.6252      1.00000
     43      -5.6002      1.00000
     44      -5.5442      1.00000
     45      -5.5283      1.00000
     46      -5.4644      1.00000
     47      -5.4366      1.00000
     48      -5.3665      1.00000
     49      -5.2757      1.00000
     50      -5.2425      1.00000
     51      -5.2179      1.00000
     52      -5.1885      1.00000
     53      -5.1603      1.00000
     54      -5.0800      1.00000
     55      -5.0335      1.00000
     56      -5.0146      1.00000
     57      -4.9657      1.00001
     58      -4.9531      1.00001
     59      -4.9247      1.00003
     60      -4.9050      1.00005
     61      -4.8855      1.00008
     62      -4.8165      1.00051
     63      -4.7866      1.00102
     64      -4.7704      1.00147
     65      -4.7098      1.00489
     66      -4.6877      1.00717
     67      -4.6736      1.00900
     68      -4.6166      1.01953
     69      -4.5679      1.03047
     70      -4.5112      1.03452
     71      -4.4651      1.01475
     72      -4.4571      1.00781
     73      -4.4388      0.98712
     74      -4.3623      0.81421
     75      -4.3359      0.72278
     76      -4.2938      0.55378
     77      -4.2548      0.38999
     78      -4.2104      0.22067
     79      -4.1639      0.08652
     80      -4.1557      0.06819
     81      -4.0557     -0.03378
     82      -3.9810     -0.02763
     83      -3.9679     -0.02464
     84      -3.9433     -0.01904
     85      -3.4581     -0.00000
     86      -3.2867     -0.00000
     87      -3.2319     -0.00000
     88      -2.7520     -0.00000
     89      -2.6681     -0.00000
     90      -2.4380     -0.00000
     91      -1.6815     -0.00000
     92      -1.4058     -0.00000
     93      -1.2973     -0.00000
     94      -1.2657     -0.00000
     95      -1.1301     -0.00000
     96      -0.8670     -0.00000
     97      -0.7692     -0.00000
     98      -0.6896     -0.00000
     99      -0.5086     -0.00000
    100      -0.4114     -0.00000
    101      -0.0822     -0.00000
    102       0.0867     -0.00000
    103       0.1938     -0.00000
    104       0.2473     -0.00000


--------------------------------------------------------------------------------------------------------


 soft charge-density along one line, spin component            1
         0         1         2         3         4         5         6         7         8         9
 total charge-density along one line
 
 soft charge-density along one line, spin component            2
         0         1         2         3         4         5         6         7         8         9
 total charge-density along one line
 
 pseudopotential strength for first ion, spin component:            1
 -8.716   0.061   0.006   0.060   0.004  -8.676   0.058   0.006
  0.061  -8.761   0.039  -0.059  -0.002   0.058  -8.719   0.037
  0.006   0.039  -8.752  -0.019  -0.008   0.006   0.037  -8.711
  0.060  -0.059  -0.019  -8.770   0.007   0.057  -0.056  -0.018
  0.004  -0.002  -0.008   0.007  -8.760   0.004  -0.001  -0.008
 -8.676   0.058   0.006   0.057   0.004  -8.615   0.056   0.005
  0.058  -8.719   0.037  -0.056  -0.001   0.056  -8.656   0.036
  0.006   0.037  -8.711  -0.018  -0.008   0.005   0.036  -8.648
  0.057  -0.056  -0.018  -8.728   0.006   0.055  -0.054  -0.018
  0.004  -0.001  -0.008   0.006  -8.719   0.004  -0.001  -0.007
  0.016  -0.019   0.004  -0.015   0.000   0.016  -0.019   0.004
  0.028  -0.033   0.007  -0.026   0.000   0.027  -0.032   0.007
 -0.002   0.014  -0.011   0.001  -0.018  -0.002   0.013  -0.011
  0.001   0.019   0.016  -0.004   0.000   0.001   0.018   0.015
  0.020   0.001  -0.001   0.015  -0.001   0.020   0.001  -0.000
 -0.003   0.015  -0.012   0.001  -0.019  -0.003   0.014  -0.012
  0.001   0.021   0.017  -0.005   0.001   0.001   0.020   0.016
  0.022   0.001  -0.001   0.016  -0.002   0.021   0.001  -0.000
 pseudopotential strength for first ion, spin component:            2
 -8.540   0.012   0.020   0.019  -0.001  -8.508   0.011   0.019
  0.012  -8.549   0.015  -0.014  -0.022   0.011  -8.517   0.014
  0.020   0.015  -8.559   0.011  -0.007   0.019   0.014  -8.526
  0.019  -0.014   0.011  -8.541   0.014   0.018  -0.013   0.011
 -0.001  -0.022  -0.007   0.014  -8.532  -0.001  -0.021  -0.006
 -8.508   0.011   0.019   0.018  -0.001  -8.454   0.011   0.018
  0.011  -8.517   0.014  -0.013  -0.021   0.011  -8.463   0.014
  0.019   0.014  -8.526   0.011  -0.006   0.018   0.014  -8.472
  0.018  -0.013   0.011  -8.509   0.013   0.017  -0.013   0.010
 -0.001  -0.021  -0.006   0.013  -8.501  -0.001  -0.020  -0.006
  0.008  -0.009   0.002  -0.008  -0.002   0.007  -0.009   0.002
  0.013  -0.016   0.003  -0.014  -0.003   0.013  -0.015   0.003
 -0.002   0.016  -0.012   0.000  -0.020  -0.002   0.015  -0.011
  0.000   0.021   0.017  -0.001   0.000   0.000   0.020   0.016
  0.021   0.000   0.001   0.016  -0.000   0.020   0.000   0.001
 -0.003   0.018  -0.013  -0.000  -0.023  -0.003   0.017  -0.012
 -0.000   0.024   0.019  -0.000  -0.000  -0.000   0.022   0.018
  0.023  -0.000   0.002   0.018   0.000   0.022  -0.000   0.002
 total augmentation occupancy for first ion, spin component:            1
  2.664   0.128  -0.183   0.370  -0.027  -1.156   0.123   0.132  -0.156   0.044  -0.427   0.086   0.059  -0.004   0.221  -0.005
  0.128   2.491   0.172  -0.054   0.177   0.126  -1.098  -0.001  -0.189  -0.074   0.272  -0.049   0.059   0.112  -0.008   0.012
 -0.183   0.172   2.506  -0.192   0.075   0.126  -0.001  -1.131   0.076  -0.118  -0.009   0.016  -0.111   0.173  -0.029  -0.005
  0.370  -0.054  -0.192   2.310  -0.219  -0.159  -0.191   0.080  -0.997   0.198   0.441  -0.075   0.016  -0.037   0.175   0.000
 -0.027   0.177   0.075  -0.219   2.248   0.045  -0.071  -0.113   0.194  -0.908   0.097  -0.029  -0.125   0.043  -0.047  -0.014
 -1.156   0.126   0.126  -0.159   0.045   1.513  -0.284  -0.098   0.024  -0.058   0.338  -0.042  -0.037   0.010  -0.261   0.003
  0.123  -1.098  -0.001  -0.191  -0.071  -0.284   1.522  -0.112   0.353  -0.000  -0.186  -0.004  -0.119  -0.157   0.010   0.013
  0.132  -0.001  -1.131   0.080  -0.113  -0.098  -0.112   1.584  -0.009   0.151   0.033  -0.005   0.162  -0.220  -0.007  -0.015
 -0.156  -0.189   0.076  -0.997   0.194   0.024   0.353  -0.009   1.466  -0.188  -0.339   0.035  -0.005  -0.010  -0.219  -0.001
  0.044  -0.074  -0.118   0.198  -0.908  -0.058  -0.000   0.151  -0.188   1.357  -0.072   0.013   0.200  -0.044   0.046  -0.019
 -0.427   0.272  -0.009   0.441   0.097   0.338  -0.186   0.033  -0.339  -0.072   1.798  -0.253  -0.224  -0.187   0.002   0.023
  0.086  -0.049   0.016  -0.075  -0.029  -0.042  -0.004  -0.005   0.035   0.013  -0.253   0.040   0.037   0.033   0.000  -0.004
  0.059   0.059  -0.111   0.016  -0.125  -0.037  -0.119   0.162  -0.005   0.200  -0.224   0.037   0.132  -0.023   0.032  -0.010
 -0.004   0.112   0.173  -0.037   0.043   0.010  -0.157  -0.220  -0.010  -0.044  -0.187   0.033  -0.023   0.142  -0.034  -0.001
  0.221  -0.008  -0.029   0.175  -0.047  -0.261   0.010  -0.007  -0.219   0.046   0.002   0.000   0.032  -0.034   0.144  -0.001
 -0.005   0.012  -0.005   0.000  -0.014   0.003   0.013  -0.015  -0.001  -0.019   0.023  -0.004  -0.010  -0.001  -0.001   0.002
  0.002   0.021   0.014  -0.002   0.000  -0.001   0.012   0.017   0.001   0.001   0.021  -0.004  -0.001  -0.009   0.001   0.000
  0.019   0.001   0.001   0.013   0.002   0.018  -0.001   0.001   0.016  -0.002  -0.000   0.000  -0.001   0.001  -0.008  -0.000
 total augmentation occupancy for first ion, spin component:            2
  0.339  -0.330   0.038  -0.320  -0.040  -0.149   0.165  -0.015   0.169   0.023  -0.085   0.031  -0.006  -0.018  -0.011  -0.003
 -0.330   0.558  -0.146   0.327  -0.093   0.165  -0.257   0.068  -0.170   0.046   0.113  -0.038   0.015   0.019  -0.004   0.007
  0.038  -0.146   0.478   0.192  -0.001  -0.009   0.066  -0.222  -0.098   0.004  -0.038   0.005  -0.006   0.004   0.024  -0.004
 -0.320   0.327   0.192   0.720   0.012   0.173  -0.168  -0.100  -0.350  -0.003   0.093  -0.030  -0.003   0.045   0.009   0.002
 -0.040  -0.093  -0.001   0.012   0.670   0.022   0.042  -0.000  -0.000  -0.316   0.004   0.001  -0.021  -0.007   0.009  -0.007
 -0.149   0.165  -0.009   0.173   0.022   0.025  -0.072   0.002  -0.081  -0.012   0.023  -0.004   0.002   0.010   0.009   0.001
  0.165  -0.257   0.066  -0.168   0.042  -0.072   0.071  -0.024   0.076  -0.022  -0.033   0.006  -0.003  -0.008   0.001  -0.003
 -0.015   0.068  -0.222  -0.100  -0.000   0.002  -0.024   0.059   0.049  -0.002   0.013  -0.001  -0.001   0.001  -0.011   0.002
  0.169  -0.170  -0.098  -0.350  -0.000  -0.081   0.076   0.049   0.121   0.000  -0.034   0.006   0.001  -0.020  -0.001  -0.001
  0.023   0.046   0.004  -0.003  -0.316  -0.012  -0.022  -0.002   0.000   0.105  -0.008   0.003   0.006   0.004  -0.004   0.003
 -0.085   0.113  -0.038   0.093   0.004   0.023  -0.033   0.013  -0.034  -0.008  -0.011   0.002   0.005   0.011   0.001   0.002
  0.031  -0.038   0.005  -0.030   0.001  -0.004   0.006  -0.001   0.006   0.003   0.002   0.002  -0.001  -0.002  -0.000  -0.001
 -0.006   0.015  -0.006  -0.003  -0.021   0.002  -0.003  -0.001   0.001   0.006   0.005  -0.001  -0.003   0.002  -0.002   0.001
 -0.018   0.019   0.004   0.045  -0.007   0.010  -0.008   0.001  -0.020   0.004   0.011  -0.002   0.002  -0.002   0.003   0.000
 -0.011  -0.004   0.024   0.009   0.009   0.009   0.001  -0.011  -0.001  -0.004   0.001  -0.000  -0.002   0.003  -0.004  -0.000
 -0.003   0.007  -0.004   0.002  -0.007   0.001  -0.003   0.002  -0.001   0.003   0.002  -0.001   0.001   0.000  -0.000   0.000
 -0.002   0.004   0.003   0.004  -0.001   0.001  -0.002  -0.001  -0.002   0.000   0.001  -0.000  -0.000   0.000  -0.000   0.000
  0.002  -0.001   0.002   0.004  -0.000  -0.001   0.000  -0.001  -0.002   0.000  -0.000   0.000  -0.000   0.000   0.000  -0.000


------------------------ aborting loop because EDIFF is reached ----------------------------------------


    CHARGE:  cpu time    1.1285: real time    1.1298
    FORLOC:  cpu time    0.1237: real time    0.1240
    FORNL :  cpu time    8.0848: real time    8.0952
    FORCOR:  cpu time    3.0732: real time    3.0765
    FORHAR:  cpu time    0.4351: real time    0.4355
    MIXING:  cpu time    0.0690: real time    0.0691
    OFIELD:  cpu time    0.0000: real time    0.0000

 VOLUME and BASIS-vectors are now :
 -----------------------------------------------------------------------------
  energy-cutoff  :      400.00
  volume of cell :    14322.33
      direct lattice vectors                 reciprocal lattice vectors
    23.992030935  0.000000000  0.000000000     0.041680506  0.000000000  0.000000000
     0.000000000 24.693249681  0.000000000     0.000000000  0.040496897  0.000000000
     0.000000000  0.000000000 24.175105105     0.000000000  0.000000000  0.041364867

  length of vectors
    23.992030935 24.693249681 24.175105105     0.041680506  0.040496897  0.041364867


 FORCES acting on ions
    electron-ion (+dipol)            ewald-force                    non-local-force                 convergence-correction
 -----------------------------------------------------------------------------------------------
   -.850E+02 -.773E+03 -.699E+03   0.851E+02 0.769E+03 0.696E+03   -.207E-01 0.391E+01 0.317E+01   -.690E-01 -.487E-01 0.109E+00
   0.169E+03 -.120E+03 -.105E+04   -.169E+03 0.119E+03 0.104E+04   -.581E-01 0.693E+00 0.728E+01   -.540E-01 -.683E-01 0.205E-02
   -.953E+03 -.107E+03 -.492E+03   0.948E+03 0.107E+03 0.489E+03   0.507E+01 -.370E+00 0.379E+01   0.970E-02 -.492E-01 0.519E-01
   -.552E+03 -.918E+03 0.565E+02   0.548E+03 0.911E+03 -.553E+02   0.344E+01 0.656E+01 -.116E+01   0.259E-01 0.251E-01 0.188E-01
   -.251E+03 0.241E+03 -.519E+03   0.251E+03 -.241E+03 0.520E+03   0.247E+00 -.182E+00 -.311E+00   -.982E-01 -.770E-01 0.956E-01
   0.239E+03 -.877E+03 0.247E+03   -.237E+03 0.875E+03 -.247E+03   -.119E+01 0.234E+01 0.353E+00   -.751E-01 -.298E-01 0.166E-01
   0.545E+03 0.580E+03 -.715E+03   -.542E+03 -.576E+03 0.711E+03   -.282E+01 -.366E+01 0.424E+01   -.130E-01 0.712E-02 0.161E-01
   0.846E+03 -.438E+03 -.338E+03   -.843E+03 0.436E+03 0.337E+03   -.314E+01 0.239E+01 0.595E+00   -.557E-01 -.933E-01 0.885E-01
   -.891E+03 0.557E+03 -.113E+02   0.886E+03 -.555E+03 0.101E+02   0.451E+01 -.235E+01 0.112E+01   -.402E-02 -.537E-01 0.334E-01
   0.879E+03 -.308E+03 0.571E+03   -.874E+03 0.307E+03 -.568E+03   -.533E+01 0.156E+01 -.305E+01   -.785E-01 -.359E-01 0.265E-01
   0.433E+02 0.102E+04 -.213E+03   -.435E+02 -.102E+04 0.211E+03   0.215E+00 -.474E+01 0.207E+01   -.674E-01 -.816E-02 0.779E-01
   -.759E+03 -.205E+03 0.625E+03   0.756E+03 0.205E+03 -.622E+03   0.279E+01 0.152E-01 -.277E+01   0.390E-01 -.500E-01 -.318E-01
   -.278E+03 0.810E+03 0.592E+03   0.276E+03 -.805E+03 -.587E+03   0.140E+01 -.501E+01 -.570E+01   -.111E-01 -.367E-01 0.230E-01
   0.917E+03 0.524E+03 0.215E+03   -.912E+03 -.521E+03 -.213E+03   -.448E+01 -.295E+01 -.211E+01   -.164E-01 -.172E-01 0.889E-01
   0.126E+02 -.338E+03 0.103E+04   -.133E+02 0.336E+03 -.102E+04   0.745E+00 0.185E+01 -.726E+01   -.282E-01 -.840E-02 -.639E-01
   0.117E+03 0.351E+03 0.696E+03   -.117E+03 -.351E+03 -.696E+03   -.443E+00 -.162E+00 -.710E+00   -.545E-01 -.556E-01 0.383E-01
 -----------------------------------------------------------------------------------------------
   -.384E+00 0.698E+00 -.135E+00   0.185E-12 -.398E-12 0.114E-12   0.934E+00 -.934E-01 -.456E+00   -.551E+00 -.600E+00 0.591E+00
 
 
 POSITION                                       TOTAL-FORCE (eV/Angst)
 -----------------------------------------------------------------------------------
     12.33109     14.58335     14.05468        -0.000252      0.010346      0.010278
     11.05354     12.87595     15.56975        -0.000193     -0.008147      0.002273
     14.63118     13.25386     13.34241        -0.002590     -0.008281     -0.007409
     13.93835     15.55660     12.18829        -0.001345      0.012740     -0.002038
     12.26020     12.07709     13.30421        -0.010808     -0.021767     -0.003204
     11.60341     14.51792     11.51793        -0.005391     -0.024721     -0.016613
     10.03567     10.77803     14.36498         0.002437      0.010812     -0.001764
      9.91879     13.24831     13.19525        -0.015833      0.003793      0.008463
     14.18680     10.92545     11.96776        -0.000713     -0.009405      0.001614
      9.52939     13.25307     10.55158         0.010853     -0.003829      0.009837
     11.59560      9.67076     12.54171        -0.005512      0.015119      0.000198
     13.76836     13.25644     10.84678         0.010161     -0.002251     -0.014502
     12.92467      9.38136     10.34121         0.000633      0.007283      0.002919
      9.31543     10.93993     11.84335         0.006810      0.001248     -0.001513
     11.77245     13.66200      9.05396        -0.002295      0.007946      0.003123
     11.62607     11.61560     10.68205         0.014039      0.009114      0.008340
 -----------------------------------------------------------------------------------
    total drift:                               -0.000576      0.004292     -0.000548


--------------------------------------------------------------------------------------------------------



  FREE ENERGIE OF THE ION-ELECTRON SYSTEM (eV)
  ---------------------------------------------------
  free  energy   TOTEN  =       -62.35268936 eV

  energy  without entropy=      -62.40016960  energy(sigma->0) =      -62.36851611
 
 d Force =-0.2625424E-05[-0.112E-04, 0.593E-05]  d Energy =-0.4630133E-04 0.437E-04
 d Force =-0.3643927E+00[-0.364E+00,-0.364E+00]  d Ewald  =-0.3643927E+00 0.446E-08


--------------------------------------------------------------------------------------------------------


    POTLOK:  cpu time    3.1776: real time    3.1850


--------------------------------------------------------------------------------------------------------




--------------------------------------------------------------------------------------------------------


  
 reached required accuracy - stopping structural energy minimisation
     LOOP+:  cpu time  107.5731: real time  107.7439
    4ORBIT:  cpu time    0.0000: real time    0.0000

 total amount of memory used by VASP MPI-rank0   183163. kBytes
=======================================================================

   base      :      30000. kBytes
   nonl-proj :       6504. kBytes
   fftplans  :      35590. kBytes
   grid      :      83952. kBytes
   one-center:         31. kBytes
   wavefun   :      27086. kBytes
 
  
  
 General timing and accounting informations for this job:
 ========================================================
  
                  Total CPU time used (sec):     5801.106
                            User time (sec):     5760.903
                          System time (sec):       40.204
                         Elapsed time (sec):     5815.080
  
                   Maximum memory used (kb):      373100.
                   Average memory used (kb):           0.
  
                          Minor page faults:     10620659
                          Major page faults:       189912
                 Voluntary context switches:         4761
