<?xml version="1.0" encoding="ISO-8859-1"?>
<modeling>
 <generator>
  <i name="program" type="string">vasp </i>
  <i name="version" type="string">6.1.2  </i>
  <i name="subversion" type="string">22Jul20 (build Aug  2 2021 21:04:21) gamma-only                       parallel </i>
  <i name="platform" type="string">LinuxPGI </i>
  <i name="date" type="string">2021 12 14 </i>
  <i name="time" type="string">09:53:14 </i>
 </generator>
 <incar>
  <i type="int" name="ISPIN">     2</i>
  <i type="int" name="IBRION">     2</i>
  <i type="int" name="NSW">  1000</i>
  <i type="int" name="ISIF">     0</i>
  <i type="int" name="ISYM">     0</i>
  <i name="ENCUT">    400.00000000</i>
  <i type="logical" name="LREAL"> F  </i>
  <i type="int" name="ISMEAR">     1</i>
  <i name="SIGMA">      0.20000000</i>
  <i type="logical" name="LWAVE"> F  </i>
  <i type="logical" name="LCHARG"> F  </i>
  <i type="int" name="KPAR">     1</i>
  <i type="int" name="NCORE">     8</i>
  <i type="string" name="GGA"> PE</i>
  <i type="int" name="ISPIN">     2</i>
 </incar>
 <structure name="primitive_cell" >
  <crystal>
   <varray name="basis" >
    <v>      23.99203093       0.00000000       0.00000000 </v>
    <v>       0.00000000      24.69324968       0.00000000 </v>
    <v>       0.00000000       0.00000000      24.17510510 </v>
   </varray>
   <i name="volume">  14322.32852548 </i>
   <varray name="rec_basis" >
    <v>       0.04168051       0.00000000       0.00000000 </v>
    <v>       0.00000000       0.04049690       0.00000000 </v>
    <v>       0.00000000       0.00000000       0.04136487 </v>
   </varray>
  </crystal>
  <varray name="positions" >
   <v>       0.52141255       0.59220722       0.58642948 </v>
   <v>       0.45663390       0.52761378       0.63859396 </v>
   <v>       0.60493411       0.53312180       0.54909349 </v>
   <v>       0.58138824       0.62507273       0.50478149 </v>
   <v>       0.50320178       0.49450068       0.54399831 </v>
   <v>       0.48246828       0.58385546       0.48496810 </v>
   <v>       0.42342883       0.43946554       0.59501190 </v>
   <v>       0.40272384       0.53615499       0.54590433 </v>
   <v>       0.58440010       0.44177217       0.49300723 </v>
   <v>       0.40064609       0.53321998       0.43612617 </v>
   <v>       0.48933165       0.39144841       0.51970098 </v>
   <v>       0.57425133       0.53774239       0.44549238 </v>
   <v>       0.53731969       0.37556950       0.42751516 </v>
   <v>       0.39844306       0.44375307       0.49206237 </v>
   <v>       0.48926592       0.55858197       0.38107232 </v>
   <v>       0.48991214       0.46892763       0.43752681 </v>
  </varray>
 </structure>
 <varray name="primitive_index" >
  <v type="int" >        1 </v>
  <v type="int" >        2 </v>
  <v type="int" >        3 </v>
  <v type="int" >        4 </v>
  <v type="int" >        5 </v>
  <v type="int" >        6 </v>
  <v type="int" >        7 </v>
  <v type="int" >        8 </v>
  <v type="int" >        9 </v>
  <v type="int" >       10 </v>
  <v type="int" >       11 </v>
  <v type="int" >       12 </v>
  <v type="int" >       13 </v>
  <v type="int" >       14 </v>
  <v type="int" >       15 </v>
  <v type="int" >       16 </v>
 </varray>
 <kpoints>
  <generation param="Gamma">
   <v type="int" name="divisions">       1        1        1 </v>
   <v name="usershift">      0.00000000       0.00000000       0.00000000 </v>
   <v name="genvec1">      1.00000000       0.00000000       0.00000000 </v>
   <v name="genvec2">      0.00000000       1.00000000       0.00000000 </v>
   <v name="genvec3">      0.00000000       0.00000000       1.00000000 </v>
   <v name="shift">      0.00000000       0.00000000       0.00000000 </v>
  </generation>
  <varray name="kpointlist" >
   <v>       0.00000000       0.00000000       0.00000000 </v>
  </varray>
  <varray name="weights" >
   <v>       1.00000000 </v>
  </varray>
 </kpoints>
 <parameters>
  <separator name="general" >
   <i type="string" name="SYSTEM">unknown system</i>
   <i type="logical" name="LCOMPAT"> F  </i>
  </separator>
  <separator name="electronic" >
   <i type="string" name="PREC">normal</i>
   <i name="ENMAX">    400.00000000</i>
   <i name="ENAUG">    416.23000000</i>
   <i name="EDIFF">      0.00010000</i>
   <i type="int" name="IALGO">    38</i>
   <i type="int" name="IWAVPR">    11</i>
   <i type="int" name="NBANDS">   104</i>
   <i type="int" name="NBANDSLOW">    -1</i>
   <i type="int" name="NBANDSHIGH">    -1</i>
   <i name="NELECT">    160.00000000</i>
   <i type="int" name="TURBO">     0</i>
   <i type="int" name="IRESTART">     0</i>
   <i type="int" name="NREBOOT">     0</i>
   <i type="int" name="NMIN">     0</i>
   <i name="EREF">      0.00000000</i>
   <separator name="electronic smearing" >
    <i type="int" name="ISMEAR">     1</i>
    <i name="SIGMA">      0.20000000</i>
    <i name="KSPACING">      0.50000000</i>
    <i type="logical" name="KGAMMA"> T  </i>
    <i type="logical" name="KBLOWUP"> T  </i>
   </separator>
   <separator name="electronic projectors" >
    <i type="logical" name="LREAL"> F  </i>
    <v name="ROPT">      0.00000000</v>
    <i type="int" name="LMAXPAW">  -100</i>
    <i type="int" name="LMAXMIX">     2</i>
    <i type="logical" name="NLSPLINE"> F  </i>
   </separator>
   <separator name="electronic startup" >
    <i type="int" name="ISTART">     0</i>
    <i type="int" name="ICHARG">     2</i>
    <i type="int" name="INIWAV">     1</i>
   </separator>
   <separator name="electronic spin" >
    <i type="int" name="ISPIN">     2</i>
    <i type="logical" name="LNONCOLLINEAR"> F  </i>
    <v name="MAGMOM">      1.00000000      1.00000000      1.00000000      1.00000000      1.00000000      1.00000000      1.00000000      1.00000000      1.00000000      1.00000000      1.00000000      1.00000000      1.00000000      1.00000000      1.00000000      1.00000000</v>
    <i name="NUPDOWN">     -1.00000000</i>
    <i type="logical" name="LSORBIT"> F  </i>
    <v name="SAXIS">      0.00000000      0.00000000      1.00000000</v>
    <i type="logical" name="LSPIRAL"> F  </i>
    <v name="QSPIRAL">      0.00000000      0.00000000      0.00000000</v>
    <i type="logical" name="LZEROZ"> F  </i>
   </separator>
   <separator name="electronic exchange-correlation" >
    <i type="logical" name="LASPH"> F  </i>
    <i type="logical" name="LMETAGGA"> F  </i>
   </separator>
   <separator name="electronic convergence" >
    <i type="int" name="NELM">    60</i>
    <i type="int" name="NELMDL">     0</i>
    <i type="int" name="NELMIN">     2</i>
    <i name="ENINI">    400.00000000</i>
    <separator name="electronic convergence detail" >
     <i type="logical" name="LDIAG"> T  </i>
     <i type="logical" name="LSUBROT"> F  </i>
     <i name="WEIMIN">      0.00100000</i>
     <i name="EBREAK">      0.00000024</i>
     <i name="DEPER">      0.30000000</i>
     <i type="int" name="NRMM">     4</i>
     <i name="TIME">      0.40000000</i>
    </separator>
   </separator>
   <separator name="electronic mixer" >
    <i name="AMIX">      0.40000000</i>
    <i name="BMIX">      1.00000000</i>
    <i name="AMIN">      0.10000000</i>
    <i name="AMIX_MAG">      1.60000000</i>
    <i name="BMIX_MAG">      1.00000000</i>
    <separator name="electronic mixer details" >
     <i type="int" name="IMIX">     4</i>
     <i type="logical" name="MIXFIRST"> F  </i>
     <i type="int" name="MAXMIX">   -45</i>
     <i name="WC">    100.00000000</i>
     <i type="int" name="INIMIX">     1</i>
     <i type="int" name="MIXPRE">     1</i>
     <i type="int" name="MREMOVE">     5</i>
    </separator>
   </separator>
   <separator name="electronic dipolcorrection" >
    <i type="logical" name="LDIPOL"> F  </i>
    <i type="logical" name="LMONO"> F  </i>
    <i type="int" name="IDIPOL">     0</i>
    <i name="EPSILON">      1.00000000</i>
    <v name="DIPOL">   -100.00000000   -100.00000000   -100.00000000</v>
    <i name="EFIELD">      0.00000000</i>
   </separator>
  </separator>
  <separator name="grids" >
   <i type="int" name="NGX">   120</i>
   <i type="int" name="NGY">   126</i>
   <i type="int" name="NGZ">   120</i>
   <i type="int" name="NGXF">   240</i>
   <i type="int" name="NGYF">   252</i>
   <i type="int" name="NGZF">   240</i>
   <i type="logical" name="ADDGRID"> F  </i>
  </separator>
  <separator name="ionic" >
   <i type="int" name="NSW">  1000</i>
   <i type="int" name="IBRION">     2</i>
   <i type="int" name="MDALGO">     0</i>
   <i type="int" name="ISIF">     0</i>
   <i name="PSTRESS">      0.00000000</i>
   <i name="EDIFFG">      0.00100000</i>
   <i type="int" name="NFREE">     1</i>
   <i name="POTIM">      0.50000000</i>
   <i name="SMASS">     -3.00000000</i>
   <i name="SCALEE">      1.00000000</i>
  </separator>
  <separator name="ionic md" >
   <i name="TEBEG">      0.00010000</i>
   <i name="TEEND">      0.00010000</i>
   <i type="int" name="NBLOCK">     1</i>
   <i type="int" name="KBLOCK">  1000</i>
   <i type="int" name="NPACO">   256</i>
   <i name="APACO">     16.00000000</i>
  </separator>
  <separator name="symmetry" >
   <i type="int" name="ISYM">     0</i>
   <i name="SYMPREC">      0.00001000</i>
  </separator>
  <separator name="dos" >
   <i type="int" name="LORBIT">     0</i>
   <v name="RWIGS">     -1.00000000</v>
   <i type="int" name="NEDOS">   301</i>
   <i name="EMIN">     10.00000000</i>
   <i name="EMAX">    -10.00000000</i>
   <i name="EFERMI">      0.00000000</i>
  </separator>
  <separator name="writing" >
   <i type="int" name="NWRITE">     2</i>
   <i type="logical" name="LWAVE"> F  </i>
   <i type="logical" name="LDOWNSAMPLE"> F  </i>
   <i type="logical" name="LCHARG"> F  </i>
   <i type="logical" name="LPARD"> F  </i>
   <i type="logical" name="LVTOT"> F  </i>
   <i type="logical" name="LVHAR"> F  </i>
   <i type="logical" name="LELF"> F  </i>
   <i type="logical" name="LOPTICS"> F  </i>
   <v name="STM">      0.00000000      0.00000000      0.00000000      0.00000000      0.00000000      0.00000000      0.00000000</v>
  </separator>
  <separator name="performance" >
   <i type="int" name="NPAR">     2</i>
   <i type="int" name="NSIM">     4</i>
   <i type="int" name="NBLK">    -1</i>
   <i type="logical" name="LPLANE"> T  </i>
   <i type="logical" name="LSCALAPACK"> T  </i>
   <i type="logical" name="LSCAAWARE"> F  </i>
   <i type="logical" name="LSCALU"> F  </i>
   <i type="logical" name="LASYNC"> F  </i>
   <i type="logical" name="LORBITALREAL"> F  </i>
  </separator>
  <separator name="miscellaneous" >
   <i type="int" name="IDIOT">     3</i>
   <i type="int" name="PHON_NSTRUCT">    -1</i>
   <i type="logical" name="LMUSIC"> F  </i>
   <v name="POMASS">    106.42000000</v>
   <v name="DARWINR">      0.00000000</v>
   <v name="DARWINV">      1.00000000</v>
   <i type="logical" name="LCORR"> T  </i>
  </separator>
  <i type="logical" name="GGA_COMPAT"> T  </i>
  <i type="logical" name="LBERRY"> F  </i>
  <i type="int" name="ICORELEVEL">     0</i>
  <i type="logical" name="LDAU"> F  </i>
  <i type="int" name="I_CONSTRAINED_M">     0</i>
  <separator name="electronic exchange-correlation" >
   <i type="string" name="GGA">PE</i>
   <i type="int" name="VOSKOWN">     0</i>
   <i type="logical" name="LHFCALC"> F  </i>
   <i type="string" name="PRECFOCK"></i>
   <i type="logical" name="LSYMGRAD"> F  </i>
   <i type="logical" name="LHFONE"> F  </i>
   <i type="logical" name="LRHFCALC"> F  </i>
   <i type="logical" name="LTHOMAS"> F  </i>
   <i type="logical" name="LMODELHF"> F  </i>
   <i type="logical" name="LFOCKACE"> F  </i>
   <i name="ENCUT4O">     -1.00000000</i>
   <i type="int" name="EXXOEP">     0</i>
   <i type="int" name="FOURORBIT">     0</i>
   <i name="AEXX">      0.00000000</i>
   <i name="HFALPHA">      0.00000000</i>
   <i name="MCALPHA">      0.00000000</i>
   <i name="ALDAX">      1.00000000</i>
   <i name="AGGAX">      1.00000000</i>
   <i name="ALDAC">      1.00000000</i>
   <i name="AGGAC">      1.00000000</i>
   <i type="int" name="NKREDX">     1</i>
   <i type="int" name="NKREDY">     1</i>
   <i type="int" name="NKREDZ">     1</i>
   <i type="logical" name="SHIFTRED"> F  </i>
   <i type="logical" name="ODDONLY"> F  </i>
   <i type="logical" name="EVENONLY"> F  </i>
   <i type="int" name="LMAXFOCK">     0</i>
   <i type="int" name="NMAXFOCKAE">     0</i>
   <i type="logical" name="LFOCKAEDFT"> F  </i>
   <i name="HFSCREEN">      0.00000000</i>
   <i name="HFSCREENC">      0.00000000</i>
   <i type="int" name="NBANDSGWLOW">     0</i>
  </separator>
  <separator name="vdW DFT" >
   <i type="logical" name="LUSE_VDW"> F  </i>
   <i name="Zab_VDW">     -0.84910000</i>
   <i name="PARAM1">      0.12340000</i>
   <i name="PARAM2">      1.00000000</i>
   <i name="PARAM3">      0.00000000</i>
  </separator>
  <separator name="model GW" >
   <i type="int" name="MODEL_GW">     0</i>
   <i name="MODEL_EPS0">    537.08731971</i>
   <i name="MODEL_ALPHA">      1.00000000</i>
  </separator>
  <separator name="linear response parameters" >
   <i type="logical" name="LEPSILON"> F  </i>
   <i type="logical" name="LRPA"> F  </i>
   <i type="logical" name="LNABLA"> F  </i>
   <i type="logical" name="LVEL"> F  </i>
   <i type="int" name="KINTER">     0</i>
   <i name="CSHIFT">      0.10000000</i>
   <i name="OMEGAMAX">     -1.00000000</i>
   <i name="DEG_THRESHOLD">      0.00200000</i>
   <i name="RTIME">     -0.10000000</i>
   <i name="WPLASMAI">      0.00000000</i>
   <v name="DFIELD">      0.00000000      0.00000000      0.00000000</v>
   <v name="WPLASMA">      0.00000000      0.00000000      0.00000000      0.00000000      0.00000000      0.00000000      0.00000000      0.00000000      0.00000000</v>
  </separator>
  <separator name="orbital magnetization" >
   <i type="logical" name="NUCIND"> F  </i>
   <v name="MAGPOS">      0.00000000      0.00000000      0.00000000</v>
   <i type="logical" name="LNICSALL"> T  </i>
   <i type="logical" name="ORBITALMAG"> F  </i>
   <i type="logical" name="LMAGBLOCH"> F  </i>
   <i type="logical" name="LCHIMAG"> F  </i>
   <i type="logical" name="LGAUGE"> T  </i>
   <i type="int" name="MAGATOM">     0</i>
   <v name="MAGDIPOL">      0.00000000      0.00000000      0.00000000</v>
   <v name="AVECCONST">      0.00000000      0.00000000      0.00000000</v>
  </separator>
  <separator name="response functions" >
   <i type="logical" name="LFINITE_TEMPERATURE"> F  </i>
   <i type="logical" name="LADDER"> F  </i>
   <i type="logical" name="LRPAFORCE"> F  </i>
   <i type="logical" name="LFXC"> F  </i>
   <i type="logical" name="LHARTREE"> T  </i>
   <i type="int" name="IBSE">     0</i>
   <v type="int" name="KPOINT">    -1     0     0     0</v>
   <i type="logical" name="LTCTC"> F  </i>
   <i type="logical" name="LTCTE"> F  </i>
   <i type="logical" name="LTETE"> F  </i>
   <i type="logical" name="LTRIPLET"> F  </i>
   <i type="logical" name="LFXCEPS"> F  </i>
   <i type="logical" name="LFXHEG"> F  </i>
   <i type="int" name="NATURALO">     2</i>
   <i type="logical" name="LHOLEGF"> F  </i>
   <i type="logical" name="L2ORDER"> F  </i>
   <i type="logical" name="LDMP1"> F  </i>
   <i type="logical" name="LMP2LT"> F  </i>
   <i type="logical" name="LSMP2LT"> F  </i>
   <i type="logical" name="LGWLF"> F  </i>
   <i name="ENCUTGW">     -2.00000000</i>
   <i name="ENCUTGWSOFT">     -2.00000000</i>
   <i name="ENCUTLF">     -1.00000000</i>
   <i type="logical" name="LESF_SPLINES"> F  </i>
   <i type="int" name="LMAXMP2">    -1</i>
   <i name="SCISSOR">      0.00000000</i>
   <i type="int" name="NOMEGA">     0</i>
   <i type="int" name="NOMEGAR">     0</i>
   <i type="int" name="NBANDSGW">    -1</i>
   <i type="int" name="NBANDSO">    -1</i>
   <i type="int" name="NBANDSV">    -1</i>
   <i type="int" name="NELM">     1</i>
   <i type="int" name="NELMHF">     1</i>
   <i type="int" name="DIM">     3</i>
   <i type="int" name="IESPILON">     4</i>
   <i type="int" name="ANTIRES">     0</i>
   <i name="OMEGAMAX">    -30.00000000</i>
   <i name="OMEGAMIN">    -30.00000000</i>
   <i name="OMEGATL">   -200.00000000</i>
   <i type="int" name="OMEGAGRID">     0</i>
   <i name="CSHIFT">     -0.10000000</i>
   <i type="logical" name="LSELFENERGY"> F  </i>
   <i type="logical" name="LSPECTRAL"> F  </i>
   <i type="logical" name="LSPECTRALGW"> F  </i>
   <i type="logical" name="LSINGLES"> F  </i>
   <i type="logical" name="LFERMIGW"> F  </i>
   <i type="logical" name="ODDONLYGW"> F  </i>
   <i type="logical" name="EVENONLYGW"> F  </i>
   <i type="int" name="NKREDLFX">     1</i>
   <i type="int" name="NKREDLFY">     1</i>
   <i type="int" name="NKREDLFZ">     1</i>
   <i type="int" name="MAXMEM">  2800</i>
   <i type="int" name="TELESCOPE">     0</i>
   <i type="int" name="NTAUPAR">    -1</i>
   <i type="int" name="NOMEGAPAR">    -1</i>
   <i name="LAMBDA">      1.00000000</i>
  </separator>
  <separator name="External order field" >
   <i name="OFIELD_KAPPA">      0.00000000</i>
   <v name="OFIELD_K">      0.00000000      0.00000000      0.00000000</v>
   <i name="OFIELD_Q6_NEAR">      0.00000000</i>
   <i name="OFIELD_Q6_FAR">      0.00000000</i>
   <i name="OFIELD_A">      0.00000000</i>
  </separator>
 </parameters>
 <atominfo>
  <atoms>      16 </atoms>
  <types>       1 </types>
  <array name="atoms" >
   <dimension dim="1">ion</dimension>
   <field type="string">element</field>
   <field type="int">atomtype</field>
   <set>
    <rc><c>Pd</c><c>   1</c></rc>
    <rc><c>Pd</c><c>   1</c></rc>
    <rc><c>Pd</c><c>   1</c></rc>
    <rc><c>Pd</c><c>   1</c></rc>
    <rc><c>Pd</c><c>   1</c></rc>
    <rc><c>Pd</c><c>   1</c></rc>
    <rc><c>Pd</c><c>   1</c></rc>
    <rc><c>Pd</c><c>   1</c></rc>
    <rc><c>Pd</c><c>   1</c></rc>
    <rc><c>Pd</c><c>   1</c></rc>
    <rc><c>Pd</c><c>   1</c></rc>
    <rc><c>Pd</c><c>   1</c></rc>
    <rc><c>Pd</c><c>   1</c></rc>
    <rc><c>Pd</c><c>   1</c></rc>
    <rc><c>Pd</c><c>   1</c></rc>
    <rc><c>Pd</c><c>   1</c></rc>
   </set>
  </array>
  <array name="atomtypes" >
   <dimension dim="1">type</dimension>
   <field type="int">atomspertype</field>
   <field type="string">element</field>
   <field>mass</field>
   <field>valence</field>
   <field type="string">pseudopotential</field>
   <set>
    <rc><c>  16</c><c>Pd</c><c>    106.42000000</c><c>     10.00000000</c><c>  PAW_PBE Pd 04Jan2005                  </c></rc>
   </set>
  </array>
 </atominfo>
 <structure name="initialpos" >
  <crystal>
   <varray name="basis" >
    <v>      23.99203093       0.00000000       0.00000000 </v>
    <v>       0.00000000      24.69324968       0.00000000 </v>
    <v>       0.00000000       0.00000000      24.17510510 </v>
   </varray>
   <i name="volume">  14322.32852548 </i>
   <varray name="rec_basis" >
    <v>       0.04168051       0.00000000       0.00000000 </v>
    <v>       0.00000000       0.04049690       0.00000000 </v>
    <v>       0.00000000       0.00000000       0.04136487 </v>
   </varray>
  </crystal>
  <varray name="positions" >
   <v>       0.52141255       0.59220722       0.58642948 </v>
   <v>       0.45663390       0.52761378       0.63859396 </v>
   <v>       0.60493411       0.53312180       0.54909349 </v>
   <v>       0.58138824       0.62507273       0.50478149 </v>
   <v>       0.50320178       0.49450068       0.54399831 </v>
   <v>       0.48246828       0.58385546       0.48496810 </v>
   <v>       0.42342883       0.43946554       0.59501190 </v>
   <v>       0.40272384       0.53615499       0.54590433 </v>
   <v>       0.58440010       0.44177217       0.49300723 </v>
   <v>       0.40064609       0.53321998       0.43612617 </v>
   <v>       0.48933165       0.39144841       0.51970098 </v>
   <v>       0.57425133       0.53774239       0.44549238 </v>
   <v>       0.53731969       0.37556950       0.42751516 </v>
   <v>       0.39844306       0.44375307       0.49206237 </v>
   <v>       0.48926592       0.55858197       0.38107232 </v>
   <v>       0.48991214       0.46892763       0.43752681 </v>
  </varray>
 </structure>
 <calculation>
  <scstep>
   <time name="dav">   15.92   15.94</time>
   <time name="total">   19.13   19.17</time>
   <energy>
    <i name="alphaZ">     11.64954258 </i>
    <i name="ewald">  26595.67297897 </i>
    <i name="hartreedc"> -38892.71712092 </i>
    <i name="XCdc">   -479.52374935 </i>
    <i name="pawpsdc">  12906.36685261 </i>
    <i name="pawaedc"> -11910.91650437 </i>
    <i name="eentropy">      0.04157482 </i>
    <i name="bandstr">    241.93048426 </i>
    <i name="atom">  12955.90228127 </i>
    <i name="e_fr_energy">   1428.40633987 </i>
    <i name="e_wo_entrp">   1428.36476505 </i>
    <i name="e_0_energy">   1428.39248160 </i>
   </energy>
  </scstep>
  <scstep>
   <time name="dav">   26.84   26.88</time>
   <time name="total">   26.85   26.88</time>
   <energy>
    <i name="e_fr_energy">    736.63075328 </i>
    <i name="e_wo_entrp">    736.67030891 </i>
    <i name="e_0_energy">    736.64393849 </i>
   </energy>
  </scstep>
  <scstep>
   <time name="dav">   23.61   23.64</time>
   <time name="total">   23.61   23.64</time>
   <energy>
    <i name="e_fr_energy">    136.33917676 </i>
    <i name="e_wo_entrp">    136.32112585 </i>
    <i name="e_0_energy">    136.33315979 </i>
   </energy>
  </scstep>
  <scstep>
   <time name="dav">   20.28   20.31</time>
   <time name="total">   20.29   20.31</time>
   <energy>
    <i name="e_fr_energy">    -40.34750517 </i>
    <i name="e_wo_entrp">    -40.35619158 </i>
    <i name="e_0_energy">    -40.35040064 </i>
   </energy>
  </scstep>
  <scstep>
   <time name="dav">   20.26   20.28</time>
   <time name="total">   21.45   21.47</time>
   <energy>
    <i name="e_fr_energy">    -64.22166723 </i>
    <i name="e_wo_entrp">    -64.20436191 </i>
    <i name="e_0_energy">    -64.21589879 </i>
   </energy>
  </scstep>
  <scstep>
   <time name="dav">   16.16   16.19</time>
   <time name="total">   20.53   20.56</time>
   <energy>
    <i name="e_fr_energy">    -54.79144186 </i>
    <i name="e_wo_entrp">    -54.83146891 </i>
    <i name="e_0_energy">    -54.80478421 </i>
   </energy>
  </scstep>
  <scstep>
   <time name="dav">   16.85   16.88</time>
   <time name="total">   21.26   21.29</time>
   <energy>
    <i name="e_fr_energy">    -54.81444982 </i>
    <i name="e_wo_entrp">    -54.83850007 </i>
    <i name="e_0_energy">    -54.82246657 </i>
   </energy>
  </scstep>
  <scstep>
   <time name="dav">   16.86   16.89</time>
   <time name="total">   21.25   21.28</time>
   <energy>
    <i name="e_fr_energy">    -49.65536202 </i>
    <i name="e_wo_entrp">    -49.62057330 </i>
    <i name="e_0_energy">    -49.64376578 </i>
   </energy>
  </scstep>
  <scstep>
   <time name="dav">   17.05   17.07</time>
   <time name="total">   21.45   21.49</time>
   <energy>
    <i name="e_fr_energy">    -48.58734631 </i>
    <i name="e_wo_entrp">    -48.61866772 </i>
    <i name="e_0_energy">    -48.59778678 </i>
   </energy>
  </scstep>
  <scstep>
   <time name="dav">   17.01   17.03</time>
   <time name="total">   21.41   21.43</time>
   <energy>
    <i name="e_fr_energy">    -49.46464510 </i>
    <i name="e_wo_entrp">    -49.43332064 </i>
    <i name="e_0_energy">    -49.45420361 </i>
   </energy>
  </scstep>
  <scstep>
   <time name="dav">   16.93   16.96</time>
   <time name="total">   21.35   21.38</time>
   <energy>
    <i name="e_fr_energy">    -50.43675575 </i>
    <i name="e_wo_entrp">    -50.44344313 </i>
    <i name="e_0_energy">    -50.43898488 </i>
   </energy>
  </scstep>
  <scstep>
   <time name="dav">   16.93   16.96</time>
   <time name="total">   21.35   21.38</time>
   <energy>
    <i name="e_fr_energy">    -51.48635407 </i>
    <i name="e_wo_entrp">    -51.47403819 </i>
    <i name="e_0_energy">    -51.48224878 </i>
   </energy>
  </scstep>
  <scstep>
   <time name="dav">   16.30   16.32</time>
   <time name="total">   20.72   20.75</time>
   <energy>
    <i name="e_fr_energy">    -52.69889416 </i>
    <i name="e_wo_entrp">    -52.68664614 </i>
    <i name="e_0_energy">    -52.69481149 </i>
   </energy>
  </scstep>
  <scstep>
   <time name="dav">   16.53   16.56</time>
   <time name="total">   21.01   21.04</time>
   <energy>
    <i name="e_fr_energy">    -55.34889105 </i>
    <i name="e_wo_entrp">    -55.33179240 </i>
    <i name="e_0_energy">    -55.34319150 </i>
   </energy>
  </scstep>
  <scstep>
   <time name="dav">   17.39   17.42</time>
   <time name="total">   21.83   21.87</time>
   <energy>
    <i name="e_fr_energy">    -55.86152347 </i>
    <i name="e_wo_entrp">    -55.83841181 </i>
    <i name="e_0_energy">    -55.85381959 </i>
   </energy>
  </scstep>
  <scstep>
   <time name="dav">   16.19   16.21</time>
   <time name="total">   20.65   20.68</time>
   <energy>
    <i name="e_fr_energy">    -56.43049259 </i>
    <i name="e_wo_entrp">    -56.40869832 </i>
    <i name="e_0_energy">    -56.42322783 </i>
   </energy>
  </scstep>
  <scstep>
   <time name="dav">   16.10   16.12</time>
   <time name="total">   20.57   20.59</time>
   <energy>
    <i name="e_fr_energy">    -57.35593041 </i>
    <i name="e_wo_entrp">    -57.33754848 </i>
    <i name="e_0_energy">    -57.34980310 </i>
   </energy>
  </scstep>
  <scstep>
   <time name="dav">   16.78   16.79</time>
   <time name="total">   21.25   21.27</time>
   <energy>
    <i name="e_fr_energy">    -58.11124779 </i>
    <i name="e_wo_entrp">    -58.09453726 </i>
    <i name="e_0_energy">    -58.10567761 </i>
   </energy>
  </scstep>
  <scstep>
   <time name="dav">   15.88   15.90</time>
   <time name="total">   20.34   20.37</time>
   <energy>
    <i name="e_fr_energy">    -58.75354180 </i>
    <i name="e_wo_entrp">    -58.73575639 </i>
    <i name="e_0_energy">    -58.74761333 </i>
   </energy>
  </scstep>
  <scstep>
   <time name="dav">   17.25   17.28</time>
   <time name="total">   21.74   21.77</time>
   <energy>
    <i name="e_fr_energy">    -59.29697097 </i>
    <i name="e_wo_entrp">    -59.27964725 </i>
    <i name="e_0_energy">    -59.29119640 </i>
   </energy>
  </scstep>
  <scstep>
   <time name="dav">   16.12   16.14</time>
   <time name="total">   20.61   20.64</time>
   <energy>
    <i name="e_fr_energy">    -60.05167449 </i>
    <i name="e_wo_entrp">    -60.03571739 </i>
    <i name="e_0_energy">    -60.04635545 </i>
   </energy>
  </scstep>
  <scstep>
   <time name="dav">   16.95   16.97</time>
   <time name="total">   21.46   21.49</time>
   <energy>
    <i name="e_fr_energy">    -60.55733340 </i>
    <i name="e_wo_entrp">    -60.54379087 </i>
    <i name="e_0_energy">    -60.55281922 </i>
   </energy>
  </scstep>
  <scstep>
   <time name="dav">   16.07   16.09</time>
   <time name="total">   20.59   20.62</time>
   <energy>
    <i name="e_fr_energy">    -60.84873788 </i>
    <i name="e_wo_entrp">    -60.83583556 </i>
    <i name="e_0_energy">    -60.84443711 </i>
   </energy>
  </scstep>
  <scstep>
   <time name="dav">   16.31   16.32</time>
   <time name="total">   20.84   20.87</time>
   <energy>
    <i name="e_fr_energy">    -61.25725019 </i>
    <i name="e_wo_entrp">    -61.24481321 </i>
    <i name="e_0_energy">    -61.25310453 </i>
   </energy>
  </scstep>
  <scstep>
   <time name="dav">   17.34   17.37</time>
   <time name="total">   21.89   21.92</time>
   <energy>
    <i name="e_fr_energy">    -61.47351381 </i>
    <i name="e_wo_entrp">    -61.46189895 </i>
    <i name="e_0_energy">    -61.46964219 </i>
   </energy>
  </scstep>
  <scstep>
   <time name="dav">   16.43   16.46</time>
   <time name="total">   21.02   21.05</time>
   <energy>
    <i name="e_fr_energy">    -61.68423820 </i>
    <i name="e_wo_entrp">    -61.67267881 </i>
    <i name="e_0_energy">    -61.68038507 </i>
   </energy>
  </scstep>
  <scstep>
   <time name="dav">   17.59   17.61</time>
   <time name="total">   22.22   22.24</time>
   <energy>
    <i name="e_fr_energy">    -61.79611720 </i>
    <i name="e_wo_entrp">    -61.78436901 </i>
    <i name="e_0_energy">    -61.79220114 </i>
   </energy>
  </scstep>
  <scstep>
   <time name="dav">   15.99   16.01</time>
   <time name="total">   20.60   20.63</time>
   <energy>
    <i name="e_fr_energy">    -61.86812647 </i>
    <i name="e_wo_entrp">    -61.85672768 </i>
    <i name="e_0_energy">    -61.86432687 </i>
   </energy>
  </scstep>
  <scstep>
   <time name="dav">   14.85   14.87</time>
   <time name="total">   19.46   19.49</time>
   <energy>
    <i name="e_fr_energy">    -61.90724465 </i>
    <i name="e_wo_entrp">    -61.89580927 </i>
    <i name="e_0_energy">    -61.90343285 </i>
   </energy>
  </scstep>
  <scstep>
   <time name="dav">   13.92   13.94</time>
   <time name="total">   18.55   18.58</time>
   <energy>
    <i name="e_fr_energy">    -61.92786335 </i>
    <i name="e_wo_entrp">    -61.91658974 </i>
    <i name="e_0_energy">    -61.92410548 </i>
   </energy>
  </scstep>
  <scstep>
   <time name="dav">   13.67   13.69</time>
   <time name="total">   18.29   18.32</time>
   <energy>
    <i name="e_fr_energy">    -61.94567150 </i>
    <i name="e_wo_entrp">    -61.93437130 </i>
    <i name="e_0_energy">    -61.94190477 </i>
   </energy>
  </scstep>
  <scstep>
   <time name="dav">   13.40   13.42</time>
   <time name="total">   18.03   18.06</time>
   <energy>
    <i name="e_fr_energy">    -61.95511280 </i>
    <i name="e_wo_entrp">    -61.94375892 </i>
    <i name="e_0_energy">    -61.95132818 </i>
   </energy>
  </scstep>
  <scstep>
   <time name="dav">   12.50   12.52</time>
   <time name="total">   17.14   17.17</time>
   <energy>
    <i name="e_fr_energy">    -61.95755616 </i>
    <i name="e_wo_entrp">    -61.94636065 </i>
    <i name="e_0_energy">    -61.95382432 </i>
   </energy>
  </scstep>
  <scstep>
   <time name="dav">   12.72   12.73</time>
   <time name="total">   17.36   17.39</time>
   <energy>
    <i name="e_fr_energy">    -61.95830713 </i>
    <i name="e_wo_entrp">    -61.94703845 </i>
    <i name="e_0_energy">    -61.95455090 </i>
   </energy>
  </scstep>
  <scstep>
   <time name="dav">   12.56   12.58</time>
   <time name="total">   17.21   17.24</time>
   <energy>
    <i name="e_fr_energy">    -61.95888903 </i>
    <i name="e_wo_entrp">    -61.94764621 </i>
    <i name="e_0_energy">    -61.95514142 </i>
   </energy>
  </scstep>
  <scstep>
   <time name="dav">   12.76   12.78</time>
   <time name="total">   17.46   17.49</time>
   <energy>
    <i name="e_fr_energy">    -61.95935867 </i>
    <i name="e_wo_entrp">    -61.94809785 </i>
    <i name="e_0_energy">    -61.95560507 </i>
   </energy>
  </scstep>
  <scstep>
   <time name="dav">   12.50   12.52</time>
   <time name="total">   17.22   17.24</time>
   <energy>
    <i name="e_fr_energy">    -61.95976800 </i>
    <i name="e_wo_entrp">    -61.94852758 </i>
    <i name="e_0_energy">    -61.95602119 </i>
   </energy>
  </scstep>
  <scstep>
   <time name="dav">   12.33   12.34</time>
   <time name="total">   17.05   17.07</time>
   <energy>
    <i name="e_fr_energy">    -61.96010384 </i>
    <i name="e_wo_entrp">    -61.94886595 </i>
    <i name="e_0_energy">    -61.95635787 </i>
   </energy>
  </scstep>
  <scstep>
   <time name="dav">   11.36   11.38</time>
   <time name="total">   16.13   16.16</time>
   <energy>
    <i name="e_fr_energy">    -61.96041537 </i>
    <i name="e_wo_entrp">    -61.94917381 </i>
    <i name="e_0_energy">    -61.95666818 </i>
   </energy>
  </scstep>
  <scstep>
   <time name="dav">   12.03   12.05</time>
   <time name="total">   16.81   16.84</time>
   <energy>
    <i name="e_fr_energy">    -61.96070206 </i>
    <i name="e_wo_entrp">    -61.94946361 </i>
    <i name="e_0_energy">    -61.95695591 </i>
   </energy>
  </scstep>
  <scstep>
   <time name="dav">   11.40   11.41</time>
   <time name="total">   16.23   16.25</time>
   <energy>
    <i name="e_fr_energy">    -61.96087445 </i>
    <i name="e_wo_entrp">    -61.94963818 </i>
    <i name="e_0_energy">    -61.95712903 </i>
   </energy>
  </scstep>
  <scstep>
   <time name="dav">   11.24   11.26</time>
   <time name="total">   14.41   14.43</time>
   <energy>
    <i name="alphaZ">     11.64954258 </i>
    <i name="ewald">  26595.67297897 </i>
    <i name="hartreedc"> -39124.11897673 </i>
    <i name="XCdc">   -479.63710067 </i>
    <i name="pawpsdc">  14927.84354916 </i>
    <i name="pawaedc"> -13955.01230154 </i>
    <i name="eentropy">     -0.01123460 </i>
    <i name="bandstr">   -994.24967845 </i>
    <i name="atom">  12955.90228127 </i>
    <i name="e_fr_energy">    -61.96094001 </i>
    <i name="e_wo_entrp">    -61.94970541 </i>
    <i name="e_0_energy">    -61.95719514 </i>
   </energy>
  </scstep>
  <structure>
   <crystal>
    <varray name="basis" >
     <v>      23.99203093       0.00000000       0.00000000 </v>
     <v>       0.00000000      24.69324968       0.00000000 </v>
     <v>       0.00000000       0.00000000      24.17510510 </v>
    </varray>
    <i name="volume">  14322.32852548 </i>
    <varray name="rec_basis" >
     <v>       0.04168051       0.00000000       0.00000000 </v>
     <v>       0.00000000       0.04049690       0.00000000 </v>
     <v>       0.00000000       0.00000000       0.04136487 </v>
    </varray>
   </crystal>
   <varray name="positions" >
    <v>       0.52141255       0.59220722       0.58642948 </v>
    <v>       0.45663390       0.52761378       0.63859396 </v>
    <v>       0.60493411       0.53312180       0.54909349 </v>
    <v>       0.58138824       0.62507273       0.50478149 </v>
    <v>       0.50320178       0.49450068       0.54399831 </v>
    <v>       0.48246828       0.58385546       0.48496810 </v>
    <v>       0.42342883       0.43946554       0.59501190 </v>
    <v>       0.40272384       0.53615499       0.54590433 </v>
    <v>       0.58440010       0.44177217       0.49300723 </v>
    <v>       0.40064609       0.53321998       0.43612617 </v>
    <v>       0.48933165       0.39144841       0.51970098 </v>
    <v>       0.57425133       0.53774239       0.44549238 </v>
    <v>       0.53731969       0.37556950       0.42751516 </v>
    <v>       0.39844306       0.44375307       0.49206237 </v>
    <v>       0.48926592       0.55858197       0.38107232 </v>
    <v>       0.48991214       0.46892763       0.43752681 </v>
   </varray>
  </structure>
  <varray name="forces" >
   <v>      -0.21968565       0.22827238       0.29421285 </v>
   <v>       0.06934016       0.23308166       0.67951529 </v>
   <v>       0.53732659      -0.34940236       0.32608175 </v>
   <v>       0.28279641       0.79803172      -0.27632870 </v>
   <v>       0.22268780      -0.10473072       0.30675022 </v>
   <v>      -0.11416679       0.41176528      -0.04753532 </v>
   <v>      -0.26866692      -0.68658433       0.33240581 </v>
   <v>      -0.32781516       0.50089683       0.06667661 </v>
   <v>       0.71621679       0.04556099       0.13699432 </v>
   <v>      -0.47736719       0.09222425      -0.09919371 </v>
   <v>      -0.19800259      -0.43290847       0.38677457 </v>
   <v>       0.36641968      -0.08012785      -0.22566562 </v>
   <v>       0.11304947      -0.37864627      -0.40500988 </v>
   <v>      -0.50816516      -0.46561830      -0.31874303 </v>
   <v>       0.17750493       0.33566722      -0.72874927 </v>
   <v>      -0.37147239      -0.14748203      -0.42818587 </v>
  </varray>
  <energy>
   <i name="e_fr_energy">    -61.96094001 </i>
   <i name="e_wo_entrp">    -61.94970541 </i>
   <i name="e_0_energy">    -61.95719514 </i>
  </energy>
  <time name="totalsc">  856.90  858.16</time>
 </calculation>
 <calculation>
  <scstep>
   <time name="dav">   15.98   16.00</time>
   <time name="total">   20.40   20.43</time>
   <energy>
    <i name="alphaZ">     11.64954258 </i>
    <i name="ewald">  26142.20976170 </i>
    <i name="hartreedc"> -38676.72626468 </i>
    <i name="XCdc">   -480.71180544 </i>
    <i name="pawpsdc">  14927.85189867 </i>
    <i name="pawaedc"> -13955.02073065 </i>
    <i name="eentropy">     -0.00613810 </i>
    <i name="bandstr">   -987.20992587 </i>
    <i name="atom">  12955.90228127 </i>
    <i name="e_fr_energy">    -62.06138052 </i>
    <i name="e_wo_entrp">    -62.05524242 </i>
    <i name="e_0_energy">    -62.05933449 </i>
   </energy>
  </scstep>
  <scstep>
   <time name="dav">   16.58   16.61</time>
   <time name="total">   20.97   21.00</time>
   <energy>
    <i name="e_fr_energy">    -62.21896858 </i>
    <i name="e_wo_entrp">    -62.21575265 </i>
    <i name="e_0_energy">    -62.21789660 </i>
   </energy>
  </scstep>
  <scstep>
   <time name="dav">   16.52   16.54</time>
   <time name="total">   20.90   20.93</time>
   <energy>
    <i name="e_fr_energy">    -62.18888341 </i>
    <i name="e_wo_entrp">    -62.18709856 </i>
    <i name="e_0_energy">    -62.18828846 </i>
   </energy>
  </scstep>
  <scstep>
   <time name="dav">   16.30   16.32</time>
   <time name="total">   20.68   20.72</time>
   <energy>
    <i name="e_fr_energy">    -62.17695456 </i>
    <i name="e_wo_entrp">    -62.17507577 </i>
    <i name="e_0_energy">    -62.17632830 </i>
   </energy>
  </scstep>
  <scstep>
   <time name="dav">   16.38   16.40</time>
   <time name="total">   20.78   20.81</time>
   <energy>
    <i name="e_fr_energy">    -62.16895093 </i>
    <i name="e_wo_entrp">    -62.16109504 </i>
    <i name="e_0_energy">    -62.16633230 </i>
   </energy>
  </scstep>
  <scstep>
   <time name="dav">   16.68   16.71</time>
   <time name="total">   21.07   21.10</time>
   <energy>
    <i name="e_fr_energy">    -62.16587993 </i>
    <i name="e_wo_entrp">    -62.16500346 </i>
    <i name="e_0_energy">    -62.16558778 </i>
   </energy>
  </scstep>
  <scstep>
   <time name="dav">   16.50   16.52</time>
   <time name="total">   20.90   20.92</time>
   <energy>
    <i name="e_fr_energy">    -62.15991906 </i>
    <i name="e_wo_entrp">    -62.15695270 </i>
    <i name="e_0_energy">    -62.15893027 </i>
   </energy>
  </scstep>
  <scstep>
   <time name="dav">   16.41   16.43</time>
   <time name="total">   20.82   20.84</time>
   <energy>
    <i name="e_fr_energy">    -62.15765663 </i>
    <i name="e_wo_entrp">    -62.15361648 </i>
    <i name="e_0_energy">    -62.15630991 </i>
   </energy>
  </scstep>
  <scstep>
   <time name="dav">   16.46   16.48</time>
   <time name="total">   20.86   20.88</time>
   <energy>
    <i name="e_fr_energy">    -62.15790269 </i>
    <i name="e_wo_entrp">    -62.15404917 </i>
    <i name="e_0_energy">    -62.15661818 </i>
   </energy>
  </scstep>
  <scstep>
   <time name="dav">   16.27   16.29</time>
   <time name="total">   20.72   20.75</time>
   <energy>
    <i name="e_fr_energy">    -62.15854477 </i>
    <i name="e_wo_entrp">    -62.15414720 </i>
    <i name="e_0_energy">    -62.15707891 </i>
   </energy>
  </scstep>
  <scstep>
   <time name="dav">   12.95   13.13</time>
   <time name="total">   17.37   17.56</time>
   <energy>
    <i name="e_fr_energy">    -62.15935265 </i>
    <i name="e_wo_entrp">    -62.15499695 </i>
    <i name="e_0_energy">    -62.15790075 </i>
   </energy>
  </scstep>
  <scstep>
   <time name="dav">   11.88   11.90</time>
   <time name="total">   16.32   16.35</time>
   <energy>
    <i name="e_fr_energy">    -62.16015136 </i>
    <i name="e_wo_entrp">    -62.15563369 </i>
    <i name="e_0_energy">    -62.15864547 </i>
   </energy>
  </scstep>
  <scstep>
   <time name="dav">   11.93   11.94</time>
   <time name="total">   16.38   16.40</time>
   <energy>
    <i name="e_fr_energy">    -62.16077601 </i>
    <i name="e_wo_entrp">    -62.15626715 </i>
    <i name="e_0_energy">    -62.15927306 </i>
   </energy>
  </scstep>
  <scstep>
   <time name="dav">   11.59   11.61</time>
   <time name="total">   16.05   16.08</time>
   <energy>
    <i name="e_fr_energy">    -62.16191905 </i>
    <i name="e_wo_entrp">    -62.15727246 </i>
    <i name="e_0_energy">    -62.16037019 </i>
   </energy>
  </scstep>
  <scstep>
   <time name="dav">   12.04   12.06</time>
   <time name="total">   16.49   16.52</time>
   <energy>
    <i name="e_fr_energy">    -62.16297501 </i>
    <i name="e_wo_entrp">    -62.15839537 </i>
    <i name="e_0_energy">    -62.16144846 </i>
   </energy>
  </scstep>
  <scstep>
   <time name="dav">   12.05   12.07</time>
   <time name="total">   16.56   16.58</time>
   <energy>
    <i name="e_fr_energy">    -62.16438835 </i>
    <i name="e_wo_entrp">    -62.15973776 </i>
    <i name="e_0_energy">    -62.16283815 </i>
   </energy>
  </scstep>
  <scstep>
   <time name="dav">   12.03   12.05</time>
   <time name="total">   16.53   16.55</time>
   <energy>
    <i name="e_fr_energy">    -62.16555130 </i>
    <i name="e_wo_entrp">    -62.16090710 </i>
    <i name="e_0_energy">    -62.16400324 </i>
   </energy>
  </scstep>
  <scstep>
   <time name="dav">   12.18   12.20</time>
   <time name="total">   16.70   16.72</time>
   <energy>
    <i name="e_fr_energy">    -62.16684326 </i>
    <i name="e_wo_entrp">    -62.16218081 </i>
    <i name="e_0_energy">    -62.16528911 </i>
   </energy>
  </scstep>
  <scstep>
   <time name="dav">   12.21   12.22</time>
   <time name="total">   16.74   16.76</time>
   <energy>
    <i name="e_fr_energy">    -62.16845750 </i>
    <i name="e_wo_entrp">    -62.16377055 </i>
    <i name="e_0_energy">    -62.16689518 </i>
   </energy>
  </scstep>
  <scstep>
   <time name="dav">   12.23   12.25</time>
   <time name="total">   16.78   16.81</time>
   <energy>
    <i name="e_fr_energy">    -62.17008474 </i>
    <i name="e_wo_entrp">    -62.16537646 </i>
    <i name="e_0_energy">    -62.16851531 </i>
   </energy>
  </scstep>
  <scstep>
   <time name="dav">   12.41   12.43</time>
   <time name="total">   16.95   16.97</time>
   <energy>
    <i name="e_fr_energy">    -62.17095249 </i>
    <i name="e_wo_entrp">    -62.16621790 </i>
    <i name="e_0_energy">    -62.16937429 </i>
   </energy>
  </scstep>
  <scstep>
   <time name="dav">   12.09   12.11</time>
   <time name="total">   16.66   16.69</time>
   <energy>
    <i name="e_fr_energy">    -62.17160677 </i>
    <i name="e_wo_entrp">    -62.16687776 </i>
    <i name="e_0_energy">    -62.17003043 </i>
   </energy>
  </scstep>
  <scstep>
   <time name="dav">   12.42   12.43</time>
   <time name="total">   17.00   17.02</time>
   <energy>
    <i name="e_fr_energy">    -62.17207489 </i>
    <i name="e_wo_entrp">    -62.16734250 </i>
    <i name="e_0_energy">    -62.17049743 </i>
   </energy>
  </scstep>
  <scstep>
   <time name="dav">   12.22   12.23</time>
   <time name="total">   16.80   16.83</time>
   <energy>
    <i name="e_fr_energy">    -62.17253392 </i>
    <i name="e_wo_entrp">    -62.16779633 </i>
    <i name="e_0_energy">    -62.17095472 </i>
   </energy>
  </scstep>
  <scstep>
   <time name="dav">   11.83   11.84</time>
   <time name="total">   16.44   16.47</time>
   <energy>
    <i name="e_fr_energy">    -62.17277680 </i>
    <i name="e_wo_entrp">    -62.16803526 </i>
    <i name="e_0_energy">    -62.17119629 </i>
   </energy>
  </scstep>
  <scstep>
   <time name="dav">   11.79   11.80</time>
   <time name="total">   16.42   16.44</time>
   <energy>
    <i name="e_fr_energy">    -62.17297823 </i>
    <i name="e_wo_entrp">    -62.16823421 </i>
    <i name="e_0_energy">    -62.17139689 </i>
   </energy>
  </scstep>
  <scstep>
   <time name="dav">   12.32   12.33</time>
   <time name="total">   16.99   17.01</time>
   <energy>
    <i name="e_fr_energy">    -62.17311928 </i>
    <i name="e_wo_entrp">    -62.16837591 </i>
    <i name="e_0_energy">    -62.17153816 </i>
   </energy>
  </scstep>
  <scstep>
   <time name="dav">   11.85   11.87</time>
   <time name="total">   15.05   15.08</time>
   <energy>
    <i name="alphaZ">     11.64954258 </i>
    <i name="ewald">  26142.20976170 </i>
    <i name="hartreedc"> -38683.48252180 </i>
    <i name="XCdc">   -480.53103584 </i>
    <i name="pawpsdc">  14750.23657660 </i>
    <i name="pawaedc"> -13774.94328267 </i>
    <i name="eentropy">     -0.00474290 </i>
    <i name="bandstr">   -983.20977742 </i>
    <i name="atom">  12955.90228127 </i>
    <i name="e_fr_energy">    -62.17319847 </i>
    <i name="e_wo_entrp">    -62.16845557 </i>
    <i name="e_0_energy">    -62.17161750 </i>
   </energy>
  </scstep>
  <structure>
   <crystal>
    <varray name="basis" >
     <v>      23.99203093       0.00000000       0.00000000 </v>
     <v>       0.00000000      24.69324968       0.00000000 </v>
     <v>       0.00000000       0.00000000      24.17510510 </v>
    </varray>
    <i name="volume">  14322.32852548 </i>
    <varray name="rec_basis" >
     <v>       0.04168051       0.00000000       0.00000000 </v>
     <v>       0.00000000       0.04049690       0.00000000 </v>
     <v>       0.00000000       0.00000000       0.04136487 </v>
    </varray>
   </crystal>
   <varray name="positions" >
    <v>       0.52097081       0.59265319       0.58701660 </v>
    <v>       0.45677333       0.52806915       0.63994997 </v>
    <v>       0.60601456       0.53243918       0.54974420 </v>
    <v>       0.58195688       0.62663183       0.50423006 </v>
    <v>       0.50364956       0.49429607       0.54461044 </v>
    <v>       0.48223872       0.58465991       0.48487324 </v>
    <v>       0.42288860       0.43812417       0.59567524 </v>
    <v>       0.40206468       0.53713358       0.54603739 </v>
    <v>       0.58584025       0.44186118       0.49328061 </v>
    <v>       0.39968621       0.53340016       0.43592822 </v>
    <v>       0.48893351       0.39060265       0.52047281 </v>
    <v>       0.57498811       0.53758585       0.44504205 </v>
    <v>       0.53754701       0.37482974       0.42670694 </v>
    <v>       0.39742125       0.44284340       0.49142630 </v>
    <v>       0.48962284       0.55923776       0.37961806 </v>
    <v>       0.48916519       0.46863950       0.43667234 </v>
   </varray>
  </structure>
  <varray name="forces" >
   <v>      -0.02999693       0.09457720      -0.03699407 </v>
   <v>      -0.04843497       0.01040504       0.30523238 </v>
   <v>       0.24459932      -0.01805955       0.12736593 </v>
   <v>       0.09555091       0.26247875      -0.09356295 </v>
   <v>       0.03786027      -0.09291220       0.17607701 </v>
   <v>       0.02098005       0.14655327      -0.11425120 </v>
   <v>      -0.13916501      -0.24970473       0.10247180 </v>
   <v>      -0.01334790       0.15304910       0.07808977 </v>
   <v>       0.27147694      -0.04556118      -0.02001062 </v>
   <v>      -0.17106054       0.06542045      -0.02610685 </v>
   <v>      -0.04467992      -0.14165646       0.08951860 </v>
   <v>       0.09366306      -0.00316967       0.01057702 </v>
   <v>       0.05193267      -0.04250992      -0.02172344 </v>
   <v>      -0.25809405      -0.23097214      -0.08454386 </v>
   <v>       0.10685062       0.16018219      -0.29301174 </v>
   <v>      -0.21813451      -0.06812014      -0.19912778 </v>
  </varray>
  <energy>
   <i name="e_fr_energy">    -62.17319847 </i>
   <i name="e_wo_entrp">    -62.16845557 </i>
   <i name="e_0_energy">    -62.17161750 </i>
  </energy>
  <time name="totalsc">  524.39  525.57</time>
 </calculation>
 <calculation>
  <scstep>
   <time name="dav">   15.92   15.94</time>
   <time name="total">   20.31   20.34</time>
   <energy>
    <i name="alphaZ">     11.64954258 </i>
    <i name="ewald">  25858.84597276 </i>
    <i name="hartreedc"> -38403.52810164 </i>
    <i name="XCdc">   -481.18756750 </i>
    <i name="pawpsdc">  14750.23341254 </i>
    <i name="pawaedc"> -13774.94013248 </i>
    <i name="eentropy">     -0.00130532 </i>
    <i name="bandstr">   -979.13483690 </i>
    <i name="atom">  12955.90228127 </i>
    <i name="e_fr_energy">    -62.16073470 </i>
    <i name="e_wo_entrp">    -62.15942938 </i>
    <i name="e_0_energy">    -62.16029959 </i>
   </energy>
  </scstep>
  <scstep>
   <time name="dav">   16.26   16.29</time>
   <time name="total">   20.64   20.67</time>
   <energy>
    <i name="e_fr_energy">    -62.22440872 </i>
    <i name="e_wo_entrp">    -62.22471955 </i>
    <i name="e_0_energy">    -62.22451233 </i>
   </energy>
  </scstep>
  <scstep>
   <time name="dav">   16.23   16.26</time>
   <time name="total">   20.62   20.66</time>
   <energy>
    <i name="e_fr_energy">    -62.21222237 </i>
    <i name="e_wo_entrp">    -62.21199217 </i>
    <i name="e_0_energy">    -62.21214563 </i>
   </energy>
  </scstep>
  <scstep>
   <time name="dav">   16.14   16.16</time>
   <time name="total">   20.54   20.56</time>
   <energy>
    <i name="e_fr_energy">    -62.20963570 </i>
    <i name="e_wo_entrp">    -62.21183425 </i>
    <i name="e_0_energy">    -62.21036855 </i>
   </energy>
  </scstep>
  <scstep>
   <time name="dav">   15.98   16.00</time>
   <time name="total">   20.35   20.38</time>
   <energy>
    <i name="e_fr_energy">    -62.20504519 </i>
    <i name="e_wo_entrp">    -62.20281860 </i>
    <i name="e_0_energy">    -62.20430299 </i>
   </energy>
  </scstep>
  <scstep>
   <time name="dav">   16.06   16.07</time>
   <time name="total">   20.46   20.49</time>
   <energy>
    <i name="e_fr_energy">    -62.20427697 </i>
    <i name="e_wo_entrp">    -62.20466468 </i>
    <i name="e_0_energy">    -62.20440621 </i>
   </energy>
  </scstep>
  <scstep>
   <time name="dav">   16.21   16.23</time>
   <time name="total">   20.61   20.64</time>
   <energy>
    <i name="e_fr_energy">    -62.20296308 </i>
    <i name="e_wo_entrp">    -62.20396998 </i>
    <i name="e_0_energy">    -62.20329871 </i>
   </energy>
  </scstep>
  <scstep>
   <time name="dav">   16.10   16.12</time>
   <time name="total">   20.51   20.54</time>
   <energy>
    <i name="e_fr_energy">    -62.20201807 </i>
    <i name="e_wo_entrp">    -62.20158907 </i>
    <i name="e_0_energy">    -62.20187507 </i>
   </energy>
  </scstep>
  <scstep>
   <time name="dav">   16.10   16.12</time>
   <time name="total">   20.51   20.54</time>
   <energy>
    <i name="e_fr_energy">    -62.20219038 </i>
    <i name="e_wo_entrp">    -62.20208434 </i>
    <i name="e_0_energy">    -62.20215503 </i>
   </energy>
  </scstep>
  <scstep>
   <time name="dav">   11.68   11.70</time>
   <time name="total">   16.11   16.13</time>
   <energy>
    <i name="e_fr_energy">    -62.20243075 </i>
    <i name="e_wo_entrp">    -62.20201148 </i>
    <i name="e_0_energy">    -62.20229100 </i>
   </energy>
  </scstep>
  <scstep>
   <time name="dav">   11.39   11.40</time>
   <time name="total">   15.81   15.83</time>
   <energy>
    <i name="e_fr_energy">    -62.20275429 </i>
    <i name="e_wo_entrp">    -62.20236076 </i>
    <i name="e_0_energy">    -62.20262311 </i>
   </energy>
  </scstep>
  <scstep>
   <time name="dav">   11.36   11.37</time>
   <time name="total">   15.80   15.83</time>
   <energy>
    <i name="e_fr_energy">    -62.20301376 </i>
    <i name="e_wo_entrp">    -62.20256056 </i>
    <i name="e_0_energy">    -62.20286269 </i>
   </energy>
  </scstep>
  <scstep>
   <time name="dav">   11.22   11.23</time>
   <time name="total">   15.68   15.70</time>
   <energy>
    <i name="e_fr_energy">    -62.20319776 </i>
    <i name="e_wo_entrp">    -62.20273020 </i>
    <i name="e_0_energy">    -62.20304191 </i>
   </energy>
  </scstep>
  <scstep>
   <time name="dav">   11.42   11.43</time>
   <time name="total">   15.89   15.91</time>
   <energy>
    <i name="e_fr_energy">    -62.20349885 </i>
    <i name="e_wo_entrp">    -62.20297513 </i>
    <i name="e_0_energy">    -62.20332427 </i>
   </energy>
  </scstep>
  <scstep>
   <time name="dav">   11.60   11.62</time>
   <time name="total">   16.08   16.11</time>
   <energy>
    <i name="e_fr_energy">    -62.20378033 </i>
    <i name="e_wo_entrp">    -62.20328978 </i>
    <i name="e_0_energy">    -62.20361681 </i>
   </energy>
  </scstep>
  <scstep>
   <time name="dav">   11.65   11.66</time>
   <time name="total">   16.15   16.17</time>
   <energy>
    <i name="e_fr_energy">    -62.20412402 </i>
    <i name="e_wo_entrp">    -62.20359680 </i>
    <i name="e_0_energy">    -62.20394828 </i>
   </energy>
  </scstep>
  <scstep>
   <time name="dav">   11.81   11.82</time>
   <time name="total">   16.31   16.33</time>
   <energy>
    <i name="e_fr_energy">    -62.20442383 </i>
    <i name="e_wo_entrp">    -62.20390372 </i>
    <i name="e_0_energy">    -62.20425046 </i>
   </energy>
  </scstep>
  <scstep>
   <time name="dav">   11.69   11.70</time>
   <time name="total">   16.18   16.20</time>
   <energy>
    <i name="e_fr_energy">    -62.20471341 </i>
    <i name="e_wo_entrp">    -62.20418467 </i>
    <i name="e_0_energy">    -62.20453717 </i>
   </energy>
  </scstep>
  <scstep>
   <time name="dav">   12.18   12.20</time>
   <time name="total">   16.69   16.72</time>
   <energy>
    <i name="e_fr_energy">    -62.20512579 </i>
    <i name="e_wo_entrp">    -62.20458480 </i>
    <i name="e_0_energy">    -62.20494546 </i>
   </energy>
  </scstep>
  <scstep>
   <time name="dav">   11.99   12.00</time>
   <time name="total">   16.52   16.54</time>
   <energy>
    <i name="e_fr_energy">    -62.20558667 </i>
    <i name="e_wo_entrp">    -62.20504029 </i>
    <i name="e_0_energy">    -62.20540454 </i>
   </energy>
  </scstep>
  <scstep>
   <time name="dav">   12.64   12.66</time>
   <time name="total">   17.21   17.24</time>
   <energy>
    <i name="e_fr_energy">    -62.20596700 </i>
    <i name="e_wo_entrp">    -62.20540865 </i>
    <i name="e_0_energy">    -62.20578088 </i>
   </energy>
  </scstep>
  <scstep>
   <time name="dav">   12.19   12.20</time>
   <time name="total">   16.76   16.78</time>
   <energy>
    <i name="e_fr_energy">    -62.20615476 </i>
    <i name="e_wo_entrp">    -62.20559765 </i>
    <i name="e_0_energy">    -62.20596905 </i>
   </energy>
  </scstep>
  <scstep>
   <time name="dav">   11.91   11.92</time>
   <time name="total">   16.49   16.51</time>
   <energy>
    <i name="e_fr_energy">    -62.20631086 </i>
    <i name="e_wo_entrp">    -62.20575276 </i>
    <i name="e_0_energy">    -62.20612482 </i>
   </energy>
  </scstep>
  <scstep>
   <time name="dav">   12.23   12.25</time>
   <time name="total">   16.82   16.85</time>
   <energy>
    <i name="e_fr_energy">    -62.20644936 </i>
    <i name="e_wo_entrp">    -62.20588871 </i>
    <i name="e_0_energy">    -62.20626248 </i>
   </energy>
  </scstep>
  <scstep>
   <time name="dav">   12.19   12.20</time>
   <time name="total">   15.39   15.41</time>
   <energy>
    <i name="alphaZ">     11.64954258 </i>
    <i name="ewald">  25858.84597276 </i>
    <i name="hartreedc"> -38407.67117111 </i>
    <i name="XCdc">   -481.07417043 </i>
    <i name="pawpsdc">  14647.58854782 </i>
    <i name="pawaedc"> -13670.81524675 </i>
    <i name="eentropy">     -0.00056201 </i>
    <i name="bandstr">   -976.63173667 </i>
    <i name="atom">  12955.90228127 </i>
    <i name="e_fr_energy">    -62.20654255 </i>
    <i name="e_wo_entrp">    -62.20598054 </i>
    <i name="e_0_energy">    -62.20635521 </i>
   </energy>
  </scstep>
  <structure>
   <crystal>
    <varray name="basis" >
     <v>      23.99203093       0.00000000       0.00000000 </v>
     <v>       0.00000000      24.69324968       0.00000000 </v>
     <v>       0.00000000       0.00000000      24.17510510 </v>
    </varray>
    <i name="volume">  14322.32852548 </i>
    <varray name="rec_basis" >
     <v>       0.04168051       0.00000000       0.00000000 </v>
     <v>       0.00000000       0.04049690       0.00000000 </v>
     <v>       0.00000000       0.00000000       0.04136487 </v>
    </varray>
   </crystal>
   <varray name="positions" >
    <v>       0.52068983       0.59293686       0.58739005 </v>
    <v>       0.45686201       0.52835880       0.64081249 </v>
    <v>       0.60670180       0.53200499       0.55015810 </v>
    <v>       0.58231858       0.62762353       0.50387931 </v>
    <v>       0.50393437       0.49416592       0.54499981 </v>
    <v>       0.48209270       0.58517160       0.48481290 </v>
    <v>       0.42254497       0.43727097       0.59609716 </v>
    <v>       0.40164540       0.53775603       0.54612202 </v>
    <v>       0.58675629       0.44191780       0.49345450 </v>
    <v>       0.39907566       0.53351476       0.43580231 </v>
    <v>       0.48868027       0.39006468       0.52096374 </v>
    <v>       0.57545676       0.53748628       0.44475561 </v>
    <v>       0.53769160       0.37435921       0.42619286 </v>
    <v>       0.39677131       0.44226479       0.49102172 </v>
    <v>       0.48984987       0.55965488       0.37869306 </v>
    <v>       0.48869008       0.46845622       0.43612884 </v>
   </varray>
  </structure>
  <varray name="forces" >
   <v>       0.06637729       0.01591191      -0.21874466 </v>
   <v>      -0.10736213      -0.10372374       0.09799838 </v>
   <v>       0.08412184       0.14993638       0.01892009 </v>
   <v>      -0.01474472      -0.02602632      -0.00368256 </v>
   <v>      -0.06137359      -0.08377073       0.10416448 </v>
   <v>       0.09660153       0.00018407      -0.14834560 </v>
   <v>      -0.06737496      -0.02008828      -0.02642829 </v>
   <v>       0.16178524      -0.02843858       0.07914974 </v>
   <v>       0.02882787      -0.09141123      -0.10473568 </v>
   <v>      -0.00031690       0.04551755       0.02248984 </v>
   <v>       0.03139582       0.02489834      -0.07485393 </v>
   <v>      -0.06088129       0.03932802       0.14413542 </v>
   <v>       0.01643346       0.14259118       0.18659898 </v>
   <v>      -0.11274022      -0.10402715       0.03905909 </v>
   <v>       0.07121291       0.05963924      -0.04367671 </v>
   <v>      -0.13196214      -0.02052066      -0.07204860 </v>
  </varray>
  <energy>
   <i name="e_fr_energy">    -62.20654255 </i>
   <i name="e_wo_entrp">    -62.20598054 </i>
   <i name="e_0_energy">    -62.20635521 </i>
  </energy>
  <time name="totalsc">  462.50  463.22</time>
 </calculation>
 <calculation>
  <scstep>
   <time name="dav">   15.75   15.77</time>
   <time name="total">   20.14   20.17</time>
   <energy>
    <i name="alphaZ">     11.64954258 </i>
    <i name="ewald">  25827.62272528 </i>
    <i name="hartreedc"> -38376.76466804 </i>
    <i name="XCdc">   -481.12742593 </i>
    <i name="pawpsdc">  14647.58819164 </i>
    <i name="pawaedc"> -13670.81473433 </i>
    <i name="eentropy">      0.00111117 </i>
    <i name="bandstr">   -976.27162033 </i>
    <i name="atom">  12955.90228127 </i>
    <i name="e_fr_energy">    -62.21459670 </i>
    <i name="e_wo_entrp">    -62.21570787 </i>
    <i name="e_0_energy">    -62.21496709 </i>
   </energy>
  </scstep>
  <scstep>
   <time name="dav">   16.37   16.39</time>
   <time name="total">   20.74   20.77</time>
   <energy>
    <i name="e_fr_energy">    -62.23019052 </i>
    <i name="e_wo_entrp">    -62.23709631 </i>
    <i name="e_0_energy">    -62.23249245 </i>
   </energy>
  </scstep>
  <scstep>
   <time name="dav">   16.06   16.08</time>
   <time name="total">   20.44   20.47</time>
   <energy>
    <i name="e_fr_energy">    -62.22352485 </i>
    <i name="e_wo_entrp">    -62.22597428 </i>
    <i name="e_0_energy">    -62.22434133 </i>
   </energy>
  </scstep>
  <scstep>
   <time name="dav">   15.86   15.88</time>
   <time name="total">   20.24   20.27</time>
   <energy>
    <i name="e_fr_energy">    -62.22331529 </i>
    <i name="e_wo_entrp">    -62.22582219 </i>
    <i name="e_0_energy">    -62.22415092 </i>
   </energy>
  </scstep>
  <scstep>
   <time name="dav">   15.80   15.82</time>
   <time name="total">   20.18   20.21</time>
   <energy>
    <i name="e_fr_energy">    -62.22308358 </i>
    <i name="e_wo_entrp">    -62.22558987 </i>
    <i name="e_0_energy">    -62.22391901 </i>
   </energy>
  </scstep>
  <scstep>
   <time name="dav">   16.19   16.21</time>
   <time name="total">   20.59   20.62</time>
   <energy>
    <i name="e_fr_energy">    -62.22308838 </i>
    <i name="e_wo_entrp">    -62.22529316 </i>
    <i name="e_0_energy">    -62.22382331 </i>
   </energy>
  </scstep>
  <scstep>
   <time name="dav">   15.79   15.81</time>
   <time name="total">   20.19   20.23</time>
   <energy>
    <i name="e_fr_energy">    -62.22321988 </i>
    <i name="e_wo_entrp">    -62.22597627 </i>
    <i name="e_0_energy">    -62.22413868 </i>
   </energy>
  </scstep>
  <scstep>
   <time name="dav">   13.46   13.48</time>
   <time name="total">   17.89   17.92</time>
   <energy>
    <i name="e_fr_energy">    -62.22305125 </i>
    <i name="e_wo_entrp">    -62.22498795 </i>
    <i name="e_0_energy">    -62.22369682 </i>
   </energy>
  </scstep>
  <scstep>
   <time name="dav">   11.60   11.62</time>
   <time name="total">   14.77   14.80</time>
   <energy>
    <i name="alphaZ">     11.64954258 </i>
    <i name="ewald">  25827.62272528 </i>
    <i name="hartreedc"> -38377.18073779 </i>
    <i name="XCdc">   -481.11916720 </i>
    <i name="pawpsdc">  14640.06186647 </i>
    <i name="pawaedc"> -13663.18512533 </i>
    <i name="eentropy">      0.00211017 </i>
    <i name="bandstr">   -975.97659817 </i>
    <i name="atom">  12955.90228127 </i>
    <i name="e_fr_energy">    -62.22310273 </i>
    <i name="e_wo_entrp">    -62.22521289 </i>
    <i name="e_0_energy">    -62.22380611 </i>
   </energy>
  </scstep>
  <structure>
   <crystal>
    <varray name="basis" >
     <v>      23.99203093       0.00000000       0.00000000 </v>
     <v>       0.00000000      24.69324968       0.00000000 </v>
     <v>       0.00000000       0.00000000      24.17510510 </v>
    </varray>
    <i name="volume">  14322.32852548 </i>
    <varray name="rec_basis" >
     <v>       0.04168051       0.00000000       0.00000000 </v>
     <v>       0.00000000       0.04049690       0.00000000 </v>
     <v>       0.00000000       0.00000000       0.04136487 </v>
    </varray>
   </crystal>
   <varray name="positions" >
    <v>       0.52080691       0.59300559       0.58694235 </v>
    <v>       0.45662920       0.52816477       0.64113536 </v>
    <v>       0.60697409       0.53228361       0.55024982 </v>
    <v>       0.58232812       0.62768399       0.50382937 </v>
    <v>       0.50382909       0.49396599       0.54528036 </v>
    <v>       0.48229431       0.58523278       0.48447205 </v>
    <v>       0.42235145       0.43712540       0.59608783 </v>
    <v>       0.40196231       0.53776733       0.54631012 </v>
    <v>       0.58693043       0.44172321       0.49323955 </v>
    <v>       0.39900243       0.53362861       0.43583795 </v>
    <v>       0.48872135       0.39005562       0.52085367 </v>
    <v>       0.57537443       0.53756106       0.44504581 </v>
    <v>       0.53774602       0.37461734       0.42655154 </v>
    <v>       0.39643858       0.44196698       0.49106153 </v>
    <v>       0.49003825       0.55983576       0.37848495 </v>
    <v>       0.48833455       0.46838927       0.43590222 </v>
   </varray>
  </structure>
  <varray name="forces" >
   <v>      -0.00844000      -0.05582478      -0.14825257 </v>
   <v>      -0.05320506      -0.06272849       0.04985198 </v>
   <v>       0.04267299       0.09124365       0.00515077 </v>
   <v>       0.01669248       0.01618723      -0.01987687 </v>
   <v>       0.01982122      -0.07161465       0.06887244 </v>
   <v>       0.06046413      -0.02005279      -0.14537543 </v>
   <v>      -0.05739479      -0.01587346      -0.03586287 </v>
   <v>       0.16108514      -0.03106459       0.04391604 </v>
   <v>       0.01457555       0.00687759      -0.04467246 </v>
   <v>       0.02596801       0.02561999       0.04749234 </v>
   <v>      -0.00693936       0.04319890      -0.03339047 </v>
   <v>      -0.08390303      -0.00232723       0.13340853 </v>
   <v>       0.02086964       0.08308665       0.10559866 </v>
   <v>      -0.08815047      -0.06109990       0.02457392 </v>
   <v>       0.05704378       0.02990891      -0.02155002 </v>
   <v>      -0.12116024       0.02446296      -0.02988398 </v>
  </varray>
  <energy>
   <i name="e_fr_energy">    -62.22310273 </i>
   <i name="e_wo_entrp">    -62.22521289 </i>
   <i name="e_0_energy">    -62.22380611 </i>
  </energy>
  <time name="totalsc">  193.04  193.35</time>
 </calculation>
 <calculation>
  <scstep>
   <time name="dav">   15.83   15.85</time>
   <time name="total">   20.20   20.23</time>
   <energy>
    <i name="alphaZ">     11.64954258 </i>
    <i name="ewald">  25769.15830563 </i>
    <i name="hartreedc"> -38319.21808577 </i>
    <i name="XCdc">   -481.21318762 </i>
    <i name="pawpsdc">  14639.95587479 </i>
    <i name="pawaedc"> -13663.07841751 </i>
    <i name="eentropy">      0.00558863 </i>
    <i name="bandstr">   -975.36625808 </i>
    <i name="atom">  12955.90228127 </i>
    <i name="e_fr_energy">    -62.20435609 </i>
    <i name="e_wo_entrp">    -62.20994472 </i>
    <i name="e_0_energy">    -62.20621897 </i>
   </energy>
  </scstep>
  <scstep>
   <time name="dav">   16.35   16.36</time>
   <time name="total">   20.67   20.70</time>
   <energy>
    <i name="e_fr_energy">    -62.26226871 </i>
    <i name="e_wo_entrp">    -62.27796469 </i>
    <i name="e_0_energy">    -62.26750070 </i>
   </energy>
  </scstep>
  <scstep>
   <time name="dav">   15.96   15.98</time>
   <time name="total">   20.31   20.34</time>
   <energy>
    <i name="e_fr_energy">    -62.23724992 </i>
    <i name="e_wo_entrp">    -62.24610523 </i>
    <i name="e_0_energy">    -62.24020169 </i>
   </energy>
  </scstep>
  <scstep>
   <time name="dav">   16.05   16.08</time>
   <time name="total">   20.43   20.45</time>
   <energy>
    <i name="e_fr_energy">    -62.23550645 </i>
    <i name="e_wo_entrp">    -62.24338094 </i>
    <i name="e_0_energy">    -62.23813128 </i>
   </energy>
  </scstep>
  <scstep>
   <time name="dav">   16.04   16.06</time>
   <time name="total">   20.41   20.44</time>
   <energy>
    <i name="e_fr_energy">    -62.23456956 </i>
    <i name="e_wo_entrp">    -62.24262634 </i>
    <i name="e_0_energy">    -62.23725515 </i>
   </energy>
  </scstep>
  <scstep>
   <time name="dav">   16.14   16.16</time>
   <time name="total">   20.54   20.57</time>
   <energy>
    <i name="e_fr_energy">    -62.23438084 </i>
    <i name="e_wo_entrp">    -62.24163482 </i>
    <i name="e_0_energy">    -62.23679883 </i>
   </energy>
  </scstep>
  <scstep>
   <time name="dav">   16.34   16.36</time>
   <time name="total">   20.73   20.76</time>
   <energy>
    <i name="e_fr_energy">    -62.23484418 </i>
    <i name="e_wo_entrp">    -62.24322101 </i>
    <i name="e_0_energy">    -62.23763645 </i>
   </energy>
  </scstep>
  <scstep>
   <time name="dav">   15.94   15.96</time>
   <time name="total">   20.35   20.38</time>
   <energy>
    <i name="e_fr_energy">    -62.23426280 </i>
    <i name="e_wo_entrp">    -62.24111680 </i>
    <i name="e_0_energy">    -62.23654746 </i>
   </energy>
  </scstep>
  <scstep>
   <time name="dav">   15.03   15.05</time>
   <time name="total">   18.21   18.23</time>
   <energy>
    <i name="alphaZ">     11.64954258 </i>
    <i name="ewald">  25769.15830563 </i>
    <i name="hartreedc"> -38320.01119922 </i>
    <i name="XCdc">   -481.19611562 </i>
    <i name="pawpsdc">  14627.68670719 </i>
    <i name="pawaedc"> -13650.63024002 </i>
    <i name="eentropy">      0.00711128 </i>
    <i name="bandstr">   -974.80075554 </i>
    <i name="atom">  12955.90228127 </i>
    <i name="e_fr_energy">    -62.23436244 </i>
    <i name="e_wo_entrp">    -62.24147373 </i>
    <i name="e_0_energy">    -62.23673287 </i>
   </energy>
  </scstep>
  <structure>
   <crystal>
    <varray name="basis" >
     <v>      23.99203093       0.00000000       0.00000000 </v>
     <v>       0.00000000      24.69324968       0.00000000 </v>
     <v>       0.00000000       0.00000000      24.17510510 </v>
    </varray>
    <i name="volume">  14322.32852548 </i>
    <varray name="rec_basis" >
     <v>       0.04168051       0.00000000       0.00000000 </v>
     <v>       0.00000000       0.04049690       0.00000000 </v>
     <v>       0.00000000       0.00000000       0.04136487 </v>
    </varray>
   </crystal>
   <varray name="positions" >
    <v>       0.52102697       0.59313478       0.58610090 </v>
    <v>       0.45619163       0.52780011       0.64174222 </v>
    <v>       0.60748586       0.53280729       0.55042220 </v>
    <v>       0.58234604       0.62779763       0.50373551 </v>
    <v>       0.50363121       0.49359020       0.54580766 </v>
    <v>       0.48267325       0.58534777       0.48383140 </v>
    <v>       0.42198772       0.43685180       0.59607028 </v>
    <v>       0.40255793       0.53778857       0.54666364 </v>
    <v>       0.58725772       0.44135749       0.49283557 </v>
    <v>       0.39886479       0.53384260       0.43590493 </v>
    <v>       0.48879857       0.39003859       0.52064679 </v>
    <v>       0.57521969       0.53770161       0.44559125 </v>
    <v>       0.53784830       0.37510251       0.42722570 </v>
    <v>       0.39581322       0.44140724       0.49113635 </v>
    <v>       0.49039230       0.56017573       0.37809381 </v>
    <v>       0.48766632       0.46826342       0.43547629 </v>
   </varray>
  </structure>
  <varray name="forces" >
   <v>      -0.13938725      -0.18008620      -0.01414077 </v>
   <v>       0.03845769       0.00246450      -0.03946685 </v>
   <v>      -0.03064799      -0.01089846      -0.01648321 </v>
   <v>       0.07595184       0.09460750      -0.05344236 </v>
   <v>       0.16360902      -0.04574453       0.00228981 </v>
   <v>      -0.01377725      -0.05424568      -0.13223169 </v>
   <v>      -0.03695029      -0.00493348      -0.05164281 </v>
   <v>       0.15308592      -0.03424839      -0.02171819 </v>
   <v>      -0.00354769       0.18973827       0.07332088 </v>
   <v>       0.07372975      -0.01101320       0.09041432 </v>
   <v>      -0.08359154       0.07537957       0.05054879 </v>
   <v>      -0.12292540      -0.08192031       0.10691218 </v>
   <v>       0.02526595      -0.03961905      -0.06405296 </v>
   <v>      -0.03559049       0.01997292       0.00027164 </v>
   <v>       0.02939532      -0.02650730       0.01746501 </v>
   <v>      -0.09307760       0.10705382       0.05195622 </v>
  </varray>
  <energy>
   <i name="e_fr_energy">    -62.23436244 </i>
   <i name="e_wo_entrp">    -62.24147373 </i>
   <i name="e_0_energy">    -62.23673287 </i>
  </energy>
  <time name="totalsc">  199.79  200.11</time>
 </calculation>
 <calculation>
  <scstep>
   <time name="dav">   15.77   15.79</time>
   <time name="total">   20.12   20.15</time>
   <energy>
    <i name="alphaZ">     11.64954258 </i>
    <i name="ewald">  25785.84089796 </i>
    <i name="hartreedc"> -38336.45348763 </i>
    <i name="XCdc">   -481.15660591 </i>
    <i name="pawpsdc">  14627.50770774 </i>
    <i name="pawaedc"> -13650.45021853 </i>
    <i name="eentropy">      0.01161262 </i>
    <i name="bandstr">   -975.08724782 </i>
    <i name="atom">  12955.90228127 </i>
    <i name="e_fr_energy">    -62.23551773 </i>
    <i name="e_wo_entrp">    -62.24713035 </i>
    <i name="e_0_energy">    -62.23938860 </i>
   </energy>
  </scstep>
  <scstep>
   <time name="dav">   16.16   16.19</time>
   <time name="total">   20.53   20.56</time>
   <energy>
    <i name="e_fr_energy">    -62.25587077 </i>
    <i name="e_wo_entrp">    -62.26868897 </i>
    <i name="e_0_energy">    -62.26014350 </i>
   </energy>
  </scstep>
  <scstep>
   <time name="dav">   16.12   16.15</time>
   <time name="total">   20.51   20.53</time>
   <energy>
    <i name="e_fr_energy">    -62.24954221 </i>
    <i name="e_wo_entrp">    -62.26174419 </i>
    <i name="e_0_energy">    -62.25360954 </i>
   </energy>
  </scstep>
  <scstep>
   <time name="dav">   16.18   16.20</time>
   <time name="total">   20.54   20.57</time>
   <energy>
    <i name="e_fr_energy">    -62.24867763 </i>
    <i name="e_wo_entrp">    -62.26145757 </i>
    <i name="e_0_energy">    -62.25293761 </i>
   </energy>
  </scstep>
  <scstep>
   <time name="dav">   16.11   16.13</time>
   <time name="total">   20.48   20.51</time>
   <energy>
    <i name="e_fr_energy">    -62.24844441 </i>
    <i name="e_wo_entrp">    -62.26053344 </i>
    <i name="e_0_energy">    -62.25247409 </i>
   </energy>
  </scstep>
  <scstep>
   <time name="dav">   16.13   16.15</time>
   <time name="total">   20.51   20.56</time>
   <energy>
    <i name="e_fr_energy">    -62.24833795 </i>
    <i name="e_wo_entrp">    -62.25990765 </i>
    <i name="e_0_energy">    -62.25219452 </i>
   </energy>
  </scstep>
  <scstep>
   <time name="dav">   16.04   16.07</time>
   <time name="total">   20.43   20.46</time>
   <energy>
    <i name="e_fr_energy">    -62.24858733 </i>
    <i name="e_wo_entrp">    -62.26089133 </i>
    <i name="e_0_energy">    -62.25268866 </i>
   </energy>
  </scstep>
  <scstep>
   <time name="dav">   15.72   15.74</time>
   <time name="total">   18.91   18.93</time>
   <energy>
    <i name="alphaZ">     11.64954258 </i>
    <i name="ewald">  25785.84089796 </i>
    <i name="hartreedc"> -38336.21451925 </i>
    <i name="XCdc">   -481.15901167 </i>
    <i name="pawpsdc">  14633.66906545 </i>
    <i name="pawaedc"> -13656.71962464 </i>
    <i name="eentropy">      0.01136867 </i>
    <i name="bandstr">   -975.22849191 </i>
    <i name="atom">  12955.90228127 </i>
    <i name="e_fr_energy">    -62.24849156 </i>
    <i name="e_wo_entrp">    -62.25986023 </i>
    <i name="e_0_energy">    -62.25228111 </i>
   </energy>
  </scstep>
  <structure>
   <crystal>
    <varray name="basis" >
     <v>      23.99203093       0.00000000       0.00000000 </v>
     <v>       0.00000000      24.69324968       0.00000000 </v>
     <v>       0.00000000       0.00000000      24.17510510 </v>
    </varray>
    <i name="volume">  14322.32852548 </i>
    <varray name="rec_basis" >
     <v>       0.04168051       0.00000000       0.00000000 </v>
     <v>       0.00000000       0.04049690       0.00000000 </v>
     <v>       0.00000000       0.00000000       0.04136487 </v>
    </varray>
   </crystal>
   <varray name="positions" >
    <v>       0.52078869       0.59277176       0.58570161 </v>
    <v>       0.45609359       0.52764737       0.64191211 </v>
    <v>       0.60763485       0.53300951       0.55045793 </v>
    <v>       0.58253578       0.62806722       0.50356766 </v>
    <v>       0.50393715       0.49332042       0.54604226 </v>
    <v>       0.48280492       0.58527148       0.48323862 </v>
    <v>       0.42174114       0.43672141       0.59593987 </v>
    <v>       0.40318350       0.53771808       0.54676564 </v>
    <v>       0.58739145       0.44164018       0.49283432 </v>
    <v>       0.39898160       0.53390996       0.43614898 </v>
    <v>       0.48863188       0.39020664       0.52067706 </v>
    <v>       0.57485796       0.53757203       0.44608246 </v>
    <v>       0.53795328       0.37522113       0.42736639 </v>
    <v>       0.39545619       0.44121048       0.49116951 </v>
    <v>       0.49061658       0.56026177       0.37796535 </v>
    <v>       0.48715296       0.46845790       0.43541471 </v>
   </varray>
  </structure>
  <varray name="forces" >
   <v>      -0.13772500      -0.15411808      -0.02598177 </v>
   <v>       0.05543390      -0.00494970      -0.03065526 </v>
   <v>      -0.01616386      -0.00219760       0.00203300 </v>
   <v>       0.03894646       0.06370214      -0.03465744 </v>
   <v>       0.16415324      -0.06037628       0.00829898 </v>
   <v>      -0.00234557       0.00082713      -0.07128852 </v>
   <v>      -0.03424356       0.00357940      -0.02387295 </v>
   <v>       0.13170267      -0.02536183      -0.03561245 </v>
   <v>      -0.01018541       0.13870219       0.07006206 </v>
   <v>       0.02997886      -0.01093831       0.06938911 </v>
   <v>      -0.07909948       0.06374823       0.02457609 </v>
   <v>      -0.09436445      -0.05482932       0.06430025 </v>
   <v>       0.00989687      -0.00051940      -0.05314536 </v>
   <v>      -0.03427779       0.03536494      -0.01791045 </v>
   <v>       0.01843889      -0.03778656      -0.02339951 </v>
   <v>      -0.04014576       0.04515304       0.07786422 </v>
  </varray>
  <energy>
   <i name="e_fr_energy">    -62.24849156 </i>
   <i name="e_wo_entrp">    -62.25986023 </i>
   <i name="e_0_energy">    -62.25228111 </i>
  </energy>
  <time name="totalsc">  179.79  180.07</time>
 </calculation>
 <calculation>
  <scstep>
   <time name="dav">   15.92   15.94</time>
   <time name="total">   20.32   20.35</time>
   <energy>
    <i name="alphaZ">     11.64954258 </i>
    <i name="ewald">  25832.58782860 </i>
    <i name="hartreedc"> -38382.26944627 </i>
    <i name="XCdc">   -481.03745428 </i>
    <i name="pawpsdc">  14633.79347060 </i>
    <i name="pawaedc"> -13656.84562805 </i>
    <i name="eentropy">      0.02637678 </i>
    <i name="bandstr">   -975.96267477 </i>
    <i name="atom">  12955.90228127 </i>
    <i name="e_fr_energy">    -62.15570354 </i>
    <i name="e_wo_entrp">    -62.18208033 </i>
    <i name="e_0_energy">    -62.16449580 </i>
   </energy>
  </scstep>
  <scstep>
   <time name="dav">   16.36   16.38</time>
   <time name="total">   20.71   20.74</time>
   <energy>
    <i name="e_fr_energy">    -62.31593799 </i>
    <i name="e_wo_entrp">    -62.33802439 </i>
    <i name="e_0_energy">    -62.32330013 </i>
   </energy>
  </scstep>
  <scstep>
   <time name="dav">   16.31   16.33</time>
   <time name="total">   20.70   20.72</time>
   <energy>
    <i name="e_fr_energy">    -62.27513929 </i>
    <i name="e_wo_entrp">    -62.30418959 </i>
    <i name="e_0_energy">    -62.28482272 </i>
   </energy>
  </scstep>
  <scstep>
   <time name="dav">   16.37   16.40</time>
   <time name="total">   20.73   20.76</time>
   <energy>
    <i name="e_fr_energy">    -62.26577486 </i>
    <i name="e_wo_entrp">    -62.29267047 </i>
    <i name="e_0_energy">    -62.27474006 </i>
   </energy>
  </scstep>
  <scstep>
   <time name="dav">   15.90   15.93</time>
   <time name="total">   20.30   20.33</time>
   <energy>
    <i name="e_fr_energy">    -62.26272000 </i>
    <i name="e_wo_entrp">    -62.28850483 </i>
    <i name="e_0_energy">    -62.27131495 </i>
   </energy>
  </scstep>
  <scstep>
   <time name="dav">   16.10   16.12</time>
   <time name="total">   20.50   20.53</time>
   <energy>
    <i name="e_fr_energy">    -62.26069877 </i>
    <i name="e_wo_entrp">    -62.28478720 </i>
    <i name="e_0_energy">    -62.26872825 </i>
   </energy>
  </scstep>
  <scstep>
   <time name="dav">   16.37   16.39</time>
   <time name="total">   20.77   20.80</time>
   <energy>
    <i name="e_fr_energy">    -62.26110709 </i>
    <i name="e_wo_entrp">    -62.28573001 </i>
    <i name="e_0_energy">    -62.26931473 </i>
   </energy>
  </scstep>
  <scstep>
   <time name="dav">   16.24   16.26</time>
   <time name="total">   20.65   20.68</time>
   <energy>
    <i name="e_fr_energy">    -62.26028945 </i>
    <i name="e_wo_entrp">    -62.28404422 </i>
    <i name="e_0_energy">    -62.26820771 </i>
   </energy>
  </scstep>
  <scstep>
   <time name="dav">   16.61   16.63</time>
   <time name="total">   21.03   21.06</time>
   <energy>
    <i name="e_fr_energy">    -62.26065090 </i>
    <i name="e_wo_entrp">    -62.28493999 </i>
    <i name="e_0_energy">    -62.26874726 </i>
   </energy>
  </scstep>
  <scstep>
   <time name="dav">   11.99   12.00</time>
   <time name="total">   16.42   16.45</time>
   <energy>
    <i name="e_fr_energy">    -62.26081811 </i>
    <i name="e_wo_entrp">    -62.28485841 </i>
    <i name="e_0_energy">    -62.26883155 </i>
   </energy>
  </scstep>
  <scstep>
   <time name="dav">   11.84   11.86</time>
   <time name="total">   16.27   16.30</time>
   <energy>
    <i name="e_fr_energy">    -62.26104018 </i>
    <i name="e_wo_entrp">    -62.28555809 </i>
    <i name="e_0_energy">    -62.26921282 </i>
   </energy>
  </scstep>
  <scstep>
   <time name="dav">   12.05   12.06</time>
   <time name="total">   16.52   16.55</time>
   <energy>
    <i name="e_fr_energy">    -62.26135278 </i>
    <i name="e_wo_entrp">    -62.28566731 </i>
    <i name="e_0_energy">    -62.26945762 </i>
   </energy>
  </scstep>
  <scstep>
   <time name="dav">   12.04   12.06</time>
[...]
       <r>    -0.8422    10.3704    96.7544 </r>
       <r>    -0.7981     9.9390    97.1931 </r>
       <r>    -0.7539     8.7748    97.5804 </r>
       <r>    -0.7098     7.5214    97.9124 </r>
       <r>    -0.6657     6.7548    98.2105 </r>
       <r>    -0.6215     6.6690    98.5048 </r>
       <r>    -0.5774     6.9905    98.8134 </r>
       <r>    -0.5333     7.1741    99.1300 </r>
       <r>    -0.4891     6.7485    99.4279 </r>
       <r>    -0.4450     5.5931    99.6747 </r>
       <r>    -0.4009     3.9944    99.8510 </r>
       <r>    -0.3567     2.4751    99.9603 </r>
       <r>    -0.3126     1.5229   100.0275 </r>
       <r>    -0.2684     1.3685   100.0879 </r>
       <r>    -0.2243     1.9190   100.1726 </r>
       <r>    -0.1802     2.8612   100.2989 </r>
       <r>    -0.1360     3.8672   100.4695 </r>
       <r>    -0.0919     4.7797   100.6805 </r>
       <r>    -0.0478     5.6622   100.9304 </r>
       <r>    -0.0036     6.6820   101.2253 </r>
       <r>     0.0405     7.9086   101.5744 </r>
       <r>     0.0846     9.1721   101.9792 </r>
       <r>     0.1288    10.0871   102.4244 </r>
       <r>     0.1729    10.2325   102.8760 </r>
       <r>     0.2170     9.3794   103.2900 </r>
       <r>     0.2612     7.6280   103.6267 </r>
       <r>     0.3053     5.3772   103.8640 </r>
       <r>     0.3495     3.1474   104.0029 </r>
       <r>     0.3936     1.3647   104.0631 </r>
       <r>     0.4377     0.2225   104.0730 </r>
       <r>     0.4819    -0.3226   104.0587 </r>
       <r>     0.5260    -0.4550   104.0386 </r>
       <r>     0.5701    -0.3804   104.0219 </r>
       <r>     0.6143    -0.2492   104.0109 </r>
       <r>     0.6584    -0.1374   104.0048 </r>
       <r>     0.7025    -0.0657   104.0019 </r>
       <r>     0.7467    -0.0277   104.0007 </r>
       <r>     0.7908    -0.0103   104.0002 </r>
       <r>     0.8350    -0.0034   104.0001 </r>
       <r>     0.8791    -0.0010   104.0000 </r>
       <r>     0.9232    -0.0003   104.0000 </r>
       <r>     0.9674    -0.0001   104.0000 </r>
       <r>     1.0115    -0.0000   104.0000 </r>
       <r>     1.0556    -0.0000   104.0000 </r>
       <r>     1.0998    -0.0000   104.0000 </r>
       <r>     1.1439    -0.0000   104.0000 </r>
       <r>     1.1880    -0.0000   104.0000 </r>
       <r>     1.2322    -0.0000   104.0000 </r>
       <r>     1.2763    -0.0000   104.0000 </r>
       <r>     1.3204    -0.0000   104.0000 </r>
       <r>     1.3646    -0.0000   104.0000 </r>
       <r>     1.4087    -0.0000   104.0000 </r>
       <r>     1.4529    -0.0000   104.0000 </r>
       <r>     1.4970     0.0000   104.0000 </r>
       <r>     1.5411     0.0000   104.0000 </r>
       <r>     1.5853     0.0000   104.0000 </r>
       <r>     1.6294     0.0000   104.0000 </r>
       <r>     1.6735     0.0000   104.0000 </r>
       <r>     1.7177     0.0000   104.0000 </r>
       <r>     1.7618     0.0000   104.0000 </r>
       <r>     1.8059     0.0000   104.0000 </r>
       <r>     1.8501     0.0000   104.0000 </r>
       <r>     1.8942     0.0000   104.0000 </r>
       <r>     1.9384     0.0000   104.0000 </r>
       <r>     1.9825     0.0000   104.0000 </r>
       <r>     2.0266     0.0000   104.0000 </r>
       <r>     2.0708     0.0000   104.0000 </r>
       <r>     2.1149     0.0000   104.0000 </r>
       <r>     2.1590     0.0000   104.0000 </r>
       <r>     2.2032     0.0000   104.0000 </r>
       <r>     2.2473     0.0000   104.0000 </r>
      </set>
      <set comment="spin 2">
       <r>   -10.9935     0.0000     0.0000 </r>
       <r>   -10.9494     0.0000     0.0000 </r>
       <r>   -10.9052     0.0000     0.0000 </r>
       <r>   -10.8611     0.0000     0.0000 </r>
       <r>   -10.8170     0.0000     0.0000 </r>
       <r>   -10.7728     0.0000     0.0000 </r>
       <r>   -10.7287     0.0000     0.0000 </r>
       <r>   -10.6846     0.0000     0.0000 </r>
       <r>   -10.6404     0.0000     0.0000 </r>
       <r>   -10.5963     0.0000     0.0000 </r>
       <r>   -10.5522    -0.0000    -0.0000 </r>
       <r>   -10.5080    -0.0000    -0.0000 </r>
       <r>   -10.4639    -0.0000    -0.0000 </r>
       <r>   -10.4197    -0.0000    -0.0000 </r>
       <r>   -10.3756    -0.0000    -0.0000 </r>
       <r>   -10.3315    -0.0000    -0.0000 </r>
       <r>   -10.2873    -0.0000    -0.0000 </r>
       <r>   -10.2432    -0.0000    -0.0000 </r>
       <r>   -10.1991    -0.0000    -0.0000 </r>
       <r>   -10.1549    -0.0000    -0.0000 </r>
       <r>   -10.1108    -0.0000    -0.0000 </r>
       <r>   -10.0667    -0.0000    -0.0000 </r>
       <r>   -10.0225    -0.0000    -0.0000 </r>
       <r>    -9.9784    -0.0000    -0.0000 </r>
       <r>    -9.9342    -0.0000    -0.0000 </r>
       <r>    -9.8901    -0.0000    -0.0000 </r>
       <r>    -9.8460    -0.0000    -0.0000 </r>
       <r>    -9.8018    -0.0000    -0.0000 </r>
       <r>    -9.7577    -0.0000    -0.0000 </r>
       <r>    -9.7136    -0.0000    -0.0000 </r>
       <r>    -9.6694    -0.0000    -0.0000 </r>
       <r>    -9.6253    -0.0001    -0.0000 </r>
       <r>    -9.5812    -0.0003    -0.0000 </r>
       <r>    -9.5370    -0.0012    -0.0001 </r>
       <r>    -9.4929    -0.0038    -0.0002 </r>
       <r>    -9.4488    -0.0108    -0.0007 </r>
       <r>    -9.4046    -0.0270    -0.0019 </r>
       <r>    -9.3605    -0.0597    -0.0045 </r>
       <r>    -9.3163    -0.1136    -0.0096 </r>
       <r>    -9.2722    -0.1815    -0.0176 </r>
       <r>    -9.2281    -0.2264    -0.0276 </r>
       <r>    -9.1839    -0.1686    -0.0350 </r>
       <r>    -9.1398     0.1056    -0.0303 </r>
       <r>    -9.0957     0.6963     0.0004 </r>
       <r>    -9.0515     1.6100     0.0715 </r>
       <r>    -9.0074     2.6953     0.1904 </r>
       <r>    -8.9633     3.6550     0.3517 </r>
       <r>    -8.9191     4.1608     0.5354 </r>
       <r>    -8.8750     4.0149     0.7126 </r>
       <r>    -8.8308     3.2552     0.8562 </r>
       <r>    -8.7867     2.1292     0.9502 </r>
       <r>    -8.7426     0.9636     0.9928 </r>
       <r>    -8.6984     0.0312     0.9941 </r>
       <r>    -8.6543    -0.4966     0.9722 </r>
       <r>    -8.6102    -0.5092     0.9497 </r>
       <r>    -8.5660     0.0875     0.9536 </r>
       <r>    -8.5219     1.3444     1.0129 </r>
       <r>    -8.4778     3.1727     1.1530 </r>
       <r>    -8.4336     5.2794     1.3860 </r>
       <r>    -8.3895     7.2363     1.7054 </r>
       <r>    -8.3453     8.6774     2.0884 </r>
       <r>    -8.3012     9.4845     2.5070 </r>
       <r>    -8.2571     9.8059     2.9398 </r>
       <r>    -8.2129     9.8944     3.3765 </r>
       <r>    -8.1688     9.9182     3.8142 </r>
       <r>    -8.1247     9.9081     4.2515 </r>
       <r>    -8.0805     9.8465     4.6861 </r>
       <r>    -8.0364     9.7646     5.1171 </r>
       <r>    -7.9923     9.7398     5.5469 </r>
       <r>    -7.9481     9.8242     5.9805 </r>
       <r>    -7.9040    10.0119     6.4224 </r>
       <r>    -7.8599    10.2855     6.8764 </r>
       <r>    -7.8157    10.6759     7.3476 </r>
       <r>    -7.7716    11.2509     7.8441 </r>
       <r>    -7.7274    12.0327     8.3752 </r>
       <r>    -7.6833    12.9239     8.9456 </r>
       <r>    -7.6392    13.7268     9.5515 </r>
       <r>    -7.5950    14.2589    10.1808 </r>
       <r>    -7.5509    14.4856    10.8201 </r>
       <r>    -7.5068    14.5557    11.4626 </r>
       <r>    -7.4626    14.6929    12.1111 </r>
       <r>    -7.4185    15.0155    12.7738 </r>
       <r>    -7.3744    15.4320    13.4549 </r>
       <r>    -7.3302    15.7131    14.1484 </r>
       <r>    -7.2861    15.6879    14.8408 </r>
       <r>    -7.2419    15.3953    15.5203 </r>
       <r>    -7.1978    15.0599    16.1850 </r>
       <r>    -7.1537    14.9193    16.8435 </r>
       <r>    -7.1095    15.0531    17.5079 </r>
       <r>    -7.0654    15.3502    18.1854 </r>
       <r>    -7.0213    15.6143    18.8745 </r>
       <r>    -6.9771    15.6972    19.5673 </r>
       <r>    -6.9330    15.5565    20.2539 </r>
       <r>    -6.8889    15.2413    20.9266 </r>
       <r>    -6.8447    14.8771    21.5832 </r>
       <r>    -6.8006    14.6758    22.2310 </r>
       <r>    -6.7565    14.9047    22.8888 </r>
       <r>    -6.7123    15.7488    23.5839 </r>
       <r>    -6.6682    17.1247    24.3397 </r>
       <r>    -6.6240    18.6148    25.1613 </r>
       <r>    -6.5799    19.6376    26.0280 </r>
       <r>    -6.5358    19.7699    26.9006 </r>
       <r>    -6.4916    18.9850    27.7385 </r>
       <r>    -6.4475    17.6311    28.5167 </r>
       <r>    -6.4034    16.1918    29.2313 </r>
       <r>    -6.3592    15.0413    29.8952 </r>
       <r>    -6.3151    14.3721    30.5295 </r>
       <r>    -6.2710    14.2785    31.1597 </r>
       <r>    -6.2268    14.8295    31.8142 </r>
       <r>    -6.1827    16.0095    32.5208 </r>
       <r>    -6.1385    17.5841    33.2969 </r>
       <r>    -6.0944    19.0647    34.1384 </r>
       <r>    -6.0503    19.8730    35.0155 </r>
       <r>    -6.0061    19.6247    35.8816 </r>
       <r>    -5.9620    18.3395    36.6911 </r>
       <r>    -5.9179    16.4420    37.4168 </r>
       <r>    -5.8737    14.5754    38.0601 </r>
       <r>    -5.8296    13.3539    38.6494 </r>
       <r>    -5.7855    13.1740    39.2309 </r>
       <r>    -5.7413    14.1262    39.8544 </r>
       <r>    -5.6972    15.9927    40.5602 </r>
       <r>    -5.6530    18.3077    41.3683 </r>
       <r>    -5.6089    20.4734    42.2719 </r>
       <r>    -5.5648    21.9278    43.2397 </r>
       <r>    -5.5206    22.3368    44.2255 </r>
       <r>    -5.4765    21.7440    45.1852 </r>
       <r>    -5.4324    20.5892    46.0940 </r>
       <r>    -5.3882    19.5387    46.9563 </r>
       <r>    -5.3441    19.1721    47.8025 </r>
       <r>    -5.3000    19.6922    48.6716 </r>
       <r>    -5.2558    20.8562    49.5922 </r>
       <r>    -5.2117    22.2033    50.5721 </r>
       <r>    -5.1676    23.4186    51.6057 </r>
       <r>    -5.1234    24.5450    52.6890 </r>
       <r>    -5.0793    25.8633    53.8305 </r>
       <r>    -5.0351    27.5506    55.0465 </r>
       <r>    -4.9910    29.4265    56.3453 </r>
       <r>    -4.9469    31.0135    57.7141 </r>
       <r>    -4.9027    31.8490    59.1198 </r>
       <r>    -4.8586    31.7727    60.5221 </r>
       <r>    -4.8145    30.9638    61.8887 </r>
       <r>    -4.7703    29.7509    63.2018 </r>
       <r>    -4.7262    28.4056    64.4555 </r>
       <r>    -4.6821    27.0924    65.6513 </r>
       <r>    -4.6379    25.9502    66.7966 </r>
       <r>    -4.5938    25.1505    67.9067 </r>
       <r>    -4.5496    24.8335    69.0027 </r>
       <r>    -4.5055    24.9870    70.1056 </r>
       <r>    -4.4614    25.4121    71.2271 </r>
       <r>    -4.4172    25.8255    72.3670 </r>
       <r>    -4.3731    26.0060    73.5148 </r>
       <r>    -4.3290    25.8578    74.6560 </r>
       <r>    -4.2848    25.3684    75.7757 </r>
       <r>    -4.2407    24.5533    76.8594 </r>
       <r>    -4.1966    23.4695    77.8952 </r>
       <r>    -4.1524    22.2592    78.8777 </r>
       <r>    -4.1083    21.1121    79.8095 </r>
       <r>    -4.0642    20.1067    80.6969 </r>
       <r>    -4.0200    19.0536    81.5379 </r>
       <r>    -3.9759    17.5245    82.3113 </r>
       <r>    -3.9317    15.1171    82.9785 </r>
       <r>    -3.8876    11.7775    83.4983 </r>
       <r>    -3.8435     7.9218    83.8480 </r>
       <r>    -3.7993     4.2527    84.0357 </r>
       <r>    -3.7552     1.4162    84.0982 </r>
       <r>    -3.7111    -0.2544    84.0870 </r>
       <r>    -3.6669    -0.7729    84.0528 </r>
       <r>    -3.6228    -0.3706    84.0365 </r>
       <r>    -3.5787     0.6540    84.0654 </r>
       <r>    -3.5345     2.0254    84.1547 </r>
       <r>    -3.4904     3.5281    84.3105 </r>
       <r>    -3.4462     5.0243    84.5322 </r>
       <r>    -3.4021     6.4394    84.8164 </r>
       <r>    -3.3580     7.6946    85.1560 </r>
       <r>    -3.3138     8.6220    85.5366 </r>
       <r>    -3.2697     8.9556    85.9318 </r>
       <r>    -3.2256     8.4522    86.3049 </r>
       <r>    -3.1814     7.0713    86.6170 </r>
       <r>    -3.1373     5.0675    86.8407 </r>
       <r>    -3.0932     2.9087    86.9690 </r>
       <r>    -3.0490     1.0825    87.0168 </r>
       <r>    -3.0049    -0.0662    87.0139 </r>
       <r>    -2.9607    -0.3788    86.9972 </r>
       <r>    -2.9166     0.1596    87.0042 </r>
       <r>    -2.8725     1.4513    87.0683 </r>
       <r>    -2.8283     3.2632    87.2123 </r>
       <r>    -2.7842     5.2022    87.4419 </r>
       <r>    -2.7401     6.7806    87.7412 </r>
       <r>    -2.6959     7.5955    88.0764 </r>
       <r>    -2.6518     7.5272    88.4086 </r>
       <r>    -2.6077     6.8068    88.7090 </r>
       <r>    -2.5635     5.8755    88.9684 </r>
       <r>    -2.5194     5.1144    89.1941 </r>
       <r>    -2.4753     4.6342    89.3986 </r>
       <r>    -2.4311     4.2699    89.5871 </r>
       <r>    -2.3870     3.7652    89.7533 </r>
       <r>    -2.3428     2.9886    89.8852 </r>
       <r>    -2.2987     2.0199    89.9743 </r>
       <r>    -2.2546     1.0726    90.0217 </r>
       <r>    -2.2104     0.3435    90.0368 </r>
       <r>    -2.1663    -0.0908    90.0328 </r>
       <r>    -2.1222    -0.2782    90.0205 </r>
       <r>    -2.0780    -0.3268    90.0061 </r>
       <r>    -2.0339    -0.3301    89.9915 </r>
       <r>    -1.9898    -0.3185    89.9775 </r>
       <r>    -1.9456    -0.2450    89.9667 </r>
       <r>    -1.9015    -0.0048    89.9665 </r>
       <r>    -1.8573     0.5085    89.9889 </r>
       <r>    -1.8132     1.3194    90.0471 </r>
       <r>    -1.7691     2.3024    90.1488 </r>
       <r>    -1.7249     3.1924    90.2897 </r>
       <r>    -1.6808     3.7061    90.4532 </r>
       <r>    -1.6367     3.7252    90.6176 </r>
       <r>    -1.5925     3.4208    90.7686 </r>
       <r>    -1.5484     3.2117    90.9104 </r>
       <r>    -1.5043     3.5602    91.0675 </r>
       <r>    -1.4601     4.7194    91.2758 </r>
       <r>    -1.4160     6.5845    91.5664 </r>
       <r>    -1.3719     8.7222    91.9514 </r>
       <r>    -1.3277    10.5508    92.4171 </r>
       <r>    -1.2836    11.5682    92.9276 </r>
       <r>    -1.2394    11.5206    93.4361 </r>
       <r>    -1.1953    10.4561    93.8976 </r>
       <r>    -1.1512     8.6715    94.2803 </r>
       <r>    -1.1070     6.6112    94.5721 </r>
       <r>    -1.0629     4.7671    94.7825 </r>
       <r>    -1.0188     3.5850    94.9407 </r>
       <r>    -0.9746     3.3617    95.0891 </r>
       <r>    -0.9305     4.1414    95.2719 </r>
       <r>    -0.8864     5.6673    95.5220 </r>
       <r>    -0.8422     7.4442    95.8506 </r>
       <r>    -0.7981     8.9109    96.2439 </r>
       <r>    -0.7539     9.6563    96.6701 </r>
       <r>    -0.7098     9.5813    97.0929 </r>
       <r>    -0.6657     8.9247    97.4869 </r>
       <r>    -0.6215     8.1281    97.8456 </r>
       <r>    -0.5774     7.5911    98.1806 </r>
       <r>    -0.5333     7.4464    98.5093 </r>
       <r>    -0.4891     7.4903    98.8399 </r>
       <r>    -0.4450     7.3238    99.1631 </r>
       <r>    -0.4009     6.6207    99.4553 </r>
       <r>    -0.3567     5.3518    99.6916 </r>
       <r>    -0.3126     3.8253    99.8604 </r>
       <r>    -0.2684     2.5267    99.9719 </r>
       <r>    -0.2243     1.8651   100.0542 </r>
       <r>    -0.1802     1.9810   100.1417 </r>
       <r>    -0.1360     2.7220   100.2618 </r>
       <r>    -0.0919     3.7847   100.4288 </r>
       <r>    -0.0478     4.9169   100.6458 </r>
       <r>    -0.0036     6.0396   100.9124 </r>
       <r>     0.0405     7.2077   101.2305 </r>
       <r>     0.0846     8.4496   101.6035 </r>
       <r>     0.1288     9.6163   102.0279 </r>
       <r>     0.1729    10.3674   102.4855 </r>
       <r>     0.2170    10.3223   102.9410 </r>
       <r>     0.2612     9.2830   103.3508 </r>
       <r>     0.3053     7.3812   103.6765 </r>
       <r>     0.3495     5.0462   103.8993 </r>
       <r>     0.3936     2.8135   104.0234 </r>
       <r>     0.4377     1.0960   104.0718 </r>
       <r>     0.4819     0.0518   104.0741 </r>
       <r>     0.5260    -0.4014   104.0564 </r>
       <r>     0.5701    -0.4711   104.0356 </r>
       <r>     0.6143    -0.3666   104.0194 </r>
       <r>     0.6584    -0.2286   104.0093 </r>
       <r>     0.7025    -0.1210   104.0040 </r>
       <r>     0.7467    -0.0557   104.0015 </r>
       <r>     0.7908    -0.0226   104.0005 </r>
       <r>     0.8350    -0.0082   104.0002 </r>
       <r>     0.8791    -0.0026   104.0000 </r>
       <r>     0.9232    -0.0008   104.0000 </r>
       <r>     0.9674    -0.0002   104.0000 </r>
       <r>     1.0115    -0.0000   104.0000 </r>
       <r>     1.0556    -0.0000   104.0000 </r>
       <r>     1.0998    -0.0000   104.0000 </r>
       <r>     1.1439    -0.0000   104.0000 </r>
       <r>     1.1880    -0.0000   104.0000 </r>
       <r>     1.2322    -0.0000   104.0000 </r>
       <r>     1.2763    -0.0000   104.0000 </r>
       <r>     1.3204    -0.0000   104.0000 </r>
       <r>     1.3646    -0.0000   104.0000 </r>
       <r>     1.4087    -0.0000   104.0000 </r>
       <r>     1.4529    -0.0000   104.0000 </r>
       <r>     1.4970    -0.0000   104.0000 </r>
       <r>     1.5411     0.0000   104.0000 </r>
       <r>     1.5853     0.0000   104.0000 </r>
       <r>     1.6294     0.0000   104.0000 </r>
       <r>     1.6735     0.0000   104.0000 </r>
       <r>     1.7177     0.0000   104.0000 </r>
       <r>     1.7618     0.0000   104.0000 </r>
       <r>     1.8059     0.0000   104.0000 </r>
       <r>     1.8501     0.0000   104.0000 </r>
       <r>     1.8942     0.0000   104.0000 </r>
       <r>     1.9384     0.0000   104.0000 </r>
       <r>     1.9825     0.0000   104.0000 </r>
       <r>     2.0266     0.0000   104.0000 </r>
       <r>     2.0708     0.0000   104.0000 </r>
       <r>     2.1149     0.0000   104.0000 </r>
       <r>     2.1590     0.0000   104.0000 </r>
       <r>     2.2032     0.0000   104.0000 </r>
       <r>     2.2473     0.0000   104.0000 </r>
      </set>
     </set>
    </array>
   </total>
  </dos>
 </calculation>
 <structure name="finalpos" >
  <crystal>
   <varray name="basis" >
    <v>      23.99203093       0.00000000       0.00000000 </v>
    <v>       0.00000000      24.69324968       0.00000000 </v>
    <v>       0.00000000       0.00000000      24.17510510 </v>
   </varray>
   <i name="volume">  14322.32852548 </i>
   <varray name="rec_basis" >
    <v>       0.04168051       0.00000000       0.00000000 </v>
    <v>       0.00000000       0.04049690       0.00000000 </v>
    <v>       0.00000000       0.00000000       0.04136487 </v>
   </varray>
  </crystal>
  <varray name="positions" >
   <v>       0.51396620       0.59058036       0.58137015 </v>
   <v>       0.46071720       0.52143622       0.64404081 </v>
   <v>       0.60983505       0.53674016       0.55190712 </v>
   <v>       0.58095756       0.62999408       0.50416684 </v>
   <v>       0.51101131       0.48908471       0.55032689 </v>
   <v>       0.48363600       0.58793057       0.47643763 </v>
   <v>       0.41829191       0.43647676       0.59420557 </v>
   <v>       0.41342029       0.53651544       0.54581969 </v>
   <v>       0.59131287       0.44244681       0.49504465 </v>
   <v>       0.39718969       0.53670808       0.43646483 </v>
   <v>       0.48331040       0.39163574       0.51878601 </v>
   <v>       0.57387210       0.53684453       0.44867574 </v>
   <v>       0.53870692       0.37991601       0.42776284 </v>
   <v>       0.38827170       0.44303337       0.48989871 </v>
   <v>       0.49068172       0.55326863       0.37451564 </v>
   <v>       0.48458059       0.47039585       0.44186138 </v>
  </varray>
 </structure>
</modeling>
