unknown system                          
            1
    23.992031    0.000000    0.000000
     0.000000   24.693250    0.000000
     0.000000    0.000000   24.175105
   Pd
    16
Direct configuration=     1
   0.52141255  0.59220722  0.58642948
   0.45663390  0.52761378  0.63859396
   0.60493411  0.53312180  0.54909349
   0.58138824  0.62507273  0.50478149
   0.50320178  0.49450068  0.54399831
   0.48246828  0.58385546  0.48496810
   0.42342883  0.43946554  0.59501190
   0.40272384  0.53615499  0.54590433
   0.58440010  0.44177217  0.49300723
   0.40064609  0.53321998  0.43612617
   0.48933165  0.39144841  0.51970098
   0.57425133  0.53774239  0.44549238
   0.53731969  0.37556950  0.42751516
   0.39844306  0.44375307  0.49206237
   0.48926592  0.55858197  0.38107232
   0.48991214  0.46892763  0.43752681
Direct configuration=     2
   0.52097081  0.59265319  0.58701660
   0.45677333  0.52806915  0.63994997
   0.60601456  0.53243918  0.54974420
   0.58195688  0.62663183  0.50423006
   0.50364956  0.49429607  0.54461044
   0.48223872  0.58465991  0.48487324
   0.42288860  0.43812417  0.59567524
   0.40206468  0.53713358  0.54603739
   0.58584025  0.44186118  0.49328061
   0.39968621  0.53340016  0.43592822
   0.48893351  0.39060265  0.52047281
   0.57498811  0.53758585  0.44504205
   0.53754701  0.37482974  0.42670694
   0.39742125  0.44284340  0.49142630
   0.48962284  0.55923776  0.37961806
   0.48916519  0.46863950  0.43667234
Direct configuration=     3
   0.52068983  0.59293686  0.58739005
   0.45686201  0.52835880  0.64081249
   0.60670180  0.53200499  0.55015810
   0.58231858  0.62762353  0.50387931
   0.50393437  0.49416592  0.54499981
   0.48209270  0.58517160  0.48481290
   0.42254497  0.43727097  0.59609716
   0.40164540  0.53775603  0.54612202
   0.58675629  0.44191780  0.49345450
   0.39907566  0.53351476  0.43580231
   0.48868027  0.39006468  0.52096374
   0.57545676  0.53748628  0.44475561
   0.53769160  0.37435921  0.42619286
   0.39677131  0.44226479  0.49102172
   0.48984987  0.55965488  0.37869306
   0.48869008  0.46845622  0.43612884
Direct configuration=     4
   0.52080691  0.59300559  0.58694235
   0.45662920  0.52816477  0.64113536
   0.60697409  0.53228361  0.55024982
   0.58232812  0.62768399  0.50382937
   0.50382909  0.49396599  0.54528036
   0.48229431  0.58523278  0.48447205
   0.42235145  0.43712540  0.59608783
   0.40196231  0.53776733  0.54631012
   0.58693043  0.44172321  0.49323955
   0.39900243  0.53362861  0.43583795
   0.48872135  0.39005562  0.52085367
   0.57537443  0.53756106  0.44504581
   0.53774602  0.37461734  0.42655154
   0.39643858  0.44196698  0.49106153
   0.49003825  0.55983576  0.37848495
   0.48833455  0.46838927  0.43590222
Direct configuration=     5
   0.52102697  0.59313478  0.58610090
   0.45619163  0.52780011  0.64174222
   0.60748586  0.53280729  0.55042220
   0.58234604  0.62779763  0.50373551
   0.50363121  0.49359020  0.54580766
   0.48267325  0.58534777  0.48383140
   0.42198772  0.43685180  0.59607028
   0.40255793  0.53778857  0.54666364
   0.58725772  0.44135749  0.49283557
   0.39886479  0.53384260  0.43590493
   0.48879857  0.39003859  0.52064679
   0.57521969  0.53770161  0.44559125
   0.53784830  0.37510251  0.42722570
   0.39581322  0.44140724  0.49113635
   0.49039230  0.56017573  0.37809381
   0.48766632  0.46826342  0.43547629
Direct configuration=     6
   0.52078869  0.59277176  0.58570161
   0.45609359  0.52764737  0.64191211
   0.60763485  0.53300951  0.55045793
   0.58253578  0.62806722  0.50356766
   0.50393715  0.49332042  0.54604226
   0.48280492  0.58527148  0.48323862
   0.42174114  0.43672141  0.59593987
   0.40318350  0.53771808  0.54676564
   0.58739145  0.44164018  0.49283432
   0.39898160  0.53390996  0.43614898
   0.48863188  0.39020664  0.52067706
   0.57485796  0.53757203  0.44608246
   0.53795328  0.37522113  0.42736639
   0.39545619  0.44121048  0.49116951
   0.49061658  0.56026177  0.37796535
   0.48715296  0.46845790  0.43541471
Direct configuration=     7
   0.52010585  0.59173147  0.58455734
   0.45581266  0.52720965  0.64239899
   0.60806180  0.53358899  0.55056031
   0.58307951  0.62883979  0.50308667
   0.50481389  0.49254730  0.54671455
   0.48318226  0.58505286  0.48153988
   0.42103450  0.43634777  0.59556618
   0.40497621  0.53751609  0.54705794
   0.58777470  0.44245027  0.49283073
   0.39931634  0.53410299  0.43684839
   0.48815419  0.39068821  0.52076380
   0.57382137  0.53720066  0.44749013
   0.53825411  0.37556109  0.42776957
   0.39443305  0.44064661  0.49126454
   0.49125930  0.56050835  0.37759722
   0.48568179  0.46901522  0.43523825
Direct configuration=     8
   0.51954007  0.59117384  0.58400846
   0.45594957  0.52696143  0.64255591
   0.60829356  0.53384205  0.55077238
   0.58314446  0.62910136  0.50293420
   0.50548990  0.49206118  0.54701090
   0.48334362  0.58539667  0.48129329
   0.42076082  0.43633739  0.59552468
   0.40580460  0.53743111  0.54698499
   0.58787864  0.44268539  0.49298503
   0.39911686  0.53417596  0.43710171
   0.48781785  0.39093125  0.52068318
   0.57347974  0.53711299  0.44783346
   0.53829318  0.37591896  0.42787804
   0.39392787  0.44057360  0.49115113
   0.49148308  0.56043948  0.37706864
   0.48543769  0.46886467  0.43549848
Direct configuration=     9
   0.51863740  0.59028418  0.58313276
   0.45616801  0.52656540  0.64280628
   0.60866332  0.53424579  0.55111072
   0.58324809  0.62951869  0.50269094
   0.50656843  0.49128562  0.54748369
   0.48360108  0.58594520  0.48089988
   0.42032419  0.43632082  0.59545847
   0.40712625  0.53729554  0.54686859
   0.58804447  0.44306049  0.49323121
   0.39879860  0.53429238  0.43750587
   0.48728123  0.39131900  0.52055455
   0.57293468  0.53697310  0.44838123
   0.53835550  0.37648993  0.42805110
   0.39312189  0.44045711  0.49097019
   0.49184011  0.56032960  0.37622534
   0.48504825  0.46862448  0.43591367
Direct configuration=    10
   0.51808336  0.59013338  0.58280250
   0.45655310  0.52609116  0.64303264
   0.60908328  0.53458490  0.55141514
   0.58300143  0.62949400  0.50277294
   0.50711877  0.49081495  0.54791717
   0.48337273  0.58657226  0.48043454
   0.42013697  0.43652874  0.59549119
   0.40799434  0.53716198  0.54659396
   0.58845366  0.44276510  0.49353076
   0.39869912  0.53442745  0.43751858
   0.48671602  0.39128447  0.52036267
   0.57280221  0.53721631  0.44822024
   0.53839819  0.37690765  0.42801755
   0.39248579  0.44062273  0.49075502
   0.49178620  0.55972067  0.37609239
   0.48507636  0.46868158  0.43632720
Direct configuration=    11
   0.51691943  0.58981659  0.58210869
   0.45736209  0.52509487  0.64350817
   0.60996553  0.53529729  0.55205466
   0.58248324  0.62944214  0.50294521
   0.50827490  0.48982619  0.54882782
   0.48289301  0.58788957  0.47945696
   0.41974366  0.43696552  0.59555994
   0.40981803  0.53688142  0.54601701
   0.58931326  0.44214454  0.49416005
   0.39849014  0.53471119  0.43754527
   0.48552862  0.39121193  0.51995956
   0.57252391  0.53772723  0.44788203
   0.53848785  0.37778521  0.42794707
   0.39114950  0.44097066  0.49030300
   0.49167294  0.55844143  0.37581311
   0.48513541  0.46880153  0.43719593
Direct configuration=    12
   0.51641358  0.58992162  0.58194011
   0.45799237  0.52449662  0.64377033
   0.60994933  0.53551478  0.55174641
   0.58203741  0.62934414  0.50333720
   0.50913087  0.48966004  0.54906841
   0.48268306  0.58844460  0.47867285
   0.41947783  0.43708125  0.59530299
   0.41084598  0.53669418  0.54592112
   0.58977298  0.44228501  0.49455725
   0.39843726  0.53491377  0.43712380
   0.48473940  0.39112688  0.51959462
   0.57272022  0.53752353  0.44834781
   0.53857172  0.37805822  0.42778041
   0.39051876  0.44125913  0.49022012
   0.49124857  0.55744312  0.37576764
   0.48522216  0.46924043  0.43813340
Direct configuration=    13
   0.51573373  0.59006278  0.58171355
   0.45883947  0.52369257  0.64412267
   0.60992755  0.53580709  0.55133212
   0.58143823  0.62921242  0.50386403
   0.51028129  0.48943674  0.54939175
   0.48240087  0.58919054  0.47761902
   0.41912057  0.43723679  0.59495765
   0.41222755  0.53644254  0.54579226
   0.59039083  0.44247379  0.49509109
   0.39836619  0.53518604  0.43655735
   0.48367870  0.39101257  0.51910415
   0.57298405  0.53724976  0.44897380
   0.53868445  0.37842514  0.42755642
   0.38967106  0.44164683  0.49010874
   0.49067822  0.55610139  0.37570653
   0.48533876  0.46983032  0.43939335
Direct configuration=    14
   0.51487219  0.59030542  0.58170352
   0.45976348  0.52295996  0.64422046
   0.61018789  0.53593276  0.55124577
   0.58098884  0.62965652  0.50426496
   0.51055567  0.48919950  0.54972102
   0.48261133  0.58949410  0.47697469
   0.41885982  0.43718968  0.59448794
   0.41340114  0.53626332  0.54563921
   0.59091188  0.44210802  0.49508687
   0.39796497  0.53548580  0.43606854
   0.48308702  0.39133232  0.51844099
   0.57303345  0.53695526  0.44931763
   0.53878747  0.37908575  0.42782386
   0.38906296  0.44214698  0.49008143
   0.49029512  0.55500952  0.37520199
   0.48537829  0.46988241  0.44100562
Direct configuration=    15
   0.51482786  0.59031790  0.58170300
   0.45981102  0.52292227  0.64422549
   0.61020128  0.53593922  0.55124132
   0.58096572  0.62967937  0.50428558
   0.51056978  0.48918729  0.54973796
   0.48262216  0.58950972  0.47694154
   0.41884640  0.43718726  0.59446377
   0.41346151  0.53625410  0.54563134
   0.59093869  0.44208920  0.49508665
   0.39794433  0.53550122  0.43604340
   0.48305658  0.39134877  0.51840687
   0.57303599  0.53694011  0.44933532
   0.53879277  0.37911974  0.42783761
   0.38903168  0.44217272  0.49008002
   0.49027541  0.55495335  0.37517603
   0.48538032  0.46988509  0.44108857
Direct configuration=    16
   0.51454935  0.59038476  0.58161789
   0.46018123  0.52257942  0.64421604
   0.61029270  0.53598441  0.55154271
   0.58091010  0.63001998  0.50434814
   0.51069431  0.48912687  0.55000469
   0.48295612  0.58919839  0.47673242
   0.41874541  0.43691334  0.59442976
   0.41352109  0.53641401  0.54540306
   0.59120471  0.44184105  0.49507306
   0.39781546  0.53570839  0.43610270
   0.48313728  0.39145434  0.51850691
   0.57279944  0.53704329  0.44914530
   0.53891509  0.37920731  0.42783321
   0.38864426  0.44246114  0.48995065
   0.49030695  0.55452912  0.37498750
   0.48508802  0.47014149  0.44139044
Direct configuration=    17
   0.51448842  0.59039939  0.58159927
   0.46026222  0.52250441  0.64421398
   0.61031271  0.53599429  0.55160864
   0.58089792  0.63009450  0.50436183
   0.51072155  0.48911365  0.55006305
   0.48302919  0.58913028  0.47668667
   0.41872331  0.43685342  0.59442232
   0.41353413  0.53644899  0.54535312
   0.59126291  0.44178676  0.49507008
   0.39778727  0.53575371  0.43611567
   0.48315494  0.39147744  0.51852880
   0.57274769  0.53706587  0.44910373
   0.53894185  0.37922648  0.42783224
   0.38855950  0.44252424  0.48992234
   0.49031385  0.55443631  0.37494625
   0.48502407  0.47019759  0.44145648
Direct configuration=    18
   0.51440959  0.59043006  0.58139820
   0.46045310  0.52214542  0.64406985
   0.61007974  0.53611747  0.55166352
   0.58091684  0.63018158  0.50443055
   0.51100980  0.48904650  0.55026440
   0.48325360  0.58880509  0.47659177
   0.41865112  0.43665837  0.59437663
   0.41344062  0.53655358  0.54539413
   0.59130488  0.44195762  0.49510607
   0.39759089  0.53609363  0.43619848
   0.48334420  0.39163051  0.51867166
   0.57291575  0.53703947  0.44917662
   0.53890749  0.37937369  0.42782181
   0.38826712  0.44269677  0.48989052
   0.49039638  0.55414559  0.37464764
   0.48482040  0.47013197  0.44158266
Direct configuration=    19
   0.51437378  0.59044399  0.58130686
   0.46053981  0.52198235  0.64400438
   0.60997391  0.53617343  0.55168844
   0.58092543  0.63022114  0.50446177
   0.51114073  0.48901599  0.55035586
   0.48335555  0.58865736  0.47654866
   0.41861833  0.43656976  0.59435587
   0.41339814  0.53660109  0.54541276
   0.59132394  0.44203524  0.49512241
   0.39750169  0.53624805  0.43623609
   0.48343018  0.39170004  0.51873655
   0.57299209  0.53702748  0.44920973
   0.53889188  0.37944057  0.42781707
   0.38813431  0.44277514  0.48987606
   0.49043388  0.55401353  0.37451199
   0.48472788  0.47010216  0.44163998
Direct configuration=    20
   0.51423944  0.59047860  0.58126989
   0.46063629  0.52163528  0.64377768
   0.60989263  0.53640975  0.55178464
   0.58101538  0.63023005  0.50444326
   0.51105145  0.48897407  0.55055626
   0.48336111  0.58828668  0.47633872
   0.41857575  0.43657413  0.59416807
   0.41344196  0.53648896  0.54563314
   0.59133315  0.44221962  0.49507259
   0.39742797  0.53657239  0.43632095
   0.48350930  0.39179899  0.51885101
   0.57333179  0.53691745  0.44910845
   0.53881984  0.37964295  0.42783750
   0.38807256  0.44293789  0.48998162
   0.49051059  0.55365686  0.37450078
   0.48454228  0.47018363  0.44163993
Direct configuration=    21
   0.51425309  0.59047509  0.58127365
   0.46062649  0.52167054  0.64380070
   0.60990089  0.53638574  0.55177486
   0.58100625  0.63022915  0.50444514
   0.51106052  0.48897833  0.55053590
   0.48336054  0.58832434  0.47636005
   0.41858008  0.43657369  0.59418715
   0.41343751  0.53650035  0.54561075
   0.59133221  0.44220089  0.49507765
   0.39743546  0.53653944  0.43631233
   0.48350126  0.39178894  0.51883939
   0.57329729  0.53692862  0.44911873
   0.53882716  0.37962239  0.42783542
   0.38807883  0.44292136  0.48997090
   0.49050280  0.55369310  0.37450192
   0.48456113  0.47017536  0.44163994
Direct configuration=    22
   0.51415489  0.59057037  0.58128767
   0.46065451  0.52154979  0.64392578
   0.60990319  0.53656882  0.55186065
   0.58098744  0.63011469  0.50434274
   0.51104832  0.48896625  0.55043658
   0.48347839  0.58817823  0.47636171
   0.41844968  0.43652367  0.59414113
   0.41342381  0.53646982  0.54568351
   0.59128565  0.44230827  0.49503731
   0.39734073  0.53662304  0.43637157
   0.48346167  0.39174106  0.51879830
   0.57352187  0.53688106  0.44893681
   0.53876399  0.37977539  0.42785601
   0.38817158  0.44299476  0.48998568
   0.49057821  0.55346070  0.37456273
   0.48453760  0.47028141  0.44169632
Direct configuration=    23
   0.51410578  0.59061801  0.58129468
   0.46066852  0.52148941  0.64398833
   0.60990434  0.53666037  0.55190355
   0.58097803  0.63005745  0.50429153
   0.51104222  0.48896021  0.55038691
   0.48353732  0.58810516  0.47636254
   0.41838447  0.43649866  0.59411811
   0.41341695  0.53645455  0.54571989
   0.59126237  0.44236196  0.49501713
   0.39729336  0.53666484  0.43640120
   0.48344187  0.39171712  0.51877776
   0.57363418  0.53685728  0.44884583
   0.53873241  0.37985189  0.42786631
   0.38821796  0.44303147  0.48999307
   0.49061592  0.55334449  0.37459314
   0.48452583  0.47033445  0.44172451
Direct configuration=    24
   0.51395492  0.59057731  0.58137625
   0.46072113  0.52143192  0.64404505
   0.60982945  0.53674661  0.55190741
   0.58095591  0.62998896  0.50415676
   0.51100881  0.48909477  0.55032204
   0.48364397  0.58791646  0.47644370
   0.41828443  0.43647499  0.59421264
   0.41342056  0.53652036  0.54582775
   0.59131695  0.44245367  0.49504687
   0.39718131  0.53671158  0.43646997
   0.48329978  0.39162916  0.51878668
   0.57389132  0.53684350  0.44866200
   0.53870486  0.37992119  0.42775448
   0.38827604  0.44303352  0.48989108
   0.49068704  0.55326250  0.37450938
   0.48458501  0.47040081  0.44187244
Direct configuration=    25
   0.51396620  0.59058036  0.58137015
   0.46071720  0.52143622  0.64404081
   0.60983505  0.53674016  0.55190712
   0.58095756  0.62999408  0.50416684
   0.51101131  0.48908471  0.55032689
   0.48363600  0.58793057  0.47643763
   0.41829191  0.43647676  0.59420557
   0.41342029  0.53651544  0.54581969
   0.59131287  0.44244681  0.49504465
   0.39718969  0.53670808  0.43646483
   0.48331040  0.39163574  0.51878601
   0.57387210  0.53684453  0.44867574
   0.53870692  0.37991601  0.42776284
   0.38827170  0.44303337  0.48989871
   0.49068172  0.55326863  0.37451564
   0.48458059  0.47039585  0.44186138
